<event>
 4    1 -0.6532506E-004  0.1720860E+03  0.7818608E-02  0.1175690E+00
         -5   -1    0    0    0  501 -0.00000000000E+00  0.00000000000E+00  0.11499690655E+03  0.11509291254E+03  0.47000000000E+01 0.  1.
          5   -1    0    0  501    0  0.00000000000E+00 -0.00000000000E+00 -0.35313335775E+03  0.35316463350E+03  0.47000000000E+01 0. -1.
          6    1    1    2  502    0 -0.31935762321E+01  0.44019968006E+01 -0.24101813921E+03  0.29614746315E+03  0.17200000000E+03 0. -1.
         -6    1    1    2    0  502  0.31935762321E+01 -0.44019968006E+01  0.28816880136E+01  0.17211008289E+03  0.17200000000E+03 0.  1.
</event>
<event>
 4    1 -0.6532506E-004  0.2410705E+03  0.7818608E-02  0.1119082E+00
         -5   -1    0    0    0  501 -0.00000000000E+00  0.00000000000E+00  0.17216727140E+03  0.17223141217E+03  0.47000000000E+01 0.  1.
          5   -1    0    0  501    0  0.00000000000E+00 -0.00000000000E+00 -0.37936993683E+03  0.37939904977E+03  0.47000000000E+01 0. -1.
          6    1    1    2  502    0  0.61369685055E+02  0.15736825317E+03 -0.19532237385E+03  0.31026736063E+03  0.17200000000E+03 0. -1.
         -6    1    1    2    0  502 -0.61369685055E+02 -0.15736825317E+03 -0.11880291584E+02  0.24136310132E+03  0.17200000000E+03 0.  1.
</event>
<event>
 4    1 -0.6532506E-004  0.1800588E+03  0.7818608E-02  0.1167746E+00
         -5   -1    0    0    0  501 -0.00000000000E+00  0.00000000000E+00  0.11731300963E+03  0.11740712171E+03  0.47000000000E+01 0.  1.
          5   -1    0    0  501    0  0.00000000000E+00 -0.00000000000E+00 -0.32616054770E+03  0.32619440963E+03  0.47000000000E+01 0. -1.
          6    1    1    2  502    0 -0.45725699448E+02  0.27318841447E+02 -0.19126698323E+03  0.26268653860E+03  0.17200000000E+03 0. -1.
         -6    1    1    2    0  502  0.45725699448E+02 -0.27318841447E+02 -0.17580554841E+02  0.18091499274E+03  0.17200000000E+03 0.  1.
</event>
<event>
 4    1 -0.6532506E-004  0.2758127E+03  0.7818608E-02  0.1097998E+00
          5   -1    0    0  501    0  0.00000000000E+00  0.00000000000E+00  0.19459468862E+03  0.19465143935E+03  0.47000000000E+01 0. -1.
         -5   -1    0    0    0  501 -0.00000000000E+00 -0.00000000000E+00 -0.39116250556E+03  0.39119074088E+03  0.47000000000E+01 0.  1.
          6    1    1    2  502    0  0.17183869743E+03  0.13023097994E+03 -0.89377591987E+02  0.28993275086E+03  0.17200000000E+03 0. -1.
         -6    1    1    2    0  502 -0.17183869743E+03 -0.13023097994E+03 -0.10719022495E+03  0.29590942938E+03  0.17200000000E+03 0.  1.
</event>
<event>
 4    1 -0.6532506E-004  0.1872765E+03  0.7818608E-02  0.1160941E+00
          5   -1    0    0  501    0  0.00000000000E+00  0.00000000000E+00  0.17182790233E+03  0.17189216975E+03  0.47000000000E+01 0. -1.
         -5   -1    0    0    0  501 -0.00000000000E+00 -0.00000000000E+00 -0.34150356861E+03  0.34153590935E+03  0.47000000000E+01 0.  1.
          6    1    1    2  502    0 -0.24161874695E+02  0.70033384480E+02  0.78041205630E+02  0.20288642366E+03  0.17200000000E+03 0. -1.
         -6    1    1    2    0  502  0.24161874695E+02 -0.70033384480E+02 -0.24771687190E+03  0.31054165543E+03  0.17200000000E+03 0.  1.
</event>
<event>
 4    1 -0.6532506E-004  0.3212028E+03  0.7818608E-02  0.1075097E+00
         -5   -1    0    0    0  501 -0.00000000000E+00  0.00000000000E+00  0.89933990984E+03  0.89935219099E+03  0.47000000000E+01 0.  1.
          5   -1    0    0  501    0  0.00000000000E+00 -0.00000000000E+00 -0.12485929869E+03  0.12494772695E+03  0.47000000000E+01 0. -1.
          6    1    1    2  502    0  0.94396442122E+02  0.25431589661E+03  0.53357240899E+03  0.62279272571E+03  0.17200000000E+03 0. -1.
         -6    1    1    2    0  502 -0.94396442122E+02 -0.25431589661E+03  0.24090820215E+03  0.40150719223E+03  0.17200000000E+03 0. -1.
</event>
<event>
 4    1 -0.6532506E-004  0.2005753E+03  0.7818608E-02  0.1149255E+00
          5   -1    0    0  501    0  0.00000000000E+00  0.00000000000E+00  0.58075111110E+02  0.58264985458E+02  0.47000000000E+01 0. -1.
         -5   -1    0    0    0  501 -0.00000000000E+00 -0.00000000000E+00 -0.76692509803E+03  0.76693949956E+03  0.47000000000E+01 0.  1.
          6    1    1    2  502    0 -0.80445250722E+02  0.64614190155E+02 -0.22496509148E+03  0.30139629115E+03  0.17200000000E+03 0. -1.
         -6    1    1    2    0  502  0.80445250722E+02 -0.64614190155E+02 -0.48388489543E+03  0.52380819387E+03  0.17200000000E+03 0.  1.
</event>
<event>
 4    1 -0.6532506E-004  0.2048678E+03  0.7818608E-02  0.1145696E+00
         -5   -1    0    0    0  501 -0.00000000000E+00  0.00000000000E+00  0.54558839461E+03  0.54560863843E+03  0.47000000000E+01 0.  1.
          5   -1    0    0  501    0  0.00000000000E+00 -0.00000000000E+00 -0.78350025803E+02  0.78490869172E+02  0.47000000000E+01 0. -1.
          6    1    1    2  502    0 -0.11099671455E+03 -0.81571311408E+01  0.19025914676E+03  0.27958782583E+03  0.17200000000E+03 0.  1.
         -6    1    1    2    0  502  0.11099671455E+03  0.81571311408E+01  0.27697922205E+03  0.34451168177E+03  0.17200000000E+03 0.  1.
</event>
<event>
 4    1 -0.6532506E-004  0.1753369E+03  0.7818608E-02  0.1172394E+00
          5   -1    0    0  501    0  0.00000000000E+00  0.00000000000E+00  0.22389910704E+03  0.22394843186E+03  0.47000000000E+01 0. -1.
         -5   -1    0    0    0  501 -0.00000000000E+00 -0.00000000000E+00 -0.14072318310E+03  0.14080164865E+03  0.47000000000E+01 0.  1.
          6    1    1    2  502    0 -0.74639529552E+01  0.33216474648E+02  0.70419863437E+02  0.18894973392E+03  0.17200000000E+03 0. -1.
         -6    1    1    2    0  502  0.74639529552E+01 -0.33216474648E+02  0.12756060505E+02  0.17580034659E+03  0.17200000000E+03 0.  1.
</event>
<event>
 4    1 -0.6532506E-004  0.2653367E+03  0.7818608E-02  0.1103979E+00
          5   -1    0    0  501    0  0.00000000000E+00  0.00000000000E+00  0.42395002126E+03  0.42397607305E+03  0.47000000000E+01 0. -1.
         -5   -1    0    0    0  501 -0.00000000000E+00 -0.00000000000E+00 -0.17830832899E+03  0.17837026150E+03  0.47000000000E+01 0.  1.
          6    1    1    2  502    0  0.16969779643E+01  0.20203138101E+03  0.43717042292E+02  0.26891399821E+03  0.17200000000E+03 0. -1.
         -6    1    1    2    0  502 -0.16969779643E+01 -0.20203138101E+03  0.20192464998E+03  0.33343233634E+03  0.17200000000E+03 0. -1.
</event>
<event>
 4    1 -0.6532506E-004  0.1929242E+03  0.7818608E-02  0.1155850E+00
         -5   -1    0    0    0  501 -0.00000000000E+00  0.00000000000E+00  0.79483386451E+02  0.79622225049E+02  0.47000000000E+01 0.  1.
          5   -1    0    0  501    0  0.00000000000E+00 -0.00000000000E+00 -0.48914870979E+03  0.48917128931E+03  0.47000000000E+01 0. -1.
          6    1    1    2  502    0  0.51838375531E+02  0.70345863393E+02 -0.26435981241E+03  0.32727032876E+03  0.17200000000E+03 0. -1.
         -6    1    1    2    0  502 -0.51838375531E+02 -0.70345863393E+02 -0.14530551093E+03  0.24152318560E+03  0.17200000000E+03 0.  1.
</event>
<event>
 4    1 -0.6532506E-004  0.4118535E+03  0.7818608E-02  0.1039751E+00
         -5   -1    0    0    0  501 -0.00000000000E+00  0.00000000000E+00  0.11270729258E+04  0.11270827255E+04  0.47000000000E+01 0.  1.
          5   -1    0    0  501    0  0.00000000000E+00 -0.00000000000E+00 -0.29132148882E+03  0.29135939980E+03  0.47000000000E+01 0. -1.
          6    1    1    2  502    0 -0.35370221515E+03 -0.12220489290E+03 -0.75247395894E+02  0.41867106831E+03  0.17200000000E+03 0. -1.
         -6    1    1    2    0  502  0.35370221515E+03  0.12220489290E+03  0.91099883291E+03  0.99977105700E+03  0.17200000000E+03 0.  1.
</event>
<event>
 4    1 -0.6532506E-004  0.1868037E+03  0.7818608E-02  0.1161376E+00
          5   -1    0    0  501    0  0.00000000000E+00  0.00000000000E+00  0.32345937047E+03  0.32349351515E+03  0.47000000000E+01 0. -1.
         -5   -1    0    0    0  501 -0.00000000000E+00 -0.00000000000E+00 -0.11485078241E+03  0.11494691044E+03  0.47000000000E+01 0.  1.
          6    1    1    2  502    0  0.22651870273E+02  0.69271304461E+02  0.15862205166E+03  0.24506443259E+03  0.17200000000E+03 0. -1.
         -6    1    1    2    0  502 -0.22651870273E+02 -0.69271304461E+02  0.49986536398E+02  0.19337599300E+03  0.17200000000E+03 0.  1.
</event>
<event>
 4    1 -0.6532506E-004  0.2452141E+03  0.7818608E-02  0.1116367E+00
         -5   -1    0    0    0  501 -0.00000000000E+00  0.00000000000E+00  0.19303424042E+03  0.19309144977E+03  0.47000000000E+01 0.  1.
          5   -1    0    0  501    0  0.00000000000E+00 -0.00000000000E+00 -0.32487717570E+03  0.32491117139E+03  0.47000000000E+01 0. -1.
          6    1    1    2  502    0 -0.23413360038E+02  0.17319864635E+03 -0.11870974512E+03  0.27243707551E+03  0.17200000000E+03 0. -1.
         -6    1    1    2    0  502  0.23413360038E+02 -0.17319864635E+03 -0.13133190161E+02  0.24556554565E+03  0.17200000000E+03 0.  1.
</event>
<event>
 4    1 -0.6532506E-004  0.2188164E+03  0.7818608E-02  0.1134769E+00
         -5   -1    0    0    0  501 -0.00000000000E+00  0.00000000000E+00  0.19833996872E+03  0.19839564811E+03  0.47000000000E+01 0.  1.
          5   -1    0    0  501    0  0.00000000000E+00 -0.00000000000E+00 -0.25024294754E+03  0.25028708076E+03  0.47000000000E+01 0. -1.
          6    1    1    2  502    0 -0.24836362130E+02 -0.13296526874E+03 -0.68366513342E+02  0.22924787397E+03  0.17200000000E+03 0.  1.
         -6    1    1    2    0  502  0.24836362130E+02  0.13296526874E+03  0.16463534516E+02  0.21943485490E+03  0.17200000000E+03 0. -1.
</event>
<event>
 4    1 -0.6532506E-004  0.1882340E+03  0.7818608E-02  0.1160064E+00
          5   -1    0    0  501    0  0.00000000000E+00  0.00000000000E+00  0.31497382904E+02  0.31846116401E+02  0.47000000000E+01 0. -1.
         -5   -1    0    0    0  501 -0.00000000000E+00 -0.00000000000E+00 -0.17450890706E+04  0.17450953997E+04  0.47000000000E+01 0.  1.
          6    1    1    2  502    0  0.28154254714E+01 -0.76420559297E+02 -0.32441136079E+03  0.37506634015E+03  0.17200000000E+03 0. -1.
         -6    1    1    2    0  502 -0.28154254714E+01  0.76420559297E+02 -0.13891803269E+04  0.14018751760E+04  0.17200000000E+03 0.  1.
</event>
<event>
 4    1 -0.6532506E-004  0.1977130E+03  0.7818608E-02  0.1151683E+00
          5   -1    0    0  501    0  0.00000000000E+00  0.00000000000E+00  0.12902548950E+03  0.12911106437E+03  0.47000000000E+01 0. -1.
         -5   -1    0    0    0  501 -0.00000000000E+00 -0.00000000000E+00 -0.60236136045E+03  0.60237969634E+03  0.47000000000E+01 0.  1.
          6    1    1    2  502    0  0.96040639173E+02 -0.16811898231E+02  0.21248838615E+02  0.19885159652E+03  0.17200000000E+03 0. -1.
         -6    1    1    2    0  502 -0.96040639173E+02  0.16811898231E+02 -0.49458470956E+03  0.53263916419E+03  0.17200000000E+03 0.  1.
</event>
<event>
 4    1 -0.6532506E-004  0.1779920E+03  0.7818608E-02  0.1169761E+00
          5   -1    0    0  501    0  0.00000000000E+00  0.00000000000E+00  0.10825679008E+04  0.10825781034E+04  0.47000000000E+01 0. -1.
         -5   -1    0    0    0  501 -0.00000000000E+00 -0.00000000000E+00 -0.34964064202E+02  0.35278545683E+02  0.47000000000E+01 0.  1.
          6    1    1    2  502    0 -0.70212144191E+01 -0.45253388285E+02  0.29539517321E+03  0.34487602839E+03  0.17200000000E+03 0.  1.
         -6    1    1    2    0  502  0.70212144191E+01  0.45253388285E+02  0.75220866342E+03  0.77298062066E+03  0.17200000000E+03 0. -1.
</event>
<event>
 4    1 -0.6532506E-004  0.2475088E+03  0.7818608E-02  0.1114889E+00
         -5   -1    0    0    0  501 -0.00000000000E+00  0.00000000000E+00  0.12968649629E+03  0.12977163527E+03  0.47000000000E+01 0.  1.
          5   -1    0    0  501    0  0.00000000000E+00 -0.00000000000E+00 -0.51746793626E+03  0.51748928014E+03  0.47000000000E+01 0. -1.
          6    1    1    2  502    0  0.17360401765E+03 -0.39220365206E+02 -0.28968259453E+03  0.38102046869E+03  0.17200000000E+03 0. -1.
         -6    1    1    2    0  502 -0.17360401765E+03  0.39220365206E+02 -0.98098845442E+02  0.26624044672E+03  0.17200000000E+03 0.  1.
</event>
<event>
 4    1 -0.6532506E-004  0.1809878E+03  0.7818608E-02  0.1166850E+00
         -5   -1    0    0    0  501 -0.00000000000E+00  0.00000000000E+00  0.55103257451E+03  0.55105261833E+03  0.47000000000E+01 0.  1.
          5   -1    0    0  501    0  0.00000000000E+00 -0.00000000000E+00 -0.63874244612E+02  0.64046929082E+02  0.47000000000E+01 0. -1.
          6    1    1    2  502    0  0.56315344006E+02  0.10778527676E+01  0.16169067330E+03  0.24269415644E+03  0.17200000000E+03 0. -1.
         -6    1    1    2    0  502 -0.56315344006E+02 -0.10778527676E+01  0.32546765660E+03  0.37240539098E+03  0.17200000000E+03 0.  1.
</event>
<event>
 4    1 -0.6532506E-004  0.3181599E+03  0.7818608E-02  0.1076499E+00
         -5   -1    0    0    0  501 -0.00000000000E+00  0.00000000000E+00  0.37414398170E+03  0.37417350125E+03  0.47000000000E+01 0.  1.
          5   -1    0    0  501    0  0.00000000000E+00 -0.00000000000E+00 -0.27268958033E+03  0.27273008125E+03  0.47000000000E+01 0. -1.
          6    1    1    2  502    0  0.11620608703E+03  0.24111789954E+03  0.21695376633E+02  0.31889870728E+03  0.17200000000E+03 0.  1.
         -6    1    1    2    0  502 -0.11620608703E+03 -0.24111789954E+03  0.79759024738E+02  0.32800487522E+03  0.17200000000E+03 0. -1.
</event>
<event>
 4    1 -0.6532506E-004  0.1895134E+03  0.7818608E-02  0.1158901E+00
          5   -1    0    0  501    0  0.00000000000E+00  0.00000000000E+00  0.98826409770E+02  0.98938108270E+02  0.47000000000E+01 0. -1.
         -5   -1    0    0    0  501 -0.00000000000E+00 -0.00000000000E+00 -0.73372596753E+03  0.73374102068E+03  0.47000000000E+01 0.  1.
          6    1    1    2  502    0  0.75133861046E+02 -0.26196052773E+02 -0.21568846751E+02  0.19073684858E+03  0.17200000000E+03 0. -1.
         -6    1    1    2    0  502 -0.75133861046E+02  0.26196052773E+02 -0.61333071101E+03  0.64194228037E+03  0.17200000000E+03 0.  1.
</event>
<event>
 4    1 -0.6532506E-004  0.1727795E+03  0.7818608E-02  0.1174980E+00
         -5   -1    0    0    0  501 -0.00000000000E+00  0.00000000000E+00  0.81176742327E+02  0.81312689630E+02  0.47000000000E+01 0.  1.
          5   -1    0    0  501    0  0.00000000000E+00 -0.00000000000E+00 -0.39512264272E+03  0.39515059508E+03  0.47000000000E+01 0. -1.
          6    1    1    2  502    0  0.14813230220E+02  0.70235234933E+01 -0.22018622663E+03  0.27988343300E+03  0.17200000000E+03 0. -1.
         -6    1    1    2    0  502 -0.14813230220E+02 -0.70235234933E+01 -0.93759673761E+02  0.19657985170E+03  0.17200000000E+03 0.  1.
</event>
<event>
 4    1 -0.6532506E-004  0.2774729E+03  0.7818608E-02  0.1097077E+00
          5   -1    0    0  501    0  0.00000000000E+00  0.00000000000E+00  0.21915347258E+03  0.21920386525E+03  0.47000000000E+01 0. -1.
         -5   -1    0    0    0  501 -0.00000000000E+00 -0.00000000000E+00 -0.35765423959E+03  0.35768512004E+03  0.47000000000E+01 0.  1.
          6    1    1    2  502    0  0.40556865951E+02  0.21392130653E+03 -0.30522137283E+02  0.27914653074E+03  0.17200000000E+03 0. -1.
         -6    1    1    2    0  502 -0.40556865951E+02 -0.21392130653E+03 -0.10797862973E+03  0.29774245455E+03  0.17200000000E+03 0.  1.
</event>
<event>
 4    1 -0.6532506E-004  0.1795038E+03  0.7818608E-02  0.1168284E+00
         -5   -1    0    0    0  501 -0.00000000000E+00  0.00000000000E+00  0.22356834758E+03  0.22361774536E+03  0.47000000000E+01 0.  1.
          5   -1    0    0  501    0  0.00000000000E+00 -0.00000000000E+00 -0.17265813068E+03  0.17272208918E+03  0.47000000000E+01 0. -1.
          6    1    1    2  502    0 -0.35257078017E+02  0.37343734088E+02 -0.55224107787E+02  0.18780659761E+03  0.17200000000E+03 0. -1.
         -6    1    1    2    0  502  0.35257078017E+02 -0.37343734088E+02  0.10613432468E+03  0.20853323692E+03  0.17200000000E+03 0.  1.
</event>
<event>
 4    1 -0.6532506E-004  0.1830746E+03  0.7818608E-02  0.1164860E+00
         -5   -1    0    0    0  501 -0.00000000000E+00  0.00000000000E+00  0.70471141557E+02  0.70627698479E+02  0.47000000000E+01 0.  1.
          5   -1    0    0  501    0  0.00000000000E+00 -0.00000000000E+00 -0.55753311930E+03  0.55755292943E+03  0.47000000000E+01 0. -1.
          6    1    1    2  502    0  0.20873383587E+02 -0.59132144080E+02 -0.12263623732E+03  0.22035415882E+03  0.17200000000E+03 0.  1.
         -6    1    1    2    0  502 -0.20873383587E+02  0.59132144080E+02 -0.36442574042E+03  0.40782646908E+03  0.17200000000E+03 0.  1.
</event>
<event>
 4    1 -0.6532506E-004  0.1810184E+03  0.7818608E-02  0.1166821E+00
         -5   -1    0    0    0  501 -0.00000000000E+00  0.00000000000E+00  0.19680088920E+04  0.19680145043E+04  0.47000000000E+01 0.  1.
          5   -1    0    0  501    0  0.00000000000E+00 -0.00000000000E+00 -0.17434708090E+02  0.18057105144E+02  0.47000000000E+01 0. -1.
          6    1    1    2  502    0  0.51385725272E+02  0.23305746323E+02  0.72793386620E+03  0.75010356894E+03  0.17200000000E+03 0. -1.
         -6    1    1    2    0  502 -0.51385725272E+02 -0.23305746323E+02  0.12226403177E+04  0.12359680405E+04  0.17200000000E+03 0.  1.
</event>
<event>
 4    1 -0.6532506E-004  0.1889416E+03  0.7818608E-02  0.1159419E+00
         -5   -1    0    0    0  501 -0.00000000000E+00  0.00000000000E+00  0.83629614912E+02  0.83761581231E+02  0.47000000000E+01 0.  1.
          5   -1    0    0  501    0  0.00000000000E+00 -0.00000000000E+00 -0.49047951141E+03  0.49050202967E+03  0.47000000000E+01 0. -1.
          6    1    1    2  502    0 -0.76955528120E+02  0.13884817004E+02 -0.30720203062E+03  0.36065500006E+03  0.17200000000E+03 0. -1.
         -6    1    1    2    0  502  0.76955528120E+02 -0.13884817004E+02 -0.99647865876E+02  0.21360861084E+03  0.17200000000E+03 0. -1.
</event>
<event>
 4    1 -0.6532506E-004  0.2034907E+03  0.7818608E-02  0.1146827E+00
          5   -1    0    0  501    0  0.00000000000E+00  0.00000000000E+00  0.96625095369E+02  0.96739335615E+02  0.47000000000E+01 0. -1.
         -5   -1    0    0    0  501 -0.00000000000E+00 -0.00000000000E+00 -0.52052516187E+03  0.52054638039E+03  0.47000000000E+01 0.  1.
          6    1    1    2  502    0 -0.60942355138E+02  0.90058327177E+02 -0.81958692080E+02  0.21937570547E+03  0.17200000000E+03 0. -1.
         -6    1    1    2    0  502  0.60942355138E+02 -0.90058327177E+02 -0.34194137442E+03  0.39791001053E+03  0.17200000000E+03 0.  1.
</event>
<event>
 4    1 -0.6532506E-004  0.1931586E+03  0.7818608E-02  0.1155643E+00
         -5   -1    0    0    0  501 -0.00000000000E+00  0.00000000000E+00  0.44266716244E+02  0.44515527258E+02  0.47000000000E+01 0.  1.
          5   -1    0    0  501    0  0.00000000000E+00 -0.00000000000E+00 -0.23737779061E+04  0.23737825590E+04  0.47000000000E+01 0. -1.
          6    1    1    2  502    0  0.63407768089E+02  0.60874590539E+02 -0.21365722713E+04  0.21452858391E+04  0.17200000000E+03 0. -1.
         -6    1    1    2    0  502 -0.63407768089E+02 -0.60874590539E+02 -0.19293891854E+03  0.27301224719E+03  0.17200000000E+03 0.  1.
</event>
<event>
 4    1 -0.6532506E-004  0.1892033E+03  0.7818608E-02  0.1159182E+00
         -5   -1    0    0    0  501 -0.00000000000E+00  0.00000000000E+00  0.18791354630E+03  0.18797231414E+03  0.47000000000E+01 0.  1.
          5   -1    0    0  501    0  0.00000000000E+00 -0.00000000000E+00 -0.29754344438E+03  0.29758056270E+03  0.47000000000E+01 0. -1.
          6    1    1    2  502    0 -0.19808999185E+02  0.76298665643E+02 -0.20048435023E+03  0.27566620669E+03  0.17200000000E+03 0. -1.
         -6    1    1    2    0  502  0.19808999185E+02 -0.76298665643E+02  0.90854452142E+02  0.20988667014E+03  0.17200000000E+03 0.  1.
</event>
<event>
 4    1 -0.6532506E-004  0.2355651E+03  0.7818608E-02  0.1122783E+00
         -5   -1    0    0    0  501 -0.00000000000E+00  0.00000000000E+00  0.43093996022E+03  0.43096558948E+03  0.47000000000E+01 0.  1.
          5   -1    0    0  501    0  0.00000000000E+00 -0.00000000000E+00 -0.15327364267E+03  0.15334568639E+03  0.47000000000E+01 0. -1.
          6    1    1    2  502    0  0.12227556202E+03 -0.10466903026E+03  0.21879704419E+02  0.23657903632E+03  0.17200000000E+03 0.  1.
         -6    1    1    2    0  502 -0.12227556202E+03  0.10466903026E+03  0.25578661314E+03  0.34773223955E+03  0.17200000000E+03 0.  1.
</event>
<event>
 4    1 -0.6532506E-004  0.1802169E+03  0.7818608E-02  0.1167593E+00
          5   -1    0    0  501    0  0.00000000000E+00  0.00000000000E+00  0.14686060459E+03  0.14693579271E+03  0.47000000000E+01 0. -1.
         -5   -1    0    0    0  501 -0.00000000000E+00 -0.00000000000E+00 -0.33157540800E+03  0.33160871700E+03  0.47000000000E+01 0.  1.
          6    1    1    2  502    0  0.52329610453E+02 -0.12480007036E+02  0.45798164007E+02  0.18594518152E+03  0.17200000000E+03 0. -1.
         -6    1    1    2    0  502 -0.52329610453E+02  0.12480007036E+02 -0.23051296742E+03  0.29259932819E+03  0.17200000000E+03 0.  1.
</event>
<event>
 4    1 -0.6532506E-004  0.2667255E+03  0.7818608E-02  0.1103168E+00
          5   -1    0    0  501    0  0.00000000000E+00  0.00000000000E+00  0.15049887884E+03  0.15057225020E+03  0.47000000000E+01 0. -1.
         -5   -1    0    0    0  501 -0.00000000000E+00 -0.00000000000E+00 -0.59851118117E+03  0.59852963502E+03  0.47000000000E+01 0.  1.
          6    1    1    2  502    0  0.17847119036E+03  0.98521809305E+02 -0.52165399893E+02  0.27177884694E+03  0.17200000000E+03 0. -1.
         -6    1    1    2    0  502 -0.17847119036E+03 -0.98521809305E+02 -0.39584690245E+03  0.47732303828E+03  0.17200000000E+03 0.  1.
</event>
<event>
 4    1 -0.6532506E-004  0.1873578E+03  0.7818608E-02  0.1160866E+00
          5   -1    0    0  501    0  0.00000000000E+00  0.00000000000E+00  0.10896813495E+03  0.10906944776E+03  0.47000000000E+01 0. -1.
         -5   -1    0    0    0  501 -0.00000000000E+00 -0.00000000000E+00 -0.45820419783E+03  0.45822830217E+03  0.47000000000E+01 0.  1.
          6    1    1    2  502    0  0.53662930327E+02  0.51373620588E+02 -0.19918256765E+02  0.18841362991E+03  0.17200000000E+03 0. -1.
         -6    1    1    2    0  502 -0.53662930327E+02 -0.51373620588E+02 -0.32931780611E+03  0.37888412002E+03  0.17200000000E+03 0.  1.
</event>
<event>
 4    1 -0.6532506E-004  0.1736149E+03  0.7818608E-02  0.1174130E+00
         -5   -1    0    0    0  501 -0.00000000000E+00  0.00000000000E+00  0.38826119126E+03  0.38828963756E+03  0.47000000000E+01 0.  1.
          5   -1    0    0  501    0  0.00000000000E+00 -0.00000000000E+00 -0.87426703750E+02  0.87552947001E+02  0.47000000000E+01 0. -1.
          6    1    1    2  502    0 -0.15214855098E+02  0.18073135084E+02  0.23038716575E+03  0.28847942070E+03  0.17200000000E+03 0.  1.
         -6    1    1    2    0  502  0.15214855098E+02 -0.18073135084E+02  0.70447321755E+02  0.18736316386E+03  0.17200000000E+03 0. -1.
</event>
<event>
 4    1 -0.6532506E-004  0.1819119E+03  0.7818608E-02  0.1165965E+00
         -5   -1    0    0    0  501 -0.00000000000E+00  0.00000000000E+00  0.12466894990E+03  0.12475751307E+03  0.47000000000E+01 0.  1.
          5   -1    0    0  501    0  0.00000000000E+00 -0.00000000000E+00 -0.42971963397E+03  0.42974533600E+03  0.47000000000E+01 0. -1.
          6    1    1    2  502    0  0.58770057564E+02 -0.73496090968E+01 -0.32403251884E+03  0.37160329612E+03  0.17200000000E+03 0. -1.
         -6    1    1    2    0  502 -0.58770057564E+02  0.73496090968E+01  0.18981834775E+02  0.18289955296E+03  0.17200000000E+03 0.  1.
</event>
<event>
 4    1 -0.6532506E-004  0.1988090E+03  0.7818608E-02  0.1150748E+00
          5   -1    0    0  501    0  0.00000000000E+00  0.00000000000E+00  0.47834413401E+02  0.48064759496E+02  0.47000000000E+01 0. -1.
         -5   -1    0    0    0  501 -0.00000000000E+00 -0.00000000000E+00 -0.82437406393E+03  0.82438746186E+03  0.47000000000E+01 0.  1.
          6    1    1    2  502    0 -0.73399960356E+02  0.67479424190E+02 -0.37984854850E+03  0.42873062250E+03  0.17200000000E+03 0.  1.
         -6    1    1    2    0  502  0.73399960356E+02 -0.67479424190E+02 -0.39669110202E+03  0.44372159886E+03  0.17200000000E+03 0. -1.
</event>
<event>
 4    1 -0.6532506E-004  0.4127644E+03  0.7818608E-02  0.1039447E+00
          5   -1    0    0  501    0  0.00000000000E+00  0.00000000000E+00  0.89155278555E+03  0.89156517396E+03  0.47000000000E+01 0. -1.
         -5   -1    0    0    0  501 -0.00000000000E+00 -0.00000000000E+00 -0.19740637306E+03  0.19746231570E+03  0.47000000000E+01 0.  1.
          6    1    1    2  502    0 -0.89797941431E+02 -0.36431686855E+03  0.44471904779E+03  0.60675323028E+03  0.17200000000E+03 0. -1.
         -6    1    1    2    0  502  0.89797941431E+02  0.36431686855E+03  0.24942736471E+03  0.48227425938E+03  0.17200000000E+03 0.  1.
</event>
<event>
 4    1 -0.6532506E-004  0.3003778E+03  0.7818608E-02  0.1085052E+00
          5   -1    0    0  501    0  0.00000000000E+00  0.00000000000E+00  0.54143619091E+03  0.54145658998E+03  0.47000000000E+01 0. -1.
         -5   -1    0    0    0  501 -0.00000000000E+00 -0.00000000000E+00 -0.24724573103E+03  0.24729039915E+03  0.47000000000E+01 0.  1.
          6    1    1    2  502    0 -0.35304552157E+01  0.24623234091E+03  0.37231309144E+03  0.47837628273E+03  0.17200000000E+03 0. -1.
         -6    1    1    2    0  502  0.35304552157E+01 -0.24623234091E+03 -0.78122631562E+02  0.31037070639E+03  0.17200000000E+03 0.  1.
</event>
<event>
 4    1 -0.6532506E-004  0.2836856E+03  0.7818608E-02  0.1093693E+00
         -5   -1    0    0    0  501 -0.00000000000E+00  0.00000000000E+00  0.66202132174E+03  0.66203800528E+03  0.47000000000E+01 0.  1.
          5   -1    0    0  501    0  0.00000000000E+00 -0.00000000000E+00 -0.49065052542E+03  0.49067303584E+03  0.47000000000E+01 0. -1.
          6    1    1    2  502    0 -0.88417286915E+02  0.20754730613E+03 -0.41420385443E+03  0.50203817976E+03  0.17200000000E+03 0. -1.
         -6    1    1    2    0  502  0.88417286915E+02 -0.20754730613E+03  0.58557465075E+03  0.65067286136E+03  0.17200000000E+03 0.  1.
</event>
<event>
 4    1 -0.6532506E-004  0.2257930E+03  0.7818608E-02  0.1129636E+00
         -5   -1    0    0    0  501 -0.00000000000E+00  0.00000000000E+00  0.14140705499E+04  0.14140783607E+04  0.47000000000E+01 0.  1.
          5   -1    0    0  501    0  0.00000000000E+00 -0.00000000000E+00 -0.48044190461E+02  0.48273535577E+02  0.47000000000E+01 0. -1.
          6    1    1    2  502    0  0.14016478672E+03 -0.41860494402E+02  0.31634279457E+03  0.38865824590E+03  0.17200000000E+03 0. -1.
         -6    1    1    2    0  502 -0.14016478672E+03  0.41860494402E+02  0.10496835649E+04  0.10736936504E+04  0.17200000000E+03 0.  1.
</event>
<event>
 4    1 -0.6532506E-004  0.1770320E+03  0.7818608E-02  0.1170707E+00
          5   -1    0    0  501    0  0.00000000000E+00  0.00000000000E+00  0.70526000883E+02  0.70682436295E+02  0.47000000000E+01 0. -1.
         -5   -1    0    0    0  501 -0.00000000000E+00 -0.00000000000E+00 -0.53914265415E+03  0.53916313999E+03  0.47000000000E+01 0.  1.
          6    1    1    2  502    0 -0.29728202808E+02 -0.29539341318E+02 -0.10604735276E+03  0.20636467662E+03  0.17200000000E+03 0. -1.
         -6    1    1    2    0  502  0.29728202808E+02  0.29539341318E+02 -0.36256930051E+03  0.40348089967E+03  0.17200000000E+03 0. -1.
</event>
<event>
 4    1 -0.6532506E-004  0.2350185E+03  0.7818608E-02  0.1123157E+00
         -5   -1    0    0    0  501 -0.00000000000E+00  0.00000000000E+00  0.64985340116E+02  0.65155079848E+02  0.47000000000E+01 0.  1.
          5   -1    0    0  501    0  0.00000000000E+00 -0.00000000000E+00 -0.11072331470E+04  0.11072431223E+04  0.47000000000E+01 0. -1.
          6    1    1    2  502    0 -0.91907177722E+02  0.13115940190E+03 -0.80438361818E+03  0.83801355790E+03  0.17200000000E+03 0. -1.
         -6    1    1    2    0  502  0.91907177722E+02 -0.13115940190E+03 -0.23786418871E+03  0.33438464422E+03  0.17200000000E+03 0.  1.
</event>
<event>
 4    1 -0.6532506E-004  0.3267837E+03  0.7818608E-02  0.1072569E+00
         -5   -1    0    0    0  501 -0.00000000000E+00  0.00000000000E+00  0.76586310123E+03  0.76587752273E+03  0.47000000000E+01 0.  1.
          5   -1    0    0  501    0  0.00000000000E+00 -0.00000000000E+00 -0.19246296159E+03  0.19252034070E+03  0.47000000000E+01 0. -1.
          6    1    1    2  502    0  0.24741541336E+03  0.12644849834E+03  0.35088466874E+02  0.32866215177E+03  0.17200000000E+03 0. -1.
         -6    1    1    2    0  502 -0.24741541336E+03 -0.12644849834E+03  0.53831167277E+03  0.62973571166E+03  0.17200000000E+03 0.  1.
</event>
<event>
 4    1 -0.6532506E-004  0.2060691E+03  0.7818608E-02  0.1144717E+00
         -5   -1    0    0    0  501 -0.00000000000E+00  0.00000000000E+00  0.25097192230E+03  0.25101592735E+03  0.47000000000E+01 0.  1.
          5   -1    0    0  501    0  0.00000000000E+00 -0.00000000000E+00 -0.16923668385E+03  0.16930193490E+03  0.47000000000E+01 0. -1.
          6    1    1    2  502    0  0.57381879556E+02  0.97917183077E+02  0.46648888815E+02  0.21128315993E+03  0.17200000000E+03 0.  1.
         -6    1    1    2    0  502 -0.57381879556E+02 -0.97917183077E+02  0.35086349639E+02  0.20903470232E+03  0.17200000000E+03 0.  1.
</event>
<event>
 4    1 -0.6532506E-004  0.2325892E+03  0.7818608E-02  0.1124831E+00
         -5   -1    0    0    0  501 -0.00000000000E+00  0.00000000000E+00  0.46963128512E+03  0.46965480298E+03  0.47000000000E+01 0.  1.
          5   -1    0    0  501    0  0.00000000000E+00 -0.00000000000E+00 -0.13312398469E+03  0.13320692662E+03  0.47000000000E+01 0. -1.
          6    1    1    2  502    0  0.30203201274E+02 -0.15362779123E+03  0.57441077140E+02  0.23957714613E+03  0.17200000000E+03 0. -1.
         -6    1    1    2    0  502 -0.30203201274E+02  0.15362779123E+03  0.27906622329E+03  0.36328458347E+03  0.17200000000E+03 0. -1.
</event>
<event>
 4    1 -0.6532506E-004  0.2348624E+03  0.7818608E-02  0.1123263E+00
         -5   -1    0    0    0  501 -0.00000000000E+00  0.00000000000E+00  0.87388142934E+03  0.87389406826E+03  0.47000000000E+01 0.  1.
          5   -1    0    0  501    0  0.00000000000E+00 -0.00000000000E+00 -0.68234095775E+02  0.68395773453E+02  0.47000000000E+01 0. -1.
          6    1    1    2  502    0  0.92776683109E+02 -0.13026439253E+03  0.27276211151E+03  0.35994373778E+03  0.17200000000E+03 0. -1.
         -6    1    1    2    0  502 -0.92776683109E+02  0.13026439253E+03  0.53288522205E+03  0.58234610394E+03  0.17200000000E+03 0.  1.
</event>
<event>
 4    1 -0.6532506E-004  0.1879061E+03  0.7818608E-02  0.1160364E+00
         -5   -1    0    0    0  501 -0.00000000000E+00  0.00000000000E+00  0.11393310152E+03  0.11403000317E+03  0.47000000000E+01 0.  1.
          5   -1    0    0  501    0  0.00000000000E+00 -0.00000000000E+00 -0.45431447091E+03  0.45433878161E+03  0.47000000000E+01 0. -1.
          6    1    1    2  502    0 -0.72461967762E+02 -0.21770557863E+02 -0.33052484467E+03  0.38020437518E+03  0.17200000000E+03 0. -1.
         -6    1    1    2    0  502  0.72461967762E+02  0.21770557863E+02 -0.98565247142E+01  0.18816440960E+03  0.17200000000E+03 0.  1.
</event>
<event>
 4    1 -0.6532506E-004  0.2609194E+03  0.7818608E-02  0.1106592E+00
          5   -1    0    0  501    0  0.00000000000E+00  0.00000000000E+00  0.38612665076E+03  0.38615525430E+03  0.47000000000E+01 0. -1.
         -5   -1    0    0    0  501 -0.00000000000E+00 -0.00000000000E+00 -0.17938215608E+03  0.17944371797E+03  0.47000000000E+01 0.  1.
          6    1    1    2  502    0 -0.72150257340E+02  0.18245351045E+03  0.14075554901E+03  0.29646427726E+03  0.17200000000E+03 0. -1.
         -6    1    1    2    0  502  0.72150257340E+02 -0.18245351045E+03  0.65988945671E+02  0.26913469502E+03  0.17200000000E+03 0.  1.
</event>
<event>
 4    1 -0.6532506E-004  0.2055450E+03  0.7818608E-02  0.1145143E+00
         -5   -1    0    0    0  501 -0.00000000000E+00  0.00000000000E+00  0.18778799480E+03  0.18784680192E+03  0.47000000000E+01 0.  1.
          5   -1    0    0  501    0  0.00000000000E+00 -0.00000000000E+00 -0.22955289013E+03  0.22960100036E+03  0.47000000000E+01 0. -1.
          6    1    1    2  502    0 -0.10438598949E+03  0.42051322969E+02 -0.50711087883E+02  0.21170820248E+03  0.17200000000E+03 0. -1.
         -6    1    1    2    0  502  0.10438598949E+03 -0.42051322969E+02  0.89461925549E+01  0.20573959980E+03  0.17200000000E+03 0.  1.
</event>
<event>
 4    1 -0.6532506E-004  0.2349190E+03  0.7818608E-02  0.1123225E+00
         -5   -1    0    0    0  501 -0.00000000000E+00  0.00000000000E+00  0.10659959271E+03  0.10670315444E+03  0.47000000000E+01 0.  1.
          5   -1    0    0  501    0  0.00000000000E+00 -0.00000000000E+00 -0.55427930573E+03  0.55429923215E+03  0.47000000000E+01 0. -1.
          6    1    1    2  502    0  0.89352826489E+02  0.13273653451E+03 -0.30915387821E+03  0.38828215978E+03  0.17200000000E+03 0. -1.
         -6    1    1    2    0  502 -0.89352826489E+02 -0.13273653451E+03 -0.13852583481E+03  0.27272022680E+03  0.17200000000E+03 0.  1.
</event>
<event>
 4    1 -0.6532506E-004  0.2770360E+03  0.7818608E-02  0.1097319E+00
         -5   -1    0    0    0  501 -0.00000000000E+00  0.00000000000E+00  0.21396039454E+03  0.21401201002E+03  0.47000000000E+01 0.  1.
          5   -1    0    0  501    0  0.00000000000E+00 -0.00000000000E+00 -0.67619757145E+03  0.67621390523E+03  0.47000000000E+01 0. -1.
          6    1    1    2  502    0  0.20209721129E+03  0.79508901318E+02 -0.53615422222E+03  0.60349838293E+03  0.17200000000E+03 0. -1.
         -6    1    1    2    0  502 -0.20209721129E+03 -0.79508901318E+02  0.73917045311E+02  0.28672753232E+03  0.17200000000E+03 0.  1.
</event>
<event>
 4    1 -0.6532506E-004  0.2367578E+03  0.7818608E-02  0.1121972E+00
          5   -1    0    0  501    0  0.00000000000E+00  0.00000000000E+00  0.29152366018E+03  0.29156154486E+03  0.47000000000E+01 0. -1.
         -5   -1    0    0    0  501 -0.00000000000E+00 -0.00000000000E+00 -0.30027438140E+03  0.30031116217E+03  0.47000000000E+01 0.  1.
          6    1    1    2  502    0  0.14952032241E+03  0.64139896762E+02  0.17314031916E+03  0.29331181921E+03  0.17200000000E+03 0. -1.
         -6    1    1    2    0  502 -0.14952032241E+03 -0.64139896762E+02 -0.18189104038E+03  0.29856088782E+03  0.17200000000E+03 0.  1.
</event>
<event>
 4    1 -0.6532506E-004  0.1898058E+03  0.7818608E-02  0.1158637E+00
         -5   -1    0    0    0  501 -0.00000000000E+00  0.00000000000E+00  0.73882073544E+03  0.73883568479E+03  0.47000000000E+01 0.  1.
          5   -1    0    0  501    0  0.00000000000E+00 -0.00000000000E+00 -0.50607102635E+02  0.50824884034E+02  0.47000000000E+01 0. -1.
          6    1    1    2  502    0 -0.67895227132E+02  0.42807512674E+02  0.42190414708E+03  0.46263306662E+03  0.17200000000E+03 0. -1.
         -6    1    1    2    0  502  0.67895227132E+02 -0.42807512674E+02  0.26630948573E+03  0.32702750220E+03  0.17200000000E+03 0. -1.
</event>
<event>
 4    1 -0.6532506E-004  0.2677489E+03  0.7818608E-02  0.1102575E+00
          5   -1    0    0  501    0  0.00000000000E+00  0.00000000000E+00  0.33988068255E+03  0.33991317770E+03  0.47000000000E+01 0. -1.
         -5   -1    0    0    0  501 -0.00000000000E+00 -0.00000000000E+00 -0.56627980333E+03  0.56629930749E+03  0.47000000000E+01 0.  1.
          6    1    1    2  502    0  0.10412337246E+03 -0.17681569232E+03 -0.47214723248E+03  0.54278216153E+03  0.17200000000E+03 0. -1.
         -6    1    1    2    0  502 -0.10412337246E+03  0.17681569232E+03  0.24574811170E+03  0.36343032365E+03  0.17200000000E+03 0.  1.
</event>
<event>
 4    1 -0.6532506E-004  0.1898938E+03  0.7818608E-02  0.1158557E+00
          5   -1    0    0  501    0  0.00000000000E+00  0.00000000000E+00  0.29663050355E+03  0.29666773609E+03  0.47000000000E+01 0. -1.
         -5   -1    0    0    0  501 -0.00000000000E+00 -0.00000000000E+00 -0.12148341537E+03  0.12157429914E+03  0.47000000000E+01 0.  1.
          6    1    1    2  502    0 -0.51698637436E+02  0.61667609541E+02  0.85720629264E+02  0.20834507304E+03  0.17200000000E+03 0. -1.
         -6    1    1    2    0  502  0.51698637436E+02 -0.61667609541E+02  0.89426458915E+02  0.20989696218E+03  0.17200000000E+03 0.  1.
</event>
<event>
 4    1 -0.6532506E-004  0.2128579E+03  0.7818608E-02  0.1139323E+00
          5   -1    0    0  501    0  0.00000000000E+00  0.00000000000E+00  0.62903684222E+03  0.62905440057E+03  0.47000000000E+01 0. -1.
         -5   -1    0    0    0  501 -0.00000000000E+00 -0.00000000000E+00 -0.72646647521E+02  0.72798526057E+02  0.47000000000E+01 0.  1.
          6    1    1    2  502    0  0.50344877791E+02 -0.11484726481E+03  0.31293319237E+03  0.37846490437E+03  0.17200000000E+03 0. -1.
         -6    1    1    2    0  502 -0.50344877791E+02  0.11484726481E+03  0.24345700233E+03  0.32338802225E+03  0.17200000000E+03 0.  1.
</event>
<event>
 4    1 -0.6532506E-004  0.1799277E+03  0.7818608E-02  0.1167873E+00
          5   -1    0    0  501    0  0.00000000000E+00  0.00000000000E+00  0.48149244562E+03  0.48151538416E+03  0.47000000000E+01 0. -1.
         -5   -1    0    0    0  501 -0.00000000000E+00 -0.00000000000E+00 -0.81324500325E+02  0.81460201038E+02  0.47000000000E+01 0.  1.
          6    1    1    2  502    0 -0.29590946729E+02 -0.43753508479E+02  0.31755930093E+03  0.36499027828E+03  0.17200000000E+03 0. -1.
         -6    1    1    2    0  502  0.29590946729E+02  0.43753508479E+02  0.82608644360E+02  0.19798530692E+03  0.17200000000E+03 0.  1.
</event>
<event>
 4    1 -0.6532506E-004  0.1793372E+03  0.7818608E-02  0.1168446E+00
          5   -1    0    0  501    0  0.00000000000E+00  0.00000000000E+00  0.19564191215E+03  0.19569835919E+03  0.47000000000E+01 0. -1.
         -5   -1    0    0    0  501 -0.00000000000E+00 -0.00000000000E+00 -0.23348000444E+03  0.23352730562E+03  0.47000000000E+01 0.  1.
          6    1    1    2  502    0 -0.29503682545E+02  0.41320062576E+02  0.97892597728E+02  0.20431538255E+03  0.17200000000E+03 0. -1.
         -6    1    1    2    0  502  0.29503682545E+02 -0.41320062576E+02 -0.13573069002E+03  0.22491028226E+03  0.17200000000E+03 0.  1.
</event>
<event>
 4    1 -0.6532506E-004  0.1793699E+03  0.7818608E-02  0.1168414E+00
         -5   -1    0    0    0  501 -0.00000000000E+00  0.00000000000E+00  0.17049407326E+03  0.17055884326E+03  0.47000000000E+01 0.  1.
          5   -1    0    0  501    0  0.00000000000E+00 -0.00000000000E+00 -0.50611785383E+03  0.50613967634E+03  0.47000000000E+01 0. -1.
          6    1    1    2  502    0  0.22557026095E+02  0.45615020832E+02 -0.43578647134E+03  0.47125725263E+03  0.17200000000E+03 0. -1.
         -6    1    1    2    0  502 -0.22557026095E+02 -0.45615020832E+02  0.10016269077E+03  0.20544126697E+03  0.17200000000E+03 0.  1.
</event>
<event>
 4    1 -0.6532506E-004  0.1801179E+03  0.7818608E-02  0.1167689E+00
          5   -1    0    0  501    0  0.00000000000E+00  0.00000000000E+00  0.92962104700E+02  0.93080840726E+02  0.47000000000E+01 0. -1.
         -5   -1    0    0    0  501 -0.00000000000E+00 -0.00000000000E+00 -0.34906785294E+03  0.34909949291E+03  0.47000000000E+01 0.  1.
          6    1    1    2  502    0  0.29719262559E+02 -0.44443542377E+02 -0.13589420552E+03  0.22563177551E+03  0.17200000000E+03 0.  1.
         -6    1    1    2    0  502 -0.29719262559E+02  0.44443542377E+02 -0.12021154271E+03  0.21654855813E+03  0.17200000000E+03 0. -1.
</event>
<event>
 4    1 -0.6532506E-004  0.2278075E+03  0.7818608E-02  0.1128193E+00
         -5   -1    0    0    0  501 -0.00000000000E+00  0.00000000000E+00  0.82465064737E+02  0.82598891652E+02  0.47000000000E+01 0.  1.
          5   -1    0    0  501    0  0.00000000000E+00 -0.00000000000E+00 -0.76035906494E+03  0.76037359083E+03  0.47000000000E+01 0. -1.
          6    1    1    2  502    0  0.14169733876E+03 -0.47266355056E+02 -0.51434481467E+03  0.56253607219E+03  0.17200000000E+03 0. -1.
         -6    1    1    2    0  502 -0.14169733876E+03  0.47266355056E+02 -0.16354918553E+03  0.28043641029E+03  0.17200000000E+03 0.  1.
</event>
<event>
 4    1 -0.6532506E-004  0.4048871E+03  0.7818608E-02  0.1042100E+00
         -5   -1    0    0    0  501 -0.00000000000E+00  0.00000000000E+00  0.14967510197E+04  0.14967583990E+04  0.47000000000E+01 0.  1.
          5   -1    0    0  501    0  0.00000000000E+00 -0.00000000000E+00 -0.16047572038E+03  0.16054453224E+03  0.47000000000E+01 0. -1.
          6    1    1    2  502    0  0.31021345833E+03  0.19523622488E+03  0.11351835577E+04  0.12052283116E+04  0.17200000000E+03 0.  1.
         -6    1    1    2    0  502 -0.31021345833E+03 -0.19523622488E+03  0.20109174160E+03  0.45207461970E+03  0.17200000000E+03 0. -1.
</event>
<event>
 4    1 -0.6532506E-004  0.6668522E+03  0.7818608E-02  0.9775661E-01
          5   -1    0    0  501    0  0.00000000000E+00  0.00000000000E+00  0.15603535822E+04  0.15603606607E+04  0.47000000000E+01 0. -1.
         -5   -1    0    0    0  501 -0.00000000000E+00 -0.00000000000E+00 -0.28754457550E+03  0.28758298437E+03  0.47000000000E+01 0.  1.
          6    1    1    2  502    0 -0.38984178633E+03  0.51296324073E+03  0.72387453142E+03  0.98421859459E+03  0.17200000000E+03 0. -1.
         -6    1    1    2    0  502  0.38984178633E+03 -0.51296324073E+03  0.54893447532E+03  0.86372505053E+03  0.17200000000E+03 0.  1.
</event>
<event>
 4    1 -0.6532506E-004  0.1796091E+03  0.7818608E-02  0.1168182E+00
         -5   -1    0    0    0  501 -0.00000000000E+00  0.00000000000E+00  0.51125617913E+02  0.51341199898E+02  0.47000000000E+01 0.  1.
          5   -1    0    0  501    0  0.00000000000E+00 -0.00000000000E+00 -0.69318803576E+03  0.69320396921E+03  0.47000000000E+01 0. -1.
          6    1    1    2  502    0 -0.13759062468E+02  0.49861144674E+02 -0.43391281961E+03  0.46961663149E+03  0.17200000000E+03 0. -1.
         -6    1    1    2    0  502  0.13759062468E+02 -0.49861144674E+02 -0.20814959824E+03  0.27492853761E+03  0.17200000000E+03 0.  1.
</event>
<event>
 4    1 -0.6532506E-004  0.3397203E+03  0.7818608E-02  0.1066915E+00
          5   -1    0    0  501    0  0.00000000000E+00  0.00000000000E+00  0.25363041162E+03  0.25367395550E+03  0.47000000000E+01 0. -1.
         -5   -1    0    0    0  501 -0.00000000000E+00 -0.00000000000E+00 -0.56025443515E+03  0.56027414906E+03  0.47000000000E+01 0.  1.
          6    1    1    2  502    0 -0.15386078778E+03  0.24930446282E+03  0.23128801946E+02  0.34050667934E+03  0.17200000000E+03 0. -1.
         -6    1    1    2    0  502  0.15386078778E+03 -0.24930446282E+03 -0.32975282548E+03  0.47344142521E+03  0.17200000000E+03 0.  1.
</event>
<event>
 4    1 -0.6532506E-004  0.2339321E+03  0.7818608E-02  0.1123902E+00
          5   -1    0    0  501    0  0.00000000000E+00  0.00000000000E+00  0.97758226924E+02  0.97871144528E+02  0.47000000000E+01 0. -1.
         -5   -1    0    0    0  501 -0.00000000000E+00 -0.00000000000E+00 -0.10577130427E+04  0.10577234850E+04  0.47000000000E+01 0.  1.
          6    1    1    2  502    0  0.12676179207E+03  0.95245419620E+02 -0.83388954039E+02  0.24835047724E+03  0.17200000000E+03 0. -1.
         -6    1    1    2    0  502 -0.12676179207E+03 -0.95245419620E+02 -0.87656586175E+03  0.90724415229E+03  0.17200000000E+03 0.  1.
</event>
<event>
 4    1 -0.6532506E-004  0.2192454E+03  0.7818608E-02  0.1134447E+00
         -5   -1    0    0    0  501 -0.00000000000E+00  0.00000000000E+00  0.22473181582E+03  0.22478095792E+03  0.47000000000E+01 0.  1.
          5   -1    0    0  501    0  0.00000000000E+00 -0.00000000000E+00 -0.33813642490E+03  0.33816908765E+03  0.47000000000E+01 0. -1.
          6    1    1    2  502    0 -0.75987876552E+02  0.11274044705E+03 -0.22736703110E+03  0.31585492337E+03  0.17200000000E+03 0. -1.
         -6    1    1    2    0  502  0.75987876552E+02 -0.11274044705E+03  0.11396242202E+03  0.24709512220E+03  0.17200000000E+03 0.  1.
</event>
<event>
 4    1 -0.6532506E-004  0.5990985E+03  0.7818608E-02  0.9907278E-01
         -5   -1    0    0    0  501 -0.00000000000E+00  0.00000000000E+00  0.83716781753E+03  0.83718101072E+03  0.47000000000E+01 0.  1.
          5   -1    0    0  501    0  0.00000000000E+00 -0.00000000000E+00 -0.42877165384E+03  0.42879741270E+03  0.47000000000E+01 0. -1.
          6    1    1    2  502    0 -0.56093161573E+03  0.12120530890E+03  0.19605007217E+03  0.63036071834E+03  0.17200000000E+03 0.  1.
         -6    1    1    2    0  502  0.56093161573E+03 -0.12120530890E+03  0.21234609152E+03  0.63561770508E+03  0.17200000000E+03 0.  1.
</event>
<event>
 4    1 -0.6532506E-004  0.1821674E+03  0.7818608E-02  0.1165722E+00
          5   -1    0    0  501    0  0.00000000000E+00  0.00000000000E+00  0.29861181399E+03  0.29864879952E+03  0.47000000000E+01 0. -1.
         -5   -1    0    0    0  501 -0.00000000000E+00 -0.00000000000E+00 -0.11844581463E+03  0.11853902734E+03  0.47000000000E+01 0.  1.
          6    1    1    2  502    0 -0.42843551385E+02 -0.42016562940E+02  0.14222243509E+03  0.23111075808E+03  0.17200000000E+03 0. -1.
         -6    1    1    2    0  502  0.42843551385E+02  0.42016562940E+02  0.37943564265E+02  0.18607706878E+03  0.17200000000E+03 0. -1.
</event>
<event>
 4    1 -0.6532506E-004  0.2131066E+03  0.7818608E-02  0.1139129E+00
          5   -1    0    0  501    0  0.00000000000E+00  0.00000000000E+00  0.86074137334E+02  0.86202361440E+02  0.47000000000E+01 0. -1.
         -5   -1    0    0    0  501 -0.00000000000E+00 -0.00000000000E+00 -0.82715844530E+03  0.82717179813E+03  0.47000000000E+01 0.  1.
          6    1    1    2  502    0 -0.32750538290E+02 -0.12148173095E+03 -0.95501036315E+02  0.23352699341E+03  0.17200000000E+03 0. -1.
         -6    1    1    2    0  502  0.32750538290E+02  0.12148173095E+03 -0.64558327165E+03  0.67984716617E+03  0.17200000000E+03 0.  1.
</event>
<event>
 4    1 -0.6532506E-004  0.2484366E+03  0.7818608E-02  0.1114297E+00
          5   -1    0    0  501    0  0.00000000000E+00  0.00000000000E+00  0.24847636644E+03  0.24852081337E+03  0.47000000000E+01 0. -1.
         -5   -1    0    0    0  501 -0.00000000000E+00 -0.00000000000E+00 -0.37358849687E+03  0.37361806031E+03  0.47000000000E+01 0.  1.
          6    1    1    2  502    0 -0.84805985461E+02  0.15793891749E+03  0.11756105608E+03  0.27484788290E+03  0.17200000000E+03 0. -1.
         -6    1    1    2    0  502  0.84805985461E+02 -0.15793891749E+03 -0.24267318651E+03  0.34729099078E+03  0.17200000000E+03 0.  1.
</event>
<event>
 4    1 -0.6532506E-004  0.2938044E+03  0.7818608E-02  0.1088379E+00
         -5   -1    0    0    0  501 -0.00000000000E+00  0.00000000000E+00  0.61788552415E+02  0.61967049386E+02  0.47000000000E+01 0.  1.
          5   -1    0    0  501    0  0.00000000000E+00 -0.00000000000E+00 -0.15356078008E+04  0.15356149934E+04  0.47000000000E+01 0. -1.
          6    1    1    2  502    0 -0.20459888408E+01  0.23818650996E+03 -0.97874311377E+03  0.10218899561E+04  0.17200000000E+03 0.  1.
         -6    1    1    2    0  502  0.20459888408E+01 -0.23818650996E+03 -0.49507613463E+03  0.57569208669E+03  0.17200000000E+03 0.  1.
</event>
<event>
 4    1 -0.6532506E-004  0.4866807E+03  0.7818608E-02  0.1017315E+00
         -5   -1    0    0    0  501 -0.00000000000E+00  0.00000000000E+00  0.83946408236E+03  0.83947723946E+03  0.47000000000E+01 0.  1.
          5   -1    0    0  501    0  0.00000000000E+00 -0.00000000000E+00 -0.28369898387E+03  0.28373791331E+03  0.47000000000E+01 0. -1.
          6    1    1    2  502    0  0.39891994077E+03 -0.21940148871E+03  0.23597568604E+03  0.54087212610E+03  0.17200000000E+03 0. -1.
         -6    1    1    2    0  502 -0.39891994077E+03  0.21940148871E+03  0.31978941244E+03  0.58234302666E+03  0.17200000000E+03 0.  1.
</event>
<event>
 4    1 -0.6532506E-004  0.1754348E+03  0.7818608E-02  0.1172296E+00
          5   -1    0    0  501    0  0.00000000000E+00  0.00000000000E+00  0.10834287013E+03  0.10844476708E+03  0.47000000000E+01 0. -1.
         -5   -1    0    0    0  501 -0.00000000000E+00 -0.00000000000E+00 -0.28427188815E+03  0.28431073915E+03  0.47000000000E+01 0.  1.
          6    1    1    2  502    0 -0.26425056324E+02  0.22250797254E+02 -0.80128282473E+02  0.19286763138E+03  0.17200000000E+03 0. -1.
         -6    1    1    2    0  502  0.26425056324E+02 -0.22250797254E+02 -0.95800735555E+02  0.19988787485E+03  0.17200000000E+03 0.  1.
</event>
<event>
 4    1 -0.6532506E-004  0.5351567E+03  0.7818608E-02  0.1004989E+00
         -5   -1    0    0    0  501 -0.00000000000E+00  0.00000000000E+00  0.62996893904E+03  0.62998647141E+03  0.47000000000E+01 0.  1.
          5   -1    0    0  501    0  0.00000000000E+00 -0.00000000000E+00 -0.87713335579E+03  0.87714594785E+03  0.47000000000E+01 0. -1.
          6    1    1    2  502    0 -0.30160616651E+03  0.40723751277E+03 -0.64660609999E+03  0.83934028858E+03  0.17200000000E+03 0. -1.
         -6    1    1    2    0  502  0.30160616651E+03 -0.40723751277E+03  0.39944168325E+03  0.66779213068E+03  0.17200000000E+03 0.  1.
</event>
<event>
 4    1 -0.6532506E-004  0.2141376E+03  0.7818608E-02  0.1138331E+00
          5   -1    0    0  501    0  0.00000000000E+00  0.00000000000E+00  0.34121847093E+03  0.34125083868E+03  0.47000000000E+01 0. -1.
         -5   -1    0    0    0  501 -0.00000000000E+00 -0.00000000000E+00 -0.13431110166E+03  0.13439331095E+03  0.47000000000E+01 0.  1.
          6    1    1    2  502    0 -0.12653796893E+03 -0.16095812837E+02  0.10491933083E+03  0.23845963758E+03  0.17200000000E+03 0.  1.
         -6    1    1    2    0  502  0.12653796893E+03  0.16095812837E+02  0.10198803845E+03  0.23718451205E+03  0.17200000000E+03 0.  1.
</event>
<event>
 4    1 -0.6532506E-004  0.2255416E+03  0.7818608E-02  0.1129818E+00
         -5   -1    0    0    0  501 -0.00000000000E+00  0.00000000000E+00  0.21414883425E+04  0.21414935001E+04  0.47000000000E+01 0.  1.
          5   -1    0    0  501    0  0.00000000000E+00 -0.00000000000E+00 -0.35136320199E+02  0.35449273576E+02  0.47000000000E+01 0. -1.
          6    1    1    2  502    0  0.13970887839E+03 -0.42029240996E+02  0.43070505506E+03  0.48618501854E+03  0.17200000000E+03 0. -1.
         -6    1    1    2    0  502 -0.13970887839E+03  0.42029240996E+02  0.16756469672E+04  0.16907577551E+04  0.17200000000E+03 0.  1.
</event>
<event>
 4    1 -0.6532506E-004  0.2621312E+03  0.7818608E-02  0.1105869E+00
         -5   -1    0    0    0  501 -0.00000000000E+00  0.00000000000E+00  0.73326650561E+03  0.73328156819E+03  0.47000000000E+01 0.  1.
          5   -1    0    0  501    0  0.00000000000E+00 -0.00000000000E+00 -0.15587051813E+03  0.15594136213E+03  0.47000000000E+01 0. -1.
          6    1    1    2  502    0 -0.19317238479E+03  0.42581739034E+02  0.78488750384E+01  0.26224869796E+03  0.17200000000E+03 0. -1.
         -6    1    1    2    0  502  0.19317238479E+03 -0.42581739034E+02  0.56954711244E+03  0.62697423235E+03  0.17200000000E+03 0.  1.
</event>
<event>
 4    1 -0.6532506E-004  0.1796032E+03  0.7818608E-02  0.1168188E+00
          5   -1    0    0  501    0  0.00000000000E+00  0.00000000000E+00  0.19236443852E+02  0.19802292091E+02  0.47000000000E+01 0. -1.
         -5   -1    0    0    0  501 -0.00000000000E+00 -0.00000000000E+00 -0.16794359991E+04  0.16794425757E+04  0.47000000000E+01 0.  1.
          6    1    1    2  502    0  0.42749401923E+02 -0.29082760308E+02 -0.72154599846E+03  0.74356300755E+03  0.17200000000E+03 0. -1.
         -6    1    1    2    0  502 -0.42749401923E+02  0.29082760308E+02 -0.93865355678E+03  0.95568186023E+03  0.17200000000E+03 0.  1.
</event>
<event>
 4    1 -0.6532506E-004  0.2115266E+03  0.7818608E-02  0.1140363E+00
         -5   -1    0    0    0  501 -0.00000000000E+00  0.00000000000E+00  0.34644540111E+03  0.34647728056E+03  0.47000000000E+01 0.  1.
          5   -1    0    0  501    0  0.00000000000E+00 -0.00000000000E+00 -0.15227675788E+03  0.15234927302E+03  0.47000000000E+01 0. -1.
          6    1    1    2  502    0 -0.79638866852E+01 -0.12286618299E+03 -0.24748442631E+00  0.21152679183E+03  0.17200000000E+03 0. -1.
         -6    1    1    2    0  502  0.79638866852E+01  0.12286618299E+03  0.19441612765E+03  0.28729976176E+03  0.17200000000E+03 0.  1.
</event>
<event>
 4    1 -0.6532506E-004  0.3507794E+03  0.7818608E-02  0.1062296E+00
         -5   -1    0    0    0  501 -0.00000000000E+00  0.00000000000E+00  0.80159321103E+02  0.80296990976E+02  0.47000000000E+01 0.  1.
          5   -1    0    0  501    0  0.00000000000E+00 -0.00000000000E+00 -0.15606408650E+04  0.15606479422E+04  0.47000000000E+01 0. -1.
          6    1    1    2  502    0  0.70600659286E+02  0.29745203196E+03 -0.84831190909E+03  0.91797563122E+03  0.17200000000E+03 0. -1.
         -6    1    1    2    0  502 -0.70600659286E+02 -0.29745203196E+03 -0.63216963483E+03  0.72296930199E+03  0.17200000000E+03 0.  1.
</event>
<event>
 4    1 -0.6532506E-004  0.2731530E+03  0.7818608E-02  0.1099488E+00
          5   -1    0    0  501    0  0.00000000000E+00  0.00000000000E+00  0.60881960137E+03  0.60883774276E+03  0.47000000000E+01 0. -1.
         -5   -1    0    0    0  501 -0.00000000000E+00 -0.00000000000E+00 -0.25764275071E+03  0.25768561658E+03  0.47000000000E+01 0.  1.
          6    1    1    2  502    0  0.17351160934E+03  0.12215688248E+03  0.48934001084E+03  0.56041612104E+03  0.17200000000E+03 0. -1.
         -6    1    1    2    0  502 -0.17351160934E+03 -0.12215688248E+03 -0.13816316018E+03  0.30610723831E+03  0.17200000000E+03 0.  1.
</event>
<event>
 4    1 -0.6532506E-004  0.1866513E+03  0.7818608E-02  0.1161517E+00
          5   -1    0    0  501    0  0.00000000000E+00  0.00000000000E+00  0.10892808467E+03  0.10902943469E+03  0.47000000000E+01 0. -1.
         -5   -1    0    0    0  501 -0.00000000000E+00 -0.00000000000E+00 -0.33618964783E+03  0.33622249971E+03  0.47000000000E+01 0.  1.
          6    1    1    2  502    0 -0.72387626851E+02  0.38372094451E+01 -0.16312753216E+03  0.24788966184E+03  0.17200000000E+03 0. -1.
         -6    1    1    2    0  502  0.72387626851E+02 -0.38372094451E+01 -0.64134031008E+02  0.19736227256E+03  0.17200000000E+03 0. -1.
</event>
<event>
 4    1 -0.6532506E-004  0.2089383E+03  0.7818608E-02  0.1142409E+00
         -5   -1    0    0    0  501 -0.00000000000E+00  0.00000000000E+00  0.61437062508E+02  0.61616577717E+02  0.47000000000E+01 0.  1.
          5   -1    0    0  501    0  0.00000000000E+00 -0.00000000000E+00 -0.77407801544E+03  0.77409228389E+03  0.47000000000E+01 0. -1.
          6    1    1    2  502    0  0.40805436899E+02  0.11138282793E+03 -0.23549912605E+03  0.31482543800E+03  0.17200000000E+03 0. -1.
         -6    1    1    2    0  502 -0.40805436899E+02 -0.11138282793E+03 -0.47714182687E+03  0.52088342361E+03  0.17200000000E+03 0. -1.
</event>
<event>
 4    1 -0.6532506E-004  0.2474654E+03  0.7818608E-02  0.1114917E+00
          5   -1    0    0  501    0  0.00000000000E+00  0.00000000000E+00  0.85205370392E+03  0.85206666662E+03  0.47000000000E+01 0. -1.
         -5   -1    0    0    0  501 -0.00000000000E+00 -0.00000000000E+00 -0.75357408772E+02  0.75503834716E+02  0.47000000000E+01 0.  1.
          6    1    1    2  502    0  0.14897876306E+03 -0.97264877924E+02  0.48926096994E+03  0.54828407329E+03  0.17200000000E+03 0. -1.
         -6    1    1    2    0  502 -0.14897876306E+03  0.97264877924E+02  0.28743532521E+03  0.37928642804E+03  0.17200000000E+03 0.  1.
</event>
<event>
 4    1 -0.6532506E-004  0.2971282E+03  0.7818608E-02  0.1086685E+00
         -5   -1    0    0    0  501 -0.00000000000E+00  0.00000000000E+00  0.79569497345E+02  0.79708185952E+02  0.47000000000E+01 0.  1.
          5   -1    0    0  501    0  0.00000000000E+00 -0.00000000000E+00 -0.13128061420E+04  0.13128145553E+04  0.47000000000E+01 0. -1.
          6    1    1    2  502    0  0.21779567520E+03  0.10614241339E+03 -0.89132383803E+03  0.93954422583E+03  0.17200000000E+03 0.  1.
         -6    1    1    2    0  502 -0.21779567520E+03 -0.10614241339E+03 -0.34191280666E+03  0.45297851540E+03  0.17200000000E+03 0. -1.
</event>
<event>
 4    1 -0.6532506E-004  0.2331959E+03  0.7818608E-02  0.1124410E+00
          5   -1    0    0  501    0  0.00000000000E+00  0.00000000000E+00  0.45237477065E+03  0.45239918559E+03  0.47000000000E+01 0. -1.
         -5   -1    0    0    0  501 -0.00000000000E+00 -0.00000000000E+00 -0.12056921841E+03  0.12066079077E+03  0.47000000000E+01 0.  1.
          6    1    1    2  502    0 -0.15720432986E+03 -0.91162856294E+01  0.14875818437E+03  0.27660315509E+03  0.17200000000E+03 0. -1.
         -6    1    1    2    0  502  0.15720432986E+03  0.91162856294E+01  0.18304736787E+03  0.29645682126E+03  0.17200000000E+03 0.  1.
</event>
<event>
 4    1 -0.6532506E-004  0.3045375E+03  0.7818608E-02  0.1082994E+00
          5   -1    0    0  501    0  0.00000000000E+00  0.00000000000E+00  0.23083216068E+03  0.23088000434E+03  0.47000000000E+01 0. -1.
         -5   -1    0    0    0  501 -0.00000000000E+00 -0.00000000000E+00 -0.40168184770E+03  0.40170934364E+03  0.47000000000E+01 0.  1.
          6    1    1    2  502    0  0.21939046358E+03 -0.12258436439E+03 -0.86824063630E+02  0.31667257527E+03  0.17200000000E+03 0. -1.
         -6    1    1    2    0  502 -0.21939046358E+03  0.12258436439E+03 -0.84025623385E+02  0.31591677272E+03  0.17200000000E+03 0.  1.
</event>
<event>
 4    1 -0.6532506E-004  0.1895178E+03  0.7818608E-02  0.1158897E+00
          5   -1    0    0  501    0  0.00000000000E+00  0.00000000000E+00  0.10767468508E+04  0.10767571085E+04  0.47000000000E+01 0. -1.
         -5   -1    0    0    0  501 -0.00000000000E+00 -0.00000000000E+00 -0.11228156036E+03  0.11237988609E+03  0.47000000000E+01 0.  1.
          6    1    1    2  502    0  0.79537781179E+02 -0.25984628113E+01  0.98077587444E+03  0.99891857853E+03  0.17200000000E+03 0. -1.
         -6    1    1    2    0  502 -0.79537781179E+02  0.25984628113E+01 -0.16310584039E+02  0.19021841603E+03  0.17200000000E+03 0.  1.
</event>
<event>
 4    1 -0.6532506E-004  0.1830526E+03  0.7818608E-02  0.1164881E+00
          5   -1    0    0  501    0  0.00000000000E+00  0.00000000000E+00  0.33453456706E+02  0.33782003576E+02  0.47000000000E+01 0. -1.
         -5   -1    0    0    0  501 -0.00000000000E+00 -0.00000000000E+00 -0.10026916041E+04  0.10027026194E+04  0.47000000000E+01 0.  1.
          6    1    1    2  502    0  0.37669444738E+02  0.50052631809E+02 -0.44360496922E+03  0.47988917652E+03  0.17200000000E+03 0. -1.
         -6    1    1    2    0  502 -0.37669444738E+02 -0.50052631809E+02 -0.52563317821E+03  0.55659544649E+03  0.17200000000E+03 0.  1.
</event>
<event>
 4    1 -0.6532506E-004  0.1837781E+03  0.7818608E-02  0.1164196E+00
          5   -1    0    0  501    0  0.00000000000E+00  0.00000000000E+00  0.61354123398E+02  0.61533880569E+02  0.47000000000E+01 0. -1.
         -5   -1    0    0    0  501 -0.00000000000E+00 -0.00000000000E+00 -0.69794425220E+03  0.69796007707E+03  0.47000000000E+01 0.  1.
          6    1    1    2  502    0  0.63689345511E+02  0.11577686402E+02 -0.14318044851E+03  0.23296999032E+03  0.17200000000E+03 0. -1.
         -6    1    1    2    0  502 -0.63689345511E+02 -0.11577686402E+02 -0.49340968029E+03  0.52652396732E+03  0.17200000000E+03 0.  1.
</event>
<event>
 4    1 -0.6532506E-004  0.2205626E+03  0.7818608E-02  0.1133464E+00
          5   -1    0    0  501    0  0.00000000000E+00  0.00000000000E+00  0.62016094138E+03  0.62017875102E+03  0.47000000000E+01 0. -1.
         -5   -1    0    0    0  501 -0.00000000000E+00 -0.00000000000E+00 -0.79727481265E+02  0.79865895531E+02  0.47000000000E+01 0.  1.
          6    1    1    2  502    0  0.10845975573E+03  0.85441962185E+02  0.31610347466E+03  0.38544682410E+03  0.17200000000E+03 0. -1.
         -6    1    1    2    0  502 -0.10845975573E+03 -0.85441962185E+02  0.22432998546E+03  0.31459782245E+03  0.17200000000E+03 0.  1.
</event>
<event>
 4    1 -0.6532506E-004  0.2826204E+03  0.7818608E-02  0.1094266E+00
          5   -1    0    0  501    0  0.00000000000E+00  0.00000000000E+00  0.43224484719E+02  0.43479260335E+02  0.47000000000E+01 0. -1.
         -5   -1    0    0    0  501 -0.00000000000E+00 -0.00000000000E+00 -0.18535849405E+04  0.18535908992E+04  0.47000000000E+01 0.  1.
          6    1    1    2  502    0 -0.10570095813E+03 -0.19778172698E+03 -0.83087045726E+03  0.87762179828E+03  0.17200000000E+03 0. -1.
         -6    1    1    2    0  502  0.10570095813E+03  0.19778172698E+03 -0.97948999848E+03  0.10194483612E+04  0.17200000000E+03 0.  1.
</event>
<event>
 4    1 -0.6532506E-004  0.1763520E+03  0.7818608E-02  0.1171381E+00
          5   -1    0    0  501    0  0.00000000000E+00  0.00000000000E+00  0.93651574706E+03  0.93652754070E+03  0.47000000000E+01 0. -1.
         -5   -1    0    0    0  501 -0.00000000000E+00 -0.00000000000E+00 -0.53490548792E+02  0.53696636860E+02  0.47000000000E+01 0.  1.
          6    1    1    2  502    0 -0.29435997924E+02 -0.25486297807E+02  0.74692479091E+03  0.76746118639E+03  0.17200000000E+03 0. -1.
         -6    1    1    2    0  502  0.29435997924E+02  0.25486297807E+02  0.13610040736E+03  0.22276299117E+03  0.17200000000E+03 0.  1.
</event>
<event>
 4    1 -0.6532506E-004  0.2157014E+03  0.7818608E-02  0.1137129E+00
         -5   -1    0    0    0  501 -0.00000000000E+00  0.00000000000E+00  0.15774274119E+03  0.15781274473E+03  0.47000000000E+01 0.  1.
          5   -1    0    0  501    0  0.00000000000E+00 -0.00000000000E+00 -0.32697033297E+03  0.32700411105E+03  0.47000000000E+01 0. -1.
          6    1    1    2  502    0 -0.65287249133E+02 -0.11260838231E+03 -0.16063643125E+03  0.26894448444E+03  0.17200000000E+03 0. -1.
         -6    1    1    2    0  502  0.65287249133E+02  0.11260838231E+03 -0.85911605241E+01  0.21587237133E+03  0.17200000000E+03 0.  1.
</event>
<event>
 4    1 -0.6532506E-004  0.2076245E+03  0.7818608E-02  0.1143461E+00
         -5   -1    0    0    0  501 -0.00000000000E+00  0.00000000000E+00  0.95835778811E+02  0.95950958830E+02  0.47000000000E+01 0.  1.
          5   -1    0    0  501    0  0.00000000000E+00 -0.00000000000E+00 -0.44942731695E+03  0.44945189200E+03  0.47000000000E+01 0. -1.
          6    1    1    2  502    0 -0.98001374449E+02 -0.62607236360E+02 -0.17524837748E+03  0.27169823196E+03  0.17200000000E+03 0.  1.
         -6    1    1    2    0  502  0.98001374449E+02  0.62607236360E+02 -0.17834316066E+03  0.27370461887E+03  0.17200000000E+03 0.  1.
</event>
<event>
 4    1 -0.6532506E-004  0.1973314E+03  0.7818608E-02  0.1152010E+00
          5   -1    0    0  501    0  0.00000000000E+00  0.00000000000E+00  0.96045215384E+03  0.96046365357E+03  0.47000000000E+01 0. -1.
         -5   -1    0    0    0  501 -0.00000000000E+00 -0.00000000000E+00 -0.41699373751E+02  0.41963409909E+02  0.47000000000E+01 0.  1.
          6    1    1    2  502    0 -0.37140464152E+02 -0.89309896978E+02  0.54772418646E+03  0.58218678808E+03  0.17200000000E+03 0.  1.
         -6    1    1    2    0  502  0.37140464152E+02  0.89309896978E+02  0.37102859363E+03  0.42024027540E+03  0.17200000000E+03 0.  1.
</event>
<event>
 4    1 -0.6532506E-004  0.1901392E+03  0.7818608E-02  0.1158336E+00
         -5   -1    0    0    0  501 -0.00000000000E+00  0.00000000000E+00  0.38973665183E+03  0.38976499045E+03  0.47000000000E+01 0.  1.
          5   -1    0    0  501    0  0.00000000000E+00 -0.00000000000E+00 -0.22490600545E+03  0.22495510950E+03  0.47000000000E+01 0. -1.
          6    1    1    2  502    0 -0.66295581240E+02 -0.46624190388E+02  0.31803485757E+03  0.37053891814E+03  0.17200000000E+03 0.  1.
         -6    1    1    2    0  502  0.66295581240E+02  0.46624190388E+02 -0.15320421120E+03  0.24418118181E+03  0.17200000000E+03 0. -1.
</event>
<event>
 4    1 -0.6532506E-004  0.3893164E+03  0.7818608E-02  0.1047543E+00
          5   -1    0    0  501    0  0.00000000000E+00  0.00000000000E+00  0.29799732076E+03  0.29803438254E+03  0.47000000000E+01 0. -1.
         -5   -1    0    0    0  501 -0.00000000000E+00 -0.00000000000E+00 -0.61028590801E+03  0.61030400581E+03  0.47000000000E+01 0.  1.
          6    1    1    2  502    0 -0.28205562180E+03  0.20598028390E+03  0.29289673735E+02  0.39041661867E+03  0.17200000000E+03 0. -1.
         -6    1    1    2    0  502  0.28205562180E+03 -0.20598028390E+03 -0.34157826098E+03  0.51792176969E+03  0.17200000000E+03 0.  1.
</event>
<event>
 4    1 -0.6532506E-004  0.3769964E+03  0.7818608E-02  0.1052050E+00
         -5   -1    0    0    0  501 -0.00000000000E+00  0.00000000000E+00  0.53308177110E+03  0.53310248985E+03  0.47000000000E+01 0.  1.
          5   -1    0    0  501    0  0.00000000000E+00 -0.00000000000E+00 -0.27832168130E+03  0.27836136277E+03  0.47000000000E+01 0. -1.
          6    1    1    2  502    0  0.33347823894E+03 -0.36531333410E+02  0.21075652110E+03  0.43190807512E+03  0.17200000000E+03 0.  1.
         -6    1    1    2    0  502 -0.33347823894E+03  0.36531333410E+02  0.44003568701E+02  0.37955577749E+03  0.17200000000E+03 0.  1.
</event>
<event>
 4    1 -0.6532506E-004  0.2454027E+03  0.7818608E-02  0.1116245E+00
          5   -1    0    0  501    0  0.00000000000E+00  0.00000000000E+00  0.33295903116E+03  0.33299220176E+03  0.47000000000E+01 0. -1.
         -5   -1    0    0    0  501 -0.00000000000E+00 -0.00000000000E+00 -0.19132310361E+03  0.19138082447E+03  0.47000000000E+01 0.  1.
          6    1    1    2  502    0 -0.87824764750E+02  0.15141104051E+03  0.13229851153E+03  0.27879273421E+03  0.17200000000E+03 0. -1.
         -6    1    1    2    0  502  0.87824764750E+02 -0.15141104051E+03  0.93374160126E+01  0.24558029202E+03  0.17200000000E+03 0.  1.
</event>
<event>
 4    1 -0.6532506E-004  0.2507374E+03  0.7818608E-02  0.1112840E+00
          5   -1    0    0  501    0  0.00000000000E+00  0.00000000000E+00  0.80761737344E+03  0.80763104936E+03  0.47000000000E+01 0. -1.
         -5   -1    0    0    0  501 -0.00000000000E+00 -0.00000000000E+00 -0.77915208105E+02  0.78056836049E+02  0.47000000000E+01 0.  1.
          6    1    1    2  502    0  0.17710118381E+03 -0.43822586924E+02  0.34510886637E+03  0.42657868920E+03  0.17200000000E+03 0.  1.
         -6    1    1    2    0  502 -0.17710118381E+03  0.43822586924E+02  0.38459329896E+03  0.45910919621E+03  0.17200000000E+03 0.  1.
</event>
<event>
 4    1 -0.6532506E-004  0.2336516E+03  0.7818608E-02  0.1124096E+00
          5   -1    0    0  501    0  0.00000000000E+00  0.00000000000E+00  0.59227451494E+02  0.59413643302E+02  0.47000000000E+01 0. -1.
         -5   -1    0    0    0  501 -0.00000000000E+00 -0.00000000000E+00 -0.93153158353E+03  0.93154344027E+03  0.47000000000E+01 0.  1.
          6    1    1    2  502    0  0.13183340807E+03 -0.87344177228E+02 -0.49100145222E+03  0.54376049771E+03  0.17200000000E+03 0. -1.
         -6    1    1    2    0  502 -0.13183340807E+03  0.87344177228E+02 -0.38130267981E+03  0.44719658587E+03  0.17200000000E+03 0.  1.
</event>
<event>
 4    1 -0.6532506E-004  0.3227873E+03  0.7818608E-02  0.1074374E+00
          5   -1    0    0  501    0  0.00000000000E+00  0.00000000000E+00  0.38032162237E+03  0.38035066247E+03  0.47000000000E+01 0. -1.
         -5   -1    0    0    0  501 -0.00000000000E+00 -0.00000000000E+00 -0.45894169292E+03  0.45896575852E+03  0.47000000000E+01 0.  1.
          6    1    1    2  502    0 -0.22656276908E+02  0.27220268597E+03  0.22714652259E+03  0.39469881157E+03  0.17200000000E+03 0. -1.
         -6    1    1    2    0  502  0.22656276908E+02 -0.27220268597E+03 -0.30576659313E+03  0.44461760942E+03  0.17200000000E+03 0.  1.
</event>
<event>
 4    1 -0.6532506E-004  0.2937320E+03  0.7818608E-02  0.1088417E+00
         -5   -1    0    0    0  501 -0.00000000000E+00  0.00000000000E+00  0.21299851163E+03  0.21305036014E+03  0.47000000000E+01 0.  1.
          5   -1    0    0  501    0  0.00000000000E+00 -0.00000000000E+00 -0.40717461895E+03  0.40720174400E+03  0.47000000000E+01 0. -1.
          6    1    1    2  502    0 -0.54894953324E+02 -0.23169163883E+03 -0.12000238468E+03  0.31729961193E+03  0.17200000000E+03 0. -1.
         -6    1    1    2    0  502  0.54894953324E+02  0.23169163883E+03 -0.74173722640E+02  0.30295249221E+03  0.17200000000E+03 0.  1.
</event>
<event>
 4    1 -0.6532506E-004  0.2141945E+03  0.7818608E-02  0.1138287E+00
         -5   -1    0    0    0  501 -0.00000000000E+00  0.00000000000E+00  0.22073726213E+03  0.22078729332E+03  0.47000000000E+01 0.  1.
          5   -1    0    0  501    0  0.00000000000E+00 -0.00000000000E+00 -0.21020248285E+03  0.21025502086E+03  0.47000000000E+01 0. -1.
          6    1    1    2  502    0 -0.12470695336E+03 -0.27266217833E+02  0.28562819759E+02  0.21609050308E+03  0.17200000000E+03 0.  1.
         -6    1    1    2    0  502  0.12470695336E+03  0.27266217833E+02 -0.18028040485E+02  0.21495181110E+03  0.17200000000E+03 0.  1.
</event>
<event>
 4    1 -0.6532506E-004  0.1821386E+03  0.7818608E-02  0.1165749E+00
         -5   -1    0    0    0  501 -0.00000000000E+00  0.00000000000E+00  0.90067613935E+02  0.90190160660E+02  0.47000000000E+01 0.  1.
          5   -1    0    0  501    0  0.00000000000E+00 -0.00000000000E+00 -0.52338069909E+03  0.52340180185E+03  0.47000000000E+01 0. -1.
          6    1    1    2  502    0  0.12962363066E+02 -0.58501558262E+02 -0.38382764779E+03  0.42485070129E+03  0.17200000000E+03 0. -1.
         -6    1    1    2    0  502 -0.12962363066E+02  0.58501558262E+02 -0.49485437357E+02  0.18874126122E+03  0.17200000000E+03 0.  1.
</event>
<event>
 4    1 -0.6532506E-004  0.2504571E+03  0.7818608E-02  0.1113016E+00
          5   -1    0    0  501    0  0.00000000000E+00  0.00000000000E+00  0.13854398881E+03  0.13862368786E+03  0.47000000000E+01 0. -1.
         -5   -1    0    0    0  501 -0.00000000000E+00 -0.00000000000E+00 -0.45355434418E+03  0.45357869563E+03  0.47000000000E+01 0.  1.
          6    1    1    2  502    0 -0.16749201152E+03 -0.71352670481E+02 -0.17144104850E+03  0.30351410283E+03  0.17200000000E+03 0. -1.
         -6    1    1    2    0  502  0.16749201152E+03  0.71352670481E+02 -0.14356930688E+03  0.28868828065E+03  0.17200000000E+03 0. -1.
</event>
<event>
 4    1 -0.6532506E-004  0.3207359E+03  0.7818608E-02  0.1075311E+00
          5   -1    0    0  501    0  0.00000000000E+00  0.00000000000E+00  0.23498019721E+03  0.23502719647E+03  0.47000000000E+01 0. -1.
         -5   -1    0    0    0  501 -0.00000000000E+00 -0.00000000000E+00 -0.47990742848E+03  0.47993044279E+03  0.47000000000E+01 0.  1.
          6    1    1    2  502    0 -0.15141119206E+03  0.22441517504E+03 -0.16437504867E+02  0.32115683308E+03  0.17200000000E+03 0. -1.
         -6    1    1    2    0  502  0.15141119206E+03 -0.22441517504E+03 -0.22848972641E+03  0.39380080617E+03  0.17200000000E+03 0.  1.
</event>
<event>
 4    1 -0.6532506E-004  0.1814273E+03  0.7818608E-02  0.1166429E+00
          5   -1    0    0  501    0  0.00000000000E+00  0.00000000000E+00  0.92657884505E+02  0.92777009873E+02  0.47000000000E+01 0. -1.
         -5   -1    0    0    0  501 -0.00000000000E+00 -0.00000000000E+00 -0.46906404304E+03  0.46908758934E+03  0.47000000000E+01 0.  1.
          6    1    1    2  502    0  0.57579734235E+02  0.40538573834E+01 -0.49615424075E+02  0.18808920719E+03  0.17200000000E+03 0. -1.
         -6    1    1    2    0  502 -0.57579734235E+02 -0.40538573834E+01 -0.32679073446E+03  0.37377539202E+03  0.17200000000E+03 0.  1.
</event>
<event>
 4    1 -0.6532506E-004  0.2663315E+03  0.7818608E-02  0.1103398E+00
         -5   -1    0    0    0  501 -0.00000000000E+00  0.00000000000E+00  0.11856282612E+03  0.11865594691E+03  0.47000000000E+01 0.  1.
          5   -1    0    0  501    0  0.00000000000E+00 -0.00000000000E+00 -0.60085536209E+03  0.60087374394E+03  0.47000000000E+01 0. -1.
          6    1    1    2  502    0  0.20328533113E+03  0.48527479747E+01 -0.26623872835E+03  0.37658403510E+03  0.17200000000E+03 0. -1.
         -6    1    1    2    0  502 -0.20328533113E+03 -0.48527479747E+01 -0.21605380762E+03  0.34294565575E+03  0.17200000000E+03 0.  1.
</event>
<event>
 4    1 -0.6532506E-004  0.2520784E+03  0.7818608E-02  0.1111998E+00
         -5   -1    0    0    0  501 -0.00000000000E+00  0.00000000000E+00  0.56324737253E+03  0.56326698169E+03  0.47000000000E+01 0.  1.
          5   -1    0    0  501    0  0.00000000000E+00 -0.00000000000E+00 -0.28825843732E+03  0.28829675109E+03  0.47000000000E+01 0. -1.
          6    1    1    2  502    0 -0.41899187372E+02  0.17945465611E+03 -0.19469376159E+03  0.31851087313E+03  0.17200000000E+03 0. -1.
         -6    1    1    2    0  502  0.41899187372E+02 -0.17945465611E+03  0.46968269680E+03  0.53305285965E+03  0.17200000000E+03 0.  1.
</event>
<event>
 4    1 -0.6532506E-004  0.2998914E+03  0.7818608E-02  0.1085295E+00
         -5   -1    0    0    0  501 -0.00000000000E+00  0.00000000000E+00  0.64872075051E+02  0.65042110370E+02  0.47000000000E+01 0.  1.
          5   -1    0    0  501    0  0.00000000000E+00 -0.00000000000E+00 -0.16566327861E+04  0.16566394533E+04  0.47000000000E+01 0. -1.
          6    1    1    2  502    0 -0.18504708018E+03 -0.16158109102E+03 -0.11448550306E+04  0.11834812681E+04  0.17200000000E+03 0. -1.
         -6    1    1    2    0  502  0.18504708018E+03  0.16158109102E+03 -0.44690568048E+03  0.53820029552E+03  0.17200000000E+03 0.  1.
</event>
<event>
 4    1 -0.6532506E-004  0.1159572E+04  0.7818608E-02  0.9148999E-01
         -5   -1    0    0    0  501 -0.00000000000E+00  0.00000000000E+00  0.14392168981E+04  0.14392245724E+04  0.47000000000E+01 0.  1.
          5   -1    0    0  501    0  0.00000000000E+00 -0.00000000000E+00 -0.94235642286E+03  0.94236814341E+03  0.47000000000E+01 0. -1.
          6    1    1    2  502    0 -0.35421494196E+03  0.10906667420E+04  0.13796141301E+03  0.11677497671E+04  0.17200000000E+03 0. -1.
         -6    1    1    2    0  502  0.35421494196E+03 -0.10906667420E+04  0.35889906220E+03  0.12138429486E+04  0.17200000000E+03 0.  1.
</event>
<event>
 4    1 -0.6532506E-004  0.2456539E+03  0.7818608E-02  0.1116083E+00
         -5   -1    0    0    0  501 -0.00000000000E+00  0.00000000000E+00  0.34036450670E+03  0.34039695566E+03  0.47000000000E+01 0.  1.
          5   -1    0    0  501    0  0.00000000000E+00 -0.00000000000E+00 -0.17881944258E+03  0.17888119813E+03  0.47000000000E+01 0. -1.
          6    1    1    2  502    0 -0.12893966845E+03 -0.11889658496E+03  0.10527828667E+03  0.26726270533E+03  0.17200000000E+03 0. -1.
         -6    1    1    2    0  502  0.12893966845E+03  0.11889658496E+03  0.56266777452E+02  0.25201544846E+03  0.17200000000E+03 0.  1.
</event>
<event>
 4    1 -0.6532506E-004  0.1826872E+03  0.7818608E-02  0.1165227E+00
          5   -1    0    0  501    0  0.00000000000E+00  0.00000000000E+00  0.49501620883E+03  0.49503852073E+03  0.47000000000E+01 0. -1.
         -5   -1    0    0    0  501 -0.00000000000E+00 -0.00000000000E+00 -0.67399367558E+02  0.67563042762E+02  0.47000000000E+01 0.  1.
          6    1    1    2  502    0 -0.61162735289E+02 -0.70512105461E+01  0.22372042020E+03  0.28883460003E+03  0.17200000000E+03 0.  1.
         -6    1    1    2    0  502  0.61162735289E+02  0.70512105461E+01  0.20389642108E+03  0.27376696347E+03  0.17200000000E+03 0. -1.
</event>
<event>
 4    1 -0.6532506E-004  0.2074219E+03  0.7818608E-02  0.1143624E+00
          5   -1    0    0  501    0  0.00000000000E+00  0.00000000000E+00  0.46759569148E+03  0.46761931172E+03  0.47000000000E+01 0. -1.
         -5   -1    0    0    0  501 -0.00000000000E+00 -0.00000000000E+00 -0.93585225168E+02  0.93703171610E+02  0.47000000000E+01 0.  1.
          6    1    1    2  502    0  0.12209867173E+02  0.11528555195E+03  0.14964931187E+03  0.25577090509E+03  0.17200000000E+03 0. -1.
         -6    1    1    2    0  502 -0.12209867173E+02 -0.11528555195E+03  0.22436115444E+03  0.30555157824E+03  0.17200000000E+03 0. -1.
</event>
<event>
 4    1 -0.6532506E-004  0.2046231E+03  0.7818608E-02  0.1145896E+00
          5   -1    0    0  501    0  0.00000000000E+00  0.00000000000E+00  0.12799273410E+03  0.12807899899E+03  0.47000000000E+01 0. -1.
         -5   -1    0    0    0  501 -0.00000000000E+00 -0.00000000000E+00 -0.32720153293E+03  0.32723528714E+03  0.47000000000E+01 0.  1.
          6    1    1    2  502    0  0.64880558050E+02 -0.89872859214E+02 -0.10628811332E+03  0.23058139706E+03  0.17200000000E+03 0. -1.
         -6    1    1    2    0  502 -0.64880558050E+02  0.89872859214E+02 -0.92920685510E+02  0.22473288907E+03  0.17200000000E+03 0.  1.
</event>
<event>
 4    1 -0.6532506E-004  0.4313969E+03  0.7818608E-02  0.1033420E+00
         -5   -1    0    0    0  501 -0.00000000000E+00  0.00000000000E+00  0.27651964682E+03  0.27655958685E+03  0.47000000000E+01 0.  1.
          5   -1    0    0  501    0  0.00000000000E+00 -0.00000000000E+00 -0.18621888160E+04  0.18621947472E+04  0.47000000000E+01 0. -1.
          6    1    1    2  502    0  0.39322446978E+03 -0.43518157049E+02 -0.16474140865E+04  0.17029610935E+04  0.17200000000E+03 0. -1.
         -6    1    1    2    0  502 -0.39322446978E+03  0.43518157049E+02  0.61744917359E+02  0.43579324048E+03  0.17200000000E+03 0.  1.
</event>
<event>
 4    1 -0.6532506E-004  0.2144551E+03  0.7818608E-02  0.1138086E+00
         -5   -1    0    0    0  501 -0.00000000000E+00  0.00000000000E+00  0.29079161238E+03  0.29082959242E+03  0.47000000000E+01 0.  1.
          5   -1    0    0  501    0  0.00000000000E+00 -0.00000000000E+00 -0.17067917628E+03  0.17074387607E+03  0.47000000000E+01 0. -1.
          6    1    1    2  502    0  0.48833699050E+02 -0.11841563239E+03 -0.26412010717E+01  0.21447136895E+03  0.17200000000E+03 0. -1.
         -6    1    1    2    0  502 -0.48833699050E+02  0.11841563239E+03  0.12275363717E+03  0.24710209954E+03  0.17200000000E+03 0.  1.
</event>
<event>
 4    1 -0.6532506E-004  0.1883404E+03  0.7818608E-02  0.1159967E+00
          5   -1    0    0  501    0  0.00000000000E+00  0.00000000000E+00  0.21768545268E+04  0.21768596006E+04  0.47000000000E+01 0. -1.
         -5   -1    0    0    0  501 -0.00000000000E+00 -0.00000000000E+00 -0.17605669138E+02  0.18222227794E+02  0.47000000000E+01 0.  1.
          6    1    1    2  502    0 -0.49633201899E+02  0.58520619206E+02  0.14100284817E+04  0.14225513828E+04  0.17200000000E+03 0. -1.
         -6    1    1    2    0  502  0.49633201899E+02 -0.58520619206E+02  0.74922037599E+03  0.77253044562E+03  0.17200000000E+03 0.  1.
</event>
<event>
 4    1 -0.6532506E-004  0.1913723E+03  0.7818608E-02  0.1157229E+00
         -5   -1    0    0    0  501 -0.00000000000E+00  0.00000000000E+00  0.36493319932E+03  0.36496346387E+03  0.47000000000E+01 0.  1.
          5   -1    0    0  501    0  0.00000000000E+00 -0.00000000000E+00 -0.12144374363E+03  0.12153465706E+03  0.47000000000E+01 0. -1.
          6    1    1    2  502    0 -0.58046319377E+02 -0.60580264661E+02  0.22326699760E+03  0.29406036094E+03  0.17200000000E+03 0.  1.
         -6    1    1    2    0  502  0.58046319377E+02  0.60580264661E+02  0.20222458095E+02  0.19243775999E+03  0.17200000000E+03 0.  1.
</event>
<event>
 4    1 -0.6532506E-004  0.2421217E+03  0.7818608E-02  0.1118387E+00
         -5   -1    0    0    0  501 -0.00000000000E+00  0.00000000000E+00  0.70631685373E+02  0.70787887231E+02  0.47000000000E+01 0.  1.
          5   -1    0    0  501    0  0.00000000000E+00 -0.00000000000E+00 -0.13828376677E+04  0.13828456549E+04  0.47000000000E+01 0. -1.
          6    1    1    2  502    0 -0.16592483873E+03 -0.38830935412E+02 -0.11160876965E+04  0.11420484403E+04  0.17200000000E+03 0. -1.
         -6    1    1    2    0  502  0.16592483873E+03  0.38830935412E+02 -0.19611828583E+03  0.31158510184E+03  0.17200000000E+03 0.  1.
</event>
<event>
 4    1 -0.6532506E-004  0.2714259E+03  0.7818608E-02  0.1100466E+00
          5   -1    0    0  501    0  0.00000000000E+00  0.00000000000E+00  0.79480771376E+03  0.79482161008E+03  0.47000000000E+01 0. -1.
         -5   -1    0    0    0  501 -0.00000000000E+00 -0.00000000000E+00 -0.21783617761E+03  0.21788687495E+03  0.47000000000E+01 0.  1.
          6    1    1    2  502    0  0.14285420912E+03 -0.15388528875E+03  0.67230419713E+03  0.72502754475E+03  0.17200000000E+03 0. -1.
         -6    1    1    2    0  502 -0.14285420912E+03  0.15388528875E+03 -0.95332660983E+02  0.28768094029E+03  0.17200000000E+03 0.  1.
</event>
<event>
 4    1 -0.6532506E-004  0.1811493E+03  0.7818608E-02  0.1166695E+00
         -5   -1    0    0    0  501 -0.00000000000E+00  0.00000000000E+00  0.66454872761E+03  0.66456534770E+03  0.47000000000E+01 0.  1.
          5   -1    0    0  501    0  0.00000000000E+00 -0.00000000000E+00 -0.82014287318E+02  0.82148848587E+02  0.47000000000E+01 0. -1.
          6    1    1    2  502    0  0.12946156021E+02  0.55348720389E+02  0.55567173144E+02  0.18948032757E+03  0.17200000000E+03 0. -1.
         -6    1    1    2    0  502 -0.12946156021E+02 -0.55348720389E+02  0.52696726715E+03  0.55723386872E+03  0.17200000000E+03 0.  1.
</event>
<event>
 4    1 -0.6532506E-004  0.3067423E+03  0.7818608E-02  0.1081918E+00
          5   -1    0    0  501    0  0.00000000000E+00  0.00000000000E+00  0.62799024085E+03  0.62800782846E+03  0.47000000000E+01 0. -1.
         -5   -1    0    0    0  501 -0.00000000000E+00 -0.00000000000E+00 -0.17027004049E+03  0.17033489569E+03  0.47000000000E+01 0.  1.
          6    1    1    2  502    0 -0.20667035123E+03 -0.14762859622E+03  0.36732387590E+03  0.47855790277E+03  0.17200000000E+03 0. -1.
         -6    1    1    2    0  502  0.20667035123E+03  0.14762859622E+03  0.90396324459E+02  0.31978482137E+03  0.17200000000E+03 0.  1.
</event>
<event>
 4    1 -0.6532506E-004  0.2442862E+03  0.7818608E-02  0.1116970E+00
          5   -1    0    0  501    0  0.00000000000E+00  0.00000000000E+00  0.12435630152E+03  0.12444508720E+03  0.47000000000E+01 0. -1.
         -5   -1    0    0    0  501 -0.00000000000E+00 -0.00000000000E+00 -0.92940921599E+03  0.92942109980E+03  0.47000000000E+01 0.  1.
          6    1    1    2  502    0 -0.10020492956E+03  0.14160050792E+03 -0.35971837404E+02  0.24692044232E+03  0.17200000000E+03 0. -1.
         -6    1    1    2    0  502  0.10020492956E+03 -0.14160050792E+03 -0.76908107706E+03  0.80694574468E+03  0.17200000000E+03 0.  1.
</event>
<event>
 4    1 -0.6532506E-004  0.1756629E+03  0.7818608E-02  0.1172068E+00
         -5   -1    0    0    0  501 -0.00000000000E+00  0.00000000000E+00  0.11185313179E+03  0.11195183380E+03  0.47000000000E+01 0.  1.
          5   -1    0    0  501    0  0.00000000000E+00 -0.00000000000E+00 -0.39180934696E+03  0.39183753567E+03  0.47000000000E+01 0. -1.
          6    1    1    2  502    0  0.18075795608E+02  0.30768909828E+02 -0.27711814260E+03  0.32810352811E+03  0.17200000000E+03 0. -1.
         -6    1    1    2    0  502 -0.18075795608E+02 -0.30768909828E+02 -0.28380725683E+01  0.17568584136E+03  0.17200000000E+03 0.  1.
</event>
<event>
 4    1 -0.6532506E-004  0.2730996E+03  0.7818608E-02  0.1099519E+00
          5   -1    0    0  501    0  0.00000000000E+00  0.00000000000E+00  0.23175596850E+03  0.23180362149E+03  0.47000000000E+01 0. -1.
         -5   -1    0    0    0  501 -0.00000000000E+00 -0.00000000000E+00 -0.32453623746E+03  0.32457026885E+03  0.47000000000E+01 0.  1.
          6    1    1    2  502    0  0.15199391805E+03 -0.14797724580E+03 -0.20482992472E+02  0.27386670002E+03  0.17200000000E+03 0. -1.
         -6    1    1    2    0  502 -0.15199391805E+03  0.14797724580E+03 -0.72297276486E+02  0.28250719033E+03  0.17200000000E+03 0.  1.
</event>
<event>
 4    1 -0.6532506E-004  0.1787104E+03  0.7818608E-02  0.1169057E+00
          5   -1    0    0  501    0  0.00000000000E+00  0.00000000000E+00  0.77024746983E+03  0.77026180924E+03  0.47000000000E+01 0. -1.
         -5   -1    0    0    0  501 -0.00000000000E+00 -0.00000000000E+00 -0.42231487765E+02  0.42492217627E+02  0.47000000000E+01 0.  1.
          6    1    1    2  502    0  0.51923922167E+01  0.48233096046E+02  0.42364960205E+03  0.45980036734E+03  0.17200000000E+03 0. -1.
         -6    1    1    2    0  502 -0.51923922167E+01 -0.48233096046E+02  0.30436638001E+03  0.35295365953E+03  0.17200000000E+03 0.  1.
</event>
<event>
 4    1 -0.6532506E-004  0.2153801E+03  0.7818608E-02  0.1137375E+00
          5   -1    0    0  501    0  0.00000000000E+00  0.00000000000E+00  0.29846644450E+03  0.29850344804E+03  0.47000000000E+01 0. -1.
         -5   -1    0    0    0  501 -0.00000000000E+00 -0.00000000000E+00 -0.20794428444E+03  0.20799739284E+03  0.47000000000E+01 0.  1.
          6    1    1    2  502    0  0.30442764501E+02  0.12600732320E+03  0.17260540669E+03  0.27600948142E+03  0.17200000000E+03 0. -1.
         -6    1    1    2    0  502 -0.30442764501E+02 -0.12600732320E+03 -0.82083246631E+02  0.23049135947E+03  0.17200000000E+03 0.  1.
</event>
<event>
 4    1 -0.6532506E-004  0.1836560E+03  0.7818608E-02  0.1164311E+00
         -5   -1    0    0    0  501 -0.00000000000E+00  0.00000000000E+00  0.68451348074E+03  0.68452961610E+03  0.47000000000E+01 0.  1.
          5   -1    0    0  501    0  0.00000000000E+00 -0.00000000000E+00 -0.69914717365E+02  0.70072517467E+02  0.47000000000E+01 0. -1.
          6    1    1    2  502    0 -0.53295568879E+02 -0.36126189409E+02  0.10196461759E+03  0.21006261558E+03  0.17200000000E+03 0. -1.
         -6    1    1    2    0  502  0.53295568879E+02  0.36126189409E+02  0.51263414579E+03  0.54453951799E+03  0.17200000000E+03 0.  1.
</event>
<event>
 4    1 -0.6532506E-004  0.2742293E+03  0.7818608E-02  0.1098883E+00
          5   -1    0    0  501    0  0.00000000000E+00  0.00000000000E+00  0.85377154183E+03  0.85378447845E+03  0.47000000000E+01 0. -1.
         -5   -1    0    0    0  501 -0.00000000000E+00 -0.00000000000E+00 -0.10785450393E+03  0.10795686184E+03  0.47000000000E+01 0.  1.
          6    1    1    2  502    0 -0.14702479708E+03  0.15492382941E+03  0.57912785505E+03  0.64077356092E+03  0.17200000000E+03 0. -1.
         -6    1    1    2    0  502  0.14702479708E+03 -0.15492382941E+03  0.16678918285E+03  0.32096777937E+03  0.17200000000E+03 0.  1.
</event>
<event>
 4    1 -0.6532506E-004  0.2015039E+03  0.7818608E-02  0.1148476E+00
         -5   -1    0    0    0  501 -0.00000000000E+00  0.00000000000E+00  0.49568571774E+03  0.49570799950E+03  0.47000000000E+01 0.  1.
          5   -1    0    0  501    0  0.00000000000E+00 -0.00000000000E+00 -0.10735641723E+03  0.10745924959E+03  0.47000000000E+01 0. -1.
          6    1    1    2  502    0  0.72833328235E+02 -0.75598528710E+02  0.34114650227E+03  0.39621303267E+03  0.17200000000E+03 0.  1.
         -6    1    1    2    0  502 -0.72833328235E+02  0.75598528710E+02  0.47182798236E+02  0.20695421642E+03  0.17200000000E+03 0. -1.
</event>
<event>
 4    1 -0.6532506E-004  0.2060991E+03  0.7818608E-02  0.1144693E+00
          5   -1    0    0  501    0  0.00000000000E+00  0.00000000000E+00  0.10999577992E+04  0.10999678404E+04  0.47000000000E+01 0. -1.
         -5   -1    0    0    0  501 -0.00000000000E+00 -0.00000000000E+00 -0.44446944026E+02  0.44694751742E+02  0.47000000000E+01 0.  1.
          6    1    1    2  502    0 -0.34571568178E+02  0.10815561565E+03  0.73709545922E+03  0.76536693587E+03  0.17200000000E+03 0. -1.
         -6    1    1    2    0  502  0.34571568178E+02 -0.10815561565E+03  0.31841539595E+03  0.37929565632E+03  0.17200000000E+03 0.  1.
</event>
<event>
 4    1 -0.6532506E-004  0.1799286E+03  0.7818608E-02  0.1167872E+00
         -5   -1    0    0    0  501 -0.00000000000E+00  0.00000000000E+00  0.14263104744E+03  0.14270846399E+03  0.47000000000E+01 0.  1.
          5   -1    0    0  501    0  0.00000000000E+00 -0.00000000000E+00 -0.33449263175E+03  0.33452565028E+03  0.47000000000E+01 0. -1.
          6    1    1    2  502    0 -0.44029825270E+01  0.52639402692E+02 -0.23129140048E+03  0.29303584236E+03  0.17200000000E+03 0. -1.
         -6    1    1    2    0  502  0.44029825270E+01 -0.52639402692E+02  0.39429816171E+02  0.18419827191E+03  0.17200000000E+03 0.  1.
</event>
<event>
 4    1 -0.6532506E-004  0.1751291E+03  0.7818608E-02  0.1172602E+00
          5   -1    0    0  501    0  0.00000000000E+00  0.00000000000E+00  0.67571748273E+02  0.67735006936E+02  0.47000000000E+01 0. -1.
         -5   -1    0    0    0  501 -0.00000000000E+00 -0.00000000000E+00 -0.45488475916E+03  0.45490903939E+03  0.47000000000E+01 0.  1.
          6    1    1    2  502    0 -0.14544080050E+02 -0.29575020553E+02 -0.17760564914E+03  0.24942730145E+03  0.17200000000E+03 0.  1.
         -6    1    1    2    0  502  0.14544080050E+02  0.29575020553E+02 -0.20970736175E+03  0.27321674487E+03  0.17200000000E+03 0. -1.
</event>
<event>
 4    1 -0.6532506E-004  0.1768331E+03  0.7818608E-02  0.1170904E+00
         -5   -1    0    0    0  501 -0.00000000000E+00  0.00000000000E+00  0.43494800576E+03  0.43497339886E+03  0.47000000000E+01 0.  1.
          5   -1    0    0  501    0  0.00000000000E+00 -0.00000000000E+00 -0.76115791738E+02  0.76260761548E+02  0.47000000000E+01 0. -1.
          6    1    1    2  502    0 -0.40938004351E+02  0.31638103221E+01  0.11854237594E+03  0.21289017072E+03  0.17200000000E+03 0.  1.
         -6    1    1    2    0  502  0.40938004351E+02 -0.31638103221E+01  0.24028983809E+03  0.29834398969E+03  0.17200000000E+03 0.  1.
</event>
<event>
 4    1 -0.6532506E-004  0.1883390E+03  0.7818608E-02  0.1159968E+00
         -5   -1    0    0    0  501 -0.00000000000E+00  0.00000000000E+00  0.21961862647E+03  0.21966891244E+03  0.47000000000E+01 0.  1.
          5   -1    0    0  501    0  0.00000000000E+00 -0.00000000000E+00 -0.16199020900E+03  0.16205837779E+03  0.47000000000E+01 0. -1.
          6    1    1    2  502    0 -0.42832818491E+02  0.63662638425E+02  0.17410059014E+02  0.18914198906E+03  0.17200000000E+03 0. -1.
         -6    1    1    2    0  502  0.42832818491E+02 -0.63662638425E+02  0.40218358452E+02  0.19258530117E+03  0.17200000000E+03 0.  1.
</event>
<event>
 4    1 -0.6532506E-004  0.1833794E+03  0.7818608E-02  0.1164572E+00
         -5   -1    0    0    0  501 -0.00000000000E+00  0.00000000000E+00  0.11100218122E+04  0.11100317625E+04  0.47000000000E+01 0.  1.
          5   -1    0    0  501    0  0.00000000000E+00 -0.00000000000E+00 -0.31954690588E+02  0.32298486816E+02  0.47000000000E+01 0. -1.
          6    1    1    2  502    0 -0.44390401289E+02  0.45535790337E+02  0.67576826453E+03  0.70020765725E+03  0.17200000000E+03 0.  1.
         -6    1    1    2    0  502  0.44390401289E+02 -0.45535790337E+02  0.40229885712E+03  0.44212259202E+03  0.17200000000E+03 0.  1.
</event>
<event>
 4    1 -0.6532506E-004  0.3569452E+03  0.7818608E-02  0.1059800E+00
          5   -1    0    0  501    0  0.00000000000E+00  0.00000000000E+00  0.34443175959E+03  0.34446382541E+03  0.47000000000E+01 0. -1.
         -5   -1    0    0    0  501 -0.00000000000E+00 -0.00000000000E+00 -0.38780449350E+03  0.38783297330E+03  0.47000000000E+01 0.  1.
          6    1    1    2  502    0  0.10449271681E+03 -0.29480021925E+03  0.57093237814E+02  0.36148241305E+03  0.17200000000E+03 0. -1.
         -6    1    1    2    0  502 -0.10449271681E+03  0.29480021925E+03 -0.10046597173E+03  0.37081438566E+03  0.17200000000E+03 0.  1.
</event>
<event>
 4    1 -0.6532506E-004  0.2637250E+03  0.7818608E-02  0.1104926E+00
          5   -1    0    0  501    0  0.00000000000E+00  0.00000000000E+00  0.17204447626E+03  0.17210866280E+03  0.47000000000E+01 0. -1.
         -5   -1    0    0    0  501 -0.00000000000E+00 -0.00000000000E+00 -0.44283481497E+03  0.44285975585E+03  0.47000000000E+01 0.  1.
          6    1    1    2  502    0 -0.19609489280E+03 -0.38905817336E+02 -0.22631634222E+03  0.34751972082E+03  0.17200000000E+03 0.  1.
         -6    1    1    2    0  502  0.19609489280E+03  0.38905817336E+02 -0.44473996493E+02  0.26744869783E+03  0.17200000000E+03 0. -1.
</event>
<event>
 4    1 -0.6532506E-004  0.3393735E+03  0.7818608E-02  0.1067063E+00
          5   -1    0    0  501    0  0.00000000000E+00  0.00000000000E+00  0.54012177417E+03  0.54014222287E+03  0.47000000000E+01 0. -1.
         -5   -1    0    0    0  501 -0.00000000000E+00 -0.00000000000E+00 -0.24224867265E+03  0.24229426201E+03  0.47000000000E+01 0.  1.
          6    1    1    2  502    0  0.25695744126E+03  0.13986860396E+03  0.28441929830E+03  0.44279644335E+03  0.17200000000E+03 0. -1.
         -6    1    1    2    0  502 -0.25695744126E+03 -0.13986860396E+03  0.13453803209E+02  0.33964004153E+03  0.17200000000E+03 0.  1.
</event>
<event>
 4    1 -0.6532506E-004  0.1975514E+03  0.7818608E-02  0.1151821E+00
          5   -1    0    0  501    0  0.00000000000E+00  0.00000000000E+00  0.65883531540E+03  0.65885207962E+03  0.47000000000E+01 0. -1.
         -5   -1    0    0    0  501 -0.00000000000E+00 -0.00000000000E+00 -0.13424027316E+03  0.13432252581E+03  0.47000000000E+01 0.  1.
          6    1    1    2  502    0 -0.81002048256E+02 -0.53677204368E+02  0.55879250021E+03  0.59268510390E+03  0.17200000000E+03 0. -1.
         -6    1    1    2    0  502  0.81002048256E+02  0.53677204368E+02 -0.34197457977E+02  0.20048950153E+03  0.17200000000E+03 0.  1.
</event>
<event>
 4    1 -0.6532506E-004  0.2274987E+03  0.7818608E-02  0.1128413E+00
          5   -1    0    0  501    0  0.00000000000E+00  0.00000000000E+00  0.21188186076E+03  0.21193398246E+03  0.47000000000E+01 0. -1.
         -5   -1    0    0    0  501 -0.00000000000E+00 -0.00000000000E+00 -0.30496839277E+03  0.30500460748E+03  0.47000000000E+01 0.  1.
          6    1    1    2  502    0  0.55768502645E+02 -0.13806357228E+03  0.68852657128E+02  0.23768963855E+03  0.17200000000E+03 0. -1.
         -6    1    1    2    0  502 -0.55768502645E+02  0.13806357228E+03 -0.16193918913E+03  0.27924895140E+03  0.17200000000E+03 0. -1.
</event>
<event>
 4    1 -0.6532506E-004  0.1969235E+03  0.7818608E-02  0.1152361E+00
          5   -1    0    0  501    0  0.00000000000E+00  0.00000000000E+00  0.30926143185E+03  0.30929714391E+03  0.47000000000E+01 0. -1.
         -5   -1    0    0    0  501 -0.00000000000E+00 -0.00000000000E+00 -0.18073200532E+03  0.18079310758E+03  0.47000000000E+01 0.  1.
          6    1    1    2  502    0  0.13155105808E+02 -0.94983224012E+02  0.19992641669E+03  0.28062330934E+03  0.17200000000E+03 0. -1.
         -6    1    1    2    0  502 -0.13155105808E+02  0.94983224012E+02 -0.71396990157E+02  0.20946694216E+03  0.17200000000E+03 0.  1.
</event>
<event>
 4    1 -0.6532506E-004  0.2011138E+03  0.7818608E-02  0.1148803E+00
          5   -1    0    0  501    0  0.00000000000E+00  0.00000000000E+00  0.12118923355E+04  0.12119014493E+04  0.47000000000E+01 0. -1.
         -5   -1    0    0    0  501 -0.00000000000E+00 -0.00000000000E+00 -0.36932107336E+02  0.37229968470E+02  0.47000000000E+01 0.  1.
          6    1    1    2  502    0 -0.10409665521E+03 -0.51633614278E+01  0.38980551094E+03  0.43862867016E+03  0.17200000000E+03 0.  1.
         -6    1    1    2    0  502  0.10409665521E+03  0.51633614278E+01  0.78515471725E+03  0.81050274765E+03  0.17200000000E+03 0. -1.
</event>
<event>
 4    1 -0.6532506E-004  0.2285171E+03  0.7818608E-02  0.1127688E+00
         -5   -1    0    0    0  501 -0.00000000000E+00  0.00000000000E+00  0.10406820217E+03  0.10417428043E+03  0.47000000000E+01 0.  1.
          5   -1    0    0  501    0  0.00000000000E+00 -0.00000000000E+00 -0.50440838424E+03  0.50443028070E+03  0.47000000000E+01 0. -1.
          6    1    1    2  502    0  0.22156629105E+02  0.14881248530E+03 -0.22361187786E+03  0.31972229186E+03  0.17200000000E+03 0. -1.
         -6    1    1    2    0  502 -0.22156629105E+02 -0.14881248530E+03 -0.17672830420E+03  0.28888226927E+03  0.17200000000E+03 0.  1.
</event>
<event>
 4    1 -0.6532506E-004  0.3054937E+03  0.7818608E-02  0.1082526E+00
         -5   -1    0    0    0  501 -0.00000000000E+00  0.00000000000E+00  0.14428444680E+03  0.14436097669E+03  0.47000000000E+01 0.  1.
          5   -1    0    0  501    0  0.00000000000E+00 -0.00000000000E+00 -0.66510772473E+03  0.66512433085E+03  0.47000000000E+01 0. -1.
          6    1    1    2  502    0  0.15444048995E+03 -0.19972617273E+03 -0.32798566361E+03  0.44821981721E+03  0.17200000000E+03 0. -1.
         -6    1    1    2    0  502 -0.15444048995E+03  0.19972617273E+03 -0.19283761432E+03  0.36126549033E+03  0.17200000000E+03 0.  1.
</event>
<event>
 4    1 -0.6532506E-004  0.2253753E+03  0.7818608E-02  0.1129938E+00
         -5   -1    0    0    0  501 -0.00000000000E+00  0.00000000000E+00  0.82052007367E+02  0.82186506879E+02  0.47000000000E+01 0.  1.
          5   -1    0    0  501    0  0.00000000000E+00 -0.00000000000E+00 -0.62316014210E+03  0.62317786603E+03  0.47000000000E+01 0. -1.
          6    1    1    2  502    0 -0.10763578594E+03  0.98104828390E+02 -0.23972137218E+03  0.32902941517E+03  0.17200000000E+03 0. -1.
         -6    1    1    2    0  502  0.10763578594E+03 -0.98104828390E+02 -0.30138676256E+03  0.37633495774E+03  0.17200000000E+03 0.  1.
</event>
<event>
 4    1 -0.6532506E-004  0.2239975E+03  0.7818608E-02  0.1130937E+00
          5   -1    0    0  501    0  0.00000000000E+00  0.00000000000E+00  0.17918741521E+03  0.17924904398E+03  0.47000000000E+01 0. -1.
         -5   -1    0    0    0  501 -0.00000000000E+00 -0.00000000000E+00 -0.73732784073E+03  0.73734282034E+03  0.47000000000E+01 0.  1.
          6    1    1    2  502    0  0.89041765160E+02 -0.11252748585E+03  0.81889289622E+02  0.23849680662E+03  0.17200000000E+03 0. -1.
         -6    1    1    2    0  502 -0.89041765160E+02  0.11252748585E+03 -0.64002971515E+03  0.67809505770E+03  0.17200000000E+03 0.  1.
</event>
<event>
 4    1 -0.6532506E-004  0.2505053E+03  0.7818608E-02  0.1112986E+00
          5   -1    0    0  501    0  0.00000000000E+00  0.00000000000E+00  0.92538873376E+03  0.92540066921E+03  0.47000000000E+01 0. -1.
         -5   -1    0    0    0  501 -0.00000000000E+00 -0.00000000000E+00 -0.77296801699E+02  0.77439560645E+02  0.47000000000E+01 0.  1.
          6    1    1    2  502    0 -0.66856527086E+02 -0.16940811012E+03  0.24772685730E+03  0.35230881172E+03  0.17200000000E+03 0.  1.
         -6    1    1    2    0  502  0.66856527086E+02  0.16940811012E+03  0.60036507476E+03  0.65053141813E+03  0.17200000000E+03 0. -1.
</event>
<event>
 4    1 -0.6532506E-004  0.2335547E+03  0.7818608E-02  0.1124163E+00
         -5   -1    0    0    0  501 -0.00000000000E+00  0.00000000000E+00  0.11200182246E+03  0.11210039356E+03  0.47000000000E+01 0.  1.
          5   -1    0    0  501    0  0.00000000000E+00 -0.00000000000E+00 -0.70425894601E+03  0.70427462898E+03  0.47000000000E+01 0. -1.
          6    1    1    2  502    0  0.14574219567E+03  0.61016288085E+02 -0.69275809028E+02  0.24361221793E+03  0.17200000000E+03 0.  1.
         -6    1    1    2    0  502 -0.14574219567E+03 -0.61016288085E+02 -0.52298131451E+03  0.57276280461E+03  0.17200000000E+03 0. -1.
</event>
<event>
 4    1 -0.6532506E-004  0.1955423E+03  0.7818608E-02  0.1153555E+00
          5   -1    0    0  501    0  0.00000000000E+00  0.00000000000E+00  0.12702549144E+03  0.12711241275E+03  0.47000000000E+01 0. -1.
         -5   -1    0    0    0  501 -0.00000000000E+00 -0.00000000000E+00 -0.34106807155E+03  0.34110045357E+03  0.47000000000E+01 0.  1.
          6    1    1    2  502    0 -0.14116096563E+02  0.91943138746E+02 -0.26603928479E+02  0.19734379634E+03  0.17200000000E+03 0. -1.
         -6    1    1    2    0  502  0.14116096563E+02 -0.91943138746E+02 -0.18743865163E+03  0.27086906998E+03  0.17200000000E+03 0.  1.
</event>
<event>
 4    1 -0.6532506E-004  0.2486755E+03  0.7818608E-02  0.1114145E+00
          5   -1    0    0  501    0  0.00000000000E+00  0.00000000000E+00  0.53485657714E+02  0.53691764556E+02  0.47000000000E+01 0. -1.
         -5   -1    0    0    0  501 -0.00000000000E+00 -0.00000000000E+00 -0.12077885735E+04  0.12077977183E+04  0.47000000000E+01 0.  1.
          6    1    1    2  502    0 -0.40414485280E+02 -0.17499191920E+03 -0.44375186250E+03  0.50867987761E+03  0.17200000000E+03 0.  1.
         -6    1    1    2    0  502  0.40414485280E+02  0.17499191920E+03 -0.71055105330E+03  0.75280960525E+03  0.17200000000E+03 0.  1.
</event>
<event>
 4    1 -0.6532506E-004  0.2443913E+03  0.7818608E-02  0.1116902E+00
          5   -1    0    0  501    0  0.00000000000E+00  0.00000000000E+00  0.11520101670E+04  0.11520197546E+04  0.47000000000E+01 0. -1.
         -5   -1    0    0    0  501 -0.00000000000E+00 -0.00000000000E+00 -0.58597517343E+02  0.58785704374E+02  0.47000000000E+01 0.  1.
          6    1    1    2  502    0  0.13992670642E+03  0.10277947878E+03  0.75359568382E+03  0.79223327316E+03  0.17200000000E+03 0. -1.
         -6    1    1    2    0  502 -0.13992670642E+03 -0.10277947878E+03  0.33981696586E+03  0.41857218578E+03  0.17200000000E+03 0.  1.
</event>
<event>
 4    1 -0.6532506E-004  0.2237791E+03  0.7818608E-02  0.1131097E+00
          5   -1    0    0  501    0  0.00000000000E+00  0.00000000000E+00  0.15256773131E+03  0.15264010822E+03  0.47000000000E+01 0. -1.
         -5   -1    0    0    0  501 -0.00000000000E+00 -0.00000000000E+00 -0.49759382289E+03  0.49761601921E+03  0.47000000000E+01 0.  1.
          6    1    1    2  502    0 -0.13654882589E+03  0.42982559136E+02  0.17244683665E+02  0.22444255692E+03  0.17200000000E+03 0. -1.
         -6    1    1    2    0  502  0.13654882589E+03 -0.42982559136E+02 -0.36227077524E+03  0.42581357052E+03  0.17200000000E+03 0.  1.
</event>
<event>
 4    1 -0.6532506E-004  0.3628395E+03  0.7818608E-02  0.1057465E+00
          5   -1    0    0  501    0  0.00000000000E+00  0.00000000000E+00  0.47225727882E+03  0.47228066591E+03  0.47000000000E+01 0. -1.
         -5   -1    0    0    0  501 -0.00000000000E+00 -0.00000000000E+00 -0.30018981903E+03  0.30022661017E+03  0.47000000000E+01 0.  1.
          6    1    1    2  502    0  0.31181826603E+03  0.69554864660E+02 -0.17246309001E+02  0.36324915059E+03  0.17200000000E+03 0.  1.
         -6    1    1    2    0  502 -0.31181826603E+03 -0.69554864660E+02  0.18931376878E+03  0.40925812549E+03  0.17200000000E+03 0. -1.
</event>
<event>
 4    1 -0.6532506E-004  0.1792731E+03  0.7818608E-02  0.1168508E+00
         -5   -1    0    0    0  501 -0.00000000000E+00  0.00000000000E+00  0.12163184734E+03  0.12172262028E+03  0.47000000000E+01 0.  1.
          5   -1    0    0  501    0  0.00000000000E+00 -0.00000000000E+00 -0.27203018511E+03  0.27207078420E+03  0.47000000000E+01 0. -1.
          6    1    1    2  502    0  0.11574172938E+02 -0.49202518512E+02 -0.10897748401E+03  0.20979738160E+03  0.17200000000E+03 0. -1.
         -6    1    1    2    0  502 -0.11574172938E+02  0.49202518512E+02 -0.41420853764E+02  0.18399602287E+03  0.17200000000E+03 0. -1.
</event>
<event>
 4    1 -0.6532506E-004  0.1857799E+03  0.7818608E-02  0.1162324E+00
         -5   -1    0    0    0  501 -0.00000000000E+00  0.00000000000E+00  0.15629563969E+03  0.15636629108E+03  0.47000000000E+01 0.  1.
          5   -1    0    0  501    0  0.00000000000E+00 -0.00000000000E+00 -0.33894170172E+03  0.33897428688E+03  0.47000000000E+01 0. -1.
          6    1    1    2  502    0  0.41951951054E+02 -0.56304738431E+02 -0.23759475923E+03  0.30160480663E+03  0.17200000000E+03 0. -1.
         -6    1    1    2    0  502 -0.41951951054E+02  0.56304738431E+02  0.54948697204E+02  0.19373577133E+03  0.17200000000E+03 0.  1.
</event>
<event>
 4    1 -0.6532506E-004  0.2183265E+03  0.7818608E-02  0.1135137E+00
         -5   -1    0    0    0  501 -0.00000000000E+00  0.00000000000E+00  0.83078591507E+03  0.83079920960E+03  0.47000000000E+01 0.  1.
          5   -1    0    0  501    0  0.00000000000E+00 -0.00000000000E+00 -0.57281314981E+02  0.57473811827E+02  0.47000000000E+01 0. -1.
          6    1    1    2  502    0  0.47663626517E+02  0.12574040913E+03  0.39420536218E+03  0.45062660746E+03  0.17200000000E+03 0. -1.
         -6    1    1    2    0  502 -0.47663626517E+02 -0.12574040913E+03  0.37929923791E+03  0.43764641397E+03  0.17200000000E+03 0.  1.
</event>
<event>
 4    1 -0.6532506E-004  0.3074453E+03  0.7818608E-02  0.1081577E+00
         -5   -1    0    0    0  501 -0.00000000000E+00  0.00000000000E+00  0.10728095882E+04  0.10728198836E+04  0.47000000000E+01 0.  1.
          5   -1    0    0  501    0  0.00000000000E+00 -0.00000000000E+00 -0.11167651213E+03  0.11177537011E+03  0.47000000000E+01 0. -1.
          6    1    1    2  502    0  0.25482419109E+03  0.18051502769E+01  0.20819192375E+03  0.37130378943E+03  0.17200000000E+03 0. -1.
         -6    1    1    2    0  502 -0.25482419109E+03 -0.18051502769E+01  0.75294115235E+03  0.81329146426E+03  0.17200000000E+03 0.  1.
</event>
<event>
 4    1 -0.6532506E-004  0.2237163E+03  0.7818608E-02  0.1131142E+00
          5   -1    0    0  501    0  0.00000000000E+00  0.00000000000E+00  0.38806398642E+03  0.38809244717E+03  0.47000000000E+01 0. -1.
         -5   -1    0    0    0  501 -0.00000000000E+00 -0.00000000000E+00 -0.30612007203E+03  0.30615615052E+03  0.47000000000E+01 0.  1.
          6    1    1    2  502    0 -0.27039509118E+02  0.14047727990E+03  0.30505368656E+03  0.37829453195E+03  0.17200000000E+03 0. -1.
         -6    1    1    2    0  502  0.27039509118E+02 -0.14047727990E+03 -0.22310977217E+03  0.31595406574E+03  0.17200000000E+03 0.  1.
</event>
<event>
 4    1 -0.6532506E-004  0.2312061E+03  0.7818608E-02  0.1125794E+00
         -5   -1    0    0    0  501 -0.00000000000E+00  0.00000000000E+00  0.40111169724E+03  0.40113923227E+03  0.47000000000E+01 0.  1.
          5   -1    0    0  501    0  0.00000000000E+00 -0.00000000000E+00 -0.13528092792E+03  0.13536254821E+03  0.47000000000E+01 0. -1.
          6    1    1    2  502    0  0.14934556890E+03 -0.39599798819E+02  0.99632293542E+02  0.25175948231E+03  0.17200000000E+03 0.  1.
         -6    1    1    2    0  502 -0.14934556890E+03  0.39599798819E+02  0.16619847578E+03  0.28474229817E+03  0.17200000000E+03 0.  1.
</event>
<event>
 4    1 -0.6532506E-004  0.2103478E+03  0.7818608E-02  0.1141291E+00
          5   -1    0    0  501    0  0.00000000000E+00  0.00000000000E+00  0.27769383215E+02  0.28164315083E+02  0.47000000000E+01 0. -1.
         -5   -1    0    0    0  501 -0.00000000000E+00 -0.00000000000E+00 -0.17662959610E+04  0.17663022142E+04  0.47000000000E+01 0.  1.
          6    1    1    2  502    0 -0.93994462522E+02  0.76336394870E+02 -0.57923540536E+03  0.61624658944E+03  0.17200000000E+03 0.  1.
         -6    1    1    2    0  502  0.93994462522E+02 -0.76336394870E+02 -0.11592911724E+04  0.11782199398E+04  0.17200000000E+03 0.  1.
</event>
<event>
 4    1 -0.6532506E-004  0.1849004E+03  0.7818608E-02  0.1163143E+00
         -5   -1    0    0    0  501 -0.00000000000E+00  0.00000000000E+00  0.22500252265E+03  0.22505160564E+03  0.47000000000E+01 0.  1.
          5   -1    0    0  501    0  0.00000000000E+00 -0.00000000000E+00 -0.17328620954E+03  0.17334993630E+03  0.47000000000E+01 0. -1.
          6    1    1    2  502    0  0.62098282336E+02 -0.27349177366E+02  0.95906789653E+02  0.20829375044E+03  0.17200000000E+03 0.  1.
         -6    1    1    2    0  502 -0.62098282336E+02  0.27349177366E+02 -0.44190476541E+02  0.19010779150E+03  0.17200000000E+03 0. -1.
</event>
<event>
 4    1 -0.6532506E-004  0.1989589E+03  0.7818608E-02  0.1150620E+00
         -5   -1    0    0    0  501 -0.00000000000E+00  0.00000000000E+00  0.21409279537E+04  0.21409331127E+04  0.47000000000E+01 0.  1.
          5   -1    0    0  501    0  0.00000000000E+00 -0.00000000000E+00 -0.18646998663E+02  0.19230199144E+02  0.47000000000E+01 0. -1.
          6    1    1    2  502    0 -0.97648908676E+02 -0.21571933762E+02  0.89388043571E+03  0.91575482037E+03  0.17200000000E+03 0. -1.
         -6    1    1    2    0  502  0.97648908676E+02  0.21571933762E+02  0.12284005193E+04  0.12444084914E+04  0.17200000000E+03 0. -1.
</event>
<event>
 4    1 -0.6532506E-004  0.1929362E+03  0.7818608E-02  0.1155839E+00
         -5   -1    0    0    0  501 -0.00000000000E+00  0.00000000000E+00  0.10413037628E+03  0.10423639126E+03  0.47000000000E+01 0.  1.
          5   -1    0    0  501    0  0.00000000000E+00 -0.00000000000E+00 -0.43896605882E+03  0.43899121949E+03  0.47000000000E+01 0. -1.
          6    1    1    2  502    0 -0.77093992629E+02  0.41193412755E+02 -0.50192271402E+02  0.19935808251E+03  0.17200000000E+03 0.  1.
         -6    1    1    2    0  502  0.77093992629E+02 -0.41193412755E+02 -0.28464341114E+03  0.34386952825E+03  0.17200000000E+03 0. -1.
</event>
<event>
 4    1 -0.6532506E-004  0.3148293E+03  0.7818608E-02  0.1078054E+00
         -5   -1    0    0    0  501 -0.00000000000E+00  0.00000000000E+00  0.18537414152E+03  0.18543371416E+03  0.47000000000E+01 0.  1.
          5   -1    0    0  501    0  0.00000000000E+00 -0.00000000000E+00 -0.53800978840E+03  0.53803031738E+03  0.47000000000E+01 0. -1.
          6    1    1    2  502    0  0.22794956026E+03  0.13256124812E+03 -0.20539457838E+03  0.37590480092E+03  0.17200000000E+03 0. -1.
         -6    1    1    2    0  502 -0.22794956026E+03 -0.13256124812E+03 -0.14724106850E+03  0.34755923061E+03  0.17200000000E+03 0.  1.
</event>
<event>
 4    1 -0.6532506E-004  0.2452537E+03  0.7818608E-02  0.1116342E+00
         -5   -1    0    0    0  501 -0.00000000000E+00  0.00000000000E+00  0.88190502812E+03  0.88191755206E+03  0.47000000000E+01 0.  1.
          5   -1    0    0  501    0  0.00000000000E+00 -0.00000000000E+00 -0.97598351051E+02  0.97711453412E+02  0.47000000000E+01 0. -1.
          6    1    1    2  502    0 -0.39634858019E+02  0.17027761896E+03  0.12312224708E+03  0.27442390059E+03  0.17200000000E+03 0. -1.
         -6    1    1    2    0  502  0.39634858019E+02 -0.17027761896E+03  0.66118442999E+03  0.70520510488E+03  0.17200000000E+03 0. -1.
</event>
<event>
 4    1 -0.6532506E-004  0.2678368E+03  0.7818608E-02  0.1102524E+00
         -5   -1    0    0    0  501 -0.00000000000E+00  0.00000000000E+00  0.51526738441E+03  0.51528881944E+03  0.47000000000E+01 0.  1.
          5   -1    0    0  501    0  0.00000000000E+00 -0.00000000000E+00 -0.15139183511E+03  0.15146477392E+03  0.47000000000E+01 0. -1.
          6    1    1    2  502    0  0.17253478892E+03  0.11128464593E+03  0.87199241250E+02  0.28167398439E+03  0.17200000000E+03 0. -1.
         -6    1    1    2    0  502 -0.17253478892E+03 -0.11128464593E+03  0.27667630805E+03  0.38507960897E+03  0.17200000000E+03 0.  1.
</event>
<event>
 4    1 -0.6532506E-004  0.2433925E+03  0.7818608E-02  0.1117553E+00
          5   -1    0    0  501    0  0.00000000000E+00  0.00000000000E+00  0.27339481306E+03  0.27343520952E+03  0.47000000000E+01 0. -1.
         -5   -1    0    0    0  501 -0.00000000000E+00 -0.00000000000E+00 -0.38558921671E+03  0.38561786012E+03  0.47000000000E+01 0.  1.
          6    1    1    2  502    0  0.15503304400E+03 -0.74971129839E+02  0.16203073974E+03  0.29239335776E+03  0.17200000000E+03 0. -1.
         -6    1    1    2    0  502 -0.15503304400E+03  0.74971129839E+02 -0.27422514340E+03  0.36665971188E+03  0.17200000000E+03 0.  1.
</event>
<event>
 4    1 -0.6532506E-004  0.2110938E+03  0.7818608E-02  0.1140703E+00
          5   -1    0    0  501    0  0.00000000000E+00  0.00000000000E+00  0.12734161403E+04  0.12734248138E+04  0.47000000000E+01 0. -1.
         -5   -1    0    0    0  501 -0.00000000000E+00 -0.00000000000E+00 -0.48614213366E+02  0.48840881863E+02  0.47000000000E+01 0.  1.
          6    1    1    2  502    0 -0.11797677118E+03  0.32527930907E+02  0.96348395025E+03  0.98633762334E+03  0.17200000000E+03 0. -1.
         -6    1    1    2    0  502  0.11797677118E+03 -0.32527930907E+02  0.26131797666E+03  0.33592807228E+03  0.17200000000E+03 0.  1.
</event>
<event>
 4    1 -0.6532506E-004  0.1964177E+03  0.7818608E-02  0.1152797E+00
         -5   -1    0    0    0  501 -0.00000000000E+00  0.00000000000E+00  0.59805000778E+03  0.59806847585E+03  0.47000000000E+01 0.  1.
          5   -1    0    0  501    0  0.00000000000E+00 -0.00000000000E+00 -0.11085116351E+03  0.11095075688E+03  0.47000000000E+01 0. -1.
          6    1    1    2  502    0 -0.84500072093E+02  0.43077251746E+02  0.14283461958E+02  0.19693635796E+03  0.17200000000E+03 0. -1.
         -6    1    1    2    0  502  0.84500072093E+02 -0.43077251746E+02  0.47291538231E+03  0.51208287477E+03  0.17200000000E+03 0.  1.
</event>
<event>
 4    1 -0.6532506E-004  0.1937692E+03  0.7818608E-02  0.1155105E+00
          5   -1    0    0  501    0  0.00000000000E+00  0.00000000000E+00  0.85172936751E+02  0.85302515525E+02  0.47000000000E+01 0. -1.
         -5   -1    0    0    0  501 -0.00000000000E+00 -0.00000000000E+00 -0.53428563589E+03  0.53430630795E+03  0.47000000000E+01 0.  1.
          6    1    1    2  502    0 -0.16274657027E+02  0.87736134624E+02 -0.94672385963E+02  0.21566027554E+03  0.17200000000E+03 0. -1.
         -6    1    1    2    0  502  0.16274657027E+02 -0.87736134624E+02 -0.35444031317E+03  0.40394854794E+03  0.17200000000E+03 0.  1.
</event>
<event>
 4    1 -0.6532506E-004  0.3821514E+03  0.7818608E-02  0.1050141E+00
          5   -1    0    0  501    0  0.00000000000E+00  0.00000000000E+00  0.17421005359E+04  0.17421068759E+04  0.47000000000E+01 0. -1.
         -5   -1    0    0    0  501 -0.00000000000E+00 -0.00000000000E+00 -0.22242148493E+03  0.22247113736E+03  0.47000000000E+01 0.  1.
          6    1    1    2  502    0  0.33990945374E+03 -0.30286825115E+02  0.15352619083E+04  0.15821089898E+04  0.17200000000E+03 0. -1.
         -6    1    1    2    0  502 -0.33990945374E+03  0.30286825115E+02 -0.15582857296E+02  0.38246902353E+03  0.17200000000E+03 0.  1.
</event>
<event>
 4    1 -0.6532506E-004  0.3366091E+03  0.7818608E-02  0.1068249E+00
         -5   -1    0    0    0  501 -0.00000000000E+00  0.00000000000E+00  0.13216050401E+04  0.13216133973E+04  0.47000000000E+01 0.  1.
          5   -1    0    0  501    0  0.00000000000E+00 -0.00000000000E+00 -0.12094925524E+03  0.12104054008E+03  0.47000000000E+01 0. -1.
          6    1    1    2  502    0  0.69631784641E+02 -0.28084350714E+03  0.21089081147E+03  0.39721605619E+03  0.17200000000E+03 0. -1.
         -6    1    1    2    0  502 -0.69631784641E+02  0.28084350714E+03  0.98976497337E+03  0.10454378812E+04  0.17200000000E+03 0.  1.
</event>
<event>
 4    1 -0.6532506E-004  0.2700628E+03  0.7818608E-02  0.1101244E+00
         -5   -1    0    0    0  501 -0.00000000000E+00  0.00000000000E+00  0.75796217498E+03  0.75797674681E+03  0.47000000000E+01 0.  1.
          5   -1    0    0  501    0  0.00000000000E+00 -0.00000000000E+00 -0.98160257423E+02  0.98272713086E+02  0.47000000000E+01 0. -1.
          6    1    1    2  502    0 -0.12121382453E+03  0.16928413086E+03  0.26868555776E+03  0.38095385176E+03  0.17200000000E+03 0. -1.
         -6    1    1    2    0  502  0.12121382453E+03 -0.16928413086E+03  0.39111635980E+03  0.47529560814E+03  0.17200000000E+03 0.  1.
</event>
<event>
 4    1 -0.6532506E-004  0.1935649E+03  0.7818608E-02  0.1155285E+00
          5   -1    0    0  501    0  0.00000000000E+00  0.00000000000E+00  0.49548086733E+03  0.49550315831E+03  0.47000000000E+01 0. -1.
         -5   -1    0    0    0  501 -0.00000000000E+00 -0.00000000000E+00 -0.75577204220E+02  0.75723205146E+02  0.47000000000E+01 0.  1.
          6    1    1    2  502    0  0.84577514208E+02  0.27018729526E+02  0.20218175857E+03  0.27990146686E+03  0.17200000000E+03 0. -1.
         -6    1    1    2    0  502 -0.84577514208E+02 -0.27018729526E+02  0.21772190454E+03  0.29132489659E+03  0.17200000000E+03 0.  1.
</event>
<event>
 4    1 -0.6532506E-004  0.1974172E+03  0.7818608E-02  0.1151937E+00
         -5   -1    0    0    0  501 -0.00000000000E+00  0.00000000000E+00  0.14679504886E+03  0.14687027055E+03  0.47000000000E+01 0.  1.
          5   -1    0    0  501    0  0.00000000000E+00 -0.00000000000E+00 -0.33025737938E+03  0.33029082130E+03  0.47000000000E+01 0. -1.
          6    1    1    2  502    0 -0.42504700755E+02  0.87079783856E+02 -0.19749595623E+03  0.27924575390E+03  0.17200000000E+03 0. -1.
         -6    1    1    2    0  502  0.42504700755E+02 -0.87079783856E+02  0.14033625714E+02  0.19791533794E+03  0.17200000000E+03 0.  1.
</event>
<event>
 4    1 -0.6532506E-004  0.2858172E+03  0.7818608E-02  0.1092553E+00
          5   -1    0    0  501    0  0.00000000000E+00  0.00000000000E+00  0.11634383856E+04  0.11634478790E+04  0.47000000000E+01 0. -1.
         -5   -1    0    0    0  501 -0.00000000000E+00 -0.00000000000E+00 -0.25193083337E+03  0.25197467096E+03  0.47000000000E+01 0.  1.
          6    1    1    2  502    0 -0.18955546794E+03 -0.12718564912E+03  0.10568195307E+04  0.10947871872E+04  0.17200000000E+03 0. -1.
         -6    1    1    2    0  502  0.18955546794E+03  0.12718564912E+03 -0.14531197845E+03  0.32063536276E+03  0.17200000000E+03 0.  1.
</event>
<event>
 4    1 -0.6532506E-004  0.1928065E+03  0.7818608E-02  0.1155954E+00
          5   -1    0    0  501    0  0.00000000000E+00  0.00000000000E+00  0.11960864961E+04  0.11960957303E+04  0.47000000000E+01 0. -1.
         -5   -1    0    0    0  501 -0.00000000000E+00 -0.00000000000E+00 -0.39997187164E+02  0.40272384844E+02  0.47000000000E+01 0.  1.
          6    1    1    2  502    0  0.14758167782E+02  0.85863518996E+02  0.87179007536E+03  0.89285624986E+03  0.17200000000E+03 0. -1.
         -6    1    1    2    0  502 -0.14758167782E+02 -0.85863518996E+02  0.28429923355E+03  0.34351186531E+03  0.17200000000E+03 0.  1.
</event>
<event>
 4    1 -0.6532506E-004  0.2019093E+03  0.7818608E-02  0.1148138E+00
         -5   -1    0    0    0  501 -0.00000000000E+00  0.00000000000E+00  0.87376313594E+03  0.87377577657E+03  0.47000000000E+01 0.  1.
          5   -1    0    0  501    0  0.00000000000E+00 -0.00000000000E+00 -0.54618280150E+02  0.54820128844E+02  0.47000000000E+01 0. -1.
          6    1    1    2  502    0  0.66033695957E+02 -0.82600956330E+02  0.58791160194E+03  0.62161677799E+03  0.17200000000E+03 0.  1.
         -6    1    1    2    0  502 -0.66033695957E+02  0.82600956330E+02  0.23123325385E+03  0.30697912743E+03  0.17200000000E+03 0. -1.
</event>
<event>
 4    1 -0.6532506E-004  0.2679742E+03  0.7818608E-02  0.1102445E+00
          5   -1    0    0  501    0  0.00000000000E+00  0.00000000000E+00  0.28844771868E+03  0.28848600731E+03  0.47000000000E+01 0. -1.
         -5   -1    0    0    0  501 -0.00000000000E+00 -0.00000000000E+00 -0.25287584018E+03  0.25291951397E+03  0.47000000000E+01 0.  1.
          6    1    1    2  502    0 -0.14426444208E+03  0.14633508191E+03  0.51822103086E+02  0.27293903315E+03  0.17200000000E+03 0. -1.
         -6    1    1    2    0  502  0.14426444208E+03 -0.14633508191E+03 -0.16250224582E+02  0.26846648812E+03  0.17200000000E+03 0. -1.
</event>
<event>
 4    1 -0.6532506E-004  0.1828510E+03  0.7818608E-02  0.1165072E+00
         -5   -1    0    0    0  501 -0.00000000000E+00  0.00000000000E+00  0.20542004360E+04  0.20542058128E+04  0.47000000000E+01 0.  1.
          5   -1    0    0  501    0  0.00000000000E+00 -0.00000000000E+00 -0.17954843470E+02  0.18559806142E+02  0.47000000000E+01 0. -1.
          6    1    1    2  502    0  0.61115757762E+02 -0.10739552818E+02  0.67630866684E+03  0.70059109807E+03  0.17200000000E+03 0. -1.
         -6    1    1    2    0  502 -0.61115757762E+02  0.10739552818E+02  0.13599369257E+04  0.13721745209E+04  0.17200000000E+03 0.  1.
</event>
<event>
 4    1 -0.6532506E-004  0.1782238E+03  0.7818608E-02  0.1169533E+00
         -5   -1    0    0    0  501 -0.00000000000E+00  0.00000000000E+00  0.36548490332E+03  0.36551512220E+03  0.47000000000E+01 0.  1.
          5   -1    0    0  501    0  0.00000000000E+00 -0.00000000000E+00 -0.87285274549E+02  0.87411722057E+02  0.47000000000E+01 0. -1.
          6    1    1    2  502    0 -0.46487171183E+02 -0.43204035286E+01  0.12242251370E+03  0.21621978363E+03  0.17200000000E+03 0. -1.
         -6    1    1    2    0  502  0.46487171183E+02  0.43204035286E+01  0.15577711507E+03  0.23670706063E+03  0.17200000000E+03 0.  1.
</event>
<event>
 4    1 -0.6532506E-004  0.2157540E+03  0.7818608E-02  0.1137089E+00
          5   -1    0    0  501    0  0.00000000000E+00  0.00000000000E+00  0.40993524674E+02  0.41262077810E+02  0.47000000000E+01 0. -1.
         -5   -1    0    0    0  501 -0.00000000000E+00 -0.00000000000E+00 -0.16520465615E+04  0.16520532471E+04  0.47000000000E+01 0.  1.
          6    1    1    2  502    0 -0.56374592808E+02 -0.11742102322E+03 -0.33033860769E+03  0.39455466939E+03  0.17200000000E+03 0. -1.
         -6    1    1    2    0  502  0.56374592808E+02  0.11742102322E+03 -0.12807144291E+04  0.12987606555E+04  0.17200000000E+03 0.  1.
</event>
<event>
 4    1 -0.6532506E-004  0.2357093E+03  0.7818608E-02  0.1122685E+00
          5   -1    0    0  501    0  0.00000000000E+00  0.00000000000E+00  0.27552535041E+03  0.27556543455E+03  0.47000000000E+01 0. -1.
         -5   -1    0    0    0  501 -0.00000000000E+00 -0.00000000000E+00 -0.21023710251E+03  0.21028963187E+03  0.47000000000E+01 0.  1.
          6    1    1    2  502    0  0.36324297240E+02  0.15702041838E+03  0.81971793145E+02  0.24955608834E+03  0.17200000000E+03 0. -1.
         -6    1    1    2    0  502 -0.36324297240E+02 -0.15702041838E+03 -0.16683545240E+02  0.23629897807E+03  0.17200000000E+03 0.  1.
</event>
<event>
 4    1 -0.6532506E-004  0.1851288E+03  0.7818608E-02  0.1162930E+00
          5   -1    0    0  501    0  0.00000000000E+00  0.00000000000E+00  0.17756857327E+03  0.17763076370E+03  0.47000000000E+01 0. -1.
         -5   -1    0    0    0  501 -0.00000000000E+00 -0.00000000000E+00 -0.20066185558E+03  0.20071689088E+03  0.47000000000E+01 0.  1.
          6    1    1    2  502    0 -0.32007186915E+02  0.60532831500E+02  0.25680922569E+02  0.18690156096E+03  0.17200000000E+03 0. -1.
         -6    1    1    2    0  502  0.32007186915E+02 -0.60532831500E+02 -0.48774204883E+02  0.19144609363E+03  0.17200000000E+03 0.  1.
</event>
<event>
 4    1 -0.6532506E-004  0.2072795E+03  0.7818608E-02  0.1143739E+00
         -5   -1    0    0    0  501 -0.00000000000E+00  0.00000000000E+00  0.18851979760E+03  0.18857837651E+03  0.47000000000E+01 0.  1.
          5   -1    0    0  501    0  0.00000000000E+00 -0.00000000000E+00 -0.29627034122E+03  0.29630761901E+03  0.47000000000E+01 0. -1.
          6    1    1    2  502    0 -0.86186710425E+02 -0.77153312851E+02 -0.17041698302E+03  0.26834069919E+03  0.17200000000E+03 0. -1.
         -6    1    1    2    0  502  0.86186710425E+02  0.77153312851E+02  0.62666439400E+02  0.21654529633E+03  0.17200000000E+03 0.  1.
</event>
<event>
 4    1 -0.6532506E-004  0.4225444E+03  0.7818608E-02  0.1036241E+00
         -5   -1    0    0    0  501 -0.00000000000E+00  0.00000000000E+00  0.19848994955E+04  0.19849050600E+04  0.47000000000E+01 0.  1.
          5   -1    0    0  501    0  0.00000000000E+00 -0.00000000000E+00 -0.97592098792E+02  0.97705208390E+02  0.47000000000E+01 0. -1.
          6    1    1    2  502    0 -0.12734104518E+03 -0.36434048763E+03  0.65119023607E+03  0.77626828884E+03  0.17200000000E+03 0. -1.
         -6    1    1    2    0  502  0.12734104518E+03  0.36434048763E+03  0.12361171606E+04  0.13063419795E+04  0.17200000000E+03 0. -1.
</event>
<event>
 4    1 -0.6532506E-004  0.2268737E+03  0.7818608E-02  0.1128860E+00
         -5   -1    0    0    0  501 -0.00000000000E+00  0.00000000000E+00  0.52962154718E+03  0.52964240128E+03  0.47000000000E+01 0.  1.
          5   -1    0    0  501    0  0.00000000000E+00 -0.00000000000E+00 -0.10068844094E+03  0.10079807607E+03  0.47000000000E+01 0. -1.
          6    1    1    2  502    0  0.11602353784E+03  0.91794329825E+02  0.27388485842E+03  0.35564670109E+03  0.17200000000E+03 0.  1.
         -6    1    1    2    0  502 -0.11602353784E+03 -0.91794329825E+02  0.15504824782E+03  0.27479377626E+03  0.17200000000E+03 0. -1.
</event>
<event>
 4    1 -0.6532506E-004  0.1882509E+03  0.7818608E-02  0.1160048E+00
         -5   -1    0    0    0  501 -0.00000000000E+00  0.00000000000E+00  0.93017713094E+02  0.93136378227E+02  0.47000000000E+01 0.  1.
          5   -1    0    0  501    0  0.00000000000E+00 -0.00000000000E+00 -0.40246624888E+03  0.40249369124E+03  0.47000000000E+01 0. -1.
          6    1    1    2  502    0 -0.75842035074E+02  0.10118556820E+02 -0.21246428958E+03  0.28386523884E+03  0.17200000000E+03 0. -1.
         -6    1    1    2    0  502  0.75842035074E+02 -0.10118556820E+02 -0.96984246200E+02  0.21176483062E+03  0.17200000000E+03 0. -1.
</event>
<event>
 4    1 -0.6532506E-004  0.2294555E+03  0.7818608E-02  0.1127024E+00
         -5   -1    0    0    0  501 -0.00000000000E+00  0.00000000000E+00  0.77436437827E+03  0.77437864145E+03  0.47000000000E+01 0.  1.
          5   -1    0    0  501    0  0.00000000000E+00 -0.00000000000E+00 -0.95490034156E+02  0.95605630708E+02  0.47000000000E+01 0. -1.
          6    1    1    2  502    0 -0.81024462807E+02 -0.12845577007E+03  0.10578484369E+03  0.25266634440E+03  0.17200000000E+03 0. -1.
         -6    1    1    2    0  502  0.81024462807E+02  0.12845577007E+03  0.57308950042E+03  0.61731792776E+03  0.17200000000E+03 0.  1.
</event>
<event>
 4    1 -0.6532506E-004  0.3603649E+03  0.7818608E-02  0.1058439E+00
         -5   -1    0    0    0  501 -0.00000000000E+00  0.00000000000E+00  0.19538940516E+04  0.19538997044E+04  0.47000000000E+01 0.  1.
          5   -1    0    0  501    0  0.00000000000E+00 -0.00000000000E+00 -0.71776615552E+02  0.71930331156E+02  0.47000000000E+01 0. -1.
          6    1    1    2  502    0  0.51082350592E+02 -0.31252111257E+03  0.12186158647E+04  0.12707822307E+04  0.17200000000E+03 0.  1.
         -6    1    1    2    0  502 -0.51082350592E+02  0.31252111257E+03  0.66350157136E+03  0.75504780481E+03  0.17200000000E+03 0.  1.
</event>
<event>
 4    1 -0.6532506E-004  0.1944118E+03  0.7818608E-02  0.1154541E+00
          5   -1    0    0  501    0  0.00000000000E+00  0.00000000000E+00  0.89205240553E+03  0.89206478701E+03  0.47000000000E+01 0. -1.
         -5   -1    0    0    0  501 -0.00000000000E+00 -0.00000000000E+00 -0.71522455314E+02  0.71676715984E+02  0.47000000000E+01 0.  1.
          6    1    1    2  502    0  0.88902854604E+02  0.17556312290E+02  0.71819064589E+03  0.74403880644E+03  0.17200000000E+03 0. -1.
         -6    1    1    2    0  502 -0.88902854604E+02 -0.17556312290E+02  0.10233930433E+03  0.21970269655E+03  0.17200000000E+03 0.  1.
</event>
<event>
 4    1 -0.6532506E-004  0.2100269E+03  0.7818608E-02  0.1141545E+00
         -5   -1    0    0    0  501 -0.00000000000E+00  0.00000000000E+00  0.13948364192E+03  0.13956280437E+03  0.47000000000E+01 0.  1.
          5   -1    0    0  501    0  0.00000000000E+00 -0.00000000000E+00 -0.31917758213E+03  0.31921218482E+03  0.47000000000E+01 0. -1.
          6    1    1    2  502    0  0.40267083104E+02  0.11360395786E+03 -0.67183149559E+02  0.22051048231E+03  0.17200000000E+03 0. -1.
         -6    1    1    2    0  502 -0.40267083104E+02 -0.11360395786E+03 -0.11251079065E+03  0.23826450687E+03  0.17200000000E+03 0.  1.
</event>
<event>
 4    1 -0.6532506E-004  0.2044063E+03  0.7818608E-02  0.1146074E+00
         -5   -1    0    0    0  501 -0.00000000000E+00  0.00000000000E+00  0.66177480976E+02  0.66344170718E+02  0.47000000000E+01 0.  1.
          5   -1    0    0  501    0  0.00000000000E+00 -0.00000000000E+00 -0.10922568368E+04  0.10922669489E+04  0.47000000000E+01 0. -1.
          6    1    1    2  502    0 -0.10966652481E+03 -0.13084268273E+02 -0.88971459689E+03  0.91289320770E+03  0.17200000000E+03 0. -1.
         -6    1    1    2    0  502  0.10966652481E+03  0.13084268273E+02 -0.13636475897E+03  0.24571791190E+03  0.17200000000E+03 0.  1.
</event>
<event>
 4    1 -0.6532506E-004  0.2768018E+03  0.7818608E-02  0.1097449E+00
         -5   -1    0    0    0  501 -0.00000000000E+00  0.00000000000E+00  0.14297398804E+04  0.14297476056E+04  0.47000000000E+01 0.  1.
          5   -1    0    0  501    0  0.00000000000E+00 -0.00000000000E+00 -0.65111407142E+02  0.65280819082E+02  0.47000000000E+01 0. -1.
          6    1    1    2  502    0 -0.11085003028E+03  0.18640689847E+03  0.36682830424E+03  0.45954571677E+03  0.17200000000E+03 0. -1.
         -6    1    1    2    0  502  0.11085003028E+03 -0.18640689847E+03  0.99780016903E+03  0.10354827079E+04  0.17200000000E+03 0.  1.
</event>
<event>
 4    1 -0.6532506E-004  0.1787506E+03  0.7818608E-02  0.1169018E+00
          5   -1    0    0  501    0  0.00000000000E+00  0.00000000000E+00  0.24795832096E+03  0.24800286074E+03  0.47000000000E+01 0. -1.
         -5   -1    0    0    0  501 -0.00000000000E+00 -0.00000000000E+00 -0.13143633512E+03  0.13152034135E+03  0.47000000000E+01 0.  1.
          6    1    1    2  502    0  0.78886096940E+01  0.48016266569E+02  0.85323225681E+02  0.19807030282E+03  0.17200000000E+03 0.  1.
         -6    1    1    2    0  502 -0.78886096940E+01 -0.48016266569E+02  0.31198760166E+02  0.18145289927E+03  0.17200000000E+03 0. -1.
</event>
<event>
 4    1 -0.6532506E-004  0.2228065E+03  0.7818608E-02  0.1131808E+00
          5   -1    0    0  501    0  0.00000000000E+00  0.00000000000E+00  0.12506615490E+03  0.12515443700E+03  0.47000000000E+01 0. -1.
         -5   -1    0    0    0  501 -0.00000000000E+00 -0.00000000000E+00 -0.40277147784E+03  0.40279889941E+03  0.47000000000E+01 0.  1.
          6    1    1    2  502    0 -0.10625462067E+03 -0.93641397749E+02 -0.10641958176E+03  0.24691675352E+03  0.17200000000E+03 0.  1.
         -6    1    1    2    0  502  0.10625462067E+03  0.93641397749E+02 -0.17128574119E+03  0.28103658289E+03  0.17200000000E+03 0. -1.
</event>
<event>
 4    1 -0.6532506E-004  0.1837376E+03  0.7818608E-02  0.1164234E+00
         -5   -1    0    0    0  501 -0.00000000000E+00  0.00000000000E+00  0.14773162583E+03  0.14780637087E+03  0.47000000000E+01 0.  1.
          5   -1    0    0  501    0  0.00000000000E+00 -0.00000000000E+00 -0.24187481136E+03  0.24192047117E+03  0.47000000000E+01 0. -1.
          6    1    1    2  502    0  0.35726102554E+02 -0.53843608334E+02 -0.10254125773E+01  0.18374041481E+03  0.17200000000E+03 0.  1.
         -6    1    1    2    0  502 -0.35726102554E+02  0.53843608334E+02 -0.93117772955E+02  0.20598642723E+03  0.17200000000E+03 0. -1.
</event>
<event>
 4    1 -0.6532506E-004  0.1758198E+03  0.7818608E-02  0.1171911E+00
          5   -1    0    0  501    0  0.00000000000E+00  0.00000000000E+00  0.83044770201E+03  0.83046100195E+03  0.47000000000E+01 0. -1.
         -5   -1    0    0    0  501 -0.00000000000E+00 -0.00000000000E+00 -0.39408095678E+02  0.39687378409E+02  0.47000000000E+01 0.  1.
          6    1    1    2  502    0 -0.21466409596E+02 -0.29458260021E+02  0.50127187641E+03  0.53121190677E+03  0.17200000000E+03 0. -1.
         -6    1    1    2    0  502  0.21466409596E+02  0.29458260021E+02  0.28976772992E+03  0.33893647359E+03  0.17200000000E+03 0.  1.
</event>
<event>
 4    1 -0.6532506E-004  0.1833004E+03  0.7818608E-02  0.1164647E+00
         -5   -1    0    0    0  501 -0.00000000000E+00  0.00000000000E+00  0.52921597703E+03  0.52923684712E+03  0.47000000000E+01 0.  1.
          5   -1    0    0  501    0  0.00000000000E+00 -0.00000000000E+00 -0.75560270089E+02  0.75706303673E+02  0.47000000000E+01 0. -1.
          6    1    1    2  502    0  0.50698274029E+02 -0.38009705158E+02  0.10552783216E+03  0.21150691723E+03  0.17200000000E+03 0. -1.
         -6    1    1    2    0  502 -0.50698274029E+02  0.38009705158E+02  0.34812787479E+03  0.39343623356E+03  0.17200000000E+03 0.  1.
</event>
<event>
 4    1 -0.6532506E-004  0.2274359E+03  0.7818608E-02  0.1128458E+00
          5   -1    0    0  501    0  0.00000000000E+00  0.00000000000E+00  0.44356952302E+02  0.44605259976E+02  0.47000000000E+01 0. -1.
         -5   -1    0    0    0  501 -0.00000000000E+00 -0.00000000000E+00 -0.20145947234E+04  0.20146002059E+04  0.47000000000E+01 0.  1.
          6    1    1    2  502    0  0.14182627524E+03 -0.45037559180E+02 -0.31561240682E+03  0.38902219143E+03  0.17200000000E+03 0.  1.
         -6    1    1    2    0  502 -0.14182627524E+03  0.45037559180E+02 -0.16546253643E+04  0.16701832744E+04  0.17200000000E+03 0.  1.
</event>
<event>
 4    1 -0.6532506E-004  0.2126288E+03  0.7818608E-02  0.1139501E+00
          5   -1    0    0  501    0  0.00000000000E+00  0.00000000000E+00  0.23448747745E+03  0.23453457545E+03  0.47000000000E+01 0. -1.
         -5   -1    0    0    0  501 -0.00000000000E+00 -0.00000000000E+00 -0.23130976228E+03  0.23135750717E+03  0.47000000000E+01 0.  1.
          6    1    1    2  502    0  0.60563824675E+02  0.10935736203E+03  0.96724262474E+02  0.23359493240E+03  0.17200000000E+03 0. -1.
         -6    1    1    2    0  502 -0.60563824675E+02 -0.10935736203E+03 -0.93546547303E+02  0.23229715022E+03  0.17200000000E+03 0.  1.
</event>
<event>
 4    1 -0.6532506E-004  0.2404520E+03  0.7818608E-02  0.1119492E+00
          5   -1    0    0  501    0  0.00000000000E+00  0.00000000000E+00  0.12703191784E+03  0.12711883476E+03  0.47000000000E+01 0. -1.
         -5   -1    0    0    0  501 -0.00000000000E+00 -0.00000000000E+00 -0.45556072724E+03  0.45558497144E+03  0.47000000000E+01 0.  1.
          6    1    1    2  502    0  0.20766050681E+02  0.16673914355E+03 -0.17549053325E+03  0.29768120215E+03  0.17200000000E+03 0. -1.
         -6    1    1    2    0  502 -0.20766050681E+02 -0.16673914355E+03 -0.15303827615E+03  0.28502260405E+03  0.17200000000E+03 0.  1.
</event>
<event>
 4    1 -0.6532506E-004  0.4930974E+03  0.7818608E-02  0.1015596E+00
         -5   -1    0    0    0  501 -0.00000000000E+00  0.00000000000E+00  0.14664358651E+04  0.14664433969E+04  0.47000000000E+01 0.  1.
          5   -1    0    0  501    0  0.00000000000E+00 -0.00000000000E+00 -0.18045659478E+03  0.18051779025E+03  0.47000000000E+01 0. -1.
          6    1    1    2  502    0 -0.34234868181E+03  0.31041660955E+03  0.87790265388E+03  0.10069052394E+04  0.17200000000E+03 0.  1.
         -6    1    1    2    0  502  0.34234868181E+03 -0.31041660955E+03  0.40807661641E+03  0.64005594777E+03  0.17200000000E+03 0. -1.
</event>
<event>
 4    1 -0.6532506E-004  0.1803705E+03  0.7818608E-02  0.1167445E+00
         -5   -1    0    0    0  501 -0.00000000000E+00  0.00000000000E+00  0.34527420770E+03  0.34530619528E+03  0.47000000000E+01 0.  1.
          5   -1    0    0  501    0  0.00000000000E+00 -0.00000000000E+00 -0.10042817511E+03  0.10053809405E+03  0.47000000000E+01 0. -1.
          6    1    1    2  502    0 -0.54254917743E+02  0.24297163998E+01  0.17820757660E+03  0.25355756739E+03  0.17200000000E+03 0.  1.
         -6    1    1    2    0  502  0.54254917743E+02 -0.24297163998E+01  0.66638455985E+02  0.19228672195E+03  0.17200000000E+03 0. -1.
</event>
<event>
 4    1 -0.6532506E-004  0.2865513E+03  0.7818608E-02  0.1092164E+00
          5   -1    0    0  501    0  0.00000000000E+00  0.00000000000E+00  0.36210943401E+03  0.36213993455E+03  0.47000000000E+01 0. -1.
         -5   -1    0    0    0  501 -0.00000000000E+00 -0.00000000000E+00 -0.25297585803E+03  0.25301951456E+03  0.47000000000E+01 0.  1.
          6    1    1    2  502    0  0.10649453877E+03  0.20294475834E+03  0.15368956869E+03  0.32516479707E+03  0.17200000000E+03 0. -1.
         -6    1    1    2    0  502 -0.10649453877E+03 -0.20294475834E+03 -0.44555992721E+02  0.28999465204E+03  0.17200000000E+03 0.  1.
</event>
<event>
 4    1 -0.6532506E-004  0.1988059E+03  0.7818608E-02  0.1150750E+00
          5   -1    0    0  501    0  0.00000000000E+00  0.00000000000E+00  0.11757272759E+04  0.11757366700E+04  0.47000000000E+01 0. -1.
         -5   -1    0    0    0  501 -0.00000000000E+00 -0.00000000000E+00 -0.38124037016E+02  0.38412656748E+02  0.47000000000E+01 0.  1.
          6    1    1    2  502    0 -0.13180697995E+02  0.98823374577E+02  0.78065130946E+03  0.80556828209E+03  0.17200000000E+03 0. -1.
         -6    1    1    2    0  502  0.13180697995E+02 -0.98823374577E+02  0.35695192939E+03  0.40858104466E+03  0.17200000000E+03 0.  1.
</event>
<event>
 4    1 -0.6532506E-004  0.1841642E+03  0.7818608E-02  0.1163833E+00
         -5   -1    0    0    0  501 -0.00000000000E+00  0.00000000000E+00  0.28847938544E+03  0.28851766986E+03  0.47000000000E+01 0.  1.
          5   -1    0    0  501    0  0.00000000000E+00 -0.00000000000E+00 -0.12879621693E+03  0.12888194402E+03  0.47000000000E+01 0. -1.
          6    1    1    2  502    0  0.65172223734E+02 -0.92204284304E+01  0.18001513914E+02  0.18504185891E+03  0.17200000000E+03 0.  1.
         -6    1    1    2    0  502 -0.65172223734E+02  0.92204284304E+01  0.14168165460E+03  0.23235775497E+03  0.17200000000E+03 0.  1.
</event>
<event>
 4    1 -0.6532506E-004  0.1727000E+03  0.7818608E-02  0.1175061E+00
         -5   -1    0    0    0  501 -0.00000000000E+00  0.00000000000E+00  0.33674395469E+03  0.33677675249E+03  0.47000000000E+01 0.  1.
          5   -1    0    0  501    0  0.00000000000E+00 -0.00000000000E+00 -0.39018774479E+03  0.39021605065E+03  0.47000000000E+01 0. -1.
          6    1    1    2  502    0  0.12256984553E+02 -0.95430020489E+01 -0.34631894233E+03  0.38699110116E+03  0.17200000000E+03 0. -1.
         -6    1    1    2    0  502 -0.12256984553E+02  0.95430020489E+01  0.29287515223E+03  0.34000170198E+03  0.17200000000E+03 0.  1.
</event>
<event>
 4    1 -0.6532506E-004  0.6061145E+03  0.7818608E-02  0.9892801E-01
         -5   -1    0    0    0  501 -0.00000000000E+00  0.00000000000E+00  0.39926349813E+03  0.39929116061E+03  0.47000000000E+01 0.  1.
          5   -1    0    0  501    0  0.00000000000E+00 -0.00000000000E+00 -0.11597418095E+04  0.11597513331E+04  0.47000000000E+01 0. -1.
          6    1    1    2  502    0  0.46708114528E+03  0.34586998842E+03 -0.25872855082E+02  0.60666650624E+03  0.17200000000E+03 0. -1.
         -6    1    1    2    0  502 -0.46708114528E+03 -0.34586998842E+03 -0.73460545627E+03  0.95237598749E+03  0.17200000000E+03 0.  1.
</event>
<event>
 4    1 -0.6532506E-004  0.2546393E+03  0.7818608E-02  0.1110408E+00
          5   -1    0    0  501    0  0.00000000000E+00  0.00000000000E+00  0.84848881547E+03  0.84850183263E+03  0.47000000000E+01 0. -1.
         -5   -1    0    0    0  501 -0.00000000000E+00 -0.00000000000E+00 -0.88964132824E+02  0.89088197474E+02  0.47000000000E+01 0.  1.
          6    1    1    2  502    0  0.14012277546E+03  0.12499109104E+03  0.55625441552E+03  0.61176804414E+03  0.17200000000E+03 0. -1.
         -6    1    1    2    0  502 -0.14012277546E+03 -0.12499109104E+03  0.20327026713E+03  0.32582198597E+03  0.17200000000E+03 0.  1.
</event>
<event>
 4    1 -0.6532506E-004  0.2264745E+03  0.7818608E-02  0.1129146E+00
          5   -1    0    0  501    0  0.00000000000E+00  0.00000000000E+00  0.63843737297E+03  0.63845467279E+03  0.47000000000E+01 0. -1.
         -5   -1    0    0    0  501 -0.00000000000E+00 -0.00000000000E+00 -0.83081171608E+02  0.83214007689E+02  0.47000000000E+01 0.  1.
          6    1    1    2  502    0  0.58649147994E+02 -0.13515535445E+03  0.34421869341E+03  0.41204029086E+03  0.17200000000E+03 0. -1.
         -6    1    1    2    0  502 -0.58649147994E+02  0.13515535445E+03  0.21113750795E+03  0.30962838962E+03  0.17200000000E+03 0.  1.
</event>
<event>
 4    1 -0.6532506E-004  0.2680647E+03  0.7818608E-02  0.1102392E+00
         -5   -1    0    0    0  501 -0.00000000000E+00  0.00000000000E+00  0.12133415532E+03  0.12142515080E+03  0.47000000000E+01 0.  1.
          5   -1    0    0  501    0  0.00000000000E+00 -0.00000000000E+00 -0.62711937399E+03  0.62713698602E+03  0.47000000000E+01 0. -1.
          6    1    1    2  502    0  0.20274787454E+03 -0.34175813817E+02 -0.16422201192E+03  0.31436850364E+03  0.17200000000E+03 0. -1.
         -6    1    1    2    0  502 -0.20274787454E+03  0.34175813817E+02 -0.34156320676E+03  0.43419363318E+03  0.17200000000E+03 0.  1.
</event>
<event>
 4    1 -0.6532506E-004  0.1841867E+03  0.7818608E-02  0.1163812E+00
         -5   -1    0    0    0  501 -0.00000000000E+00  0.00000000000E+00  0.50861002985E+03  0.50863174543E+03  0.47000000000E+01 0.  1.
          5   -1    0    0  501    0  0.00000000000E+00 -0.00000000000E+00 -0.10993626231E+03  0.11003668375E+03  0.47000000000E+01 0. -1.
          6    1    1    2  502    0 -0.21594311386E+02  0.62244943819E+02  0.52469168214E+01  0.18426143778E+03  0.17200000000E+03 0. -1.
         -6    1    1    2    0  502  0.21594311386E+02 -0.62244943819E+02  0.39342685072E+03  0.43440699140E+03  0.17200000000E+03 0.  1.
</event>
<event>
 4    1 -0.6532506E-004  0.3338210E+03  0.7818608E-02  0.1069459E+00
          5   -1    0    0  501    0  0.00000000000E+00  0.00000000000E+00  0.86750783923E+03  0.86752057101E+03  0.47000000000E+01 0. -1.
         -5   -1    0    0    0  501 -0.00000000000E+00 -0.00000000000E+00 -0.16233578067E+03  0.16240380441E+03  0.47000000000E+01 0.  1.
          6    1    1    2  502    0 -0.52776564152E+02  0.28118867659E+03  0.58797305354E+03  0.67612776104E+03  0.17200000000E+03 0. -1.
         -6    1    1    2    0  502  0.52776564152E+02 -0.28118867659E+03  0.11719900501E+03  0.35379661437E+03  0.17200000000E+03 0.  1.
</event>
<event>
 4    1 -0.6532506E-004  0.2033470E+03  0.7818608E-02  0.1146945E+00
          5   -1    0    0  501    0  0.00000000000E+00  0.00000000000E+00  0.36670690642E+03  0.36673702460E+03  0.47000000000E+01 0. -1.
         -5   -1    0    0    0  501 -0.00000000000E+00 -0.00000000000E+00 -0.11279684959E+03  0.11289472653E+03  0.47000000000E+01 0.  1.
          6    1    1    2  502    0  0.24757349136E+02 -0.10560809267E+03  0.13478078772E+03  0.24395871846E+03  0.17200000000E+03 0.  1.
         -6    1    1    2    0  502 -0.24757349136E+02  0.10560809267E+03  0.11912926911E+03  0.23567303268E+03  0.17200000000E+03 0. -1.
</event>
<event>
 4    1 -0.6532506E-004  0.1725400E+03  0.7818608E-02  0.1175225E+00
         -5   -1    0    0    0  501 -0.00000000000E+00  0.00000000000E+00  0.38052027496E+02  0.38341189295E+02  0.47000000000E+01 0.  1.
          5   -1    0    0  501    0  0.00000000000E+00 -0.00000000000E+00 -0.81239551740E+03  0.81240911288E+03  0.47000000000E+01 0. -1.
          6    1    1    2  502    0 -0.13632162278E+02 -0.45859965745E+00 -0.47327956920E+03  0.50374953775E+03  0.17200000000E+03 0. -1.
         -6    1    1    2    0  502  0.13632162278E+02  0.45859965745E+00 -0.30106392070E+03  0.34700076442E+03  0.17200000000E+03 0.  1.
</event>
<event>
 4    1 -0.6532506E-004  0.1795907E+03  0.7818608E-02  0.1168200E+00
         -5   -1    0    0    0  501 -0.00000000000E+00  0.00000000000E+00  0.84767179685E+02  0.84897377767E+02  0.47000000000E+01 0.  1.
          5   -1    0    0  501    0  0.00000000000E+00 -0.00000000000E+00 -0.39796557898E+03  0.39799333167E+03  0.47000000000E+01 0. -1.
          6    1    1    2  502    0  0.50861997792E+02 -0.90476615398E+01 -0.10538120469E+03  0.20822584206E+03  0.17200000000E+03 0.  1.
         -6    1    1    2    0  502 -0.50861997792E+02  0.90476615398E+01 -0.20781719461E+03  0.27466486738E+03  0.17200000000E+03 0. -1.
</event>
<event>
 4    1 -0.6532506E-004  0.2050243E+03  0.7818608E-02  0.1145568E+00
         -5   -1    0    0    0  501 -0.00000000000E+00  0.00000000000E+00  0.25427370637E+03  0.25431714011E+03  0.47000000000E+01 0.  1.
          5   -1    0    0  501    0  0.00000000000E+00 -0.00000000000E+00 -0.16837826670E+03  0.16844385027E+03  0.47000000000E+01 0. -1.
          6    1    1    2  502    0 -0.34261101764E+02 -0.10619394585E+03  0.71874743676E+02  0.21725781000E+03  0.17200000000E+03 0. -1.
         -6    1    1    2    0  502  0.34261101764E+02  0.10619394585E+03  0.14020695999E+02  0.20550318038E+03  0.17200000000E+03 0.  1.
</event>
<event>
 4    1 -0.6532506E-004  0.1749805E+03  0.7818608E-02  0.1172751E+00
          5   -1    0    0  501    0  0.00000000000E+00  0.00000000000E+00  0.49365528514E+03  0.49367765855E+03  0.47000000000E+01 0. -1.
         -5   -1    0    0    0  501 -0.00000000000E+00 -0.00000000000E+00 -0.74640371528E+02  0.74788201354E+02  0.47000000000E+01 0.  1.
          6    1    1    2  502    0 -0.52348295711E+01  0.31729548619E+02  0.92271606294E+02  0.19781864681E+03  0.17200000000E+03 0.  1.
         -6    1    1    2    0  502  0.52348295711E+01 -0.31729548619E+02  0.32674330732E+03  0.37064721309E+03  0.17200000000E+03 0. -1.
</event>
<event>
 4    1 -0.6532506E-004  0.1954507E+03  0.7818608E-02  0.1153635E+00
         -5   -1    0    0    0  501 -0.00000000000E+00  0.00000000000E+00  0.36003750150E+03  0.36006817755E+03  0.47000000000E+01 0.  1.
          5   -1    0    0  501    0  0.00000000000E+00 -0.00000000000E+00 -0.10661201142E+03  0.10671556109E+03  0.47000000000E+01 0. -1.
          6    1    1    2  502    0  0.84973913874E+02  0.37368631154E+02  0.10926611519E+03  0.22391977260E+03  0.17200000000E+03 0. -1.
         -6    1    1    2    0  502 -0.84973913874E+02 -0.37368631154E+02  0.14415937489E+03  0.24286396604E+03  0.17200000000E+03 0. -1.
</event>
<event>
 4    1 -0.6532506E-004  0.3050995E+03  0.7818608E-02  0.1082719E+00
         -5   -1    0    0    0  501 -0.00000000000E+00  0.00000000000E+00  0.52439149814E+03  0.52441256023E+03  0.47000000000E+01 0.  1.
          5   -1    0    0  501    0  0.00000000000E+00 -0.00000000000E+00 -0.26573469674E+03  0.26577625750E+03  0.47000000000E+01 0. -1.
          6    1    1    2  502    0 -0.70737077457E+02  0.24186356909E+03  0.35701882173E+03  0.46962555217E+03  0.17200000000E+03 0.  1.
         -6    1    1    2    0  502  0.70737077457E+02 -0.24186356909E+03 -0.98362020335E+02  0.32056326556E+03  0.17200000000E+03 0. -1.
</event>
<event>
 4    1 -0.6532506E-004  0.2369687E+03  0.7818608E-02  0.1121829E+00
         -5   -1    0    0    0  501 -0.00000000000E+00  0.00000000000E+00  0.10163142498E+03  0.10174004395E+03  0.47000000000E+01 0.  1.
          5   -1    0    0  501    0  0.00000000000E+00 -0.00000000000E+00 -0.55211555451E+03  0.55213555901E+03  0.47000000000E+01 0. -1.
          6    1    1    2  502    0  0.15295137094E+03 -0.56356582138E+02 -0.22578009123E+03  0.32730847197E+03  0.17200000000E+03 0. -1.
         -6    1    1    2    0  502 -0.15295137094E+03  0.56356582138E+02 -0.22470403829E+03  0.32656713100E+03  0.17200000000E+03 0.  1.
</event>
<event>
 4    1 -0.6532506E-004  0.1836257E+03  0.7818608E-02  0.1164339E+00
          5   -1    0    0  501    0  0.00000000000E+00  0.00000000000E+00  0.49037378057E+03  0.49039630369E+03  0.47000000000E+01 0. -1.
         -5   -1    0    0    0  501 -0.00000000000E+00 -0.00000000000E+00 -0.21053413152E+03  0.21058658678E+03  0.47000000000E+01 0.  1.
          6    1    1    2  502    0 -0.30372014938E+02  0.56673984717E+02  0.42755402827E+03  0.46531800624E+03  0.17200000000E+03 0. -1.
         -6    1    1    2    0  502  0.30372014938E+02 -0.56673984717E+02 -0.14771437922E+03  0.23566488424E+03  0.17200000000E+03 0.  1.
</event>
<event>
 4    1 -0.6532506E-004  0.3779813E+03  0.7818608E-02  0.1051682E+00
          5   -1    0    0  501    0  0.00000000000E+00  0.00000000000E+00  0.10880568919E+04  0.10880670430E+04  0.47000000000E+01 0. -1.
         -5   -1    0    0    0  501 -0.00000000000E+00 -0.00000000000E+00 -0.27841834827E+03  0.27845801596E+03  0.47000000000E+01 0.  1.
          6    1    1    2  502    0  0.25930469999E+03  0.21458550210E+03  0.90150653884E+03  0.97753972028E+03  0.17200000000E+03 0. -1.
         -6    1    1    2    0  502 -0.25930469999E+03 -0.21458550210E+03 -0.91867995204E+02  0.38898533866E+03  0.17200000000E+03 0.  1.
</event>
<event>
 4    1 -0.6532506E-004  0.1728861E+03  0.7818608E-02  0.1174871E+00
          5   -1    0    0  501    0  0.00000000000E+00  0.00000000000E+00  0.25286682679E+03  0.25291050214E+03  0.47000000000E+01 0. -1.
         -5   -1    0    0    0  501 -0.00000000000E+00 -0.00000000000E+00 -0.21347127920E+03  0.21352301292E+03  0.47000000000E+01 0.  1.
          6    1    1    2  502    0  0.11491233445E+01 -0.17443717924E+02  0.17553646210E+03  0.24637908455E+03  0.17200000000E+03 0. -1.
         -6    1    1    2    0  502 -0.11491233445E+01  0.17443717924E+02 -0.13614091451E+03  0.22005443050E+03  0.17200000000E+03 0.  1.
</event>
<event>
 4    1 -0.6532506E-004  0.2257410E+03  0.7818608E-02  0.1129674E+00
         -5   -1    0    0    0  501 -0.00000000000E+00  0.00000000000E+00  0.22852624761E+03  0.22857457393E+03  0.47000000000E+01 0.  1.
          5   -1    0    0  501    0  0.00000000000E+00 -0.00000000000E+00 -0.45706046645E+03  0.45708463111E+03  0.47000000000E+01 0. -1.
          6    1    1    2  502    0  0.74983499944E+02  0.12550878343E+03 -0.35963309287E+03  0.42461151829E+03  0.17200000000E+03 0. -1.
         -6    1    1    2    0  502 -0.74983499944E+02 -0.12550878343E+03  0.13109887403E+03  0.26104768674E+03  0.17200000000E+03 0.  1.
</event>
<event>
 4    1 -0.6532506E-004  0.2548755E+03  0.7818608E-02  0.1110262E+00
          5   -1    0    0  501    0  0.00000000000E+00  0.00000000000E+00  0.12155880051E+03  0.12164962796E+03  0.47000000000E+01 0. -1.
         -5   -1    0    0    0  501 -0.00000000000E+00 -0.00000000000E+00 -0.70803857733E+03  0.70805417659E+03  0.47000000000E+01 0.  1.
          6    1    1    2  502    0 -0.48643114971E+02  0.18169032047E+03 -0.87639023006E+02  0.26952202793E+03  0.17200000000E+03 0. -1.
         -6    1    1    2    0  502  0.48643114971E+02 -0.18169032047E+03 -0.49884075381E+03  0.56018177661E+03  0.17200000000E+03 0.  1.
</event>
<event>
 4    1 -0.6532506E-004  0.2880143E+03  0.7818608E-02  0.1091390E+00
         -5   -1    0    0    0  501 -0.00000000000E+00  0.00000000000E+00  0.51340959681E+03  0.51343110940E+03  0.47000000000E+01 0.  1.
          5   -1    0    0  501    0  0.00000000000E+00 -0.00000000000E+00 -0.16801037602E+03  0.16807610315E+03  0.47000000000E+01 0. -1.
          6    1    1    2  502    0 -0.67218746722E+02 -0.22102012486E+03  0.10570294542E+03  0.30679857916E+03  0.17200000000E+03 0. -1.
         -6    1    1    2    0  502  0.67218746722E+02  0.22102012486E+03  0.23969627538E+03  0.37470863339E+03  0.17200000000E+03 0.  1.
</event>
<event>
 4    1 -0.6532506E-004  0.1867255E+03  0.7818608E-02  0.1161448E+00
          5   -1    0    0  501    0  0.00000000000E+00  0.00000000000E+00  0.15532211873E+04  0.15532282983E+04  0.47000000000E+01 0. -1.
         -5   -1    0    0    0  501 -0.00000000000E+00 -0.00000000000E+00 -0.23653105680E+02  0.24115542879E+02  0.47000000000E+01 0.  1.
          6    1    1    2  502    0 -0.71158478016E+02 -0.14794765200E+02  0.95865390496E+03  0.97666971058E+03  0.17200000000E+03 0. -1.
         -6    1    1    2    0  502  0.71158478016E+02  0.14794765200E+02  0.57091417662E+03  0.60067413057E+03  0.17200000000E+03 0. -1.
</event>
<event>
 4    1 -0.6532506E-004  0.4172253E+03  0.7818608E-02  0.1037973E+00
         -5   -1    0    0    0  501 -0.00000000000E+00  0.00000000000E+00  0.17554367254E+03  0.17560658008E+03  0.47000000000E+01 0.  1.
          5   -1    0    0  501    0  0.00000000000E+00 -0.00000000000E+00 -0.10779685230E+04  0.10779787690E+04  0.47000000000E+01 0. -1.
          6    1    1    2  502    0  0.36860780213E+03  0.92850509137E+02 -0.62883165105E+03  0.75465632853E+03  0.17200000000E+03 0. -1.
         -6    1    1    2    0  502 -0.36860780213E+03 -0.92850509137E+02 -0.27359319939E+03  0.49892902059E+03  0.17200000000E+03 0.  1.
</event>
<event>
 4    1 -0.6532506E-004  0.2218387E+03  0.7818608E-02  0.1132520E+00
         -5   -1    0    0    0  501 -0.00000000000E+00  0.00000000000E+00  0.70198945336E+02  0.70356107953E+02  0.47000000000E+01 0.  1.
          5   -1    0    0  501    0  0.00000000000E+00 -0.00000000000E+00 -0.70412084917E+03  0.70413653523E+03  0.47000000000E+01 0. -1.
          6    1    1    2  502    0 -0.11441504285E+03  0.80855582422E+02 -0.28767701320E+03  0.36327743002E+03  0.17200000000E+03 0.  1.
         -6    1    1    2    0  502  0.11441504285E+03 -0.80855582422E+02 -0.34624489064E+03  0.41121521316E+03  0.17200000000E+03 0.  1.
</event>
<event>
 4    1 -0.6532506E-004  0.2262770E+03  0.7818608E-02  0.1129288E+00
          5   -1    0    0  501    0  0.00000000000E+00  0.00000000000E+00  0.28215378707E+03  0.28219292967E+03  0.47000000000E+01 0. -1.
         -5   -1    0    0    0  501 -0.00000000000E+00 -0.00000000000E+00 -0.19166154830E+03  0.19171916727E+03  0.47000000000E+01 0.  1.
          6    1    1    2  502    0  0.11779878096E+03 -0.87981534955E+02  0.10010392541E+03  0.24743099881E+03  0.17200000000E+03 0.  1.
         -6    1    1    2    0  502 -0.11779878096E+03  0.87981534955E+02 -0.96116866461E+01  0.22648109813E+03  0.17200000000E+03 0.  1.
</event>
<event>
 4    1 -0.6532506E-004  0.2088318E+03  0.7818608E-02  0.1142494E+00
         -5   -1    0    0    0  501 -0.00000000000E+00  0.00000000000E+00  0.11776715030E+04  0.11776808817E+04  0.47000000000E+01 0.  1.
          5   -1    0    0  501    0  0.00000000000E+00 -0.00000000000E+00 -0.39670189794E+02  0.39947640209E+02  0.47000000000E+01 0. -1.
          6    1    1    2  502    0 -0.11033441636E+03 -0.43046926886E+02  0.73007339589E+03  0.75935359664E+03  0.17200000000E+03 0.  1.
         -6    1    1    2    0  502  0.11033441636E+03  0.43046926886E+02  0.40792791734E+03  0.45827492523E+03  0.17200000000E+03 0. -1.
</event>
<event>
 4    1 -0.6532506E-004  0.2199664E+03  0.7818608E-02  0.1133908E+00
         -5   -1    0    0    0  501 -0.00000000000E+00  0.00000000000E+00  0.59248376785E+03  0.59250240941E+03  0.47000000000E+01 0.  1.
          5   -1    0    0  501    0  0.00000000000E+00 -0.00000000000E+00 -0.10897504417E+03  0.10907635056E+03  0.47000000000E+01 0. -1.
          6    1    1    2  502    0 -0.78717451223E+02  0.11227098359E+03  0.65975670694E+02  0.22964755607E+03  0.17200000000E+03 0. -1.
         -6    1    1    2    0  502  0.78717451223E+02 -0.11227098359E+03  0.41753305299E+03  0.47193120391E+03  0.17200000000E+03 0.  1.
</event>
<event>
 4    1 -0.6532506E-004  0.2570763E+03  0.7818608E-02  0.1108913E+00
          5   -1    0    0  501    0  0.00000000000E+00  0.00000000000E+00  0.68366287150E+03  0.68367902694E+03  0.47000000000E+01 0. -1.
         -5   -1    0    0    0  501 -0.00000000000E+00 -0.00000000000E+00 -0.10043696011E+03  0.10054686945E+03  0.47000000000E+01 0.  1.
          6    1    1    2  502    0  0.41658443224E+02 -0.18646388811E+03  0.21495549667E+03  0.33510307819E+03  0.17200000000E+03 0.  1.
         -6    1    1    2    0  502 -0.41658443224E+02  0.18646388811E+03  0.36827041472E+03  0.44912281819E+03  0.17200000000E+03 0.  1.
</event>
<event>
 4    1 -0.6532506E-004  0.1859792E+03  0.7818608E-02  0.1162139E+00
          5   -1    0    0  501    0  0.00000000000E+00  0.00000000000E+00  0.12630694026E+03  0.12639435572E+03  0.47000000000E+01 0. -1.
         -5   -1    0    0    0  501 -0.00000000000E+00 -0.00000000000E+00 -0.39179236438E+03  0.39182055432E+03  0.47000000000E+01 0.  1.
          6    1    1    2  502    0 -0.16727799390E+02 -0.68734717769E+02  0.95243376393E+01  0.18622296772E+03  0.17200000000E+03 0. -1.
         -6    1    1    2    0  502  0.16727799390E+02  0.68734717769E+02 -0.27500976176E+03  0.33199194232E+03  0.17200000000E+03 0.  1.
</event>
<event>
 4    1 -0.6532506E-004  0.2025521E+03  0.7818608E-02  0.1147604E+00
          5   -1    0    0  501    0  0.00000000000E+00  0.00000000000E+00  0.99190423505E+03  0.99191537014E+03  0.47000000000E+01 0. -1.
         -5   -1    0    0    0  501 -0.00000000000E+00 -0.00000000000E+00 -0.60195147522E+02  0.60378355271E+02  0.47000000000E+01 0.  1.
          6    1    1    2  502    0  0.84635577207E+02  0.65422879226E+02  0.76070324435E+03  0.78720820627E+03  0.17200000000E+03 0. -1.
         -6    1    1    2    0  502 -0.84635577207E+02 -0.65422879226E+02  0.17100584318E+03  0.26508551914E+03  0.17200000000E+03 0.  1.
</event>
<event>
 4    1 -0.6532506E-004  0.3184745E+03  0.7818608E-02  0.1076354E+00
         -5   -1    0    0    0  501 -0.00000000000E+00  0.00000000000E+00  0.62941467707E+03  0.62943222487E+03  0.47000000000E+01 0.  1.
          5   -1    0    0  501    0  0.00000000000E+00 -0.00000000000E+00 -0.21343059532E+03  0.21348233889E+03  0.47000000000E+01 0. -1.
          6    1    1    2  502    0  0.18198832489E+03  0.19677977168E+03 -0.68191149401E+00  0.31847526426E+03  0.17200000000E+03 0. -1.
         -6    1    1    2    0  502 -0.18198832489E+03 -0.19677977168E+03  0.41666599324E+03  0.52443929951E+03  0.17200000000E+03 0.  1.
</event>
<event>
 4    1 -0.6532506E-004  0.2101031E+03  0.7818608E-02  0.1141484E+00
          5   -1    0    0  501    0  0.00000000000E+00  0.00000000000E+00  0.38849149087E+03  0.38851992031E+03  0.47000000000E+01 0. -1.
         -5   -1    0    0    0  501 -0.00000000000E+00 -0.00000000000E+00 -0.13762853656E+03  0.13770876543E+03  0.47000000000E+01 0.  1.
          6    1    1    2  502    0  0.65909379472E+02  0.10107056130E+03  0.23544706281E+03  0.31556080880E+03  0.17200000000E+03 0. -1.
         -6    1    1    2    0  502 -0.65909379472E+02 -0.10107056130E+03  0.15415891499E+02  0.21066787694E+03  0.17200000000E+03 0.  1.
</event>
<event>
 4    1 -0.6532506E-004  0.3978302E+03  0.7818608E-02  0.1044534E+00
          5   -1    0    0  501    0  0.00000000000E+00  0.00000000000E+00  0.25820590387E+03  0.25824867627E+03  0.47000000000E+01 0. -1.
         -5   -1    0    0    0  501 -0.00000000000E+00 -0.00000000000E+00 -0.75231911891E+03  0.75233380004E+03  0.47000000000E+01 0.  1.
          6    1    1    2  502    0  0.35761264334E+03  0.28249370360E+02 -0.29507413186E+02  0.39892294624E+03  0.17200000000E+03 0. -1.
         -6    1    1    2    0  502 -0.35761264334E+03 -0.28249370360E+02 -0.46460580186E+03  0.61165953007E+03  0.17200000000E+03 0.  1.
</event>
<event>
 4    1 -0.6532506E-004  0.2589573E+03  0.7818608E-02  0.1107771E+00
          5   -1    0    0  501    0  0.00000000000E+00  0.00000000000E+00  0.10809827074E+03  0.10820039804E+03  0.47000000000E+01 0. -1.
         -5   -1    0    0    0  501 -0.00000000000E+00 -0.00000000000E+00 -0.65240519337E+03  0.65242212282E+03  0.47000000000E+01 0.  1.
          6    1    1    2  502    0 -0.19348314602E+03 -0.62579635265E+01 -0.35697405154E+03  0.44100948218E+03  0.17200000000E+03 0.  1.
         -6    1    1    2    0  502  0.19348314602E+03  0.62579635265E+01 -0.18733287110E+03  0.31961303868E+03  0.17200000000E+03 0. -1.
</event>
<event>
 4    1 -0.6532506E-004  0.1957219E+03  0.7818608E-02  0.1153399E+00
          5   -1    0    0  501    0  0.00000000000E+00  0.00000000000E+00  0.31445921010E+03  0.31449433193E+03  0.47000000000E+01 0. -1.
         -5   -1    0    0    0  501 -0.00000000000E+00 -0.00000000000E+00 -0.12285644606E+03  0.12294631486E+03  0.47000000000E+01 0.  1.
          6    1    1    2  502    0 -0.15234353568E+02 -0.92146445233E+02  0.74883189008E+02  0.20955797502E+03  0.17200000000E+03 0.  1.
         -6    1    1    2    0  502  0.15234353568E+02  0.92146445233E+02  0.11671957503E+03  0.22788267177E+03  0.17200000000E+03 0. -1.
</event>
<event>
 4    1 -0.6532506E-004  0.2083400E+03  0.7818608E-02  0.1142887E+00
          5   -1    0    0  501    0  0.00000000000E+00  0.00000000000E+00  0.14635803766E+03  0.14643348384E+03  0.47000000000E+01 0. -1.
         -5   -1    0    0    0  501 -0.00000000000E+00 -0.00000000000E+00 -0.30737409256E+03  0.30741002387E+03  0.47000000000E+01 0.  1.
          6    1    1    2  502    0 -0.89409570748E+02 -0.76337913769E+02 -0.12337649522E+03  0.24213076631E+03  0.17200000000E+03 0. -1.
         -6    1    1    2    0  502  0.89409570748E+02  0.76337913769E+02 -0.37639559675E+02  0.21171274140E+03  0.17200000000E+03 0. -1.
</event>
<event>
 4    1 -0.6532506E-004  0.4392655E+03  0.7818608E-02  0.1030972E+00
         -5   -1    0    0    0  501 -0.00000000000E+00  0.00000000000E+00  0.34083776381E+03  0.34087016772E+03  0.47000000000E+01 0.  1.
          5   -1    0    0  501    0  0.00000000000E+00 -0.00000000000E+00 -0.96473601018E+03  0.96474745884E+03  0.47000000000E+01 0. -1.
          6    1    1    2  502    0  0.39652794114E+02 -0.40224103449E+03 -0.73159927613E+03  0.85334148777E+03  0.17200000000E+03 0. -1.
         -6    1    1    2    0  502 -0.39652794114E+02  0.40224103449E+03  0.10770102977E+03  0.45227613879E+03  0.17200000000E+03 0.  1.
</event>
<event>
 4    1 -0.6532506E-004  0.2256074E+03  0.7818608E-02  0.1129770E+00
         -5   -1    0    0    0  501 -0.00000000000E+00  0.00000000000E+00  0.43528891148E+03  0.43531428470E+03  0.47000000000E+01 0.  1.
          5   -1    0    0  501    0  0.00000000000E+00 -0.00000000000E+00 -0.14318452672E+03  0.14326164417E+03  0.47000000000E+01 0. -1.
          6    1    1    2  502    0 -0.44750959737E+02  0.13896782352E+03  0.22047909183E+02  0.22668218869E+03  0.17200000000E+03 0. -1.
         -6    1    1    2    0  502  0.44750959737E+02 -0.13896782352E+03  0.27005647558E+03  0.35189374018E+03  0.17200000000E+03 0.  1.
</event>
<event>
 4    1 -0.6532506E-004  0.4366841E+03  0.7818608E-02  0.1031769E+00
         -5   -1    0    0    0  501 -0.00000000000E+00  0.00000000000E+00  0.19004064697E+04  0.19004122816E+04  0.47000000000E+01 0.  1.
          5   -1    0    0  501    0  0.00000000000E+00 -0.00000000000E+00 -0.10591823168E+03  0.10602245895E+03  0.47000000000E+01 0. -1.
          6    1    1    2  502    0 -0.78891057473E+02  0.39355462809E+03  0.11285365910E+04  0.12100776344E+04  0.17200000000E+03 0. -1.
         -6    1    1    2    0  502  0.78891057473E+02 -0.39355462809E+03  0.66595164704E+03  0.79635710610E+03  0.17200000000E+03 0.  1.
</event>
<event>
 4    1 -0.6532506E-004  0.2645227E+03  0.7818608E-02  0.1104456E+00
         -5   -1    0    0    0  501 -0.00000000000E+00  0.00000000000E+00  0.18738787479E+03  0.18744680743E+03  0.47000000000E+01 0.  1.
          5   -1    0    0  501    0  0.00000000000E+00 -0.00000000000E+00 -0.97377749822E+03  0.97378884058E+03  0.47000000000E+01 0. -1.
          6    1    1    2  502    0  0.29154751331E+02 -0.19884229362E+03 -0.84912647531E+03  0.88937507742E+03  0.17200000000E+03 0. -1.
         -6    1    1    2    0  502 -0.29154751331E+02  0.19884229362E+03  0.62736851885E+02  0.27186057059E+03  0.17200000000E+03 0.  1.
</event>
<event>
 4    1 -0.6532506E-004  0.2462397E+03  0.7818608E-02  0.1115705E+00
         -5   -1    0    0    0  501 -0.00000000000E+00  0.00000000000E+00  0.38609019291E+03  0.38611879916E+03  0.47000000000E+01 0.  1.
          5   -1    0    0  501    0  0.00000000000E+00 -0.00000000000E+00 -0.15794940460E+03  0.15801931658E+03  0.47000000000E+01 0. -1.
          6    1    1    2  502    0  0.17571176797E+03  0.13241693934E+02  0.92724517807E+02  0.26311937227E+03  0.17200000000E+03 0. -1.
         -6    1    1    2    0  502 -0.17571176797E+03 -0.13241693934E+02  0.13541627050E+03  0.28101874347E+03  0.17200000000E+03 0.  1.
</event>
<event>
 4    1 -0.6532506E-004  0.2396955E+03  0.7818608E-02  0.1119996E+00
          5   -1    0    0  501    0  0.00000000000E+00  0.00000000000E+00  0.64544207541E+03  0.64545918748E+03  0.47000000000E+01 0. -1.
         -5   -1    0    0    0  501 -0.00000000000E+00 -0.00000000000E+00 -0.89038799828E+02  0.89162760583E+02  0.47000000000E+01 0.  1.
          6    1    1    2  502    0  0.16573765832E+02  0.16611823136E+03  0.29076038427E+03  0.37682297908E+03  0.17200000000E+03 0. -1.
         -6    1    1    2    0  502 -0.16573765832E+02 -0.16611823136E+03  0.26564289131E+03  0.35779896899E+03  0.17200000000E+03 0.  1.
</event>
<event>
 4    1 -0.6532506E-004  0.1781756E+03  0.7818608E-02  0.1169580E+00
          5   -1    0    0  501    0  0.00000000000E+00  0.00000000000E+00  0.56823009255E+03  0.56824952977E+03  0.47000000000E+01 0. -1.
         -5   -1    0    0    0  501 -0.00000000000E+00 -0.00000000000E+00 -0.78475423310E+02  0.78616042025E+02  0.47000000000E+01 0.  1.
          6    1    1    2  502    0 -0.20757869253E+02  0.41613128911E+02  0.41871859372E+03  0.45505142826E+03  0.17200000000E+03 0. -1.
         -6    1    1    2    0  502  0.20757869253E+02 -0.41613128911E+02  0.71036075519E+02  0.19181414353E+03  0.17200000000E+03 0.  1.
</event>
<event>
 4    1 -0.6532506E-004  0.2562141E+03  0.7818608E-02  0.1109439E+00
          5   -1    0    0  501    0  0.00000000000E+00  0.00000000000E+00  0.26995480743E+03  0.26999571859E+03  0.47000000000E+01 0. -1.
         -5   -1    0    0    0  501 -0.00000000000E+00 -0.00000000000E+00 -0.24777745839E+03  0.24782203067E+03  0.47000000000E+01 0.  1.
          6    1    1    2  502    0  0.13747860468E+03 -0.13100118109E+03 -0.24513227267E+02  0.25738409916E+03  0.17200000000E+03 0. -1.
         -6    1    1    2    0  502 -0.13747860468E+03  0.13100118109E+03  0.46690576307E+02  0.26043365010E+03  0.17200000000E+03 0. -1.
</event>
<event>
 4    1 -0.6532506E-004  0.1861112E+03  0.7818608E-02  0.1162016E+00
          5   -1    0    0  501    0  0.00000000000E+00  0.00000000000E+00  0.12897248026E+03  0.12905809027E+03  0.47000000000E+01 0. -1.
         -5   -1    0    0    0  501 -0.00000000000E+00 -0.00000000000E+00 -0.27087873897E+03  0.27091951060E+03  0.47000000000E+01 0.  1.
          6    1    1    2  502    0  0.70664340159E+02 -0.77403002816E+01 -0.90199971676E+02  0.20681730128E+03  0.17200000000E+03 0.  1.
         -6    1    1    2    0  502 -0.70664340159E+02  0.77403002816E+01 -0.51706287034E+02  0.19316029959E+03  0.17200000000E+03 0.  1.
</event>
<event>
 4    1 -0.6532506E-004  0.1941532E+03  0.7818608E-02  0.1154768E+00
          5   -1    0    0  501    0  0.00000000000E+00  0.00000000000E+00  0.29985368694E+03  0.29989051930E+03  0.47000000000E+01 0. -1.
         -5   -1    0    0    0  501 -0.00000000000E+00 -0.00000000000E+00 -0.12607494204E+03  0.12616251825E+03  0.47000000000E+01 0.  1.
          6    1    1    2  502    0  0.27718807552E+02  0.85691978081E+02  0.99619115107E+02  0.21821873314E+03  0.17200000000E+03 0. -1.
         -6    1    1    2    0  502 -0.27718807552E+02 -0.85691978081E+02  0.74159629788E+02  0.20783430441E+03  0.17200000000E+03 0. -1.
</event>
<event>
 4    1 -0.6532506E-004  0.2258279E+03  0.7818608E-02  0.1129611E+00
         -5   -1    0    0    0  501 -0.00000000000E+00  0.00000000000E+00  0.50765116447E+03  0.50767292107E+03  0.47000000000E+01 0.  1.
          5   -1    0    0  501    0  0.00000000000E+00 -0.00000000000E+00 -0.10286935928E+03  0.10297667250E+03  0.47000000000E+01 0. -1.
          6    1    1    2  502    0 -0.13393980570E+03 -0.58943753854E+02  0.24985441588E+03  0.33678697541E+03  0.17200000000E+03 0.  1.
         -6    1    1    2    0  502  0.13393980570E+03  0.58943753854E+02  0.15492738930E+03  0.27386261816E+03  0.17200000000E+03 0. -1.
</event>
<event>
 4    1 -0.6532506E-004  0.2458593E+03  0.7818608E-02  0.1115950E+00
          5   -1    0    0  501    0  0.00000000000E+00  0.00000000000E+00  0.20040308472E+03  0.20045819107E+03  0.47000000000E+01 0. -1.
         -5   -1    0    0    0  501 -0.00000000000E+00 -0.00000000000E+00 -0.37456452841E+03  0.37459401483E+03  0.47000000000E+01 0.  1.
          6    1    1    2  502    0  0.13090252755E+03 -0.11716365648E+03  0.39883955688E+02  0.24907333065E+03  0.17200000000E+03 0.  1.
         -6    1    1    2    0  502 -0.13090252755E+03  0.11716365648E+03 -0.21404539938E+03  0.32597887525E+03  0.17200000000E+03 0.  1.
</event>
<event>
 4    1 -0.6532506E-004  0.1822647E+03  0.7818608E-02  0.1165629E+00
         -5   -1    0    0    0  501 -0.00000000000E+00  0.00000000000E+00  0.69714262698E+03  0.69715847004E+03  0.47000000000E+01 0.  1.
          5   -1    0    0  501    0  0.00000000000E+00 -0.00000000000E+00 -0.57683552111E+02  0.57874711093E+02  0.47000000000E+01 0. -1.
          6    1    1    2  502    0 -0.11303398912E+02  0.59233989701E+02  0.16157582474E+03  0.24357171327E+03  0.17200000000E+03 0. -1.
         -6    1    1    2    0  502  0.11303398912E+02 -0.59233989701E+02  0.47788325013E+03  0.51146146787E+03  0.17200000000E+03 0.  1.
</event>
<event>
 4    1 -0.6532506E-004  0.3534134E+03  0.7818608E-02  0.1061223E+00
          5   -1    0    0  501    0  0.00000000000E+00  0.00000000000E+00  0.34462613047E+03  0.34465817820E+03  0.47000000000E+01 0. -1.
         -5   -1    0    0    0  501 -0.00000000000E+00 -0.00000000000E+00 -0.43778715511E+03  0.43781238354E+03  0.47000000000E+01 0.  1.
          6    1    1    2  502    0  0.11575981129E+03  0.28621087235E+03  0.11580199643E+03  0.37190200287E+03  0.17200000000E+03 0. -1.
         -6    1    1    2    0  502 -0.11575981129E+03 -0.28621087235E+03 -0.20896302107E+03  0.41056855887E+03  0.17200000000E+03 0.  1.
</event>
<event>
 4    1 -0.6532506E-004  0.2438115E+03  0.7818608E-02  0.1117279E+00
          5   -1    0    0  501    0  0.00000000000E+00  0.00000000000E+00  0.26658055592E+03  0.26662198483E+03  0.47000000000E+01 0. -1.
         -5   -1    0    0    0  501 -0.00000000000E+00 -0.00000000000E+00 -0.22774107603E+03  0.22778956893E+03  0.47000000000E+01 0.  1.
          6    1    1    2  502    0  0.10926305532E+03 -0.13387171396E+03 -0.16601449098E+02  0.24437606095E+03  0.17200000000E+03 0. -1.
         -6    1    1    2    0  502 -0.10926305532E+03  0.13387171396E+03  0.55440928988E+02  0.25003549280E+03  0.17200000000E+03 0.  1.
</event>
<event>
 4    1 -0.6532506E-004  0.1929513E+03  0.7818608E-02  0.1155826E+00
         -5   -1    0    0    0  501 -0.00000000000E+00  0.00000000000E+00  0.29664824425E+03  0.29668547456E+03  0.47000000000E+01 0.  1.
          5   -1    0    0  501    0  0.00000000000E+00 -0.00000000000E+00 -0.21066847558E+03  0.21072089740E+03  0.47000000000E+01 0. -1.
          6    1    1    2  502    0 -0.54777674225E+02  0.68158657553E+02 -0.11836225504E+03  0.22636214262E+03  0.17200000000E+03 0. -1.
         -6    1    1    2    0  502  0.54777674225E+02 -0.68158657553E+02  0.20434202371E+03  0.28104422935E+03  0.17200000000E+03 0.  1.
</event>
<event>
 4    1 -0.6532506E-004  0.4575275E+03  0.7818608E-02  0.1025501E+00
          5   -1    0    0  501    0  0.00000000000E+00  0.00000000000E+00  0.28007038020E+03  0.28010981394E+03  0.47000000000E+01 0. -1.
         -5   -1    0    0    0  501 -0.00000000000E+00 -0.00000000000E+00 -0.77791395666E+03  0.77792815476E+03  0.47000000000E+01 0.  1.
          6    1    1    2  502    0  0.37450724273E+03  0.19872525471E+03 -0.35382140367E+03  0.57837789326E+03  0.17200000000E+03 0.  1.
         -6    1    1    2    0  502 -0.37450724273E+03 -0.19872525471E+03 -0.14402217279E+03  0.47966007544E+03  0.17200000000E+03 0.  1.
</event>
<event>
 4    1 -0.6532506E-004  0.2521929E+03  0.7818608E-02  0.1111927E+00
          5   -1    0    0  501    0  0.00000000000E+00  0.00000000000E+00  0.10981741523E+03  0.10991794525E+03  0.47000000000E+01 0. -1.
         -5   -1    0    0    0  501 -0.00000000000E+00 -0.00000000000E+00 -0.59428200613E+03  0.59430059129E+03  0.47000000000E+01 0.  1.
          6    1    1    2  502    0  0.20770766664E+02 -0.18326443554E+03 -0.29909605130E+03  0.39122848310E+03  0.17200000000E+03 0.  1.
         -6    1    1    2    0  502 -0.20770766664E+02  0.18326443554E+03 -0.18536853959E+03  0.31299005344E+03  0.17200000000E+03 0.  1.
</event>
<event>
 4    1 -0.6532506E-004  0.1828419E+03  0.7818608E-02  0.1165081E+00
         -5   -1    0    0    0  501 -0.00000000000E+00  0.00000000000E+00  0.20411707043E+03  0.20417117436E+03  0.47000000000E+01 0.  1.
          5   -1    0    0  501    0  0.00000000000E+00 -0.00000000000E+00 -0.18712844847E+03  0.18718746279E+03  0.47000000000E+01 0. -1.
          6    1    1    2  502    0 -0.54135406396E+02 -0.30274008661E+02 -0.60759730409E+02  0.19267304603E+03  0.17200000000E+03 0. -1.
         -6    1    1    2    0  502  0.54135406396E+02  0.30274008661E+02  0.77748352362E+02  0.19868559113E+03  0.17200000000E+03 0.  1.
</event>
<event>
 4    1 -0.6532506E-004  0.1744618E+03  0.7818608E-02  0.1173273E+00
          5   -1    0    0  501    0  0.00000000000E+00  0.00000000000E+00  0.10125132529E+03  0.10136035159E+03  0.47000000000E+01 0. -1.
         -5   -1    0    0    0  501 -0.00000000000E+00 -0.00000000000E+00 -0.61533173404E+03  0.61534968345E+03  0.47000000000E+01 0.  1.
          6    1    1    2  502    0 -0.18894785977E+02  0.22269208041E+02 -0.66555977714E+00  0.17446310078E+03  0.17200000000E+03 0. -1.
         -6    1    1    2    0  502  0.18894785977E+02 -0.22269208041E+02 -0.51341484897E+03  0.54224693426E+03  0.17200000000E+03 0.  1.
</event>
<event>
 4    1 -0.6532506E-004  0.2094622E+03  0.7818608E-02  0.1141993E+00
         -5   -1    0    0    0  501 -0.00000000000E+00  0.00000000000E+00  0.53656166627E+02  0.53861621004E+02  0.47000000000E+01 0.  1.
          5   -1    0    0  501    0  0.00000000000E+00 -0.00000000000E+00 -0.82249871567E+03  0.82251214415E+03  0.47000000000E+01 0. -1.
          6    1    1    2  502    0 -0.57557857402E+02  0.10477359235E+03 -0.34524022889E+03  0.40381335819E+03  0.17200000000E+03 0.  1.
         -6    1    1    2    0  502  0.57557857402E+02 -0.10477359235E+03 -0.42360232015E+03  0.47256040697E+03  0.17200000000E+03 0. -1.
</event>
<event>
 4    1 -0.6532506E-004  0.1747911E+03  0.7818608E-02  0.1172942E+00
          5   -1    0    0  501    0  0.00000000000E+00  0.00000000000E+00  0.95288762326E+02  0.95404602748E+02  0.47000000000E+01 0. -1.
         -5   -1    0    0    0  501 -0.00000000000E+00 -0.00000000000E+00 -0.32521739755E+03  0.32525135768E+03  0.47000000000E+01 0.  1.
          6    1    1    2  502    0 -0.12296652302E+02 -0.28578562237E+02 -0.89099341006E+02  0.19619030161E+03  0.17200000000E+03 0. -1.
         -6    1    1    2    0  502  0.12296652302E+02  0.28578562237E+02 -0.14082929422E+03  0.22446565882E+03  0.17200000000E+03 0.  1.
</event>
<event>
 4    1 -0.6532506E-004  0.1989187E+03  0.7818608E-02  0.1150654E+00
          5   -1    0    0  501    0  0.00000000000E+00  0.00000000000E+00  0.10796613579E+03  0.10806838797E+03  0.47000000000E+01 0. -1.
         -5   -1    0    0    0  501 -0.00000000000E+00 -0.00000000000E+00 -0.37741123407E+03  0.37744049810E+03  0.47000000000E+01 0.  1.
          6    1    1    2  502    0 -0.50781362395E+02 -0.86057663622E+02 -0.92891611258E+02  0.21953933515E+03  0.17200000000E+03 0. -1.
         -6    1    1    2    0  502  0.50781362395E+02  0.86057663622E+02 -0.17655348702E+03  0.26596955092E+03  0.17200000000E+03 0.  1.
</event>
<event>
 4    1 -0.6532506E-004  0.2814577E+03  0.7818608E-02  0.1094895E+00
         -5   -1    0    0    0  501 -0.00000000000E+00  0.00000000000E+00  0.61009477576E+02  0.61190247214E+02  0.47000000000E+01 0.  1.
          5   -1    0    0  501    0  0.00000000000E+00 -0.00000000000E+00 -0.14374667509E+04  0.14374744346E+04  0.47000000000E+01 0. -1.
          6    1    1    2  502    0 -0.20537398801E+03  0.86348065436E+02 -0.92299046558E+03  0.96495070491E+03  0.17200000000E+03 0.  1.
         -6    1    1    2    0  502  0.20537398801E+03 -0.86348065436E+02 -0.45346680778E+03  0.53371397687E+03  0.17200000000E+03 0.  1.
</event>
<event>
 4    1 -0.6532506E-004  0.3196501E+03  0.7818608E-02  0.1075810E+00
          5   -1    0    0  501    0  0.00000000000E+00  0.00000000000E+00  0.32980637577E+03  0.32983986342E+03  0.47000000000E+01 0. -1.
         -5   -1    0    0    0  501 -0.00000000000E+00 -0.00000000000E+00 -0.39519235112E+03  0.39522029854E+03  0.47000000000E+01 0.  1.
          6    1    1    2  502    0 -0.26736335799E+03  0.33302097934E+02  0.13587186462E+03  0.34732889099E+03  0.17200000000E+03 0. -1.
         -6    1    1    2    0  502  0.26736335799E+03 -0.33302097934E+02 -0.20125783997E+03  0.37773127097E+03  0.17200000000E+03 0.  1.
</event>
<event>
 4    1 -0.6532506E-004  0.1845860E+03  0.7818608E-02  0.1163437E+00
         -5   -1    0    0    0  501 -0.00000000000E+00  0.00000000000E+00  0.81335321683E+03  0.81336679630E+03  0.47000000000E+01 0.  1.
          5   -1    0    0  501    0  0.00000000000E+00 -0.00000000000E+00 -0.43525348089E+02  0.43778372814E+02  0.47000000000E+01 0. -1.
          6    1    1    2  502    0 -0.60327156059E+02  0.29131385465E+02  0.29850561901E+03  0.35096667642E+03  0.17200000000E+03 0. -1.
         -6    1    1    2    0  502  0.60327156059E+02 -0.29131385465E+02  0.47132224973E+03  0.50617849270E+03  0.17200000000E+03 0.  1.
</event>
<event>
 4    1 -0.6532506E-004  0.2493111E+03  0.7818608E-02  0.1113741E+00
         -5   -1    0    0    0  501 -0.00000000000E+00  0.00000000000E+00  0.13528155134E+03  0.13536317125E+03  0.47000000000E+01 0.  1.
          5   -1    0    0  501    0  0.00000000000E+00 -0.00000000000E+00 -0.47677083197E+03  0.47679399767E+03  0.47000000000E+01 0. -1.
          6    1    1    2  502    0 -0.15769390867E+03  0.87776142364E+02 -0.11203316001E+03  0.27332663416E+03  0.17200000000E+03 0. -1.
         -6    1    1    2    0  502  0.15769390867E+03 -0.87776142364E+02 -0.22945612062E+03  0.33883053477E+03  0.17200000000E+03 0. -1.
</event>
<event>
 4    1 -0.6532506E-004  0.1771034E+03  0.7818608E-02  0.1170636E+00
         -5   -1    0    0    0  501 -0.00000000000E+00  0.00000000000E+00  0.66179012995E+02  0.66345698889E+02  0.47000000000E+01 0.  1.
          5   -1    0    0  501    0  0.00000000000E+00 -0.00000000000E+00 -0.47825034786E+03  0.47827344190E+03  0.47000000000E+01 0. -1.
          6    1    1    2  502    0 -0.39051782279E+02 -0.16018383102E+02 -0.23407734452E+03  0.29352654652E+03  0.17200000000E+03 0. -1.
         -6    1    1    2    0  502  0.39051782279E+02  0.16018383102E+02 -0.17799399034E+03  0.25109259427E+03  0.17200000000E+03 0. -1.
</event>
<event>
 4    1 -0.6532506E-004  0.1852461E+03  0.7818608E-02  0.1162820E+00
          5   -1    0    0  501    0  0.00000000000E+00  0.00000000000E+00  0.99874270848E+02  0.99984798731E+02  0.47000000000E+01 0. -1.
         -5   -1    0    0    0  501 -0.00000000000E+00 -0.00000000000E+00 -0.37041821035E+03  0.37044802680E+03  0.47000000000E+01 0.  1.
          6    1    1    2  502    0 -0.68699971340E+02  0.35249237308E+01 -0.19893061064E+03  0.27182622942E+03  0.17200000000E+03 0.  1.
         -6    1    1    2    0  502  0.68699971340E+02 -0.35249237308E+01 -0.71613328866E+02  0.19860659612E+03  0.17200000000E+03 0.  1.
</event>
<event>
 4    1 -0.6532506E-004  0.4983255E+03  0.7818608E-02  0.1014217E+00
          5   -1    0    0  501    0  0.00000000000E+00  0.00000000000E+00  0.19845216914E+04  0.19845272570E+04  0.47000000000E+01 0. -1.
         -5   -1    0    0    0  501 -0.00000000000E+00 -0.00000000000E+00 -0.22255879740E+03  0.22260841920E+03  0.47000000000E+01 0.  1.
          6    1    1    2  502    0 -0.15013544874E+03 -0.44294881266E+03  0.16112002962E+04  0.16865036905E+04  0.17200000000E+03 0. -1.
         -6    1    1    2    0  502  0.15013544874E+03  0.44294881266E+03  0.15076259782E+03  0.52063198567E+03  0.17200000000E+03 0.  1.
</event>
<event>
 4    1 -0.6532506E-004  0.2403374E+03  0.7818608E-02  0.1119568E+00
         -5   -1    0    0    0  501 -0.00000000000E+00  0.00000000000E+00  0.11688330987E+03  0.11697776766E+03  0.47000000000E+01 0.  1.
          5   -1    0    0  501    0  0.00000000000E+00 -0.00000000000E+00 -0.85356658642E+03  0.85357952615E+03  0.47000000000E+01 0. -1.
          6    1    1    2  502    0 -0.64371924724E+02  0.15503003836E+03 -0.68333820567E+03  0.72437087242E+03  0.17200000000E+03 0. -1.
         -6    1    1    2    0  502  0.64371924724E+02 -0.15503003836E+03 -0.53345070883E+02  0.24618642139E+03  0.17200000000E+03 0.  1.
</event>
<event>
 4    1 -0.6532506E-004  0.6032219E+03  0.7818608E-02  0.9898744E-01
          5   -1    0    0  501    0  0.00000000000E+00  0.00000000000E+00  0.37747508761E+03  0.37750434669E+03  0.47000000000E+01 0. -1.
         -5   -1    0    0    0  501 -0.00000000000E+00 -0.00000000000E+00 -0.18669878721E+04  0.18669937880E+04  0.47000000000E+01 0.  1.
          6    1    1    2  502    0 -0.24920775731E+03 -0.52171655057E+03  0.35753448992E+02  0.60428054293E+03  0.17200000000E+03 0. -1.
         -6    1    1    2    0  502  0.24920775731E+03  0.52171655057E+03 -0.15252662335E+04  0.16402175918E+04  0.17200000000E+03 0.  1.
</event>
<event>
 4    1 -0.6532506E-004  0.2709376E+03  0.7818608E-02  0.1100744E+00
          5   -1    0    0  501    0  0.00000000000E+00  0.00000000000E+00  0.36346528243E+03  0.36349566921E+03  0.47000000000E+01 0. -1.
         -5   -1    0    0    0  501 -0.00000000000E+00 -0.00000000000E+00 -0.21539061822E+03  0.21544189104E+03  0.47000000000E+01 0.  1.
          6    1    1    2  502    0  0.20008397009E+03 -0.61559761204E+02  0.14647127825E+03  0.30799518606E+03  0.17200000000E+03 0. -1.
         -6    1    1    2    0  502 -0.20008397009E+03  0.61559761204E+02  0.16033859657E+01  0.27094237419E+03  0.17200000000E+03 0.  1.
</event>
<event>
 4    1 -0.6532506E-004  0.2173809E+03  0.7818608E-02  0.1135851E+00
          5   -1    0    0  501    0  0.00000000000E+00  0.00000000000E+00  0.13707745681E+03  0.13715800802E+03  0.47000000000E+01 0. -1.
         -5   -1    0    0    0  501 -0.00000000000E+00 -0.00000000000E+00 -0.63062675531E+03  0.63064426939E+03  0.47000000000E+01 0.  1.
          6    1    1    2  502    0  0.13188193659E+03 -0.16661875365E+02  0.11780466958E+02  0.21769989135E+03  0.17200000000E+03 0. -1.
         -6    1    1    2    0  502 -0.13188193659E+03  0.16661875365E+02 -0.50532976547E+03  0.55010238607E+03  0.17200000000E+03 0.  1.
</event>
<event>
 4    1 -0.6532506E-004  0.2037390E+03  0.7818608E-02  0.1146622E+00
         -5   -1    0    0    0  501 -0.00000000000E+00  0.00000000000E+00  0.59884717346E+02  0.60068871902E+02  0.47000000000E+01 0.  1.
          5   -1    0    0  501    0  0.00000000000E+00 -0.00000000000E+00 -0.70278098966E+03  0.70279670561E+03  0.47000000000E+01 0. -1.
          6    1    1    2  502    0  0.67574944266E+02  0.85785809568E+02 -0.27399728985E+03  0.34144412875E+03  0.17200000000E+03 0. -1.
         -6    1    1    2    0  502 -0.67574944266E+02 -0.85785809568E+02 -0.36889898246E+03  0.42142144876E+03  0.17200000000E+03 0.  1.
</event>
<event>
 4    1 -0.6532506E-004  0.1799518E+03  0.7818608E-02  0.1167850E+00
         -5   -1    0    0    0  501 -0.00000000000E+00  0.00000000000E+00  0.72952359644E+03  0.72953873630E+03  0.47000000000E+01 0.  1.
          5   -1    0    0  501    0  0.00000000000E+00 -0.00000000000E+00 -0.46964902749E+02  0.47199492478E+02  0.47000000000E+01 0. -1.
          6    1    1    2  502    0  0.46919494721E+02 -0.24437642041E+02  0.24813525626E+03  0.30651874776E+03  0.17200000000E+03 0. -1.
         -6    1    1    2    0  502 -0.46919494721E+02  0.24437642041E+02  0.43442343744E+03  0.47021948102E+03  0.17200000000E+03 0.  1.
</event>
<event>
 4    1 -0.6532506E-004  0.1794034E+03  0.7818608E-02  0.1168382E+00
         -5   -1    0    0    0  501 -0.00000000000E+00  0.00000000000E+00  0.12793607603E+04  0.12793693935E+04  0.47000000000E+01 0.  1.
          5   -1    0    0  501    0  0.00000000000E+00 -0.00000000000E+00 -0.30976501367E+02  0.31331033129E+02  0.47000000000E+01 0. -1.
          6    1    1    2  502    0 -0.39269621236E+02  0.32549856558E+02  0.33651073098E+03  0.38134638896E+03  0.17200000000E+03 0. -1.
         -6    1    1    2    0  502  0.39269621236E+02 -0.32549856558E+02  0.91187352792E+03  0.92935403762E+03  0.17200000000E+03 0.  1.
</event>
<event>
 4    1 -0.6532506E-004  0.2013791E+03  0.7818608E-02  0.1148581E+00
          5   -1    0    0  501    0  0.00000000000E+00  0.00000000000E+00  0.90635882540E+02  0.90757661957E+02  0.47000000000E+01 0. -1.
         -5   -1    0    0    0  501 -0.00000000000E+00 -0.00000000000E+00 -0.45108680704E+03  0.45111129169E+03  0.47000000000E+01 0.  1.
          6    1    1    2  502    0 -0.58083298828E+02  0.87154408227E+02 -0.15443894449E+03  0.25378129965E+03  0.17200000000E+03 0.  1.
         -6    1    1    2    0  502  0.58083298828E+02 -0.87154408227E+02 -0.20601198001E+03  0.28808765400E+03  0.17200000000E+03 0. -1.
</event>
<event>
 4    1 -0.6532506E-004  0.1917263E+03  0.7818608E-02  0.1156913E+00
          5   -1    0    0  501    0  0.00000000000E+00  0.00000000000E+00  0.74774034712E+03  0.74775511814E+03  0.47000000000E+01 0. -1.
         -5   -1    0    0    0  501 -0.00000000000E+00 -0.00000000000E+00 -0.59691269488E+02  0.59876019015E+02  0.47000000000E+01 0.  1.
          6    1    1    2  502    0 -0.74216063979E+02  0.40828479252E+02  0.17369710117E+03  0.25870769572E+03  0.17200000000E+03 0.  1.
         -6    1    1    2    0  502  0.74216063979E+02 -0.40828479252E+02  0.51435197646E+03  0.54892344143E+03  0.17200000000E+03 0. -1.
</event>
<event>
 4    1 -0.6532506E-004  0.1814077E+03  0.7818608E-02  0.1166448E+00
          5   -1    0    0  501    0  0.00000000000E+00  0.00000000000E+00  0.11925190260E+03  0.11934448573E+03  0.47000000000E+01 0. -1.
         -5   -1    0    0    0  501 -0.00000000000E+00 -0.00000000000E+00 -0.33758275710E+03  0.33761547342E+03  0.47000000000E+01 0.  1.
          6    1    1    2  502    0 -0.48801715021E+02 -0.30710492208E+02 -0.11392453307E+02  0.18176503985E+03  0.17200000000E+03 0. -1.
         -6    1    1    2    0  502  0.48801715021E+02  0.30710492208E+02 -0.20693840119E+03  0.27519491930E+03  0.17200000000E+03 0.  1.
</event>
<event>
 4    1 -0.6532506E-004  0.1816508E+03  0.7818608E-02  0.1166215E+00
          5   -1    0    0  501    0  0.00000000000E+00  0.00000000000E+00  0.54494088738E+02  0.54696395744E+02  0.47000000000E+01 0. -1.
         -5   -1    0    0    0  501 -0.00000000000E+00 -0.00000000000E+00 -0.66982866002E+03  0.66984514911E+03  0.47000000000E+01 0.  1.
          6    1    1    2  502    0  0.90852845218E+01 -0.57710336882E+02 -0.19427449233E+03  0.26596917819E+03  0.17200000000E+03 0. -1.
         -6    1    1    2    0  502 -0.90852845218E+01  0.57710336882E+02 -0.42106007895E+03  0.45857236666E+03  0.17200000000E+03 0. -1.
</event>
<event>
 4    1 -0.6532506E-004  0.1965746E+03  0.7818608E-02  0.1152662E+00
          5   -1    0    0  501    0  0.00000000000E+00  0.00000000000E+00  0.82100535595E+02  0.82234955736E+02  0.47000000000E+01 0. -1.
         -5   -1    0    0    0  501 -0.00000000000E+00 -0.00000000000E+00 -0.54731405904E+03  0.54733423904E+03  0.47000000000E+01 0.  1.
          6    1    1    2  502    0  0.93197414238E+02 -0.19282920099E+02 -0.11441285869E+03  0.22744645801E+03  0.17200000000E+03 0. -1.
         -6    1    1    2    0  502 -0.93197414238E+02  0.19282920099E+02 -0.35080066476E+03  0.40212273677E+03  0.17200000000E+03 0.  1.
</event>
<event>
 4    1 -0.6532506E-004  0.2454823E+03  0.7818608E-02  0.1116194E+00
          5   -1    0    0  501    0  0.00000000000E+00  0.00000000000E+00  0.11230413167E+03  0.11240243765E+03  0.47000000000E+01 0. -1.
         -5   -1    0    0    0  501 -0.00000000000E+00 -0.00000000000E+00 -0.59662658269E+03  0.59664509482E+03  0.47000000000E+01 0.  1.
          6    1    1    2  502    0 -0.16176454944E+03  0.67154901106E+02 -0.35492994888E+03  0.43155164095E+03  0.17200000000E+03 0. -1.
         -6    1    1    2    0  502  0.16176454944E+03 -0.67154901106E+02 -0.12939250215E+03  0.27749589152E+03  0.17200000000E+03 0.  1.
</event>
<event>
 4    1 -0.6532506E-004  0.3598367E+03  0.7818608E-02  0.1058649E+00
         -5   -1    0    0    0  501 -0.00000000000E+00  0.00000000000E+00  0.36543300072E+03  0.36546322389E+03  0.47000000000E+01 0.  1.
          5   -1    0    0  501    0  0.00000000000E+00 -0.00000000000E+00 -0.36386258440E+03  0.36389293800E+03  0.47000000000E+01 0. -1.
          6    1    1    2  502    0  0.18300475734E+03 -0.25769699577E+03 -0.58434886323E+02  0.36455057095E+03  0.17200000000E+03 0. -1.
         -6    1    1    2    0  502 -0.18300475734E+03  0.25769699577E+03  0.60005302639E+02  0.36480559094E+03  0.17200000000E+03 0.  1.
</event>
<event>
 4    1 -0.6532506E-004  0.1883923E+03  0.7818608E-02  0.1159919E+00
         -5   -1    0    0    0  501 -0.00000000000E+00  0.00000000000E+00  0.13409905099E+04  0.13409987464E+04  0.47000000000E+01 0.  1.
          5   -1    0    0  501    0  0.00000000000E+00 -0.00000000000E+00 -0.52680096169E+02  0.52889342333E+02  0.47000000000E+01 0. -1.
          6    1    1    2  502    0 -0.66777234279E+02 -0.38058592875E+02  0.15199696708E+03  0.24206349066E+03  0.17200000000E+03 0. -1.
         -6    1    1    2    0  502  0.66777234279E+02  0.38058592875E+02  0.11363134467E+04  0.11518245980E+04  0.17200000000E+03 0.  1.
</event>
<event>
 4    1 -0.6532506E-004  0.3068049E+03  0.7818608E-02  0.1081888E+00
          5   -1    0    0  501    0  0.00000000000E+00  0.00000000000E+00  0.21297374330E+03  0.21302559784E+03  0.47000000000E+01 0. -1.
         -5   -1    0    0    0  501 -0.00000000000E+00 -0.00000000000E+00 -0.46767378927E+03  0.46769740557E+03  0.47000000000E+01 0.  1.
          6    1    1    2  502    0 -0.11929170156E+03  0.22430945017E+03 -0.47388828591E+02  0.31044313581E+03  0.17200000000E+03 0. -1.
         -6    1    1    2    0  502  0.11929170156E+03 -0.22430945017E+03 -0.20731121738E+03  0.37027986760E+03  0.17200000000E+03 0.  1.
</event>
<event>
 4    1 -0.6532506E-004  0.2266683E+03  0.7818608E-02  0.1129007E+00
         -5   -1    0    0    0  501 -0.00000000000E+00  0.00000000000E+00  0.10001476883E+03  0.10012514162E+03  0.47000000000E+01 0.  1.
          5   -1    0    0  501    0  0.00000000000E+00 -0.00000000000E+00 -0.56708110022E+03  0.56710057682E+03  0.47000000000E+01 0. -1.
          6    1    1    2  502    0 -0.12335869888E+03 -0.81099755624E+02 -0.33625538588E+03  0.40551969555E+03  0.17200000000E+03 0. -1.
         -6    1    1    2    0  502  0.12335869888E+03  0.81099755624E+02 -0.13081094551E+03  0.26170602289E+03  0.17200000000E+03 0.  1.
</event>
<event>
 4    1 -0.6532506E-004  0.1858004E+03  0.7818608E-02  0.1162305E+00
         -5   -1    0    0    0  501 -0.00000000000E+00  0.00000000000E+00  0.80273342139E+02  0.80410816798E+02  0.47000000000E+01 0.  1.
          5   -1    0    0  501    0  0.00000000000E+00 -0.00000000000E+00 -0.14180732254E+04  0.14180810141E+04  0.47000000000E+01 0. -1.
          6    1    1    2  502    0  0.37623143228E+00  0.70268332363E+02 -0.12944301163E+04  0.13076968709E+04  0.17200000000E+03 0. -1.
         -6    1    1    2    0  502 -0.37623143228E+00 -0.70268332363E+02 -0.43369766924E+02  0.19079496001E+03  0.17200000000E+03 0.  1.
</event>
<event>
 4    1 -0.6532506E-004  0.2220231E+03  0.7818608E-02  0.1132384E+00
          5   -1    0    0  501    0  0.00000000000E+00  0.00000000000E+00  0.12021862165E+03  0.12031046085E+03  0.47000000000E+01 0. -1.
         -5   -1    0    0    0  501 -0.00000000000E+00 -0.00000000000E+00 -0.41587346684E+03  0.41590002455E+03  0.47000000000E+01 0.  1.
          6    1    1    2  502    0 -0.12229151997E+03 -0.68956918788E+02 -0.11537009377E+03  0.25020897474E+03  0.17200000000E+03 0. -1.
         -6    1    1    2    0  502  0.12229151997E+03  0.68956918788E+02 -0.18028475143E+03  0.28600151067E+03  0.17200000000E+03 0.  1.
</event>
<event>
 4    1 -0.6532506E-004  0.1732249E+03  0.7818608E-02  0.1174526E+00
         -5   -1    0    0    0  501 -0.00000000000E+00  0.00000000000E+00  0.10238425069E+04  0.10238532946E+04  0.47000000000E+01 0.  1.
          5   -1    0    0  501    0  0.00000000000E+00 -0.00000000000E+00 -0.10073641875E+03  0.10084600171E+03  0.47000000000E+01 0. -1.
          6    1    1    2  502    0  0.39973384938E+01  0.20171107092E+02 -0.12041720732E+02  0.17364289595E+03  0.17200000000E+03 0. -1.
         -6    1    1    2    0  502 -0.39973384938E+01 -0.20171107092E+02  0.93514780890E+03  0.95105640041E+03  0.17200000000E+03 0.  1.
</event>
<event>
 4    1 -0.6532506E-004  0.6612707E+03  0.7818608E-02  0.9785857E-01
          5   -1    0    0  501    0  0.00000000000E+00  0.00000000000E+00  0.47605787509E+03  0.47608107549E+03  0.47000000000E+01 0. -1.
         -5   -1    0    0    0  501 -0.00000000000E+00 -0.00000000000E+00 -0.96842804283E+03  0.96843944784E+03  0.47000000000E+01 0.  1.
          6    1    1    2  502    0  0.52654757647E+03 -0.36116833686E+03 -0.82175828917E+02  0.66635709998E+03  0.17200000000E+03 0. -1.
         -6    1    1    2    0  502 -0.52654757647E+03  0.36116833686E+03 -0.41019433881E+03  0.77816342335E+03  0.17200000000E+03 0.  1.
</event>
<event>
 4    1 -0.6532506E-004  0.2067986E+03  0.7818608E-02  0.1144127E+00
         -5   -1    0    0    0  501 -0.00000000000E+00  0.00000000000E+00  0.41075509780E+02  0.41343530373E+02  0.47000000000E+01 0.  1.
          5   -1    0    0  501    0  0.00000000000E+00 -0.00000000000E+00 -0.10881849205E+04  0.10881950704E+04  0.47000000000E+01 0. -1.
          6    1    1    2  502    0  0.28718151782E+02  0.11116169383E+03 -0.64544082643E+03  0.67776066191E+03  0.17200000000E+03 0. -1.
         -6    1    1    2    0  502 -0.28718151782E+02 -0.11116169383E+03 -0.40166858429E+03  0.45177793884E+03  0.17200000000E+03 0.  1.
</event>
<event>
 4    1 -0.6532506E-004  0.1735797E+03  0.7818608E-02  0.1174165E+00
         -5   -1    0    0    0  501 -0.00000000000E+00  0.00000000000E+00  0.54576163508E+02  0.54778167396E+02  0.47000000000E+01 0.  1.
          5   -1    0    0  501    0  0.00000000000E+00 -0.00000000000E+00 -0.63076453357E+03  0.63078204382E+03  0.47000000000E+01 0. -1.
          6    1    1    2  502    0 -0.21110396490E+02 -0.10013477986E+02 -0.41009094028E+03  0.44531393183E+03  0.17200000000E+03 0. -1.
         -6    1    1    2    0  502  0.21110396490E+02  0.10013477986E+02 -0.16609742979E+03  0.24024627939E+03  0.17200000000E+03 0.  1.
</event>
<event>
 4    1 -0.6532506E-004  0.1980273E+03  0.7818608E-02  0.1151414E+00
         -5   -1    0    0    0  501 -0.00000000000E+00  0.00000000000E+00  0.49730496357E+03  0.49732717279E+03  0.47000000000E+01 0.  1.
          5   -1    0    0  501    0  0.00000000000E+00 -0.00000000000E+00 -0.99106966268E+02  0.99218348922E+02  0.47000000000E+01 0. -1.
          6    1    1    2  502    0  0.74155450049E+02 -0.64278858263E+02  0.64053271724E+02  0.20812886395E+03  0.17200000000E+03 0. -1.
         -6    1    1    2    0  502 -0.74155450049E+02  0.64278858263E+02  0.33414472558E+03  0.38841665776E+03  0.17200000000E+03 0.  1.
</event>
<event>
 4    1 -0.6532506E-004  0.5672180E+03  0.7818608E-02  0.9975854E-01
          5   -1    0    0  501    0  0.00000000000E+00  0.00000000000E+00  0.10524507920E+04  0.10524612865E+04  0.47000000000E+01 0. -1.
         -5   -1    0    0    0  501 -0.00000000000E+00 -0.00000000000E+00 -0.30977943723E+03  0.30981508958E+03  0.47000000000E+01 0.  1.
          6    1    1    2  502    0 -0.53334408279E+03  0.87729123770E+02  0.44976283302E+03  0.72389427112E+03  0.17200000000E+03 0. -1.
         -6    1    1    2    0  502  0.53334408279E+03 -0.87729123770E+02  0.29290852174E+03  0.63838210494E+03  0.17200000000E+03 0.  1.
</event>
<event>
 4    1 -0.6532506E-004  0.2150015E+03  0.7818608E-02  0.1137665E+00
         -5   -1    0    0    0  501 -0.00000000000E+00  0.00000000000E+00  0.13455385280E+03  0.13463591387E+03  0.47000000000E+01 0.  1.
          5   -1    0    0  501    0  0.00000000000E+00 -0.00000000000E+00 -0.34363634970E+03  0.34366848974E+03  0.47000000000E+01 0. -1.
          6    1    1    2  502    0 -0.63004206020E+02 -0.11257051821E+03 -0.97575361629E+02  0.23610718486E+03  0.17200000000E+03 0. -1.
         -6    1    1    2    0  502  0.63004206020E+02  0.11257051821E+03 -0.11150713528E+03  0.24219721874E+03  0.17200000000E+03 0.  1.
</event>
<event>
 4    1 -0.6532506E-004  0.2206586E+03  0.7818608E-02  0.1133393E+00
          5   -1    0    0  501    0  0.00000000000E+00  0.00000000000E+00  0.96522534116E+03  0.96523678402E+03  0.47000000000E+01 0. -1.
         -5   -1    0    0    0  501 -0.00000000000E+00 -0.00000000000E+00 -0.57722453255E+02  0.57913483833E+02  0.47000000000E+01 0.  1.
          6    1    1    2  502    0 -0.10803365109E+03 -0.86226100854E+02  0.63656968339E+03  0.67372930176E+03  0.17200000000E+03 0. -1.
         -6    1    1    2    0  502  0.10803365109E+03  0.86226100854E+02  0.27093320452E+03  0.34942096609E+03  0.17200000000E+03 0.  1.
</event>
<event>
 4    1 -0.6532506E-004  0.2100125E+03  0.7818608E-02  0.1141556E+00
          5   -1    0    0  501    0  0.00000000000E+00  0.00000000000E+00  0.19779869202E+03  0.19785452374E+03  0.47000000000E+01 0. -1.
         -5   -1    0    0    0  501 -0.00000000000E+00 -0.00000000000E+00 -0.26197704446E+03  0.26201920125E+03  0.47000000000E+01 0.  1.
          6    1    1    2  502    0 -0.11599045491E+03 -0.32672201603E+02  0.56734502603E+02  0.21754094367E+03  0.17200000000E+03 0. -1.
         -6    1    1    2    0  502  0.11599045491E+03  0.32672201603E+02 -0.12091285504E+03  0.24233278132E+03  0.17200000000E+03 0.  1.
</event>
<event>
 4    1 -0.6532506E-004  0.2757382E+03  0.7818608E-02  0.1098040E+00
         -5   -1    0    0    0  501 -0.00000000000E+00  0.00000000000E+00  0.28471103632E+04  0.28471142426E+04  0.47000000000E+01 0.  1.
          5   -1    0    0  501    0  0.00000000000E+00 -0.00000000000E+00 -0.27763960971E+02  0.28158968887E+02  0.47000000000E+01 0. -1.
          6    1    1    2  502    0 -0.44320744236E+02 -0.21091041064E+03  0.11044481117E+04  0.11383484357E+04  0.17200000000E+03 0.  1.
         -6    1    1    2    0  502  0.44320744236E+02  0.21091041064E+03  0.17148982906E+04  0.17369247758E+04  0.17200000000E+03 0.  1.
</event>
<event>
 4    1 -0.6532506E-004  0.1801705E+03  0.7818608E-02  0.1167638E+00
          5   -1    0    0  501    0  0.00000000000E+00  0.00000000000E+00  0.23090728698E+03  0.23095511508E+03  0.47000000000E+01 0. -1.
         -5   -1    0    0    0  501 -0.00000000000E+00 -0.00000000000E+00 -0.22754632461E+03  0.22759485900E+03  0.47000000000E+01 0.  1.
          6    1    1    2  502    0 -0.50215571005E+02 -0.18862522554E+02  0.14346862371E+03  0.23031422952E+03  0.17200000000E+03 0. -1.
         -6    1    1    2    0  502  0.50215571005E+02  0.18862522554E+02 -0.14010766134E+03  0.22823574456E+03  0.17200000000E+03 0.  1.
</event>
<event>
 4    1 -0.6532506E-004  0.2103126E+03  0.7818608E-02  0.1141319E+00
          5   -1    0    0  501    0  0.00000000000E+00  0.00000000000E+00  0.52612815857E+03  0.52614915114E+03  0.47000000000E+01 0. -1.
         -5   -1    0    0    0  501 -0.00000000000E+00 -0.00000000000E+00 -0.37156644040E+03  0.37159616472E+03  0.47000000000E+01 0.  1.
          6    1    1    2  502    0  0.10427435258E+03  0.61435030318E+02  0.47212783324E+03  0.51685210117E+03  0.17200000000E+03 0. -1.
         -6    1    1    2    0  502 -0.10427435258E+03 -0.61435030318E+02 -0.31756611507E+03  0.38089321469E+03  0.17200000000E+03 0.  1.
</event>
<event>
 4    1 -0.6532506E-004  0.1791217E+03  0.7818608E-02  0.1168656E+00
         -5   -1    0    0    0  501 -0.00000000000E+00  0.00000000000E+00  0.18150028232E+04  0.18150089086E+04  0.47000000000E+01 0.  1.
          5   -1    0    0  501    0  0.00000000000E+00 -0.00000000000E+00 -0.31244194834E+02  0.31595722983E+02  0.47000000000E+01 0. -1.
          6    1    1    2  502    0 -0.18399788323E+01  0.49972001213E+02  0.28117780790E+03  0.33338498179E+03  0.17200000000E+03 0. -1.
         -6    1    1    2    0  502  0.18399788323E+01 -0.49972001213E+02  0.15025808205E+04  0.15132196498E+04  0.17200000000E+03 0.  1.
</event>
<event>
 4    1 -0.6532506E-004  0.4311104E+03  0.7818608E-02  0.1033510E+00
          5   -1    0    0  501    0  0.00000000000E+00  0.00000000000E+00  0.27081440630E+03  0.27085518761E+03  0.47000000000E+01 0. -1.
         -5   -1    0    0    0  501 -0.00000000000E+00 -0.00000000000E+00 -0.10715315327E+04  0.10715418404E+04  0.47000000000E+01 0.  1.
          6    1    1    2  502    0  0.13818317032E+03  0.37037496159E+03  0.21386509437E+01  0.43111573221E+03  0.17200000000E+03 0. -1.
         -6    1    1    2    0  502 -0.13818317032E+03 -0.37037496159E+03 -0.80285577738E+03  0.91128129576E+03  0.17200000000E+03 0.  1.
</event>
<event>
 4    1 -0.6532506E-004  0.1827251E+03  0.7818608E-02  0.1165191E+00
         -5   -1    0    0    0  501 -0.00000000000E+00  0.00000000000E+00  0.54791300293E+02  0.54992513925E+02  0.47000000000E+01 0.  1.
          5   -1    0    0  501    0  0.00000000000E+00 -0.00000000000E+00 -0.61253106781E+03  0.61254909929E+03  0.47000000000E+01 0. -1.
          6    1    1    2  502    0 -0.47069499471E+02 -0.39861434222E+02 -0.30741835020E+03  0.35762342451E+03  0.17200000000E+03 0. -1.
         -6    1    1    2    0  502  0.47069499471E+02  0.39861434222E+02 -0.25032141733E+03  0.30991818871E+03  0.17200000000E+03 0.  1.
</event>
<event>
 4    1 -0.6532506E-004  0.1730717E+03  0.7818608E-02  0.1174682E+00
          5   -1    0    0  501    0  0.00000000000E+00  0.00000000000E+00  0.85253129678E+02  0.85382586748E+02  0.47000000000E+01 0. -1.
         -5   -1    0    0    0  501 -0.00000000000E+00 -0.00000000000E+00 -0.51715957198E+03  0.51718092858E+03  0.47000000000E+01 0.  1.
          6    1    1    2  502    0  0.91758635909E+01  0.16900160871E+02 -0.45173390125E+02  0.17886991666E+03  0.17200000000E+03 0. -1.
         -6    1    1    2    0  502 -0.91758635909E+01 -0.16900160871E+02 -0.38673305218E+03  0.42369359867E+03  0.17200000000E+03 0.  1.
</event>
<event>
 4    1 -0.6532506E-004  0.2038267E+03  0.7818608E-02  0.1146550E+00
          5   -1    0    0  501    0  0.00000000000E+00  0.00000000000E+00  0.17947783928E+03  0.17953936836E+03  0.47000000000E+01 0. -1.
         -5   -1    0    0    0  501 -0.00000000000E+00 -0.00000000000E+00 -0.32005455695E+03  0.32008906483E+03  0.47000000000E+01 0.  1.
          6    1    1    2  502    0 -0.10482057991E+03  0.31208277552E+02  0.61203661717E+02  0.21281728964E+03  0.17200000000E+03 0. -1.
         -6    1    1    2    0  502  0.10482057991E+03 -0.31208277552E+02 -0.20178037939E+03  0.28681114356E+03  0.17200000000E+03 0.  1.
</event>
<event>
 4    1 -0.6532506E-004  0.1933088E+03  0.7818608E-02  0.1155510E+00
         -5   -1    0    0    0  501 -0.00000000000E+00  0.00000000000E+00  0.10932612073E+04  0.10932713100E+04  0.47000000000E+01 0.  1.
          5   -1    0    0  501    0  0.00000000000E+00 -0.00000000000E+00 -0.49235715371E+02  0.49459535664E+02  0.47000000000E+01 0. -1.
          6    1    1    2  502    0  0.80635512505E+02 -0.35808120769E+02  0.83884811584E+03  0.86083358952E+03  0.17200000000E+03 0.  1.
         -6    1    1    2    0  502 -0.80635512505E+02  0.35808120769E+02  0.20517737605E+03  0.28189725616E+03  0.17200000000E+03 0. -1.
</event>
<event>
 4    1 -0.6532506E-004  0.1877608E+03  0.7818608E-02  0.1160497E+00
         -5   -1    0    0    0  501 -0.00000000000E+00  0.00000000000E+00  0.13471017351E+03  0.13479213941E+03  0.47000000000E+01 0.  1.
          5   -1    0    0  501    0  0.00000000000E+00 -0.00000000000E+00 -0.26854354934E+03  0.26858467546E+03  0.47000000000E+01 0. -1.
          6    1    1    2  502    0 -0.34308468347E+02  0.67030221154E+02 -0.99524912306E+02  0.21250724627E+03  0.17200000000E+03 0. -1.
         -6    1    1    2    0  502  0.34308468347E+02 -0.67030221154E+02 -0.34308463521E+02  0.19086956860E+03  0.17200000000E+03 0.  1.
</event>
<event>
 4    1 -0.6532506E-004  0.2549648E+03  0.7818608E-02  0.1110207E+00
          5   -1    0    0  501    0  0.00000000000E+00  0.00000000000E+00  0.27194132745E+03  0.27198193979E+03  0.47000000000E+01 0. -1.
         -5   -1    0    0    0  501 -0.00000000000E+00 -0.00000000000E+00 -0.51720334682E+03  0.51722470161E+03  0.47000000000E+01 0.  1.
          6    1    1    2  502    0 -0.17135278653E+03  0.77854234558E+02  0.16677405742E+03  0.30466480847E+03  0.17200000000E+03 0. -1.
         -6    1    1    2    0  502  0.17135278653E+03 -0.77854234558E+02 -0.41203607679E+03  0.48454183294E+03  0.17200000000E+03 0.  1.
</event>
<event>
 4    1 -0.6532506E-004  0.2149368E+03  0.7818608E-02  0.1137715E+00
          5   -1    0    0  501    0  0.00000000000E+00  0.00000000000E+00  0.59706523431E+03  0.59708373284E+03  0.47000000000E+01 0. -1.
         -5   -1    0    0    0  501 -0.00000000000E+00 -0.00000000000E+00 -0.21826310524E+03  0.21831370344E+03  0.47000000000E+01 0.  1.
          6    1    1    2  502    0 -0.11670661351E+03 -0.54712006423E+02  0.51697726155E+03  0.55987795656E+03  0.17200000000E+03 0. -1.
         -6    1    1    2    0  502  0.11670661351E+03  0.54712006423E+02 -0.13817513247E+03  0.25551947972E+03  0.17200000000E+03 0.  1.
</event>
<event>
 4    1 -0.6532506E-004  0.2043144E+03  0.7818608E-02  0.1146149E+00
          5   -1    0    0  501    0  0.00000000000E+00  0.00000000000E+00  0.10086838108E+03  0.10097782084E+03  0.47000000000E+01 0. -1.
         -5   -1    0    0    0  501 -0.00000000000E+00 -0.00000000000E+00 -0.41374640443E+03  0.41377309867E+03  0.47000000000E+01 0.  1.
          6    1    1    2  502    0  0.71595384986E+02 -0.83871863309E+02 -0.15019619039E+03  0.25358092242E+03  0.17200000000E+03 0.  1.
         -6    1    1    2    0  502 -0.71595384986E+02  0.83871863309E+02 -0.16268183296E+03  0.26116999709E+03  0.17200000000E+03 0. -1.
</event>
<event>
 4    1 -0.6532506E-004  0.1826522E+03  0.7818608E-02  0.1165261E+00
         -5   -1    0    0    0  501 -0.00000000000E+00  0.00000000000E+00  0.73980336952E+02  0.74129483038E+02  0.47000000000E+01 0.  1.
          5   -1    0    0  501    0  0.00000000000E+00 -0.00000000000E+00 -0.45172945569E+03  0.45175390551E+03  0.47000000000E+01 0. -1.
          6    1    1    2  502    0  0.35624046591E+02 -0.50087557998E+02 -0.17429407810E+03  0.25246833826E+03  0.17200000000E+03 0.  1.
         -6    1    1    2    0  502 -0.35624046591E+02  0.50087557998E+02 -0.20345504064E+03  0.27341505029E+03  0.17200000000E+03 0. -1.
</event>
<event>
 4    1 -0.6532506E-004  0.3081424E+03  0.7818608E-02  0.1081240E+00
          5   -1    0    0  501    0  0.00000000000E+00  0.00000000000E+00  0.56552641827E+02  0.56747610501E+02  0.47000000000E+01 0. -1.
         -5   -1    0    0    0  501 -0.00000000000E+00 -0.00000000000E+00 -0.21261641572E+04  0.21261693520E+04  0.47000000000E+01 0.  1.
          6    1    1    2  502    0 -0.57442076811E+02  0.24913481521E+03 -0.53255899503E+03  0.61528109960E+03  0.17200000000E+03 0. -1.
         -6    1    1    2    0  502  0.57442076811E+02 -0.24913481521E+03 -0.15370525203E+04  0.15676358629E+04  0.17200000000E+03 0.  1.
</event>
<event>
 4    1 -0.6532506E-004  0.2277340E+03  0.7818608E-02  0.1128245E+00
         -5   -1    0    0    0  501 -0.00000000000E+00  0.00000000000E+00  0.38303434074E+03  0.38306317519E+03  0.47000000000E+01 0.  1.
          5   -1    0    0  501    0  0.00000000000E+00 -0.00000000000E+00 -0.16820185988E+03  0.16826751222E+03  0.47000000000E+01 0. -1.
          6    1    1    2  502    0 -0.56181100479E+02 -0.13828402231E+03 -0.14420701311E+02  0.22819014769E+03  0.17200000000E+03 0. -1.
         -6    1    1    2    0  502  0.56181100479E+02  0.13828402231E+03  0.22925318217E+03  0.32314053972E+03  0.17200000000E+03 0.  1.
</event>
<event>
 4    1 -0.6532506E-004  0.2531235E+03  0.7818608E-02  0.1111347E+00
         -5   -1    0    0    0  501 -0.00000000000E+00  0.00000000000E+00  0.69686602959E+03  0.69688187894E+03  0.47000000000E+01 0.  1.
          5   -1    0    0  501    0  0.00000000000E+00 -0.00000000000E+00 -0.11327740948E+03  0.11337487155E+03  0.47000000000E+01 0. -1.
          6    1    1    2  502    0  0.36754957319E+02 -0.18203454623E+03  0.11575443354E+03  0.27833539443E+03  0.17200000000E+03 0. -1.
         -6    1    1    2    0  502 -0.36754957319E+02  0.18203454623E+03  0.46783418657E+03  0.53192135606E+03  0.17200000000E+03 0.  1.
</event>
<event>
 4    1 -0.6532506E-004  0.1815432E+03  0.7818608E-02  0.1166318E+00
          5   -1    0    0  501    0  0.00000000000E+00  0.00000000000E+00  0.28403305243E+03  0.28407193609E+03  0.47000000000E+01 0. -1.
         -5   -1    0    0    0  501 -0.00000000000E+00 -0.00000000000E+00 -0.31359656026E+03  0.31363177869E+03  0.47000000000E+01 0.  1.
          6    1    1    2  502    0 -0.57843211499E+02  0.53020480109E+01  0.22243893539E+03  0.28711849263E+03  0.17200000000E+03 0. -1.
         -6    1    1    2    0  502  0.57843211499E+02 -0.53020480109E+01 -0.25200244322E+03  0.31058522215E+03  0.17200000000E+03 0.  1.
</event>
<event>
 4    1 -0.6532506E-004  0.1961214E+03  0.7818608E-02  0.1153053E+00
         -5   -1    0    0    0  501 -0.00000000000E+00  0.00000000000E+00  0.15157818553E+04  0.15157891419E+04  0.47000000000E+01 0.  1.
          5   -1    0    0  501    0  0.00000000000E+00 -0.00000000000E+00 -0.37985963549E+02  0.38275624446E+02  0.47000000000E+01 0. -1.
          6    1    1    2  502    0 -0.94168326046E+02 -0.34548037508E+01  0.28939632311E+03  0.34959096260E+03  0.17200000000E+03 0. -1.
         -6    1    1    2    0  502  0.94168326046E+02  0.34548037508E+01  0.11883995686E+04  0.12044738038E+04  0.17200000000E+03 0.  1.
</event>
<event>
 4    1 -0.6532506E-004  0.2811920E+03  0.7818608E-02  0.1095040E+00
         -5   -1    0    0    0  501 -0.00000000000E+00  0.00000000000E+00  0.22367354779E+03  0.22372292234E+03  0.47000000000E+01 0.  1.
          5   -1    0    0  501    0  0.00000000000E+00 -0.00000000000E+00 -0.64028976141E+03  0.64030701118E+03  0.47000000000E+01 0. -1.
          6    1    1    2  502    0  0.21629888038E+03  0.51958898278E+02 -0.49747261001E+03  0.57144372468E+03  0.17200000000E+03 0. -1.
         -6    1    1    2    0  502 -0.21629888038E+03 -0.51958898278E+02  0.80856396386E+02  0.29258620884E+03  0.17200000000E+03 0.  1.
</event>
<event>
 4    1 -0.6532506E-004  0.1994955E+03  0.7818608E-02  0.1150165E+00
         -5   -1    0    0    0  501 -0.00000000000E+00  0.00000000000E+00  0.35909954015E+03  0.35913029632E+03  0.47000000000E+01 0.  1.
          5   -1    0    0  501    0  0.00000000000E+00 -0.00000000000E+00 -0.12258489518E+03  0.12267496292E+03  0.47000000000E+01 0. -1.
          6    1    1    2  502    0 -0.78594719049E+02  0.63539792603E+02  0.43421439953E+02  0.20416624734E+03  0.17200000000E+03 0. -1.
         -6    1    1    2    0  502  0.78594719049E+02 -0.63539792603E+02  0.19309320501E+03  0.27763901190E+03  0.17200000000E+03 0.  1.
</event>
<event>
 4    1 -0.6532506E-004  0.1966350E+03  0.7818608E-02  0.1152609E+00
         -5   -1    0    0    0  501 -0.00000000000E+00  0.00000000000E+00  0.30685093323E+03  0.30688692580E+03  0.47000000000E+01 0.  1.
          5   -1    0    0  501    0  0.00000000000E+00 -0.00000000000E+00 -0.28965034052E+03  0.28968847020E+03  0.47000000000E+01 0. -1.
          6    1    1    2  502    0 -0.92817568797E+02  0.21592406474E+02 -0.21562737493E+03  0.29182271658E+03  0.17200000000E+03 0. -1.
         -6    1    1    2    0  502  0.92817568797E+02 -0.21592406474E+02  0.23282796764E+03  0.30475267941E+03  0.17200000000E+03 0.  1.
</event>
<event>
 4    1 -0.6532506E-004  0.1742755E+03  0.7818608E-02  0.1173461E+00
          5   -1    0    0  501    0  0.00000000000E+00  0.00000000000E+00  0.12016845803E+03  0.12026033555E+03  0.47000000000E+01 0. -1.
         -5   -1    0    0    0  501 -0.00000000000E+00 -0.00000000000E+00 -0.47833571133E+03  0.47835880125E+03  0.47000000000E+01 0.  1.
          6    1    1    2  502    0  0.53701156874E+01  0.27551693601E+02  0.26534141604E+02  0.17628384677E+03  0.17200000000E+03 0. -1.
         -6    1    1    2    0  502 -0.53701156874E+01 -0.27551693601E+02 -0.38470139490E+03  0.42233529003E+03  0.17200000000E+03 0.  1.
</event>
<event>
 4    1 -0.6532506E-004  0.2208426E+03  0.7818608E-02  0.1133256E+00
         -5   -1    0    0    0  501 -0.00000000000E+00  0.00000000000E+00  0.68576354074E+02  0.68737226727E+02  0.47000000000E+01 0.  1.
          5   -1    0    0  501    0  0.00000000000E+00 -0.00000000000E+00 -0.99835480630E+03  0.99836586944E+03  0.47000000000E+01 0. -1.
          6    1    1    2  502    0  0.11772030266E+03  0.73002753140E+02 -0.75151202789E+03  0.78328909075E+03  0.17200000000E+03 0. -1.
         -6    1    1    2    0  502 -0.11772030266E+03 -0.73002753140E+02 -0.17826642434E+03  0.28381400542E+03  0.17200000000E+03 0.  1.
</event>
<event>
 4    1 -0.6532506E-004  0.2125046E+03  0.7818608E-02  0.1139598E+00
         -5   -1    0    0    0  501 -0.00000000000E+00  0.00000000000E+00  0.36590606024E+02  0.36891224556E+02  0.47000000000E+01 0.  1.
          5   -1    0    0  501    0  0.00000000000E+00 -0.00000000000E+00 -0.17146793688E+04  0.17146858102E+04  0.47000000000E+01 0. -1.
          6    1    1    2  502    0  0.44853646050E+02  0.11645754647E+03 -0.13052052986E+04  0.13223914251E+04  0.17200000000E+03 0. -1.
         -6    1    1    2    0  502 -0.44853646050E+02 -0.11645754647E+03 -0.37288346413E+03  0.42918560963E+03  0.17200000000E+03 0.  1.
</event>
<event>
 4    1 -0.6532506E-004  0.1929325E+03  0.7818608E-02  0.1155843E+00
          5   -1    0    0  501    0  0.00000000000E+00  0.00000000000E+00  0.45296956407E+02  0.45540138996E+02  0.47000000000E+01 0. -1.
         -5   -1    0    0    0  501 -0.00000000000E+00 -0.00000000000E+00 -0.99026087641E+03  0.99027202997E+03  0.47000000000E+01 0.  1.
          6    1    1    2  502    0 -0.86073494845E+02 -0.15176103994E+02 -0.25732115606E+03  0.32161644548E+03  0.17200000000E+03 0. -1.
         -6    1    1    2    0  502  0.86073494845E+02  0.15176103994E+02 -0.68764276394E+03  0.71419572349E+03  0.17200000000E+03 0.  1.
</event>
<event>
 4    1 -0.6532506E-004  0.1854718E+03  0.7818608E-02  0.1162610E+00
          5   -1    0    0  501    0  0.00000000000E+00  0.00000000000E+00  0.50173468541E+02  0.50393123990E+02  0.47000000000E+01 0. -1.
         -5   -1    0    0    0  501 -0.00000000000E+00 -0.00000000000E+00 -0.86923260863E+03  0.86924531515E+03  0.47000000000E+01 0.  1.
          6    1    1    2  502    0 -0.15658131929E+02 -0.67606325253E+02 -0.19723151540E+03  0.27073984372E+03  0.17200000000E+03 0. -1.
         -6    1    1    2    0  502  0.15658131929E+02  0.67606325253E+02 -0.62182762469E+03  0.64889859542E+03  0.17200000000E+03 0.  1.
</event>
<event>
 4    1 -0.6532506E-004  0.2069219E+03  0.7818608E-02  0.1144027E+00
         -5   -1    0    0    0  501 -0.00000000000E+00  0.00000000000E+00  0.13747194422E+04  0.13747274765E+04  0.47000000000E+01 0.  1.
          5   -1    0    0  501    0  0.00000000000E+00 -0.00000000000E+00 -0.31748154019E+02  0.32094162766E+02  0.47000000000E+01 0. -1.
          6    1    1    2  502    0 -0.46756211569E+02 -0.10510248464E+03  0.56129555174E+03  0.59822184179E+03  0.17200000000E+03 0. -1.
         -6    1    1    2    0  502  0.46756211569E+02  0.10510248464E+03  0.78167573644E+03  0.80859979752E+03  0.17200000000E+03 0.  1.
</event>
<event>
 4    1 -0.6532506E-004  0.2859719E+03  0.7818608E-02  0.1092471E+00
         -5   -1    0    0    0  501 -0.00000000000E+00  0.00000000000E+00  0.20510525506E+03  0.20515909840E+03  0.47000000000E+01 0.  1.
          5   -1    0    0  501    0  0.00000000000E+00 -0.00000000000E+00 -0.52145957775E+03  0.52148075825E+03  0.47000000000E+01 0. -1.
          6    1    1    2  502    0 -0.15966499414E+03 -0.16341057634E+03 -0.33451591041E+03  0.44009183261E+03  0.17200000000E+03 0. -1.
         -6    1    1    2    0  502  0.15966499414E+03  0.16341057634E+03  0.18161587719E+02  0.28654802404E+03  0.17200000000E+03 0. -1.
</event>
<event>
 4    1 -0.6532506E-004  0.2176655E+03  0.7818608E-02  0.1135636E+00
          5   -1    0    0  501    0  0.00000000000E+00  0.00000000000E+00  0.21587693374E+03  0.21592809109E+03  0.47000000000E+01 0. -1.
         -5   -1    0    0    0  501 -0.00000000000E+00 -0.00000000000E+00 -0.22002400961E+03  0.22007420295E+03  0.47000000000E+01 0.  1.
          6    1    1    2  502    0 -0.96765977011E+01  0.13304378324E+03 -0.13986916167E+02  0.21811446221E+03  0.17200000000E+03 0.  1.
         -6    1    1    2    0  502  0.96765977011E+01 -0.13304378324E+03  0.98398402955E+01  0.21788783183E+03  0.17200000000E+03 0. -1.
</event>
<event>
 4    1 -0.6532506E-004  0.2042795E+03  0.7818608E-02  0.1146178E+00
         -5   -1    0    0    0  501 -0.00000000000E+00  0.00000000000E+00  0.84255091965E+03  0.84256402855E+03  0.47000000000E+01 0.  1.
          5   -1    0    0  501    0  0.00000000000E+00 -0.00000000000E+00 -0.69455146720E+02  0.69613988579E+02  0.47000000000E+01 0. -1.
          6    1    1    2  502    0 -0.10565796741E+03 -0.31344823896E+02  0.14184567819E+03  0.24869720642E+03  0.17200000000E+03 0. -1.
         -6    1    1    2    0  502  0.10565796741E+03  0.31344823896E+02  0.63125009474E+03  0.66348081071E+03  0.17200000000E+03 0.  1.
</event>
<event>
 4    1 -0.6532506E-004  0.1940948E+03  0.7818608E-02  0.1154819E+00
         -5   -1    0    0    0  501 -0.00000000000E+00  0.00000000000E+00  0.24212561873E+03  0.24217123125E+03  0.47000000000E+01 0.  1.
          5   -1    0    0  501    0  0.00000000000E+00 -0.00000000000E+00 -0.15549638918E+03  0.15556740356E+03  0.47000000000E+01 0. -1.
          6    1    1    2  502    0  0.41576971095E+02  0.79750578399E+02  0.43544343529E+02  0.19891935334E+03  0.17200000000E+03 0. -1.
         -6    1    1    2    0  502 -0.41576971095E+02 -0.79750578399E+02  0.43084886021E+02  0.19881928147E+03  0.17200000000E+03 0. -1.
</event>
<event>
 4    1 -0.6532506E-004  0.3533222E+03  0.7818608E-02  0.1061260E+00
          5   -1    0    0  501    0  0.00000000000E+00  0.00000000000E+00  0.93465699060E+03  0.93466880769E+03  0.47000000000E+01 0. -1.
         -5   -1    0    0    0  501 -0.00000000000E+00 -0.00000000000E+00 -0.18000910673E+03  0.18007045428E+03  0.47000000000E+01 0.  1.
          6    1    1    2  502    0  0.30670335479E+03 -0.34433317821E+02  0.66053938718E+03  0.74909871394E+03  0.17200000000E+03 0. -1.
         -6    1    1    2    0  502 -0.30670335479E+03  0.34433317821E+02  0.94108496686E+02  0.36564054803E+03  0.17200000000E+03 0.  1.
</event>
<event>
 4    1 -0.6532506E-004  0.1905588E+03  0.7818608E-02  0.1157958E+00
         -5   -1    0    0    0  501 -0.00000000000E+00  0.00000000000E+00  0.26279958545E+03  0.26284161031E+03  0.47000000000E+01 0.  1.
          5   -1    0    0  501    0  0.00000000000E+00 -0.00000000000E+00 -0.14790720537E+03  0.14798186173E+03  0.47000000000E+01 0. -1.
          6    1    1    2  502    0 -0.66688837099E+02 -0.47762665281E+02  0.45287422838E+01  0.19061265093E+03  0.17200000000E+03 0. -1.
         -6    1    1    2    0  502  0.66688837099E+02  0.47762665281E+02  0.11036363779E+03  0.22021082111E+03  0.17200000000E+03 0.  1.
</event>
<event>
 4    1 -0.6532506E-004  0.4514580E+03  0.7818608E-02  0.1027288E+00
         -5   -1    0    0    0  501 -0.00000000000E+00  0.00000000000E+00  0.16276821723E+04  0.16276889580E+04  0.47000000000E+01 0.  1.
          5   -1    0    0  501    0  0.00000000000E+00 -0.00000000000E+00 -0.13235637610E+03  0.13243979875E+03  0.47000000000E+01 0. -1.
          6    1    1    2  502    0  0.13967945699E+03  0.39334456020E+03  0.54261495484E+03  0.70586491835E+03  0.17200000000E+03 0. -1.
         -6    1    1    2    0  502 -0.13967945699E+03 -0.39334456020E+03  0.95271084140E+03  0.10542638385E+04  0.17200000000E+03 0.  1.
</event>
<event>
 4    1 -0.6532506E-004  0.2121058E+03  0.7818608E-02  0.1139909E+00
         -5   -1    0    0    0  501 -0.00000000000E+00  0.00000000000E+00  0.62184362282E+02  0.62361726343E+02  0.47000000000E+01 0.  1.
          5   -1    0    0  501    0  0.00000000000E+00 -0.00000000000E+00 -0.73589873900E+03  0.73591374770E+03  0.47000000000E+01 0. -1.
          6    1    1    2  502    0 -0.61852382861E+02  0.10760653634E+03 -0.39118667430E+03  0.44498977300E+03  0.17200000000E+03 0. -1.
         -6    1    1    2    0  502  0.61852382861E+02 -0.10760653634E+03 -0.28252770242E+03  0.35328570104E+03  0.17200000000E+03 0.  1.
</event>
<event>
 4    1 -0.6532506E-004  0.2198609E+03  0.7818608E-02  0.1133987E+00
          5   -1    0    0  501    0  0.00000000000E+00  0.00000000000E+00  0.65876224763E+02  0.66043674860E+02  0.47000000000E+01 0. -1.
         -5   -1    0    0    0  501 -0.00000000000E+00 -0.00000000000E+00 -0.73394864671E+03  0.73396369529E+03  0.47000000000E+01 0.  1.
          6    1    1    2  502    0 -0.13350385594E+03  0.30521189548E+02 -0.35068993936E+03  0.41391092777E+03  0.17200000000E+03 0. -1.
         -6    1    1    2    0  502  0.13350385594E+03 -0.30521189548E+02 -0.31738248259E+03  0.38609644238E+03  0.17200000000E+03 0.  1.
</event>
<event>
 4    1 -0.6532506E-004  0.1888042E+03  0.7818608E-02  0.1159544E+00
         -5   -1    0    0    0  501 -0.00000000000E+00  0.00000000000E+00  0.10866754615E+03  0.10876913894E+03  0.47000000000E+01 0.  1.
          5   -1    0    0  501    0  0.00000000000E+00 -0.00000000000E+00 -0.41632821867E+03  0.41635474738E+03  0.47000000000E+01 0. -1.
          6    1    1    2  502    0 -0.62442003134E+02  0.46519130431E+02 -0.27490962702E+03  0.33350012935E+03  0.17200000000E+03 0.  1.
         -6    1    1    2    0  502  0.62442003134E+02 -0.46519130431E+02 -0.32751045509E+02  0.19162375696E+03  0.17200000000E+03 0.  1.
</event>
<event>
 4    1 -0.6532506E-004  0.1755987E+03  0.7818608E-02  0.1172132E+00
          5   -1    0    0  501    0  0.00000000000E+00  0.00000000000E+00  0.99745922853E+02  0.99856592801E+02  0.47000000000E+01 0. -1.
         -5   -1    0    0    0  501 -0.00000000000E+00 -0.00000000000E+00 -0.53806433550E+03  0.53808486240E+03  0.47000000000E+01 0.  1.
          6    1    1    2  502    0 -0.29535787163E+02  0.19456455983E+02 -0.10991604449E+02  0.17594241038E+03  0.17200000000E+03 0. -1.
         -6    1    1    2    0  502  0.29535787163E+02 -0.19456455983E+02 -0.42732680820E+03  0.46199904482E+03  0.17200000000E+03 0.  1.
</event>
<event>
 4    1 -0.6532506E-004  0.2804520E+03  0.7818608E-02  0.1095442E+00
         -5   -1    0    0    0  501 -0.00000000000E+00  0.00000000000E+00  0.34436346196E+03  0.34439553413E+03  0.47000000000E+01 0.  1.
          5   -1    0    0  501    0  0.00000000000E+00 -0.00000000000E+00 -0.23328606615E+03  0.23333340666E+03  0.47000000000E+01 0. -1.
          6    1    1    2  502    0  0.10810814717E+03 -0.19334411568E+03  0.13464286109E+02  0.28077500878E+03  0.17200000000E+03 0. -1.
         -6    1    1    2    0  502 -0.10810814717E+03  0.19334411568E+03  0.97613109692E+02  0.29695393201E+03  0.17200000000E+03 0.  1.
</event>
<event>
 4    1 -0.6532506E-004  0.1751163E+03  0.7818608E-02  0.1172615E+00
         -5   -1    0    0    0  501 -0.00000000000E+00  0.00000000000E+00  0.10628823236E+02  0.11621612771E+02  0.47000000000E+01 0.  1.
          5   -1    0    0  501    0  0.00000000000E+00 -0.00000000000E+00 -0.28766238827E+04  0.28766277222E+04  0.47000000000E+01 0. -1.
          6    1    1    2  502    0 -0.25472403814E+02  0.20805597212E+02 -0.17293757005E+04  0.17382192122E+04  0.17200000000E+03 0. -1.
         -6    1    1    2    0  502  0.25472403814E+02 -0.20805597212E+02 -0.11366193590E+04  0.11500301228E+04  0.17200000000E+03 0.  1.
</event>
<event>
 4    1 -0.6532506E-004  0.1770193E+03  0.7818608E-02  0.1170719E+00
         -5   -1    0    0    0  501 -0.00000000000E+00  0.00000000000E+00  0.14575391747E+03  0.14582967620E+03  0.47000000000E+01 0.  1.
          5   -1    0    0  501    0  0.00000000000E+00 -0.00000000000E+00 -0.22745679337E+03  0.22750534686E+03  0.47000000000E+01 0. -1.
          6    1    1    2  502    0 -0.41843675749E+02 -0.96419177006E+00 -0.84813455073E+02  0.19628842306E+03  0.17200000000E+03 0. -1.
         -6    1    1    2    0  502  0.41843675749E+02  0.96419177006E+00  0.31105791819E+01  0.17704659999E+03  0.17200000000E+03 0.  1.
</event>
<event>
 4    1 -0.6532506E-004  0.2484522E+03  0.7818608E-02  0.1114287E+00
         -5   -1    0    0    0  501 -0.00000000000E+00  0.00000000000E+00  0.57328171602E+03  0.57330098196E+03  0.47000000000E+01 0.  1.
          5   -1    0    0  501    0  0.00000000000E+00 -0.00000000000E+00 -0.15840121090E+03  0.15847092356E+03  0.47000000000E+01 0. -1.
          6    1    1    2  502    0  0.10498572129E+03 -0.14533573271E+03  0.30926709211E+00  0.24845235464E+03  0.17200000000E+03 0. -1.
         -6    1    1    2    0  502 -0.10498572129E+03  0.14533573271E+03  0.41457123802E+03  0.48331955089E+03  0.17200000000E+03 0.  1.
</event>
<event>
 4    1 -0.6532506E-004  0.3743619E+03  0.7818608E-02  0.1053038E+00
          5   -1    0    0  501    0  0.00000000000E+00  0.00000000000E+00  0.23965613147E+03  0.23970221390E+03  0.47000000000E+01 0. -1.
         -5   -1    0    0    0  501 -0.00000000000E+00 -0.00000000000E+00 -0.58526884213E+03  0.58528771349E+03  0.47000000000E+01 0.  1.
          6    1    1    2  502    0 -0.39758698536E+02  0.33012435589E+03 -0.15962687772E+03  0.40697369025E+03  0.17200000000E+03 0. -1.
         -6    1    1    2    0  502  0.39758698536E+02 -0.33012435589E+03 -0.18598583294E+03  0.41801623715E+03  0.17200000000E+03 0. -1.
</event>
<event>
 4    1 -0.6532506E-004  0.2669747E+03  0.7818608E-02  0.1103024E+00
          5   -1    0    0  501    0  0.00000000000E+00  0.00000000000E+00  0.42624932526E+03  0.42627523654E+03  0.47000000000E+01 0. -1.
         -5   -1    0    0    0  501 -0.00000000000E+00 -0.00000000000E+00 -0.55170422790E+03  0.55172424732E+03  0.47000000000E+01 0.  1.
          6    1    1    2  502    0 -0.19126092359E+03  0.71489513004E+02  0.34550385042E+03  0.43663302900E+03  0.17200000000E+03 0. -1.
         -6    1    1    2    0  502  0.19126092359E+03 -0.71489513004E+02 -0.47095875306E+03  0.54136645486E+03  0.17200000000E+03 0.  1.
</event>
<event>
 4    1 -0.6532506E-004  0.3758990E+03  0.7818608E-02  0.1052460E+00
          5   -1    0    0  501    0  0.00000000000E+00  0.00000000000E+00  0.10668881597E+04  0.10668985122E+04  0.47000000000E+01 0. -1.
         -5   -1    0    0    0  501 -0.00000000000E+00 -0.00000000000E+00 -0.41473333721E+03  0.41475996792E+03  0.47000000000E+01 0.  1.
          6    1    1    2  502    0  0.27460563809E+03  0.19054596951E+03  0.93728577269E+03  0.10098537729E+04  0.17200000000E+03 0. -1.
         -6    1    1    2    0  502 -0.27460563809E+03 -0.19054596951E+03 -0.28513095020E+03  0.47180470720E+03  0.17200000000E+03 0.  1.
</event>
<event>
 4    1 -0.6532506E-004  0.1781585E+03  0.7818608E-02  0.1169597E+00
          5   -1    0    0  501    0  0.00000000000E+00  0.00000000000E+00  0.82161823207E+03  0.82163167495E+03  0.47000000000E+01 0. -1.
         -5   -1    0    0    0  501 -0.00000000000E+00 -0.00000000000E+00 -0.10779540096E+03  0.10789781494E+03  0.47000000000E+01 0.  1.
          6    1    1    2  502    0  0.43378251337E+02  0.16576603951E+02  0.72925686624E+03  0.75070369217E+03  0.17200000000E+03 0. -1.
         -6    1    1    2    0  502 -0.43378251337E+02 -0.16576603951E+02 -0.15434035130E+02  0.17882579771E+03  0.17200000000E+03 0.  1.
</event>
<event>
 4    1 -0.6532506E-004  0.3014363E+03  0.7818608E-02  0.1084525E+00
          5   -1    0    0  501    0  0.00000000000E+00  0.00000000000E+00  0.14059972822E+03  0.14067826263E+03  0.47000000000E+01 0. -1.
         -5   -1    0    0    0  501 -0.00000000000E+00 -0.00000000000E+00 -0.95602540040E+03  0.95603695337E+03  0.47000000000E+01 0.  1.
          6    1    1    2  502    0 -0.79594741261E+02  0.23440245191E+03 -0.71997021684E+03  0.78052606967E+03  0.17200000000E+03 0.  1.
         -6    1    1    2    0  502  0.79594741261E+02 -0.23440245191E+03 -0.95455455337E+02  0.31618914632E+03  0.17200000000E+03 0. -1.
</event>
<event>
 4    1 -0.6532506E-004  0.1818916E+03  0.7818608E-02  0.1165985E+00
         -5   -1    0    0    0  501 -0.00000000000E+00  0.00000000000E+00  0.82803392825E+03  0.82804726696E+03  0.47000000000E+01 0.  1.
          5   -1    0    0  501    0  0.00000000000E+00 -0.00000000000E+00 -0.41347825585E+02  0.41614092331E+02  0.47000000000E+01 0. -1.
          6    1    1    2  502    0 -0.33737273270E+02  0.48603937547E+02  0.47708749954E+03  0.51058498663E+03  0.17200000000E+03 0. -1.
         -6    1    1    2    0  502  0.33737273270E+02 -0.48603937547E+02  0.30959860312E+03  0.35907637266E+03  0.17200000000E+03 0.  1.
</event>
<event>
 4    1 -0.6532506E-004  0.2314383E+03  0.7818608E-02  0.1125631E+00
          5   -1    0    0  501    0  0.00000000000E+00  0.00000000000E+00  0.71311227241E+02  0.71465943852E+02  0.47000000000E+01 0. -1.
         -5   -1    0    0    0  501 -0.00000000000E+00 -0.00000000000E+00 -0.75196320282E+03  0.75197789090E+03  0.47000000000E+01 0.  1.
          6    1    1    2  502    0  0.95349849679E+02 -0.12201681508E+03 -0.32010901425E+03  0.39501073150E+03  0.17200000000E+03 0. -1.
         -6    1    1    2    0  502 -0.95349849679E+02  0.12201681508E+03 -0.36054296133E+03  0.42843310325E+03  0.17200000000E+03 0.  1.
</event>
<event>
 4    1 -0.6532506E-004  0.1829162E+03  0.7818608E-02  0.1165010E+00
          5   -1    0    0  501    0  0.00000000000E+00  0.00000000000E+00  0.12879254632E+04  0.12879340389E+04  0.47000000000E+01 0. -1.
         -5   -1    0    0    0  501 -0.00000000000E+00 -0.00000000000E+00 -0.28524221534E+02  0.28908843182E+02  0.47000000000E+01 0.  1.
          6    1    1    2  502    0 -0.62243907387E+02 -0.14818352875E+00  0.83330221186E+03  0.85314178320E+03  0.17200000000E+03 0. -1.
         -6    1    1    2    0  502  0.62243907387E+02  0.14818352875E+00  0.42609902978E+03  0.46370109892E+03  0.17200000000E+03 0.  1.
</event>
<event>
 4    1 -0.6532506E-004  0.3380994E+03  0.7818608E-02  0.1067608E+00
          5   -1    0    0  501    0  0.00000000000E+00  0.00000000000E+00  0.28411183198E+03  0.28415070485E+03  0.47000000000E+01 0. -1.
         -5   -1    0    0    0  501 -0.00000000000E+00 -0.00000000000E+00 -0.41750522530E+03  0.41753167922E+03  0.47000000000E+01 0.  1.
          6    1    1    2  502    0 -0.28932467311E+03  0.31912499023E+02  0.32769423152E+00  0.33809951412E+03  0.17200000000E+03 0. -1.
         -6    1    1    2    0  502  0.28932467311E+03 -0.31912499023E+02 -0.13372108755E+03  0.36358286995E+03  0.17200000000E+03 0.  1.
</event>
<event>
 4    1 -0.6532506E-004  0.1791332E+03  0.7818608E-02  0.1168645E+00
          5   -1    0    0  501    0  0.00000000000E+00  0.00000000000E+00  0.49520159448E+02  0.49742699884E+02  0.47000000000E+01 0. -1.
         -5   -1    0    0    0  501 -0.00000000000E+00 -0.00000000000E+00 -0.71199594402E+03  0.71201145658E+03  0.47000000000E+01 0.  1.
          6    1    1    2  502    0 -0.46360828355E+02 -0.18851060475E+02 -0.21556964625E+03  0.28028371567E+03  0.17200000000E+03 0. -1.
         -6    1    1    2    0  502  0.46360828355E+02  0.18851060475E+02 -0.44690613832E+03  0.48147044079E+03  0.17200000000E+03 0. -1.
</event>
<event>
 4    1 -0.6532506E-004  0.3827691E+03  0.7818608E-02  0.1049915E+00
          5   -1    0    0  501    0  0.00000000000E+00  0.00000000000E+00  0.45607111970E+03  0.45609533677E+03  0.47000000000E+01 0. -1.
         -5   -1    0    0    0  501 -0.00000000000E+00 -0.00000000000E+00 -0.62269571857E+03  0.62271345571E+03  0.47000000000E+01 0.  1.
          6    1    1    2  502    0 -0.16043558467E+03 -0.30197456537E+03  0.29200668981E+03  0.48143548047E+03  0.17200000000E+03 0. -1.
         -6    1    1    2    0  502  0.16043558467E+03  0.30197456537E+03 -0.45863128868E+03  0.59737331202E+03  0.17200000000E+03 0.  1.
</event>
<event>
 4    1 -0.6532506E-004  0.2373647E+03  0.7818608E-02  0.1121561E+00
         -5   -1    0    0    0  501 -0.00000000000E+00  0.00000000000E+00  0.16372782908E+03  0.16379527471E+03  0.47000000000E+01 0.  1.
          5   -1    0    0  501    0  0.00000000000E+00 -0.00000000000E+00 -0.36773286483E+03  0.36776289899E+03  0.47000000000E+01 0. -1.
          6    1    1    2  502    0 -0.12202802989E+03 -0.10893654557E+03 -0.16956198892E+03  0.29170752326E+03  0.17200000000E+03 0. -1.
         -6    1    1    2    0  502  0.12202802989E+03  0.10893654557E+03 -0.34443046833E+02  0.23985065044E+03  0.17200000000E+03 0.  1.
</event>
<event>
 4    1 -0.6532506E-004  0.2058598E+03  0.7818608E-02  0.1144887E+00
         -5   -1    0    0    0  501 -0.00000000000E+00  0.00000000000E+00  0.15183892191E+03  0.15191164605E+03  0.47000000000E+01 0.  1.
          5   -1    0    0  501    0  0.00000000000E+00 -0.00000000000E+00 -0.32319182501E+03  0.32322599795E+03  0.47000000000E+01 0. -1.
          6    1    1    2  502    0  0.39269617780E+02 -0.10607607701E+03 -0.17356822175E+03  0.26926597370E+03  0.17200000000E+03 0. -1.
         -6    1    1    2    0  502 -0.39269617780E+02  0.10607607701E+03  0.22153186499E+01  0.20587167030E+03  0.17200000000E+03 0.  1.
</event>
<event>
 4    1 -0.6532506E-004  0.1748070E+03  0.7818608E-02  0.1172926E+00
          5   -1    0    0  501    0  0.00000000000E+00  0.00000000000E+00  0.34335959450E+02  0.34656141034E+02  0.47000000000E+01 0. -1.
         -5   -1    0    0    0  501 -0.00000000000E+00 -0.00000000000E+00 -0.88724926636E+03  0.88726171486E+03  0.47000000000E+01 0.  1.
          6    1    1    2  502    0 -0.66091456810E+01 -0.30492718128E+02 -0.44692500932E+03  0.47989524964E+03  0.17200000000E+03 0.  1.
         -6    1    1    2    0  502  0.66091456810E+01  0.30492718128E+02 -0.40598829759E+03  0.44202260626E+03  0.17200000000E+03 0.  1.
</event>
<event>
 4    1 -0.6532506E-004  0.1914963E+03  0.7818608E-02  0.1157119E+00
         -5   -1    0    0    0  501 -0.00000000000E+00  0.00000000000E+00  0.13766142148E+04  0.13766222381E+04  0.47000000000E+01 0.  1.
          5   -1    0    0  501    0  0.00000000000E+00 -0.00000000000E+00 -0.28051797514E+02  0.28442808296E+02  0.47000000000E+01 0. -1.
          6    1    1    2  502    0  0.67533925776E+02 -0.50259249483E+02  0.50621917896E+03  0.54122886142E+03  0.17200000000E+03 0. -1.
         -6    1    1    2    0  502 -0.67533925776E+02  0.50259249483E+02  0.84234323831E+03  0.86383618494E+03  0.17200000000E+03 0.  1.
</event>
<event>
 4    1 -0.6532506E-004  0.2021846E+03  0.7818608E-02  0.1147909E+00
          5   -1    0    0  501    0  0.00000000000E+00  0.00000000000E+00  0.53723127171E+03  0.53725183043E+03  0.47000000000E+01 0. -1.
         -5   -1    0    0    0  501 -0.00000000000E+00 -0.00000000000E+00 -0.89339434387E+02  0.89462978581E+02  0.47000000000E+01 0.  1.
          6    1    1    2  502    0 -0.10624038757E+03 -0.27548144846E+01  0.34494030984E+03  0.39982799590E+03  0.17200000000E+03 0. -1.
         -6    1    1    2    0  502  0.10624038757E+03  0.27548144846E+01  0.10295152748E+03  0.22688681311E+03  0.17200000000E+03 0.  1.
</event>
<event>
 4    1 -0.6532506E-004  0.1985037E+03  0.7818608E-02  0.1151008E+00
         -5   -1    0    0    0  501 -0.00000000000E+00  0.00000000000E+00  0.79931015957E+03  0.79932397762E+03  0.47000000000E+01 0.  1.
          5   -1    0    0  501    0  0.00000000000E+00 -0.00000000000E+00 -0.49402543942E+02  0.49625611815E+02  0.47000000000E+01 0. -1.
          6    1    1    2  502    0  0.97639355752E+01  0.98612244429E+02  0.40395392792E+03  0.45009164074E+03  0.17200000000E+03 0.  1.
         -6    1    1    2    0  502 -0.97639355752E+01 -0.98612244429E+02  0.34595368772E+03  0.39885794869E+03  0.17200000000E+03 0.  1.
</event>
<event>
 4    1 -0.6532506E-004  0.1733923E+03  0.7818608E-02  0.1174356E+00
          5   -1    0    0  501    0  0.00000000000E+00  0.00000000000E+00  0.15569149340E+03  0.15576241882E+03  0.47000000000E+01 0. -1.
         -5   -1    0    0    0  501 -0.00000000000E+00 -0.00000000000E+00 -0.19306664610E+03  0.19312384585E+03  0.47000000000E+01 0.  1.
          6    1    1    2  502    0 -0.17489151683E+02 -0.13229135660E+02 -0.22748326487E+02  0.17487814848E+03  0.17200000000E+03 0. -1.
         -6    1    1    2    0  502  0.17489151683E+02  0.13229135660E+02 -0.14626826208E+02  0.17400811620E+03  0.17200000000E+03 0.  1.
</event>
<event>
 4    1 -0.6532506E-004  0.1912152E+03  0.7818608E-02  0.1157370E+00
         -5   -1    0    0    0  501 -0.00000000000E+00  0.00000000000E+00  0.61342304844E+02  0.61522096547E+02  0.47000000000E+01 0.  1.
          5   -1    0    0  501    0  0.00000000000E+00 -0.00000000000E+00 -0.60714080056E+03  0.60715899212E+03  0.47000000000E+01 0. -1.
          6    1    1    2  502    0 -0.53027962027E+02  0.64554475747E+02 -0.32018730522E+03  0.37293854121E+03  0.17200000000E+03 0.  1.
         -6    1    1    2    0  502  0.53027962027E+02 -0.64554475747E+02 -0.22561119049E+03  0.29574254745E+03  0.17200000000E+03 0.  1.
</event>
<event>
 4    1 -0.6532506E-004  0.5451573E+03  0.7818608E-02  0.1002621E+00
         -5   -1    0    0    0  501 -0.00000000000E+00  0.00000000000E+00  0.83158210295E+03  0.83159538476E+03  0.47000000000E+01 0.  1.
          5   -1    0    0  501    0  0.00000000000E+00 -0.00000000000E+00 -0.44842727381E+03  0.44845190366E+03  0.47000000000E+01 0. -1.
          6    1    1    2  502    0 -0.42042239909E+03  0.30142567518E+03 -0.96840890165E+02  0.55369178188E+03  0.17200000000E+03 0. -1.
         -6    1    1    2    0  502  0.42042239909E+03 -0.30142567518E+03  0.47999571931E+03  0.72635550653E+03  0.17200000000E+03 0.  1.
</event>
<event>
 4    1 -0.6532506E-004  0.1832811E+03  0.7818608E-02  0.1164665E+00
         -5   -1    0    0    0  501 -0.00000000000E+00  0.00000000000E+00  0.74003613362E+02  0.74152712632E+02  0.47000000000E+01 0.  1.
          5   -1    0    0  501    0  0.00000000000E+00 -0.00000000000E+00 -0.53113076601E+03  0.53115156086E+03  0.47000000000E+01 0. -1.
          6    1    1    2  502    0  0.13681185247E+02  0.61812534187E+02 -0.34439702708E+03  0.39012982002E+03  0.17200000000E+03 0.  1.
         -6    1    1    2    0  502 -0.13681185247E+02 -0.61812534187E+02 -0.11273012557E+03  0.21517445346E+03  0.17200000000E+03 0.  1.
</event>
<event>
 4    1 -0.6532506E-004  0.2000065E+03  0.7818608E-02  0.1149734E+00
         -5   -1    0    0    0  501 -0.00000000000E+00  0.00000000000E+00  0.81617989742E+02  0.81753203298E+02  0.47000000000E+01 0.  1.
          5   -1    0    0  501    0  0.00000000000E+00 -0.00000000000E+00 -0.62727908476E+03  0.62729669231E+03  0.47000000000E+01 0. -1.
          6    1    1    2  502    0 -0.10156901191E+03 -0.10115762969E+02 -0.43892213552E+03  0.48234348123E+03  0.17200000000E+03 0. -1.
         -6    1    1    2    0  502  0.10156901191E+03  0.10115762969E+02 -0.10673895950E+03  0.22670641437E+03  0.17200000000E+03 0.  1.
</event>
<event>
 4    1 -0.6532506E-004  0.2541072E+03  0.7818608E-02  0.1110736E+00
          5   -1    0    0  501    0  0.00000000000E+00  0.00000000000E+00  0.25586990528E+03  0.25591306811E+03  0.47000000000E+01 0. -1.
         -5   -1    0    0    0  501 -0.00000000000E+00 -0.00000000000E+00 -0.25341120934E+03  0.25345479088E+03  0.47000000000E+01 0.  1.
          6    1    1    2  502    0  0.10464579355E+03  0.15503461824E+03  0.18315145794E+02  0.25476640188E+03  0.17200000000E+03 0. -1.
         -6    1    1    2    0  502 -0.10464579355E+03 -0.15503461824E+03 -0.15856449859E+02  0.25460145711E+03  0.17200000000E+03 0.  1.
</event>
<event>
 4    1 -0.6532506E-004  0.2085408E+03  0.7818608E-02  0.1142727E+00
          5   -1    0    0  501    0  0.00000000000E+00  0.00000000000E+00  0.13861866458E+03  0.13869832072E+03  0.47000000000E+01 0. -1.
         -5   -1    0    0    0  501 -0.00000000000E+00 -0.00000000000E+00 -0.34667940241E+03  0.34671126035E+03  0.47000000000E+01 0.  1.
          6    1    1    2  502    0 -0.83147947561E+02 -0.83616371321E+02 -0.29010272602E+02  0.21054898398E+03  0.17200000000E+03 0. -1.
         -6    1    1    2    0  502  0.83147947561E+02  0.83616371321E+02 -0.17905046523E+03  0.27486059709E+03  0.17200000000E+03 0.  1.
</event>
<event>
 4    1 -0.6532506E-004  0.2231884E+03  0.7818608E-02  0.1131528E+00
         -5   -1    0    0    0  501 -0.00000000000E+00  0.00000000000E+00  0.10156461143E+03  0.10167330179E+03  0.47000000000E+01 0.  1.
          5   -1    0    0  501    0  0.00000000000E+00 -0.00000000000E+00 -0.50987756251E+03  0.50989922411E+03  0.47000000000E+01 0. -1.
          6    1    1    2  502    0  0.12130170055E+03  0.74262682183E+02 -0.14390111835E+03  0.26555711322E+03  0.17200000000E+03 0. -1.
         -6    1    1    2    0  502 -0.12130170055E+03 -0.74262682183E+02 -0.26441183272E+03  0.34601541267E+03  0.17200000000E+03 0. -1.
</event>
<event>
 4    1 -0.6532506E-004  0.2366154E+03  0.7818608E-02  0.1122068E+00
          5   -1    0    0  501    0  0.00000000000E+00  0.00000000000E+00  0.45521834239E+02  0.45763821874E+02  0.47000000000E+01 0. -1.
         -5   -1    0    0    0  501 -0.00000000000E+00 -0.00000000000E+00 -0.13354918227E+04  0.13355000931E+04  0.47000000000E+01 0.  1.
          6    1    1    2  502    0 -0.95585731129E+02 -0.13140090519E+03 -0.44759930784E+03  0.50629237626E+03  0.17200000000E+03 0. -1.
         -6    1    1    2    0  502  0.95585731129E+02  0.13140090519E+03 -0.84237068065E+03  0.87497153868E+03  0.17200000000E+03 0.  1.
</event>
<event>
 4    1 -0.6532506E-004  0.1828903E+03  0.7818608E-02  0.1165035E+00
          5   -1    0    0  501    0  0.00000000000E+00  0.00000000000E+00  0.44473836309E+02  0.44721495011E+02  0.47000000000E+01 0. -1.
         -5   -1    0    0    0  501 -0.00000000000E+00 -0.00000000000E+00 -0.77629562501E+03  0.77630985271E+03  0.47000000000E+01 0.  1.
          6    1    1    2  502    0  0.62099392303E+02 -0.29208374614E+01 -0.29002387599E+03  0.34287419626E+03  0.17200000000E+03 0. -1.
         -6    1    1    2    0  502 -0.62099392303E+02  0.29208374614E+01 -0.44179791271E+03  0.47815715146E+03  0.17200000000E+03 0.  1.
</event>
<event>
 4    1 -0.6532506E-004  0.1967156E+03  0.7818608E-02  0.1152540E+00
          5   -1    0    0  501    0  0.00000000000E+00  0.00000000000E+00  0.28824596101E+02  0.29205262204E+02  0.47000000000E+01 0. -1.
         -5   -1    0    0    0  501 -0.00000000000E+00 -0.00000000000E+00 -0.18921650475E+04  0.18921708847E+04  0.47000000000E+01 0.  1.
          6    1    1    2  502    0 -0.77579044985E+02 -0.55628239528E+02 -0.40962433889E+03  0.45441072640E+03  0.17200000000E+03 0. -1.
         -6    1    1    2    0  502  0.77579044985E+02  0.55628239528E+02 -0.14537161125E+04  0.14669654205E+04  0.17200000000E+03 0.  1.
</event>
<event>
 4    1 -0.6532506E-004  0.2353341E+03  0.7818608E-02  0.1122941E+00
          5   -1    0    0  501    0  0.00000000000E+00  0.00000000000E+00  0.48314910449E+02  0.48542976543E+02  0.47000000000E+01 0. -1.
         -5   -1    0    0    0  501 -0.00000000000E+00 -0.00000000000E+00 -0.12166698159E+04  0.12166788939E+04  0.47000000000E+01 0.  1.
          6    1    1    2  502    0  0.82446031404E+02 -0.13784330373E+03 -0.42888786663E+03  0.48921051360E+03  0.17200000000E+03 0. -1.
         -6    1    1    2    0  502 -0.82446031404E+02  0.13784330373E+03 -0.73946703881E+03  0.77601135686E+03  0.17200000000E+03 0.  1.
</event>
<event>
 4    1 -0.6532506E-004  0.2016226E+03  0.7818608E-02  0.1148377E+00
          5   -1    0    0  501    0  0.00000000000E+00  0.00000000000E+00  0.54503156939E+03  0.54505183390E+03  0.47000000000E+01 0. -1.
         -5   -1    0    0    0  501 -0.00000000000E+00 -0.00000000000E+00 -0.90598056251E+02  0.90719886444E+02  0.47000000000E+01 0.  1.
          6    1    1    2  502    0 -0.52126862118E+02  0.91380869608E+02  0.36114092836E+03  0.41361146409E+03  0.17200000000E+03 0. -1.
         -6    1    1    2    0  502  0.52126862118E+02 -0.91380869608E+02  0.93292584779E+02  0.22216025626E+03  0.17200000000E+03 0.  1.
</event>
<event>
 4    1 -0.6532506E-004  0.1912529E+03  0.7818608E-02  0.1157336E+00
          5   -1    0    0  501    0  0.00000000000E+00  0.00000000000E+00  0.11152008102E+03  0.11161907754E+03  0.47000000000E+01 0. -1.
         -5   -1    0    0    0  501 -0.00000000000E+00 -0.00000000000E+00 -0.32796547761E+03  0.32799915320E+03  0.47000000000E+01 0.  1.
          6    1    1    2  502    0 -0.79292972341E+02 -0.26576176160E+02 -0.11410638449E+03  0.22270593971E+03  0.17200000000E+03 0. -1.
         -6    1    1    2    0  502  0.79292972341E+02  0.26576176160E+02 -0.10233901209E+03  0.21691229103E+03  0.17200000000E+03 0.  1.
</event>
<event>
 4    1 -0.6532506E-004  0.3379312E+03  0.7818608E-02  0.1067680E+00
          5   -1    0    0  501    0  0.00000000000E+00  0.00000000000E+00  0.99188180690E+02  0.99299472248E+02  0.47000000000E+01 0. -1.
         -5   -1    0    0    0  501 -0.00000000000E+00 -0.00000000000E+00 -0.12107262848E+04  0.12107354074E+04  0.47000000000E+01 0.  1.
          6    1    1    2  502    0  0.23148094718E+03 -0.17615359331E+03 -0.40975852979E+03  0.53113046428E+03  0.17200000000E+03 0. -1.
         -6    1    1    2    0  502 -0.23148094718E+03  0.17615359331E+03 -0.70177957432E+03  0.77890441537E+03  0.17200000000E+03 0.  1.
</event>
<event>
 4    1 -0.6532506E-004  0.1828962E+03  0.7818608E-02  0.1165029E+00
          5   -1    0    0  501    0  0.00000000000E+00  0.00000000000E+00  0.13317634618E+03  0.13325925552E+03  0.47000000000E+01 0. -1.
         -5   -1    0    0    0  501 -0.00000000000E+00 -0.00000000000E+00 -0.26966980487E+03  0.26971075925E+03  0.47000000000E+01 0.  1.
          6    1    1    2  502    0 -0.58056205712E+01 -0.61913909564E+02 -0.15237861838E+02  0.18352991544E+03  0.17200000000E+03 0. -1.
         -6    1    1    2    0  502  0.58056205712E+01  0.61913909564E+02 -0.12125559685E+03  0.21944009933E+03  0.17200000000E+03 0.  1.
</event>
<event>
 4    1 -0.6532506E-004  0.1736494E+03  0.7818608E-02  0.1174095E+00
          5   -1    0    0  501    0  0.00000000000E+00  0.00000000000E+00  0.26809578832E+03  0.26813698312E+03  0.47000000000E+01 0. -1.
         -5   -1    0    0    0  501 -0.00000000000E+00 -0.00000000000E+00 -0.11237670959E+03  0.11247495213E+03  0.47000000000E+01 0.  1.
          6    1    1    2  502    0 -0.23329047956E+02 -0.50877245071E+01  0.78245489468E+02  0.19046387070E+03  0.17200000000E+03 0. -1.
         -6    1    1    2    0  502  0.23329047956E+02  0.50877245071E+01  0.77473589270E+02  0.19014806455E+03  0.17200000000E+03 0.  1.
</event>
<event>
 4    1 -0.6532506E-004  0.2248852E+03  0.7818608E-02  0.1130292E+00
          5   -1    0    0  501    0  0.00000000000E+00  0.00000000000E+00  0.71462029039E+03  0.71463574599E+03  0.47000000000E+01 0. -1.
         -5   -1    0    0    0  501 -0.00000000000E+00 -0.00000000000E+00 -0.87251369000E+02  0.87377865575E+02  0.47000000000E+01 0.  1.
          6    1    1    2  502    0 -0.19698269132E+02  0.14353159227E+03  0.48831379588E+03  0.53760924754E+03  0.17200000000E+03 0. -1.
         -6    1    1    2    0  502  0.19698269132E+02 -0.14353159227E+03  0.13905512551E+03  0.26440436403E+03  0.17200000000E+03 0.  1.
</event>
<event>
 4    1 -0.6532506E-004  0.1791269E+03  0.7818608E-02  0.1168651E+00
          5   -1    0    0  501    0  0.00000000000E+00  0.00000000000E+00  0.61330429240E+03  0.61332230114E+03  0.47000000000E+01 0. -1.
         -5   -1    0    0    0  501 -0.00000000000E+00 -0.00000000000E+00 -0.54573941434E+02  0.54775953516E+02  0.47000000000E+01 0.  1.
          6    1    1    2  502    0 -0.45350449016E+02 -0.21113426076E+02  0.34899647198E+03  0.39228175772E+03  0.17200000000E+03 0.  1.
         -6    1    1    2    0  502  0.45350449016E+02  0.21113426076E+02  0.20973387898E+03  0.27581649693E+03  0.17200000000E+03 0.  1.
</event>
<event>
 4    1 -0.6532506E-004  0.2502183E+03  0.7818608E-02  0.1113167E+00
          5   -1    0    0  501    0  0.00000000000E+00  0.00000000000E+00  0.28981936181E+03  0.28985746925E+03  0.47000000000E+01 0. -1.
         -5   -1    0    0    0  501 -0.00000000000E+00 -0.00000000000E+00 -0.30707911232E+03  0.30711507814E+03  0.47000000000E+01 0.  1.
          6    1    1    2  502    0  0.10111341529E+03  0.15100084376E+03 -0.17121061982E+03  0.30318683003E+03  0.17200000000E+03 0. -1.
         -6    1    1    2    0  502 -0.10111341529E+03 -0.15100084376E+03  0.15395086931E+03  0.29378571736E+03  0.17200000000E+03 0.  1.
</event>
<event>
 4    1 -0.6532506E-004  0.1916645E+03  0.7818608E-02  0.1156969E+00
          5   -1    0    0  501    0  0.00000000000E+00  0.00000000000E+00  0.18504873136E+03  0.18510840872E+03  0.47000000000E+01 0. -1.
         -5   -1    0    0    0  501 -0.00000000000E+00 -0.00000000000E+00 -0.24113563035E+03  0.24118143010E+03  0.47000000000E+01 0.  1.
          6    1    1    2  502    0 -0.82453294040E+02  0.18781628169E+02  0.61669137929E+02  0.20134144588E+03  0.17200000000E+03 0. -1.
         -6    1    1    2    0  502  0.82453294040E+02 -0.18781628169E+02 -0.11775603693E+03  0.22494839294E+03  0.17200000000E+03 0.  1.
</event>
<event>
 4    1 -0.6532506E-004  0.1810827E+03  0.7818608E-02  0.1166759E+00
          5   -1    0    0  501    0  0.00000000000E+00  0.00000000000E+00  0.27770230947E+03  0.27774207942E+03  0.47000000000E+01 0. -1.
         -5   -1    0    0    0  501 -0.00000000000E+00 -0.00000000000E+00 -0.13114180062E+03  0.13122599541E+03  0.47000000000E+01 0.  1.
          6    1    1    2  502    0 -0.55087206098E+02 -0.13128388284E+02  0.13801825018E+03  0.22768397449E+03  0.17200000000E+03 0. -1.
         -6    1    1    2    0  502  0.55087206098E+02  0.13128388284E+02  0.85422586571E+01  0.18128410034E+03  0.17200000000E+03 0.  1.
</event>
<event>
 4    1 -0.6532506E-004  0.3560251E+03  0.7818608E-02  0.1060169E+00
          5   -1    0    0  501    0  0.00000000000E+00  0.00000000000E+00  0.40967009934E+03  0.40969705917E+03  0.47000000000E+01 0. -1.
         -5   -1    0    0    0  501 -0.00000000000E+00 -0.00000000000E+00 -0.39677428097E+03  0.39680211698E+03  0.47000000000E+01 0.  1.
          6    1    1    2  502    0  0.29182250990E+02 -0.31035183891E+03 -0.18282423981E+03  0.40022315069E+03  0.17200000000E+03 0.  1.
         -6    1    1    2    0  502 -0.29182250990E+02  0.31035183891E+03  0.19572005818E+03  0.40627602546E+03  0.17200000000E+03 0. -1.
</event>
<event>
 4    1 -0.6532506E-004  0.2025059E+03  0.7818608E-02  0.1147642E+00
          5   -1    0    0  501    0  0.00000000000E+00  0.00000000000E+00  0.27262565036E+03  0.27266616078E+03  0.47000000000E+01 0. -1.
         -5   -1    0    0    0  501 -0.00000000000E+00 -0.00000000000E+00 -0.17453247850E+03  0.17459575038E+03  0.47000000000E+01 0.  1.
          6    1    1    2  502    0  0.10360062135E+03  0.26297586645E+02  0.13229273131E+03  0.24188844239E+03  0.17200000000E+03 0. -1.
         -6    1    1    2    0  502 -0.10360062135E+03 -0.26297586645E+02 -0.34199559453E+02  0.20537346877E+03  0.17200000000E+03 0.  1.
</event>
<event>
 4    1 -0.6532506E-004  0.1741498E+03  0.7818608E-02  0.1173588E+00
         -5   -1    0    0    0  501 -0.00000000000E+00  0.00000000000E+00  0.29021659138E+03  0.29025464667E+03  0.47000000000E+01 0.  1.
          5   -1    0    0  501    0  0.00000000000E+00 -0.00000000000E+00 -0.17282671384E+03  0.17289060997E+03  0.47000000000E+01 0. -1.
          6    1    1    2  502    0  0.15936642414E+02  0.22139722437E+02 -0.86960818091E+02  0.19465438028E+03  0.17200000000E+03 0. -1.
         -6    1    1    2    0  502 -0.15936642414E+02 -0.22139722437E+02  0.20435069564E+03  0.26849087636E+03  0.17200000000E+03 0.  1.
</event>
<event>
 4    1 -0.6532506E-004  0.3347139E+03  0.7818608E-02  0.1069070E+00
         -5   -1    0    0    0  501 -0.00000000000E+00  0.00000000000E+00  0.99927382305E+03  0.99928487601E+03  0.47000000000E+01 0.  1.
          5   -1    0    0  501    0  0.00000000000E+00 -0.00000000000E+00 -0.13852546133E+03  0.13860517103E+03  0.47000000000E+01 0. -1.
          6    1    1    2  502    0 -0.11070730174E+03  0.26494018119E+03  0.18175282855E+03  0.38087727282E+03  0.17200000000E+03 0. -1.
         -6    1    1    2    0  502  0.11070730174E+03 -0.26494018119E+03  0.67899553317E+03  0.75701277422E+03  0.17200000000E+03 0.  1.
</event>
<event>
 4    1 -0.6532506E-004  0.2012653E+03  0.7818608E-02  0.1148676E+00
          5   -1    0    0  501    0  0.00000000000E+00  0.00000000000E+00  0.73803553978E+02  0.73953056595E+02  0.47000000000E+01 0. -1.
         -5   -1    0    0    0  501 -0.00000000000E+00 -0.00000000000E+00 -0.91947988334E+03  0.91949189549E+03  0.47000000000E+01 0.  1.
          6    1    1    2  502    0  0.74339279336E+02 -0.73467031249E+02 -0.10720174932E+03  0.22803497142E+03  0.17200000000E+03 0. -1.
         -6    1    1    2    0  502 -0.74339279336E+02  0.73467031249E+02 -0.73847458004E+03  0.76540998067E+03  0.17200000000E+03 0.  1.
</event>
<event>
 4    1 -0.6532506E-004  0.1825983E+03  0.7818608E-02  0.1165312E+00
         -5   -1    0    0    0  501 -0.00000000000E+00  0.00000000000E+00  0.27857690138E+03  0.27861654650E+03  0.47000000000E+01 0.  1.
          5   -1    0    0  501    0  0.00000000000E+00 -0.00000000000E+00 -0.16523684585E+03  0.16530367578E+03  0.47000000000E+01 0. -1.
          6    1    1    2  502    0  0.61264358029E+02  0.21953376602E+01 -0.59945308044E+02  0.19218631853E+03  0.17200000000E+03 0. -1.
         -6    1    1    2    0  502 -0.61264358029E+02 -0.21953376602E+01  0.17328536357E+03  0.25173390376E+03  0.17200000000E+03 0.  1.
</event>
<event>
 4    1 -0.6532506E-004  0.6857281E+03  0.7818608E-02  0.9741955E-01
         -5   -1    0    0    0  501 -0.00000000000E+00  0.00000000000E+00  0.98738469621E+03  0.98739588226E+03  0.47000000000E+01 0.  1.
          5   -1    0    0  501    0  0.00000000000E+00 -0.00000000000E+00 -0.10294622584E+04  0.10294729872E+04  0.47000000000E+01 0. -1.
          6    1    1    2  502    0 -0.63727468395E+03 -0.18579558436E+03 -0.76030343611E+03  0.10238575765E+04  0.17200000000E+03 0. -1.
         -6    1    1    2    0  502  0.63727468395E+03  0.18579558436E+03  0.71822587395E+03  0.99301129298E+03  0.17200000000E+03 0.  1.
</event>
<event>
 4    1 -0.6532506E-004  0.8229770E+03  0.7818608E-02  0.9527342E-01
          5   -1    0    0  501    0  0.00000000000E+00  0.00000000000E+00  0.92815807612E+03  0.92816997595E+03  0.47000000000E+01 0. -1.
         -5   -1    0    0    0  501 -0.00000000000E+00 -0.00000000000E+00 -0.83382848993E+03  0.83384173596E+03  0.47000000000E+01 0.  1.
          6    1    1    2  502    0  0.77379117085E+03 -0.22125625663E+03  0.35850625531E+03  0.89767357223E+03  0.17200000000E+03 0. -1.
         -6    1    1    2    0  502 -0.77379117085E+03  0.22125625663E+03 -0.26417666913E+03  0.86433813968E+03  0.17200000000E+03 0.  1.
</event>
<event>
 4    1 -0.6532506E-004  0.1840545E+03  0.7818608E-02  0.1163936E+00
          5   -1    0    0  501    0  0.00000000000E+00  0.00000000000E+00  0.41622486007E+02  0.41887006833E+02  0.47000000000E+01 0. -1.
         -5   -1    0    0    0  501 -0.00000000000E+00 -0.00000000000E+00 -0.10537627205E+04  0.10537732019E+04  0.47000000000E+01 0.  1.
          6    1    1    2  502    0  0.31692301014E+02 -0.57337995422E+02 -0.24318026812E+03  0.30497981977E+03  0.17200000000E+03 0. -1.
         -6    1    1    2    0  502 -0.31692301014E+02  0.57337995422E+02 -0.76895996635E+03  0.79068038898E+03  0.17200000000E+03 0.  1.
</event>
<event>
 4    1 -0.6532506E-004  0.3303919E+03  0.7818608E-02  0.1070964E+00
          5   -1    0    0  501    0  0.00000000000E+00  0.00000000000E+00  0.47525333286E+03  0.47527657253E+03  0.47000000000E+01 0. -1.
         -5   -1    0    0    0  501 -0.00000000000E+00 -0.00000000000E+00 -0.43403174406E+03  0.43405719076E+03  0.47000000000E+01 0.  1.
          6    1    1    2  502    0 -0.19806026801E+03 -0.20086540316E+03  0.33260184358E+03  0.46880994689E+03  0.17200000000E+03 0. -1.
         -6    1    1    2    0  502  0.19806026801E+03  0.20086540316E+03 -0.29138025477E+03  0.44052381641E+03  0.17200000000E+03 0.  1.
</event>
<event>
 4    1 -0.6532506E-004  0.3720279E+03  0.7818608E-02  0.1053920E+00
          5   -1    0    0  501    0  0.00000000000E+00  0.00000000000E+00  0.98949172616E+02  0.99060732691E+02  0.47000000000E+01 0. -1.
         -5   -1    0    0    0  501 -0.00000000000E+00 -0.00000000000E+00 -0.23185205119E+04  0.23185252757E+04  0.47000000000E+01 0.  1.
          6    1    1    2  502    0  0.38675426071E+02 -0.32760489810E+03 -0.34807623963E+03  0.50947210565E+03  0.17200000000E+03 0. -1.
         -6    1    1    2    0  502 -0.38675426071E+02  0.32760489810E+03 -0.18714950997E+04  0.19081139028E+04  0.17200000000E+03 0.  1.
</event>
<event>
 4    1 -0.6532506E-004  0.1830004E+03  0.7818608E-02  0.1164930E+00
         -5   -1    0    0    0  501 -0.00000000000E+00  0.00000000000E+00  0.69571847616E+03  0.69573435165E+03  0.47000000000E+01 0.  1.
          5   -1    0    0  501    0  0.00000000000E+00 -0.00000000000E+00 -0.12009352876E+03  0.12018546355E+03  0.47000000000E+01 0. -1.
          6    1    1    2  502    0  0.62488089280E+02 -0.62068961559E+00 -0.28031087473E+02  0.18513478447E+03  0.17200000000E+03 0. -1.
         -6    1    1    2    0  502 -0.62488089280E+02  0.62068961559E+00  0.60365603487E+03  0.63078503073E+03  0.17200000000E+03 0.  1.
</event>
<event>
 4    1 -0.6532506E-004  0.2879838E+03  0.7818608E-02  0.1091407E+00
         -5   -1    0    0    0  501 -0.00000000000E+00  0.00000000000E+00  0.20221023434E+03  0.20226484834E+03  0.47000000000E+01 0.  1.
          5   -1    0    0  501    0  0.00000000000E+00 -0.00000000000E+00 -0.41334225841E+03  0.41336897874E+03  0.47000000000E+01 0. -1.
          6    1    1    2  502    0 -0.55905058120E+02  0.22410997155E+03 -0.77960900176E+02  0.29834972235E+03  0.17200000000E+03 0. -1.
         -6    1    1    2    0  502  0.55905058120E+02 -0.22410997155E+03 -0.13317112389E+03  0.31728410472E+03  0.17200000000E+03 0.  1.
</event>
<event>
 4    1 -0.6532506E-004  0.5863692E+03  0.7818608E-02  0.9934096E-01
          5   -1    0    0  501    0  0.00000000000E+00  0.00000000000E+00  0.82016960832E+03  0.82018307494E+03  0.47000000000E+01 0. -1.
         -5   -1    0    0    0  501 -0.00000000000E+00 -0.00000000000E+00 -0.91114540124E+03  0.91115752326E+03  0.47000000000E+01 0.  1.
          6    1    1    2  502    0  0.44796350674E+03 -0.33700678217E+03  0.59059716685E+03  0.83224629053E+03  0.17200000000E+03 0. -1.
         -6    1    1    2    0  502 -0.44796350674E+03  0.33700678217E+03 -0.68157295977E+03  0.89909430767E+03  0.17200000000E+03 0.  1.
</event>
<event>
 4    1 -0.6532506E-004  0.2274106E+03  0.7818608E-02  0.1128476E+00
         -5   -1    0    0    0  501 -0.00000000000E+00  0.00000000000E+00  0.26447591662E+03  0.26451767516E+03  0.47000000000E+01 0.  1.
          5   -1    0    0  501    0  0.00000000000E+00 -0.00000000000E+00 -0.19724519915E+03  0.19730118749E+03  0.47000000000E+01 0. -1.
          6    1    1    2  502    0 -0.85430981270E+02 -0.12179132436E+03  0.11618811997E+02  0.22770721561E+03  0.17200000000E+03 0. -1.
         -6    1    1    2    0  502  0.85430981270E+02  0.12179132436E+03  0.55611905481E+02  0.23411164704E+03  0.17200000000E+03 0.  1.
</event>
<event>
 4    1 -0.6532506E-004  0.2246164E+03  0.7818608E-02  0.1130487E+00
         -5   -1    0    0    0  501 -0.00000000000E+00  0.00000000000E+00  0.10125679156E+04  0.10125788235E+04  0.47000000000E+01 0.  1.
          5   -1    0    0  501    0  0.00000000000E+00 -0.00000000000E+00 -0.58930494879E+02  0.59117621964E+02  0.47000000000E+01 0. -1.
          6    1    1    2  502    0  0.12393992355E+03 -0.74212094933E+02  0.26518189744E+03  0.34752550757E+03  0.17200000000E+03 0.  1.
         -6    1    1    2    0  502 -0.12393992355E+03  0.74212094933E+02  0.68845552330E+03  0.72417093786E+03  0.17200000000E+03 0.  1.
</event>
<event>
 4    1 -0.6532506E-004  0.2378964E+03  0.7818608E-02  0.1121202E+00
         -5   -1    0    0    0  501 -0.00000000000E+00  0.00000000000E+00  0.34491033291E+03  0.34494235424E+03  0.47000000000E+01 0.  1.
          5   -1    0    0  501    0  0.00000000000E+00 -0.00000000000E+00 -0.23773887094E+03  0.23778532494E+03  0.47000000000E+01 0. -1.
          6    1    1    2  502    0 -0.11192880412E+03  0.12034384462E+03 -0.10863913005E+03  0.26152850458E+03  0.17200000000E+03 0. -1.
         -6    1    1    2    0  502  0.11192880412E+03 -0.12034384462E+03  0.21581059202E+03  0.32119917459E+03  0.17200000000E+03 0. -1.
</event>
<event>
 4    1 -0.6532506E-004  0.2531310E+03  0.7818608E-02  0.1111342E+00
          5   -1    0    0  501    0  0.00000000000E+00  0.00000000000E+00  0.17333442936E+04  0.17333506656E+04  0.47000000000E+01 0. -1.
         -5   -1    0    0    0  501 -0.00000000000E+00 -0.00000000000E+00 -0.62129298519E+02  0.62306819325E+02  0.47000000000E+01 0.  1.
          6    1    1    2  502    0 -0.11794433943E+03 -0.14345889680E+03  0.14076314868E+04  0.14302103778E+04  0.17200000000E+03 0.  1.
         -6    1    1    2    0  502  0.11794433943E+03  0.14345889680E+03  0.26358350826E+03  0.36544710712E+03  0.17200000000E+03 0.  1.
</event>
<event>
 4    1 -0.6532506E-004  0.3920449E+03  0.7818608E-02  0.1046570E+00
          5   -1    0    0  501    0  0.00000000000E+00  0.00000000000E+00  0.54060138614E+03  0.54062181671E+03  0.47000000000E+01 0. -1.
         -5   -1    0    0    0  501 -0.00000000000E+00 -0.00000000000E+00 -0.83935068670E+03  0.83936384558E+03  0.47000000000E+01 0.  1.
          6    1    1    2  502    0  0.34101777285E+03 -0.88442339064E+02  0.41172548525E+03  0.56852180604E+03  0.17200000000E+03 0. -1.
         -6    1    1    2    0  502 -0.34101777285E+03  0.88442339064E+02 -0.71047478580E+03  0.81146385625E+03  0.17200000000E+03 0.  1.
</event>
<event>
 4    1 -0.6532506E-004  0.2298808E+03  0.7818608E-02  0.1126724E+00
         -5   -1    0    0    0  501 -0.00000000000E+00  0.00000000000E+00  0.37003440389E+03  0.37006425126E+03  0.47000000000E+01 0.  1.
          5   -1    0    0  501    0  0.00000000000E+00 -0.00000000000E+00 -0.23728527331E+03  0.23733181609E+03  0.47000000000E+01 0. -1.
          6    1    1    2  502    0 -0.15158172842E+03 -0.16857548336E+02 -0.12529304265E+03  0.26180821963E+03  0.17200000000E+03 0. -1.
         -6    1    1    2    0  502  0.15158172842E+03  0.16857548336E+02  0.25804217324E+03  0.34558784773E+03  0.17200000000E+03 0.  1.
</event>
<event>
 4    1 -0.6532506E-004  0.2482756E+03  0.7818608E-02  0.1114399E+00
         -5   -1    0    0    0  501 -0.00000000000E+00  0.00000000000E+00  0.89907496820E+02  0.90030261493E+02  0.47000000000E+01 0.  1.
          5   -1    0    0  501    0  0.00000000000E+00 -0.00000000000E+00 -0.73530812238E+03  0.73532314314E+03  0.47000000000E+01 0. -1.
          6    1    1    2  502    0 -0.17805675147E+03  0.18776285518E+02 -0.43062951163E+03  0.49707397028E+03  0.17200000000E+03 0. -1.
         -6    1    1    2    0  502  0.17805675147E+03 -0.18776285518E+02 -0.21477111393E+03  0.32827943436E+03  0.17200000000E+03 0.  1.
</event>
<event>
 4    1 -0.6532506E-004  0.1735649E+03  0.7818608E-02  0.1174180E+00
          5   -1    0    0  501    0  0.00000000000E+00  0.00000000000E+00  0.65274646791E+02  0.65443636159E+02  0.47000000000E+01 0. -1.
         -5   -1    0    0    0  501 -0.00000000000E+00 -0.00000000000E+00 -0.48444067292E+03  0.48446347187E+03  0.47000000000E+01 0.  1.
          6    1    1    2  502    0  0.16607692388E+02 -0.16277473366E+02 -0.14876653626E+03  0.22859626833E+03  0.17200000000E+03 0. -1.
         -6    1    1    2    0  502 -0.16607692388E+02  0.16277473366E+02 -0.27039948987E+03  0.32131083970E+03  0.17200000000E+03 0.  1.
</event>
<event>
 4    1 -0.6532506E-004  0.1748090E+03  0.7818608E-02  0.1172924E+00
          5   -1    0    0  501    0  0.00000000000E+00  0.00000000000E+00  0.87040111040E+02  0.87166914193E+02  0.47000000000E+01 0. -1.
         -5   -1    0    0    0  501 -0.00000000000E+00 -0.00000000000E+00 -0.47770659530E+03  0.47772971563E+03  0.47000000000E+01 0.  1.
          6    1    1    2  502    0  0.30028105654E+02  0.85139779825E+01 -0.34095618618E+03  0.38315701200E+03  0.17200000000E+03 0.  1.
         -6    1    1    2    0  502 -0.30028105654E+02 -0.85139779825E+01 -0.49710298080E+02  0.18173961782E+03  0.17200000000E+03 0. -1.
</event>
<event>
 4    1 -0.6532506E-004  0.5555255E+03  0.7818608E-02  0.1000223E+00
          5   -1    0    0  501    0  0.00000000000E+00  0.00000000000E+00  0.36900591791E+03  0.36903584847E+03  0.47000000000E+01 0. -1.
         -5   -1    0    0    0  501 -0.00000000000E+00 -0.00000000000E+00 -0.11408837116E+04  0.11408933927E+04  0.47000000000E+01 0.  1.
          6    1    1    2  502    0  0.25663117536E+03  0.46169797791E+03  0.41686357928E+01  0.55554114203E+03  0.17200000000E+03 0. -1.
         -6    1    1    2    0  502 -0.25663117536E+03 -0.46169797791E+03 -0.77604642951E+03  0.95438809911E+03  0.17200000000E+03 0.  1.
</event>
<event>
 4    1 -0.6532506E-004  0.2045246E+03  0.7818608E-02  0.1145977E+00
          5   -1    0    0  501    0  0.00000000000E+00  0.00000000000E+00  0.81082533515E+02  0.81218638508E+02  0.47000000000E+01 0. -1.
         -5   -1    0    0    0  501 -0.00000000000E+00 -0.00000000000E+00 -0.81800408124E+03  0.81801758350E+03  0.47000000000E+01 0.  1.
          6    1    1    2  502    0  0.11010369431E+03  0.11112301104E+02 -0.94983513114E+02  0.22550426714E+03  0.17200000000E+03 0. -1.
         -6    1    1    2    0  502 -0.11010369431E+03 -0.11112301104E+02 -0.64193803461E+03  0.67373195487E+03  0.17200000000E+03 0.  1.
</event>
<event>
 4    1 -0.6532506E-004  0.2591507E+03  0.7818608E-02  0.1107655E+00
         -5   -1    0    0    0  501 -0.00000000000E+00  0.00000000000E+00  0.19141598606E+03  0.19147367892E+03  0.47000000000E+01 0.  1.
          5   -1    0    0  501    0  0.00000000000E+00 -0.00000000000E+00 -0.36906154042E+03  0.36909146646E+03  0.47000000000E+01 0. -1.
          6    1    1    2  502    0  0.76158294702E+02 -0.17825536193E+03 -0.15128562226E+03  0.30007732239E+03  0.17200000000E+03 0. -1.
         -6    1    1    2    0  502 -0.76158294702E+02  0.17825536193E+03 -0.26359932097E+02  0.26048782300E+03  0.17200000000E+03 0.  1.
</event>
<event>
 4    1 -0.6532506E-004  0.1923549E+03  0.7818608E-02  0.1156354E+00
         -5   -1    0    0    0  501 -0.00000000000E+00  0.00000000000E+00  0.49981552357E+03  0.49983762124E+03  0.47000000000E+01 0.  1.
          5   -1    0    0  501    0  0.00000000000E+00 -0.00000000000E+00 -0.29143530797E+03  0.29147320414E+03  0.47000000000E+01 0. -1.
          6    1    1    2  502    0 -0.86055618583E+02 -0.32906141991E+01 -0.23754927887E+03  0.30566330745E+03  0.17200000000E+03 0. -1.
         -6    1    1    2    0  502  0.86055618583E+02  0.32906141991E+01  0.44592949447E+03  0.48564751793E+03  0.17200000000E+03 0.  1.
</event>
<event>
 4    1 -0.6532506E-004  0.5014316E+03  0.7818608E-02  0.1013406E+00
          5   -1    0    0  501    0  0.00000000000E+00  0.00000000000E+00  0.21362108579E+04  0.21362160283E+04  0.47000000000E+01 0. -1.
         -5   -1    0    0    0  501 -0.00000000000E+00 -0.00000000000E+00 -0.14197484302E+03  0.14205261719E+03  0.47000000000E+01 0.  1.
          6    1    1    2  502    0  0.46940406058E+03  0.38852311018E+02  0.52574123146E+03  0.72652427119E+03  0.17200000000E+03 0. -1.
         -6    1    1    2    0  502 -0.46940406058E+03 -0.38852311018E+02  0.14684947834E+04  0.15517443743E+04  0.17200000000E+03 0.  1.
</event>
<event>
 4    1 -0.6532506E-004  0.1766010E+03  0.7818608E-02  0.1171134E+00
          5   -1    0    0  501    0  0.00000000000E+00  0.00000000000E+00  0.17089073843E+03  0.17095535815E+03  0.47000000000E+01 0. -1.
         -5   -1    0    0    0  501 -0.00000000000E+00 -0.00000000000E+00 -0.18240603372E+03  0.18246657540E+03  0.47000000000E+01 0.  1.
          6    1    1    2  502    0  0.13821944025E+02 -0.37588197262E+02 -0.81456628738E+01  0.17678877378E+03  0.17200000000E+03 0. -1.
         -6    1    1    2    0  502 -0.13821944025E+02  0.37588197262E+02 -0.33696324206E+01  0.17663315978E+03  0.17200000000E+03 0. -1.
</event>
<event>
 4    1 -0.6532506E-004  0.2363006E+03  0.7818608E-02  0.1122282E+00
          5   -1    0    0  501    0  0.00000000000E+00  0.00000000000E+00  0.61412261591E+03  0.61414060066E+03  0.47000000000E+01 0. -1.
         -5   -1    0    0    0  501 -0.00000000000E+00 -0.00000000000E+00 -0.10310510971E+03  0.10321217781E+03  0.47000000000E+01 0.  1.
          6    1    1    2  502    0  0.13703483700E+03 -0.86460577789E+02  0.13189551563E+03  0.27061856017E+03  0.17200000000E+03 0.  1.
         -6    1    1    2    0  502 -0.13703483700E+03  0.86460577789E+02  0.37912199057E+03  0.44673421830E+03  0.17200000000E+03 0.  1.
</event>
<event>
 4    1 -0.6532506E-004  0.1957110E+03  0.7818608E-02  0.1153409E+00
          5   -1    0    0  501    0  0.00000000000E+00  0.00000000000E+00  0.65581881587E+03  0.65583565720E+03  0.47000000000E+01 0. -1.
         -5   -1    0    0    0  501 -0.00000000000E+00 -0.00000000000E+00 -0.75252406286E+02  0.75399036146E+02  0.47000000000E+01 0.  1.
          6    1    1    2  502    0 -0.15463151774E+02  0.92085209882E+02  0.46364268694E+03  0.50325672980E+03  0.17200000000E+03 0. -1.
         -6    1    1    2    0  502  0.15463151774E+02 -0.92085209882E+02  0.11692372265E+03  0.22797796354E+03  0.17200000000E+03 0.  1.
</event>
<event>
 4    1 -0.6532506E-004  0.1797469E+03  0.7818608E-02  0.1168048E+00
          5   -1    0    0  501    0  0.00000000000E+00  0.00000000000E+00  0.10195430174E+03  0.10206257709E+03  0.47000000000E+01 0. -1.
         -5   -1    0    0    0  501 -0.00000000000E+00 -0.00000000000E+00 -0.31929516156E+03  0.31932975150E+03  0.47000000000E+01 0.  1.
          6    1    1    2  502    0  0.51341880390E+02  0.94310991168E+01 -0.12801540474E+03  0.22067369160E+03  0.17200000000E+03 0.  1.
         -6    1    1    2    0  502 -0.51341880390E+02 -0.94310991168E+01 -0.89325455075E+02  0.20071863699E+03  0.17200000000E+03 0.  1.
</event>
<event>
 4    1 -0.6532506E-004  0.3037409E+03  0.7818608E-02  0.1083385E+00
         -5   -1    0    0    0  501 -0.00000000000E+00  0.00000000000E+00  0.21711340349E+03  0.21716426956E+03  0.47000000000E+01 0.  1.
          5   -1    0    0  501    0  0.00000000000E+00 -0.00000000000E+00 -0.46985667582E+03  0.46988018240E+03  0.47000000000E+01 0. -1.
          6    1    1    2  502    0 -0.24717365256E+01  0.25033659000E+03 -0.23271891184E+03  0.38264423385E+03  0.17200000000E+03 0. -1.
         -6    1    1    2    0  502  0.24717365256E+01 -0.25033659000E+03 -0.20024360493E+02  0.30440021811E+03  0.17200000000E+03 0.  1.
</event>
<event>
 4    1 -0.6532506E-004  0.1768412E+03  0.7818608E-02  0.1170896E+00
          5   -1    0    0  501    0  0.00000000000E+00  0.00000000000E+00  0.40315331075E+03  0.40318070634E+03  0.47000000000E+01 0. -1.
         -5   -1    0    0    0  501 -0.00000000000E+00 -0.00000000000E+00 -0.78989767020E+02  0.79129471715E+02  0.47000000000E+01 0.  1.
          6    1    1    2  502    0  0.28504377642E+02  0.29602487435E+02  0.19550462591E+03  0.26361878833E+03  0.17200000000E+03 0.  1.
         -6    1    1    2    0  502 -0.28504377642E+02 -0.29602487435E+02  0.12865891781E+03  0.21869138972E+03  0.17200000000E+03 0.  1.
</event>
<event>
 4    1 -0.6532506E-004  0.2024122E+03  0.7818608E-02  0.1147720E+00
          5   -1    0    0  501    0  0.00000000000E+00  0.00000000000E+00  0.36077258588E+03  0.36080319943E+03  0.47000000000E+01 0. -1.
         -5   -1    0    0    0  501 -0.00000000000E+00 -0.00000000000E+00 -0.20942684879E+03  0.20947958133E+03  0.47000000000E+01 0.  1.
          6    1    1    2  502    0 -0.10659644421E+03 -0.48891465090E+01  0.26862543992E+03  0.33634852853E+03  0.17200000000E+03 0. -1.
         -6    1    1    2    0  502  0.10659644421E+03  0.48891465090E+01 -0.11727970284E+03  0.23393425224E+03  0.17200000000E+03 0.  1.
</event>
<event>
 4    1 -0.6532506E-004  0.1973115E+03  0.7818608E-02  0.1152027E+00
          5   -1    0    0  501    0  0.00000000000E+00  0.00000000000E+00  0.55827519182E+03  0.55829497562E+03  0.47000000000E+01 0. -1.
         -5   -1    0    0    0  501 -0.00000000000E+00 -0.00000000000E+00 -0.81232126726E+02  0.81367981494E+02  0.47000000000E+01 0.  1.
          6    1    1    2  502    0 -0.64729219153E+02  0.71818843865E+02  0.35924019243E+03  0.40986013957E+03  0.17200000000E+03 0. -1.
         -6    1    1    2    0  502  0.64729219153E+02 -0.71818843865E+02  0.11780287266E+03  0.22980281755E+03  0.17200000000E+03 0.  1.
</event>
<event>
 4    1 -0.6532506E-004  0.1878507E+03  0.7818608E-02  0.1160414E+00
          5   -1    0    0  501    0  0.00000000000E+00  0.00000000000E+00  0.43995899230E+03  0.43998409619E+03  0.47000000000E+01 0. -1.
         -5   -1    0    0    0  501 -0.00000000000E+00 -0.00000000000E+00 -0.81020597579E+02  0.81156806444E+02  0.47000000000E+01 0.  1.
          6    1    1    2  502    0 -0.75192929021E+02  0.70640237606E+01  0.20705184218E+03  0.27956813545E+03  0.17200000000E+03 0. -1.
         -6    1    1    2    0  502  0.75192929021E+02 -0.70640237606E+01  0.15188655253E+03  0.24157276719E+03  0.17200000000E+03 0.  1.
</event>
<event>
 4    1 -0.6532506E-004  0.2316636E+03  0.7818608E-02  0.1125474E+00
          5   -1    0    0  501    0  0.00000000000E+00  0.00000000000E+00  0.24655103492E+03  0.24659582888E+03  0.47000000000E+01 0. -1.
         -5   -1    0    0    0  501 -0.00000000000E+00 -0.00000000000E+00 -0.36602113807E+03  0.36605131268E+03  0.47000000000E+01 0.  1.
          6    1    1    2  502    0  0.15440020722E+03 -0.15639498726E+02  0.13531513532E+03  0.26828753933E+03  0.17200000000E+03 0. -1.
         -6    1    1    2    0  502 -0.15440020722E+03  0.15639498726E+02 -0.25478523847E+03  0.34435960224E+03  0.17200000000E+03 0.  1.
</event>
<event>
 4    1 -0.6532506E-004  0.1730377E+03  0.7818608E-02  0.1174717E+00
          5   -1    0    0  501    0  0.00000000000E+00  0.00000000000E+00  0.54343111165E+03  0.54345143583E+03  0.47000000000E+01 0. -1.
         -5   -1    0    0    0  501 -0.00000000000E+00 -0.00000000000E+00 -0.67505671171E+02  0.67669089253E+02  0.47000000000E+01 0.  1.
          6    1    1    2  502    0 -0.63775405343E+01  0.17814994578E+02  0.36940578120E+03  0.40792484386E+03  0.17200000000E+03 0. -1.
         -6    1    1    2    0  502  0.63775405343E+01 -0.17814994578E+02  0.10651965928E+03  0.20319568122E+03  0.17200000000E+03 0.  1.
</event>
<event>
 4    1 -0.6532506E-004  0.1892070E+03  0.7818608E-02  0.1159179E+00
          5   -1    0    0  501    0  0.00000000000E+00  0.00000000000E+00  0.10241491997E+04  0.10241599842E+04  0.47000000000E+01 0. -1.
         -5   -1    0    0    0  501 -0.00000000000E+00 -0.00000000000E+00 -0.37202169676E+02  0.37497885655E+02  0.47000000000E+01 0.  1.
          6    1    1    2  502    0  0.61407950342E+02 -0.49440226682E+02  0.35876908261E+03  0.40560390410E+03  0.17200000000E+03 0.  1.
         -6    1    1    2    0  502 -0.61407950342E+02  0.49440226682E+02  0.62817794740E+03  0.65605396575E+03  0.17200000000E+03 0. -1.
</event>
<event>
 4    1 -0.6532506E-004  0.2063407E+03  0.7818608E-02  0.1144497E+00
         -5   -1    0    0    0  501 -0.00000000000E+00  0.00000000000E+00  0.10456201783E+04  0.10456307414E+04  0.47000000000E+01 0.  1.
          5   -1    0    0  501    0  0.00000000000E+00 -0.00000000000E+00 -0.48284228821E+02  0.48512439156E+02  0.47000000000E+01 0. -1.
          6    1    1    2  502    0  0.57425445597E+02 -0.98462101093E+02  0.71671564816E+03  0.74582691522E+03  0.17200000000E+03 0. -1.
         -6    1    1    2    0  502 -0.57425445597E+02  0.98462101093E+02  0.28062030133E+03  0.34831626530E+03  0.17200000000E+03 0. -1.
</event>
<event>
 4    1 -0.6532506E-004  0.2455279E+03  0.7818608E-02  0.1116164E+00
          5   -1    0    0  501    0  0.00000000000E+00  0.00000000000E+00  0.72589878374E+02  0.72741875438E+02  0.47000000000E+01 0. -1.
         -5   -1    0    0    0  501 -0.00000000000E+00 -0.00000000000E+00 -0.94833953750E+03  0.94835118410E+03  0.47000000000E+01 0.  1.
          6    1    1    2  502    0 -0.75593793129E+02  0.15806817918E+03 -0.25711815383E+03  0.35551893882E+03  0.17200000000E+03 0. -1.
         -6    1    1    2    0  502  0.75593793129E+02 -0.15806817918E+03 -0.61863150529E+03  0.66557412072E+03  0.17200000000E+03 0.  1.
</event>
<event>
 4    1 -0.6532506E-004  0.5016101E+03  0.7818608E-02  0.1013360E+00
          5   -1    0    0  501    0  0.00000000000E+00  0.00000000000E+00  0.19256548380E+03  0.19262283237E+03  0.47000000000E+01 0. -1.
         -5   -1    0    0    0  501 -0.00000000000E+00 -0.00000000000E+00 -0.15501512053E+04  0.15501583304E+04  0.47000000000E+01 0.  1.
          6    1    1    2  502    0 -0.34897198727E+03  0.31661837453E+03 -0.33324386830E+03  0.60221600671E+03  0.17200000000E+03 0. -1.
         -6    1    1    2    0  502  0.34897198727E+03 -0.31661837453E+03 -0.10243418532E+04  0.11405651561E+04  0.17200000000E+03 0.  1.
</event>
<event>
 4    1 -0.6532506E-004  0.2005731E+03  0.7818608E-02  0.1149256E+00
         -5   -1    0    0    0  501 -0.00000000000E+00  0.00000000000E+00  0.32079218259E+03  0.32082661113E+03  0.47000000000E+01 0.  1.
          5   -1    0    0  501    0  0.00000000000E+00 -0.00000000000E+00 -0.18305828501E+03  0.18311861104E+03  0.47000000000E+01 0. -1.
          6    1    1    2  502    0  0.88022697129E+02  0.53829032787E+02 -0.72600102081E+02  0.21330807487E+03  0.17200000000E+03 0. -1.
         -6    1    1    2    0  502 -0.88022697129E+02 -0.53829032787E+02  0.21033399966E+03  0.29063714731E+03  0.17200000000E+03 0.  1.
</event>
<event>
 4    1 -0.6532506E-004  0.2729307E+03  0.7818608E-02  0.1099614E+00
          5   -1    0    0  501    0  0.00000000000E+00  0.00000000000E+00  0.80445793107E+03  0.80447166069E+03  0.47000000000E+01 0. -1.
         -5   -1    0    0    0  501 -0.00000000000E+00 -0.00000000000E+00 -0.10834714315E+03  0.10844903609E+03  0.47000000000E+01 0.  1.
          6    1    1    2  502    0  0.15389259111E+03  0.14568535614E+03  0.17371632839E+03  0.32352513865E+03  0.17200000000E+03 0. -1.
         -6    1    1    2    0  502 -0.15389259111E+03 -0.14568535614E+03  0.52239445953E+03  0.58939555813E+03  0.17200000000E+03 0.  1.
</event>
<event>
 4    1 -0.6532506E-004  0.2254870E+03  0.7818608E-02  0.1129857E+00
          5   -1    0    0  501    0  0.00000000000E+00  0.00000000000E+00  0.94365800051E+03  0.94366970489E+03  0.47000000000E+01 0. -1.
         -5   -1    0    0    0  501 -0.00000000000E+00 -0.00000000000E+00 -0.69286657736E+02  0.69445884977E+02  0.47000000000E+01 0.  1.
          6    1    1    2  502    0 -0.21615054332E+02 -0.14419838044E+03  0.67660489787E+03  0.71318901514E+03  0.17200000000E+03 0. -1.
         -6    1    1    2    0  502  0.21615054332E+02  0.14419838044E+03  0.19776644490E+03  0.29992657472E+03  0.17200000000E+03 0.  1.
</event>
<event>
 4    1 -0.6532506E-004  0.2080951E+03  0.7818608E-02  0.1143083E+00
          5   -1    0    0  501    0  0.00000000000E+00  0.00000000000E+00  0.43835919553E+03  0.43838439104E+03  0.47000000000E+01 0. -1.
         -5   -1    0    0    0  501 -0.00000000000E+00 -0.00000000000E+00 -0.25343566255E+03  0.25347923989E+03  0.47000000000E+01 0.  1.
          6    1    1    2  502    0  0.11663759344E+03 -0.10734330265E+02  0.36270912446E+03  0.41816439712E+03  0.17200000000E+03 0. -1.
         -6    1    1    2    0  502 -0.11663759344E+03  0.10734330265E+02 -0.17778559148E+03  0.27369923381E+03  0.17200000000E+03 0.  1.
</event>
<event>
 4    1 -0.6532506E-004  0.1827622E+03  0.7818608E-02  0.1165156E+00
         -5   -1    0    0    0  501 -0.00000000000E+00  0.00000000000E+00  0.25013158094E+04  0.25013202251E+04  0.47000000000E+01 0.  1.
          5   -1    0    0  501    0  0.00000000000E+00 -0.00000000000E+00 -0.15134792635E+02  0.15847774232E+02  0.47000000000E+01 0. -1.
          6    1    1    2  502    0 -0.60620910545E+02 -0.11963649459E+02  0.77516225851E+03  0.79641606634E+03  0.17200000000E+03 0. -1.
         -6    1    1    2    0  502  0.60620910545E+02  0.11963649459E+02  0.17110187582E+04  0.17207519329E+04  0.17200000000E+03 0. -1.
</event>
<event>
 4    1 -0.6532506E-004  0.2035756E+03  0.7818608E-02  0.1146757E+00
          5   -1    0    0  501    0  0.00000000000E+00  0.00000000000E+00  0.25717518127E+03  0.25721812507E+03  0.47000000000E+01 0. -1.
         -5   -1    0    0    0  501 -0.00000000000E+00 -0.00000000000E+00 -0.16127545994E+03  0.16134393072E+03  0.47000000000E+01 0.  1.
          6    1    1    2  502    0 -0.68915528781E+02  0.84318921778E+02  0.55660217762E+02  0.21104760249E+03  0.17200000000E+03 0. -1.
         -6    1    1    2    0  502  0.68915528781E+02 -0.84318921778E+02  0.40239503570E+02  0.20751445329E+03  0.17200000000E+03 0. -1.
</event>
<event>
 4    1 -0.6532506E-004  0.5453692E+03  0.7818608E-02  0.1002571E+00
          5   -1    0    0  501    0  0.00000000000E+00  0.00000000000E+00  0.13433805606E+04  0.13433887824E+04  0.47000000000E+01 0. -1.
         -5   -1    0    0    0  501 -0.00000000000E+00 -0.00000000000E+00 -0.24304914044E+03  0.24309457967E+03  0.47000000000E+01 0.  1.
          6    1    1    2  502    0 -0.34712351957E+03  0.38386039645E+03  0.78705480982E+03  0.95753998113E+03  0.17200000000E+03 0. -1.
         -6    1    1    2    0  502  0.34712351957E+03 -0.38386039645E+03  0.31327661033E+03  0.62894338091E+03  0.17200000000E+03 0.  1.
</event>
<event>
 4    1 -0.6532506E-004  0.1787871E+03  0.7818608E-02  0.1168982E+00
         -5   -1    0    0    0  501 -0.00000000000E+00  0.00000000000E+00  0.14591099485E+03  0.14598667206E+03  0.47000000000E+01 0.  1.
          5   -1    0    0  501    0  0.00000000000E+00 -0.00000000000E+00 -0.28934766543E+03  0.28938583498E+03  0.47000000000E+01 0. -1.
          6    1    1    2  502    0  0.45656139989E+02 -0.17214355524E+02 -0.17909857093E+03  0.25306346094E+03  0.17200000000E+03 0. -1.
         -6    1    1    2    0  502 -0.45656139989E+02  0.17214355524E+02  0.35661900352E+02  0.18230904610E+03  0.17200000000E+03 0.  1.
</event>
<event>
 4    1 -0.6532506E-004  0.3284823E+03  0.7818608E-02  0.1071810E+00
          5   -1    0    0  501    0  0.00000000000E+00  0.00000000000E+00  0.21985166592E+03  0.21990189860E+03  0.47000000000E+01 0. -1.
         -5   -1    0    0    0  501 -0.00000000000E+00 -0.00000000000E+00 -0.58745598767E+03  0.58747478878E+03  0.47000000000E+01 0.  1.
          6    1    1    2  502    0 -0.17003701543E+03 -0.22227019142E+03 -0.19955758439E+02  0.32908791668E+03  0.17200000000E+03 0. -1.
         -6    1    1    2    0  502  0.17003701543E+03  0.22227019142E+03 -0.34764856331E+03  0.47828877070E+03  0.17200000000E+03 0.  1.
</event>
<event>
 4    1 -0.6532506E-004  0.1735739E+03  0.7818608E-02  0.1174171E+00
         -5   -1    0    0    0  501 -0.00000000000E+00  0.00000000000E+00  0.92715638127E+03  0.92716829397E+03  0.47000000000E+01 0.  1.
          5   -1    0    0  501    0  0.00000000000E+00 -0.00000000000E+00 -0.38641626703E+02  0.38926408956E+02  0.47000000000E+01 0. -1.
          6    1    1    2  502    0 -0.22431938167E+02  0.63790489932E+01  0.24958312845E+03  0.30400595738E+03  0.17200000000E+03 0. -1.
         -6    1    1    2    0  502  0.22431938167E+02 -0.63790489932E+01  0.63893162612E+03  0.66208874554E+03  0.17200000000E+03 0.  1.
</event>
<event>
 4    1 -0.6532506E-004  0.1743860E+03  0.7818608E-02  0.1173350E+00
         -5   -1    0    0    0  501 -0.00000000000E+00  0.00000000000E+00  0.16232343776E+03  0.16239146667E+03  0.47000000000E+01 0.  1.
          5   -1    0    0  501    0  0.00000000000E+00 -0.00000000000E+00 -0.24609264668E+03  0.24613752406E+03  0.47000000000E+01 0. -1.
          6    1    1    2  502    0  0.66541323442E+01  0.27967631053E+02 -0.14177836625E+03  0.22474779420E+03  0.17200000000E+03 0. -1.
         -6    1    1    2    0  502 -0.66541323442E+01 -0.27967631053E+02  0.58009157325E+02  0.18378119653E+03  0.17200000000E+03 0.  1.
</event>
<event>
 4    1 -0.6532506E-004  0.2329421E+03  0.7818608E-02  0.1124586E+00
         -5   -1    0    0    0  501 -0.00000000000E+00  0.00000000000E+00  0.11480932364E+04  0.11481028567E+04  0.47000000000E+01 0.  1.
          5   -1    0    0  501    0  0.00000000000E+00 -0.00000000000E+00 -0.54700975335E+02  0.54902520002E+02  0.47000000000E+01 0. -1.
          6    1    1    2  502    0  0.63930120773E+02 -0.14349549855E+03  0.32347139796E+03  0.39861731491E+03  0.17200000000E+03 0. -1.
         -6    1    1    2    0  502 -0.63930120773E+02  0.14349549855E+03  0.76992086314E+03  0.80438806179E+03  0.17200000000E+03 0.  1.
</event>
<event>
 4    1 -0.6532506E-004  0.1877414E+03  0.7818608E-02  0.1160514E+00
         -5   -1    0    0    0  501 -0.00000000000E+00  0.00000000000E+00  0.52817903383E+02  0.53026605754E+02  0.47000000000E+01 0.  1.
          5   -1    0    0  501    0  0.00000000000E+00 -0.00000000000E+00 -0.74817000459E+03  0.74818476713E+03  0.47000000000E+01 0. -1.
          6    1    1    2  502    0  0.75141322708E+02  0.40740933787E+01 -0.21476790660E+03  0.28525790141E+03  0.17200000000E+03 0.  1.
         -6    1    1    2    0  502 -0.75141322708E+02 -0.40740933787E+01 -0.48058419461E+03  0.51595347147E+03  0.17200000000E+03 0. -1.
</event>
<event>
 4    1 -0.6532506E-004  0.2523059E+03  0.7818608E-02  0.1111856E+00
          5   -1    0    0  501    0  0.00000000000E+00  0.00000000000E+00  0.33801300939E+03  0.33804568406E+03  0.47000000000E+01 0. -1.
         -5   -1    0    0    0  501 -0.00000000000E+00 -0.00000000000E+00 -0.34997802711E+03  0.35000958481E+03  0.47000000000E+01 0.  1.
          6    1    1    2  502    0  0.25682116054E+02 -0.18279691317E+03  0.22784964183E+03  0.33996138285E+03  0.17200000000E+03 0. -1.
         -6    1    1    2    0  502 -0.25682116054E+02  0.18279691317E+03 -0.23981465955E+03  0.34809388602E+03  0.17200000000E+03 0.  1.
</event>
<event>
 4    1 -0.6532506E-004  0.2065495E+03  0.7818608E-02  0.1144328E+00
         -5   -1    0    0    0  501 -0.00000000000E+00  0.00000000000E+00  0.12521508645E+03  0.12530326362E+03  0.47000000000E+01 0.  1.
          5   -1    0    0  501    0  0.00000000000E+00 -0.00000000000E+00 -0.50181311556E+03  0.50183512527E+03  0.47000000000E+01 0. -1.
          6    1    1    2  502    0  0.71899406073E+02  0.88933429604E+02 -0.36606948177E+03  0.42032076439E+03  0.17200000000E+03 0. -1.
         -6    1    1    2    0  502 -0.71899406073E+02 -0.88933429604E+02 -0.10528547345E+02  0.20681762450E+03  0.17200000000E+03 0.  1.
</event>
<event>
 4    1 -0.6532506E-004  0.1782796E+03  0.7818608E-02  0.1169479E+00
         -5   -1    0    0    0  501 -0.00000000000E+00  0.00000000000E+00  0.88814071967E+02  0.88938345945E+02  0.47000000000E+01 0.  1.
          5   -1    0    0  501    0  0.00000000000E+00 -0.00000000000E+00 -0.48865359979E+03  0.48867620219E+03  0.47000000000E+01 0. -1.
          6    1    1    2  502    0 -0.46866663097E+02 -0.17678662944E+01 -0.34953259325E+03  0.39237309185E+03  0.17200000000E+03 0. -1.
         -6    1    1    2    0  502  0.46866663097E+02  0.17678662944E+01 -0.50306934569E+02  0.18524145629E+03  0.17200000000E+03 0.  1.
</event>
<event>
 4    1 -0.6532506E-004  0.2088301E+03  0.7818608E-02  0.1142496E+00
          5   -1    0    0  501    0  0.00000000000E+00  0.00000000000E+00  0.23611204201E+03  0.23615881602E+03  0.47000000000E+01 0. -1.
         -5   -1    0    0    0  501 -0.00000000000E+00 -0.00000000000E+00 -0.19713863316E+03  0.19719465177E+03  0.47000000000E+01 0.  1.
          6    1    1    2  502    0  0.10897252589E+03  0.46378687203E+02 -0.35132066655E+02  0.21176462437E+03  0.17200000000E+03 0.  1.
         -6    1    1    2    0  502 -0.10897252589E+03 -0.46378687203E+02  0.74105475502E+02  0.22158884341E+03  0.17200000000E+03 0. -1.
</event>
<event>
 4    1 -0.6532506E-004  0.2252251E+03  0.7818608E-02  0.1130046E+00
         -5   -1    0    0    0  501 -0.00000000000E+00  0.00000000000E+00  0.12423090463E+03  0.12431977987E+03  0.47000000000E+01 0.  1.
          5   -1    0    0  501    0  0.00000000000E+00 -0.00000000000E+00 -0.49678350829E+03  0.49680574081E+03  0.47000000000E+01 0. -1.
          6    1    1    2  502    0 -0.36205515821E+02 -0.14082430861E+03 -0.31749630344E+03  0.38926883765E+03  0.17200000000E+03 0. -1.
         -6    1    1    2    0  502  0.36205515821E+02  0.14082430861E+03 -0.55056300217E+02  0.23185668303E+03  0.17200000000E+03 0.  1.
</event>
<event>
 4    1 -0.6532506E-004  0.1778390E+03  0.7818608E-02  0.1169911E+00
         -5   -1    0    0    0  501 -0.00000000000E+00  0.00000000000E+00  0.76985788244E+02  0.77129122850E+02  0.47000000000E+01 0.  1.
          5   -1    0    0  501    0  0.00000000000E+00 -0.00000000000E+00 -0.52675388618E+03  0.52677485381E+03  0.47000000000E+01 0. -1.
          6    1    1    2  502    0 -0.26311233894E+02 -0.36748305747E+02 -0.36685234484E+03  0.40768537123E+03  0.17200000000E+03 0.  1.
         -6    1    1    2    0  502  0.26311233894E+02  0.36748305747E+02 -0.82915753101E+02  0.19621860543E+03  0.17200000000E+03 0.  1.
</event>
<event>
 4    1 -0.6532506E-004  0.3103694E+03  0.7818608E-02  0.1080169E+00
          5   -1    0    0  501    0  0.00000000000E+00  0.00000000000E+00  0.12548990496E+03  0.12557788916E+03  0.47000000000E+01 0. -1.
         -5   -1    0    0    0  501 -0.00000000000E+00 -0.00000000000E+00 -0.10672534767E+04  0.10672638257E+04  0.47000000000E+01 0.  1.
          6    1    1    2  502    0 -0.13459640810E+03  0.22051976613E+03 -0.15468744278E+03  0.34678143734E+03  0.17200000000E+03 0. -1.
         -6    1    1    2    0  502  0.13459640810E+03 -0.22051976613E+03 -0.78707612900E+03  0.84606027751E+03  0.17200000000E+03 0.  1.
</event>
<event>
 4    1 -0.6532506E-004  0.3081602E+03  0.7818608E-02  0.1081231E+00
          5   -1    0    0  501    0  0.00000000000E+00  0.00000000000E+00  0.75200373413E+03  0.75201842141E+03  0.47000000000E+01 0. -1.
         -5   -1    0    0    0  501 -0.00000000000E+00 -0.00000000000E+00 -0.13145859226E+03  0.13154258428E+03  0.47000000000E+01 0.  1.
          6    1    1    2  502    0  0.17914095351E+03 -0.18244793160E+03  0.39842942056E+03  0.50369507853E+03  0.17200000000E+03 0. -1.
         -6    1    1    2    0  502 -0.17914095351E+03  0.18244793160E+03  0.22211572130E+03  0.37986592716E+03  0.17200000000E+03 0.  1.
</event>
<event>
 4    1 -0.6532506E-004  0.3419533E+03  0.7818608E-02  0.1065967E+00
         -5   -1    0    0    0  501 -0.00000000000E+00  0.00000000000E+00  0.39877054980E+03  0.39879824648E+03  0.47000000000E+01 0.  1.
          5   -1    0    0  501    0  0.00000000000E+00 -0.00000000000E+00 -0.29322561056E+03  0.29326327539E+03  0.47000000000E+01 0. -1.
          6    1    1    2  502    0 -0.15183417968E+03 -0.25356347354E+03  0.48213506701E+02  0.34533548248E+03  0.17200000000E+03 0.  1.
         -6    1    1    2    0  502  0.15183417968E+03  0.25356347354E+03  0.57331432539E+02  0.34672603938E+03  0.17200000000E+03 0.  1.
</event>
<event>
 4    1 -0.6532506E-004  0.2278248E+03  0.7818608E-02  0.1128180E+00
          5   -1    0    0  501    0  0.00000000000E+00  0.00000000000E+00  0.85650790560E+03  0.85652080089E+03  0.47000000000E+01 0. -1.
         -5   -1    0    0    0  501 -0.00000000000E+00 -0.00000000000E+00 -0.62798502773E+02  0.62974137156E+02  0.47000000000E+01 0.  1.
          6    1    1    2  502    0  0.70919030593E+02  0.13149385299E+03  0.48476824664E+03  0.53563457247E+03  0.17200000000E+03 0.  1.
         -6    1    1    2    0  502 -0.70919030593E+02 -0.13149385299E+03  0.30894115619E+03  0.38386036558E+03  0.17200000000E+03 0.  1.
</event>
<event>
 4    1 -0.6532506E-004  0.1723011E+03  0.7818608E-02  0.1175469E+00
         -5   -1    0    0    0  501 -0.00000000000E+00  0.00000000000E+00  0.13964882206E+04  0.13964961297E+04  0.47000000000E+01 0.  1.
          5   -1    0    0  501    0  0.00000000000E+00 -0.00000000000E+00 -0.71253203390E+02  0.71408045718E+02  0.47000000000E+01 0. -1.
          6    1    1    2  502    0 -0.10103428830E+02 -0.12616447170E+01  0.47671672635E+02  0.17877432532E+03  0.17200000000E+03 0. -1.
         -6    1    1    2    0  502  0.10103428830E+02  0.12616447170E+01  0.12775633446E+04  0.12891298501E+04  0.17200000000E+03 0.  1.
</event>
<event>
 4    1 -0.6532506E-004  0.1894053E+03  0.7818608E-02  0.1158999E+00
         -5   -1    0    0    0  501 -0.00000000000E+00  0.00000000000E+00  0.48631438052E+03  0.48633709164E+03  0.47000000000E+01 0.  1.
          5   -1    0    0  501    0  0.00000000000E+00 -0.00000000000E+00 -0.73676079567E+02  0.73825840329E+02  0.47000000000E+01 0. -1.
          6    1    1    2  502    0 -0.11721023007E+02 -0.78440997079E+02  0.20348900935E+03  0.27799667143E+03  0.17200000000E+03 0.  1.
         -6    1    1    2    0  502  0.11721023007E+02  0.78440997079E+02  0.20914929161E+03  0.28216626053E+03  0.17200000000E+03 0.  1.
</event>
<event>
 4    1 -0.6532506E-004  0.1813634E+03  0.7818608E-02  0.1166490E+00
          5   -1    0    0  501    0  0.00000000000E+00  0.00000000000E+00  0.73137344903E+03  0.73138855060E+03  0.47000000000E+01 0. -1.
         -5   -1    0    0    0  501 -0.00000000000E+00 -0.00000000000E+00 -0.10254176434E+03  0.10264942004E+03  0.47000000000E+01 0.  1.
          6    1    1    2  502    0  0.51556901374E+02  0.25506029302E+02  0.18716719150E+01  0.18137302657E+03  0.17200000000E+03 0.  1.
         -6    1    1    2    0  502 -0.51556901374E+02 -0.25506029302E+02  0.62696001277E+03  0.65266494408E+03  0.17200000000E+03 0. -1.
</event>
<event>
 4    1 -0.6532506E-004  0.1846354E+03  0.7818608E-02  0.1163391E+00
         -5   -1    0    0    0  501 -0.00000000000E+00  0.00000000000E+00  0.35423798595E+03  0.35426916418E+03  0.47000000000E+01 0.  1.
          5   -1    0    0  501    0  0.00000000000E+00 -0.00000000000E+00 -0.22414286637E+03  0.22419213757E+03  0.47000000000E+01 0. -1.
          6    1    1    2  502    0  0.47403643836E+02 -0.47530238875E+02 -0.15346564331E+03  0.24008734397E+03  0.17200000000E+03 0. -1.
         -6    1    1    2    0  502 -0.47403643836E+02  0.47530238875E+02  0.28356076288E+03  0.33837395778E+03  0.17200000000E+03 0.  1.
</event>
<event>
 4    1 -0.6532506E-004  0.3786424E+03  0.7818608E-02  0.1051437E+00
          5   -1    0    0  501    0  0.00000000000E+00  0.00000000000E+00  0.74040538030E+03  0.74042029765E+03  0.47000000000E+01 0. -1.
         -5   -1    0    0    0  501 -0.00000000000E+00 -0.00000000000E+00 -0.32886427896E+03  0.32889786253E+03  0.47000000000E+01 0.  1.
          6    1    1    2  502    0 -0.10866566549E+02  0.33714686787E+03  0.54864363086E+03  0.66661827642E+03  0.17200000000E+03 0. -1.
         -6    1    1    2    0  502  0.10866566549E+02 -0.33714686787E+03 -0.13710252952E+03  0.40269988376E+03  0.17200000000E+03 0.  1.
</event>
<event>
 4    1 -0.6532506E-004  0.3099434E+03  0.7818608E-02  0.1080373E+00
          5   -1    0    0  501    0  0.00000000000E+00  0.00000000000E+00  0.35451822596E+03  0.35454937955E+03  0.47000000000E+01 0. -1.
         -5   -1    0    0    0  501 -0.00000000000E+00 -0.00000000000E+00 -0.29873784742E+03  0.29877481735E+03  0.47000000000E+01 0.  1.
          6    1    1    2  502    0  0.24080142730E+03 -0.92171547873E+02 -0.71798250603E+02  0.31815076680E+03  0.17200000000E+03 0.  1.
         -6    1    1    2    0  502 -0.24080142730E+03  0.92171547873E+02  0.12757862914E+03  0.33517343010E+03  0.17200000000E+03 0. -1.
</event>
<event>
 4    1 -0.6532506E-004  0.1814553E+03  0.7818608E-02  0.1166402E+00
          5   -1    0    0  501    0  0.00000000000E+00  0.00000000000E+00  0.10668784315E+03  0.10679131929E+03  0.47000000000E+01 0. -1.
         -5   -1    0    0    0  501 -0.00000000000E+00 -0.00000000000E+00 -0.33809155524E+03  0.33812422232E+03  0.47000000000E+01 0.  1.
          6    1    1    2  502    0 -0.45865224690E+02 -0.35190937453E+02 -0.18166930988E+03  0.25676790895E+03  0.17200000000E+03 0.  1.
         -6    1    1    2    0  502  0.45865224690E+02  0.35190937453E+02 -0.49734402209E+02  0.18814763267E+03  0.17200000000E+03 0. -1.
</event>
<event>
 4    1 -0.6532506E-004  0.2113539E+03  0.7818608E-02  0.1140498E+00
         -5   -1    0    0    0  501 -0.00000000000E+00  0.00000000000E+00  0.46586711841E+03  0.46589082629E+03  0.47000000000E+01 0.  1.
          5   -1    0    0  501    0  0.00000000000E+00 -0.00000000000E+00 -0.10413843850E+03  0.10424444529E+03  0.47000000000E+01 0. -1.
          6    1    1    2  502    0 -0.83409683140E+02  0.90162707483E+02  0.10026590395E+03  0.23393105941E+03  0.17200000000E+03 0. -1.
         -6    1    1    2    0  502  0.83409683140E+02 -0.90162707483E+02  0.26146277596E+03  0.33620421216E+03  0.17200000000E+03 0. -1.
</event>
<event>
 4    1 -0.6532506E-004  0.2582517E+03  0.7818608E-02  0.1108198E+00
         -5   -1    0    0    0  501 -0.00000000000E+00  0.00000000000E+00  0.11846793522E+04  0.11846886754E+04  0.47000000000E+01 0.  1.
          5   -1    0    0  501    0  0.00000000000E+00 -0.00000000000E+00 -0.56238881290E+02  0.56434933939E+02  0.47000000000E+01 0. -1.
          6    1    1    2  502    0  0.14761623309E+03  0.12377157198E+03  0.58259501003E+03  0.63726831085E+03  0.17200000000E+03 0. -1.
         -6    1    1    2    0  502 -0.14761623309E+03 -0.12377157198E+03  0.54584546088E+03  0.60385529845E+03  0.17200000000E+03 0.  1.
</event>
<event>
 4    1 -0.6532506E-004  0.4851915E+03  0.7818608E-02  0.1017718E+00
         -5   -1    0    0    0  501 -0.00000000000E+00  0.00000000000E+00  0.89627380489E+03  0.89628612805E+03  0.47000000000E+01 0.  1.
          5   -1    0    0  501    0  0.00000000000E+00 -0.00000000000E+00 -0.33257593694E+03  0.33260914575E+03  0.47000000000E+01 0. -1.
          6    1    1    2  502    0  0.61289579352E+02  0.44952240858E+03  0.62823629221E-01  0.48519152126E+03  0.17200000000E+03 0. -1.
         -6    1    1    2    0  502 -0.61289579352E+02 -0.44952240858E+03  0.56363504432E+03  0.74370375254E+03  0.17200000000E+03 0.  1.
</event>
<event>
 4    1 -0.6532506E-004  0.2284304E+03  0.7818608E-02  0.1127749E+00
          5   -1    0    0  501    0  0.00000000000E+00  0.00000000000E+00  0.21071482854E+03  0.21076723883E+03  0.47000000000E+01 0. -1.
         -5   -1    0    0    0  501 -0.00000000000E+00 -0.00000000000E+00 -0.27545623355E+03  0.27549632774E+03  0.47000000000E+01 0.  1.
          6    1    1    2  502    0  0.15736740846E+02  0.14949516047E+03 -0.10977194094E+03  0.25343702775E+03  0.17200000000E+03 0. -1.
         -6    1    1    2    0  502 -0.15736740846E+02 -0.14949516047E+03  0.45030535933E+02  0.23282653883E+03  0.17200000000E+03 0.  1.
</event>
<event>
 4    1 -0.6532506E-004  0.6460803E+03  0.7818608E-02  0.9814162E-01
         -5   -1    0    0    0  501 -0.00000000000E+00  0.00000000000E+00  0.14570536873E+04  0.14570612676E+04  0.47000000000E+01 0.  1.
          5   -1    0    0  501    0  0.00000000000E+00 -0.00000000000E+00 -0.42317001708E+03  0.42319611689E+03  0.47000000000E+01 0. -1.
          6    1    1    2  502    0 -0.59819568617E+03  0.17319851419E+03 -0.17398908240E+02  0.64631457223E+03  0.17200000000E+03 0. -1.
         -6    1    1    2    0  502  0.59819568617E+03 -0.17319851419E+03  0.10512825784E+04  0.12339428123E+04  0.17200000000E+03 0.  1.
</event>
<event>
 4    1 -0.6532506E-004  0.2156801E+03  0.7818608E-02  0.1137145E+00
         -5   -1    0    0    0  501 -0.00000000000E+00  0.00000000000E+00  0.67160632650E+03  0.67162277194E+03  0.47000000000E+01 0.  1.
          5   -1    0    0  501    0  0.00000000000E+00 -0.00000000000E+00 -0.12924147930E+03  0.12932691124E+03  0.47000000000E+01 0. -1.
          6    1    1    2  502    0 -0.67643260210E+02  0.11116779289E+03 -0.17075100566E+01  0.21568682022E+03  0.17200000000E+03 0. -1.
         -6    1    1    2    0  502  0.67643260210E+02 -0.11116779289E+03  0.54407235726E+03  0.58526286296E+03  0.17200000000E+03 0.  1.
</event>
<event>
 4    1 -0.6532506E-004  0.2181116E+03  0.7818608E-02  0.1135299E+00
          5   -1    0    0  501    0  0.00000000000E+00  0.00000000000E+00  0.30196785379E+03  0.30200442832E+03  0.47000000000E+01 0. -1.
         -5   -1    0    0    0  501 -0.00000000000E+00 -0.00000000000E+00 -0.17975818776E+03  0.17981962092E+03  0.47000000000E+01 0.  1.
          6    1    1    2  502    0  0.11506321867E+03 -0.68913925514E+02  0.14592821597E+03  0.26242659476E+03  0.17200000000E+03 0.  1.
         -6    1    1    2    0  502 -0.11506321867E+03  0.68913925514E+02 -0.23718549944E+02  0.21939745448E+03  0.17200000000E+03 0.  1.
</event>
<event>
 4    1 -0.6532506E-004  0.2399462E+03  0.7818608E-02  0.1119829E+00
          5   -1    0    0  501    0  0.00000000000E+00  0.00000000000E+00  0.26139114160E+03  0.26143339287E+03  0.47000000000E+01 0. -1.
         -5   -1    0    0    0  501 -0.00000000000E+00 -0.00000000000E+00 -0.25353968418E+03  0.25358324364E+03  0.47000000000E+01 0.  1.
          6    1    1    2  502    0 -0.15181322238E+03 -0.70305996672E+02  0.97322528904E+02  0.25893215770E+03  0.17200000000E+03 0. -1.
         -6    1    1    2    0  502  0.15181322238E+03  0.70305996672E+02 -0.89471071478E+02  0.25608447881E+03  0.17200000000E+03 0.  1.
</event>
<event>
 4    1 -0.6532506E-004  0.2383675E+03  0.7818608E-02  0.1120885E+00
          5   -1    0    0  501    0  0.00000000000E+00  0.00000000000E+00  0.82193976800E+02  0.82328244377E+02  0.47000000000E+01 0. -1.
         -5   -1    0    0    0  501 -0.00000000000E+00 -0.00000000000E+00 -0.69176800139E+03  0.69178396754E+03  0.47000000000E+01 0.  1.
          6    1    1    2  502    0  0.22047510138E+02  0.16355107078E+03 -0.32086908378E+03  0.39971991993E+03  0.17200000000E+03 0. -1.
         -6    1    1    2    0  502 -0.22047510138E+02 -0.16355107078E+03 -0.28870494081E+03  0.37439229199E+03  0.17200000000E+03 0.  1.
</event>
<event>
 4    1 -0.6532506E-004  0.2245265E+03  0.7818608E-02  0.1130553E+00
         -5   -1    0    0    0  501 -0.00000000000E+00  0.00000000000E+00  0.16509022129E+02  0.17165017089E+02  0.47000000000E+01 0.  1.
          5   -1    0    0  501    0  0.00000000000E+00 -0.00000000000E+00 -0.30113719215E+04  0.30113755893E+04  0.47000000000E+01 0. -1.
          6    1    1    2  502    0 -0.14431966752E+03  0.60441565616E-01 -0.16141762733E+04  0.16297169114E+04  0.17200000000E+03 0. -1.
         -6    1    1    2    0  502  0.14431966752E+03 -0.60441565616E-01 -0.13806866261E+04  0.13988236950E+04  0.17200000000E+03 0.  1.
</event>
<event>
 4    1 -0.6532506E-004  0.3745726E+03  0.7818608E-02  0.1052958E+00
         -5   -1    0    0    0  501 -0.00000000000E+00  0.00000000000E+00  0.20059995031E+04  0.20060050091E+04  0.47000000000E+01 0.  1.
          5   -1    0    0  501    0  0.00000000000E+00 -0.00000000000E+00 -0.69902088717E+02  0.70059917264E+02  0.47000000000E+01 0. -1.
          6    1    1    2  502    0 -0.28569745656E+03  0.17058013720E+03  0.99410717444E+03  0.10623340784E+04  0.17200000000E+03 0. -1.
         -6    1    1    2    0  502  0.28569745656E+03 -0.17058013720E+03  0.94199023998E+03  0.10137308480E+04  0.17200000000E+03 0. -1.
</event>
<event>
 4    1 -0.6532506E-004  0.1751634E+03  0.7818608E-02  0.1172568E+00
          5   -1    0    0  501    0  0.00000000000E+00  0.00000000000E+00  0.13069023177E+04  0.13069107689E+04  0.47000000000E+01 0. -1.
         -5   -1    0    0    0  501 -0.00000000000E+00 -0.00000000000E+00 -0.30121989003E+02  0.30486459642E+02  0.47000000000E+01 0.  1.
          6    1    1    2  502    0  0.10897865693E+01  0.33121446547E+02  0.95593838322E+03  0.97185410961E+03  0.17200000000E+03 0. -1.
         -6    1    1    2    0  502 -0.10897865693E+01 -0.33121446547E+02  0.32084194544E+03  0.36554311895E+03  0.17200000000E+03 0.  1.
</event>
<event>
 4    1 -0.6532506E-004  0.1907132E+03  0.7818608E-02  0.1157820E+00
          5   -1    0    0  501    0  0.00000000000E+00  0.00000000000E+00  0.32957390613E+03  0.32960741739E+03  0.47000000000E+01 0. -1.
         -5   -1    0    0    0  501 -0.00000000000E+00 -0.00000000000E+00 -0.11288152627E+03  0.11297932985E+03  0.47000000000E+01 0.  1.
          6    1    1    2  502    0  0.59878327352E+02 -0.56587259927E+02  0.14198519458E+03  0.23776317535E+03  0.17200000000E+03 0.  1.
         -6    1    1    2    0  502 -0.59878327352E+02  0.56587259927E+02  0.74707185279E+02  0.20482357190E+03  0.17200000000E+03 0.  1.
</event>
<event>
 4    1 -0.6532506E-004  0.2442221E+03  0.7818608E-02  0.1117012E+00
          5   -1    0    0  501    0  0.00000000000E+00  0.00000000000E+00  0.14330626399E+03  0.14338331597E+03  0.47000000000E+01 0. -1.
         -5   -1    0    0    0  501 -0.00000000000E+00 -0.00000000000E+00 -0.47069713770E+03  0.47072060231E+03  0.47000000000E+01 0.  1.
          6    1    1    2  502    0 -0.10666627665E+03 -0.13668482812E+03 -0.26835399972E+03  0.36284749686E+03  0.17200000000E+03 0.  1.
         -6    1    1    2    0  502  0.10666627665E+03  0.13668482812E+03 -0.59036873994E+02  0.25125642142E+03  0.17200000000E+03 0.  1.
</event>
<event>
 4    1 -0.6532506E-004  0.1791536E+03  0.7818608E-02  0.1168625E+00
          5   -1    0    0  501    0  0.00000000000E+00  0.00000000000E+00  0.13140707556E+03  0.13149110048E+03  0.47000000000E+01 0. -1.
         -5   -1    0    0    0  501 -0.00000000000E+00 -0.00000000000E+00 -0.36536709805E+03  0.36539732667E+03  0.47000000000E+01 0.  1.
          6    1    1    2  502    0 -0.34310641000E+02  0.36534857958E+02  0.26148999961E+02  0.18105188795E+03  0.17200000000E+03 0. -1.
         -6    1    1    2    0  502  0.34310641000E+02 -0.36534857958E+02 -0.26010902246E+03  0.31583653921E+03  0.17200000000E+03 0.  1.
</event>
<event>
 4    1 -0.6532506E-004  0.2325110E+03  0.7818608E-02  0.1124885E+00
          5   -1    0    0  501    0  0.00000000000E+00  0.00000000000E+00  0.33153591985E+03  0.33156923282E+03  0.47000000000E+01 0. -1.
         -5   -1    0    0    0  501 -0.00000000000E+00 -0.00000000000E+00 -0.25931855513E+03  0.25936114404E+03  0.47000000000E+01 0.  1.
          6    1    1    2  502    0  0.70440030453E+02 -0.13969820561E+03  0.21616043159E+03  0.31746924060E+03  0.17200000000E+03 0. -1.
         -6    1    1    2    0  502 -0.70440030453E+02  0.13969820561E+03 -0.14394306688E+03  0.27346113626E+03  0.17200000000E+03 0.  1.
</event>
<event>
 4    1 -0.6532506E-004  0.1797431E+03  0.7818608E-02  0.1168052E+00
          5   -1    0    0  501    0  0.00000000000E+00  0.00000000000E+00  0.18226626046E+04  0.18226686644E+04  0.47000000000E+01 0. -1.
         -5   -1    0    0    0  501 -0.00000000000E+00 -0.00000000000E+00 -0.17413162535E+02  0.18036303099E+02  0.47000000000E+01 0.  1.
          6    1    1    2  502    0  0.71495045108E+01 -0.51696059935E+02  0.88667215279E+03  0.90470719272E+03  0.17200000000E+03 0. -1.
         -6    1    1    2    0  502 -0.71495045108E+01  0.51696059935E+02  0.91857728923E+03  0.93599777474E+03  0.17200000000E+03 0. -1.
</event>
<event>
 4    1 -0.6532506E-004  0.4061669E+03  0.7818608E-02  0.1041665E+00
          5   -1    0    0  501    0  0.00000000000E+00  0.00000000000E+00  0.95781844827E+03  0.95782997962E+03  0.47000000000E+01 0. -1.
         -5   -1    0    0    0  501 -0.00000000000E+00 -0.00000000000E+00 -0.18522299239E+03  0.18528261362E+03  0.47000000000E+01 0.  1.
          6    1    1    2  502    0  0.18461186560E+03 -0.31828602023E+03  0.53786743850E+03  0.67399770993E+03  0.17200000000E+03 0. -1.
         -6    1    1    2    0  502 -0.18461186560E+03  0.31828602023E+03  0.23472801738E+03  0.46911488330E+03  0.17200000000E+03 0.  1.
</event>
<event>
 4    1 -0.6532506E-004  0.3665500E+03  0.7818608E-02  0.1056020E+00
         -5   -1    0    0    0  501 -0.00000000000E+00  0.00000000000E+00  0.94666363659E+02  0.94782964758E+02  0.47000000000E+01 0.  1.
          5   -1    0    0  501    0  0.00000000000E+00 -0.00000000000E+00 -0.14616643332E+04  0.14616718896E+04  0.47000000000E+01 0. -1.
          6    1    1    2  502    0  0.32228621167E+03  0.30108445793E+02 -0.81754570624E+03  0.89595753389E+03  0.17200000000E+03 0. -1.
         -6    1    1    2    0  502 -0.32228621167E+03 -0.30108445793E+02 -0.54945226329E+03  0.66049732049E+03  0.17200000000E+03 0.  1.
</event>
<event>
 4    1 -0.6532506E-004  0.2576816E+03  0.7818608E-02  0.1108544E+00
          5   -1    0    0  501    0  0.00000000000E+00  0.00000000000E+00  0.11400279087E+03  0.11409963333E+03  0.47000000000E+01 0. -1.
         -5   -1    0    0    0  501 -0.00000000000E+00 -0.00000000000E+00 -0.58208722093E+03  0.58210619544E+03  0.47000000000E+01 0.  1.
          6    1    1    2  502    0 -0.11959097926E+03 -0.15004596260E+03 -0.23444152439E+03  0.34837138455E+03  0.17200000000E+03 0. -1.
         -6    1    1    2    0  502  0.11959097926E+03  0.15004596260E+03 -0.23364290567E+03  0.34783444422E+03  0.17200000000E+03 0.  1.
</event>
<event>
 4    1 -0.6532506E-004  0.4921811E+03  0.7818608E-02  0.1015840E+00
          5   -1    0    0  501    0  0.00000000000E+00  0.00000000000E+00  0.13881490348E+04  0.13881569914E+04  0.47000000000E+01 0. -1.
         -5   -1    0    0    0  501 -0.00000000000E+00 -0.00000000000E+00 -0.20089207569E+03  0.20094704794E+03  0.47000000000E+01 0.  1.
          6    1    1    2  502    0  0.40727973131E+03  0.21629029511E+03  0.88174898077E+03  0.10098136147E+04  0.17200000000E+03 0. -1.
         -6    1    1    2    0  502 -0.40727973131E+03 -0.21629029511E+03  0.30550797836E+03  0.57929042469E+03  0.17200000000E+03 0.  1.
</event>
<event>
 4    1 -0.6532506E-004  0.2918627E+03  0.7818608E-02  0.1089381E+00
          5   -1    0    0  501    0  0.00000000000E+00  0.00000000000E+00  0.12855432683E+03  0.12864021512E+03  0.47000000000E+01 0. -1.
         -5   -1    0    0    0  501 -0.00000000000E+00 -0.00000000000E+00 -0.14010380651E+04  0.14010459485E+04  0.47000000000E+01 0.  1.
          6    1    1    2  502    0 -0.68856783267E+02  0.22551842366E+03 -0.80883329992E+02  0.30286288826E+03  0.17200000000E+03 0. -1.
         -6    1    1    2    0  502  0.68856783267E+02 -0.22551842366E+03 -0.11916004082E+04  0.12268232753E+04  0.17200000000E+03 0.  1.
</event>
<event>
 4    1 -0.6532506E-004  0.3881287E+03  0.7818608E-02  0.1047970E+00
          5   -1    0    0  501    0  0.00000000000E+00  0.00000000000E+00  0.39092630296E+03  0.39095455534E+03  0.47000000000E+01 0. -1.
         -5   -1    0    0    0  501 -0.00000000000E+00 -0.00000000000E+00 -0.55619369092E+03  0.55621354875E+03  0.47000000000E+01 0.  1.
          6    1    1    2  502    0 -0.29608978914E+03  0.18273124607E+03  0.17986881399E+03  0.42778109095E+03  0.17200000000E+03 0. -1.
         -6    1    1    2    0  502  0.29608978914E+03 -0.18273124607E+03 -0.34513620195E+03  0.51938701314E+03  0.17200000000E+03 0.  1.
</event>
<event>
 4    1 -0.6532506E-004  0.1861503E+03  0.7818608E-02  0.1161980E+00
          5   -1    0    0  501    0  0.00000000000E+00  0.00000000000E+00  0.75506648754E+03  0.75508111525E+03  0.47000000000E+01 0. -1.
         -5   -1    0    0    0  501 -0.00000000000E+00 -0.00000000000E+00 -0.53751486560E+02  0.53956577981E+02  0.47000000000E+01 0.  1.
          6    1    1    2  502    0  0.56608722462E+02  0.43167173849E+02  0.50631764696E+03  0.53945297476E+03  0.17200000000E+03 0. -1.
         -6    1    1    2    0  502 -0.56608722462E+02 -0.43167173849E+02  0.19499735402E+03  0.26958471847E+03  0.17200000000E+03 0. -1.
</event>
<event>
 4    1 -0.6532506E-004  0.2052405E+03  0.7818608E-02  0.1145391E+00
         -5   -1    0    0    0  501 -0.00000000000E+00  0.00000000000E+00  0.22219664954E+03  0.22224635220E+03  0.47000000000E+01 0.  1.
          5   -1    0    0  501    0  0.00000000000E+00 -0.00000000000E+00 -0.31347780295E+03  0.31351303473E+03  0.47000000000E+01 0. -1.
          6    1    1    2  502    0  0.10982749120E+03 -0.21854043585E+02 -0.21409387848E+03  0.29658028567E+03  0.17200000000E+03 0. -1.
         -6    1    1    2    0  502 -0.10982749120E+03  0.21854043585E+02  0.12281272506E+03  0.23917910126E+03  0.17200000000E+03 0.  1.
</event>
<event>
 4    1 -0.6532506E-004  0.4714373E+03  0.7818608E-02  0.1021515E+00
          5   -1    0    0  501    0  0.00000000000E+00  0.00000000000E+00  0.14552475632E+03  0.14560063428E+03  0.47000000000E+01 0. -1.
         -5   -1    0    0    0  501 -0.00000000000E+00 -0.00000000000E+00 -0.15397074603E+04  0.15397146337E+04  0.47000000000E+01 0.  1.
          6    1    1    2  502    0  0.38859208275E+03  0.20412074272E+03 -0.77431629783E+03  0.90654222928E+03  0.17200000000E+03 0. -1.
         -6    1    1    2    0  502 -0.38859208275E+03 -0.20412074272E+03 -0.61986640616E+03  0.77877303874E+03  0.17200000000E+03 0.  1.
</event>
<event>
 4    1 -0.6532506E-004  0.1782192E+03  0.7818608E-02  0.1169538E+00
         -5   -1    0    0    0  501 -0.00000000000E+00  0.00000000000E+00  0.13456767754E+03  0.13464973019E+03  0.47000000000E+01 0.  1.
          5   -1    0    0  501    0  0.00000000000E+00 -0.00000000000E+00 -0.23587278429E+03  0.23591960573E+03  0.47000000000E+01 0. -1.
          6    1    1    2  502    0 -0.46657704503E+02 -0.10696029918E+01 -0.52342210508E+02  0.18574658124E+03  0.17200000000E+03 0. -1.
         -6    1    1    2    0  502  0.46657704503E+02  0.10696029918E+01 -0.48962896236E+02  0.18482275468E+03  0.17200000000E+03 0.  1.
</event>
<event>
 4    1 -0.6532506E-004  0.4968515E+03  0.7818608E-02  0.1014604E+00
          5   -1    0    0  501    0  0.00000000000E+00  0.00000000000E+00  0.99498768467E+03  0.99499878525E+03  0.47000000000E+01 0. -1.
         -5   -1    0    0    0  501 -0.00000000000E+00 -0.00000000000E+00 -0.26114532687E+03  0.26118761791E+03  0.47000000000E+01 0.  1.
          6    1    1    2  502    0 -0.46289429653E+03  0.54829177607E+02  0.22639393435E+03  0.54599961720E+03  0.17200000000E+03 0. -1.
         -6    1    1    2    0  502  0.46289429653E+03 -0.54829177607E+02  0.50744842345E+03  0.71018678595E+03  0.17200000000E+03 0.  1.
</event>
<event>
 4    1 -0.6532506E-004  0.2372969E+03  0.7818608E-02  0.1121607E+00
          5   -1    0    0  501    0  0.00000000000E+00  0.00000000000E+00  0.15870352338E+03  0.15877310330E+03  0.47000000000E+01 0. -1.
         -5   -1    0    0    0  501 -0.00000000000E+00 -0.00000000000E+00 -0.45764421910E+03  0.45766835293E+03  0.47000000000E+01 0.  1.
          6    1    1    2  502    0  0.99812854528E+02  0.12947289898E+03 -0.32657250364E+01  0.23731941020E+03  0.17200000000E+03 0. -1.
         -6    1    1    2    0  502 -0.99812854528E+02 -0.12947289898E+03 -0.29567497068E+03  0.37912204603E+03  0.17200000000E+03 0.  1.
</event>
<event>
 4    1 -0.6532506E-004  0.2020948E+03  0.7818608E-02  0.1147984E+00
          5   -1    0    0  501    0  0.00000000000E+00  0.00000000000E+00  0.33891461806E+02  0.34215803123E+02  0.47000000000E+01 0. -1.
         -5   -1    0    0    0  501 -0.00000000000E+00 -0.00000000000E+00 -0.12185877667E+04  0.12185968304E+04  0.47000000000E+01 0.  1.
          6    1    1    2  502    0  0.99391662513E+02  0.37142985229E+02 -0.51298818724E+03  0.55136121026E+03  0.17200000000E+03 0.  1.
         -6    1    1    2    0  502 -0.99391662513E+02 -0.37142985229E+02 -0.67170811762E+03  0.70145142327E+03  0.17200000000E+03 0. -1.
</event>
<event>
 4    1 -0.6532506E-004  0.1982568E+03  0.7818608E-02  0.1151218E+00
          5   -1    0    0  501    0  0.00000000000E+00  0.00000000000E+00  0.17392144180E+03  0.17398493589E+03  0.47000000000E+01 0. -1.
         -5   -1    0    0    0  501 -0.00000000000E+00 -0.00000000000E+00 -0.25074858337E+03  0.25079262760E+03  0.47000000000E+01 0.  1.
          6    1    1    2  502    0 -0.62939909918E+01 -0.98397879909E+02  0.28474304737E+02  0.20029114589E+03  0.17200000000E+03 0. -1.
         -6    1    1    2    0  502  0.62939909918E+01  0.98397879909E+02 -0.10530144631E+03  0.22448641760E+03  0.17200000000E+03 0. -1.
</event>
<event>
 4    1 -0.6532506E-004  0.3576585E+03  0.7818608E-02  0.1059515E+00
         -5   -1    0    0    0  501 -0.00000000000E+00  0.00000000000E+00  0.14362530286E+04  0.14362607188E+04  0.47000000000E+01 0.  1.
          5   -1    0    0  501    0  0.00000000000E+00 -0.00000000000E+00 -0.14527622424E+03  0.14535223193E+03  0.47000000000E+01 0. -1.
          6    1    1    2  502    0  0.29075388455E+03 -0.11746407486E+03  0.15345543125E+03  0.38918915664E+03  0.17200000000E+03 0. -1.
         -6    1    1    2    0  502 -0.29075388455E+03  0.11746407486E+03  0.11375213731E+04  0.11924237941E+04  0.17200000000E+03 0.  1.
</event>
<event>
 4    1 -0.6532506E-004  0.2066350E+03  0.7818608E-02  0.1144259E+00
         -5   -1    0    0    0  501 -0.00000000000E+00  0.00000000000E+00  0.13551554017E+03  0.13559701924E+03  0.47000000000E+01 0.  1.
          5   -1    0    0  501    0  0.00000000000E+00 -0.00000000000E+00 -0.43476194407E+03  0.43478734804E+03  0.47000000000E+01 0. -1.
          6    1    1    2  502    0  0.62077556444E+02 -0.96231055047E+02 -0.29935850312E+03  0.36374929878E+03  0.17200000000E+03 0. -1.
         -6    1    1    2    0  502 -0.62077556444E+02  0.96231055047E+02  0.11209921476E+00  0.20663506850E+03  0.17200000000E+03 0.  1.
</event>
<event>
 4    1 -0.6532506E-004  0.8178442E+03  0.7818608E-02  0.9534541E-01
         -5   -1    0    0    0  501 -0.00000000000E+00  0.00000000000E+00  0.72163624151E+03  0.72165154684E+03  0.47000000000E+01 0.  1.
          5   -1    0    0  501    0  0.00000000000E+00 -0.00000000000E+00 -0.14884435695E+04  0.14884509900E+04  0.47000000000E+01 0. -1.
          6    1    1    2  502    0 -0.47030361161E+03  0.64660631628E+03 -0.10621767440E+04  0.13405553516E+04  0.17200000000E+03 0. -1.
         -6    1    1    2    0  502  0.47030361161E+03 -0.64660631628E+03  0.29536941600E+03  0.86954718518E+03  0.17200000000E+03 0.  1.
</event>
<event>
 4    1 -0.6532506E-004  0.2149388E+03  0.7818608E-02  0.1137714E+00
          5   -1    0    0  501    0  0.00000000000E+00  0.00000000000E+00  0.52825782676E+03  0.52827873469E+03  0.47000000000E+01 0. -1.
         -5   -1    0    0    0  501 -0.00000000000E+00 -0.00000000000E+00 -0.98031762912E+02  0.98144365807E+02  0.47000000000E+01 0.  1.
          6    1    1    2  502    0 -0.10921506088E+03  0.68460029241E+02  0.31833631902E+03  0.38410508606E+03  0.17200000000E+03 0. -1.
         -6    1    1    2    0  502  0.10921506088E+03 -0.68460029241E+02  0.11188974482E+03  0.24231801444E+03  0.17200000000E+03 0.  1.
</event>
<event>
 4    1 -0.6532506E-004  0.3090387E+03  0.7818608E-02  0.1080808E+00
         -5   -1    0    0    0  501 -0.00000000000E+00  0.00000000000E+00  0.15941218497E+03  0.15948145571E+03  0.47000000000E+01 0.  1.
          5   -1    0    0  501    0  0.00000000000E+00 -0.00000000000E+00 -0.70153130731E+03  0.70154705126E+03  0.47000000000E+01 0. -1.
          6    1    1    2  502    0  0.12628828383E+03  0.22354460168E+03 -0.43571691872E+03  0.53418550413E+03  0.17200000000E+03 0. -1.
         -6    1    1    2    0  502 -0.12628828383E+03 -0.22354460168E+03 -0.10640220362E+03  0.32684300284E+03  0.17200000000E+03 0.  1.
</event>
<event>
 4    1 -0.6532506E-004  0.1840277E+03  0.7818608E-02  0.1163961E+00
         -5   -1    0    0    0  501 -0.00000000000E+00  0.00000000000E+00  0.46070115072E+03  0.46072512442E+03  0.47000000000E+01 0.  1.
          5   -1    0    0  501    0  0.00000000000E+00 -0.00000000000E+00 -0.73538376351E+02  0.73688416975E+02  0.47000000000E+01 0. -1.
          6    1    1    2  502    0  0.15949741144E+02  0.63464806993E+02  0.20477439617E+03  0.27531569025E+03  0.17200000000E+03 0. -1.
         -6    1    1    2    0  502 -0.15949741144E+02 -0.63464806993E+02  0.18238837820E+03  0.25909785115E+03  0.17200000000E+03 0.  1.
</event>
<event>
 4    1 -0.6532506E-004  0.2694576E+03  0.7818608E-02  0.1101590E+00
         -5   -1    0    0    0  501 -0.00000000000E+00  0.00000000000E+00  0.68224687568E+03  0.68226306464E+03  0.47000000000E+01 0.  1.
          5   -1    0    0  501    0  0.00000000000E+00 -0.00000000000E+00 -0.12741572796E+03  0.12750238324E+03  0.47000000000E+01 0. -1.
          6    1    1    2  502    0 -0.20396408480E+03  0.37710341497E+02  0.11287667176E+03  0.29214475996E+03  0.17200000000E+03 0. -1.
         -6    1    1    2    0  502  0.20396408480E+03 -0.37710341497E+02  0.44195447596E+03  0.51762068792E+03  0.17200000000E+03 0.  1.
</event>
<event>
 4    1 -0.6532506E-004  0.2612748E+03  0.7818608E-02  0.1106380E+00
         -5   -1    0    0    0  501 -0.00000000000E+00  0.00000000000E+00  0.76139922469E+02  0.76284846421E+02  0.47000000000E+01 0.  1.
          5   -1    0    0  501    0  0.00000000000E+00 -0.00000000000E+00 -0.21388415859E+04  0.21388467499E+04  0.47000000000E+01 0. -1.
          6    1    1    2  502    0 -0.34733558097E+02 -0.19358233917E+03 -0.18757518936E+04  0.18938610584E+04  0.17200000000E+03 0. -1.
         -6    1    1    2    0  502  0.34733558097E+02  0.19358233917E+03 -0.18694976977E+03  0.32127053788E+03  0.17200000000E+03 0.  1.
</event>
<event>
 4    1 -0.6532506E-004  0.2993938E+03  0.7818608E-02  0.1085544E+00
          5   -1    0    0  501    0  0.00000000000E+00  0.00000000000E+00  0.53318034872E+03  0.53320106364E+03  0.47000000000E+01 0. -1.
         -5   -1    0    0    0  501 -0.00000000000E+00 -0.00000000000E+00 -0.33202144987E+03  0.33205471413E+03  0.47000000000E+01 0.  1.
          6    1    1    2  502    0  0.22894048409E+03 -0.87400732691E+02  0.40456735571E+03  0.50330048543E+03  0.17200000000E+03 0. -1.
         -6    1    1    2    0  502 -0.22894048409E+03  0.87400732691E+02 -0.20340845686E+03  0.36195529234E+03  0.17200000000E+03 0.  1.
</event>
<event>
 4    1 -0.6532506E-004  0.1806489E+03  0.7818608E-02  0.1167177E+00
          5   -1    0    0  501    0  0.00000000000E+00  0.00000000000E+00  0.45126298717E+03  0.45128746225E+03  0.47000000000E+01 0. -1.
         -5   -1    0    0    0  501 -0.00000000000E+00 -0.00000000000E+00 -0.72214507918E+02  0.72367293398E+02  0.47000000000E+01 0.  1.
          6    1    1    2  502    0 -0.39327079746E+02 -0.38773687700E+02  0.19002697359E+03  0.26219128276E+03  0.17200000000E+03 0.  1.
         -6    1    1    2    0  502  0.39327079746E+02  0.38773687700E+02  0.18902150566E+03  0.26146347290E+03  0.17200000000E+03 0. -1.
</event>
<event>
 4    1 -0.6532506E-004  0.4429608E+03  0.7818608E-02  0.1029842E+00
          5   -1    0    0  501    0  0.00000000000E+00  0.00000000000E+00  0.60419168033E+03  0.60420996068E+03  0.47000000000E+01 0. -1.
         -5   -1    0    0    0  501 -0.00000000000E+00 -0.00000000000E+00 -0.33332260511E+03  0.33335573953E+03  0.47000000000E+01 0.  1.
          6    1    1    2  502    0  0.11524344794E+03 -0.39159825580E+03  0.60107183152E+02  0.44702026767E+03  0.17200000000E+03 0. -1.
         -6    1    1    2    0  502 -0.11524344794E+03  0.39159825580E+03  0.21076189207E+03  0.49054543254E+03  0.17200000000E+03 0.  1.
</event>
<event>
 4    1 -0.6532506E-004  0.1778373E+03  0.7818608E-02  0.1169913E+00
         -5   -1    0    0    0  501 -0.00000000000E+00  0.00000000000E+00  0.22646643457E+03  0.22651520035E+03  0.47000000000E+01 0.  1.
          5   -1    0    0  501    0  0.00000000000E+00 -0.00000000000E+00 -0.15090095020E+03  0.15097412616E+03  0.47000000000E+01 0. -1.
          6    1    1    2  502    0 -0.20798565985E+02 -0.40119098921E+02 -0.13968685318E+02  0.17838510760E+03  0.17200000000E+03 0. -1.
         -6    1    1    2    0  502  0.20798565985E+02  0.40119098921E+02  0.89534169693E+02  0.19910421891E+03  0.17200000000E+03 0.  1.
</event>
<event>
 4    1 -0.6532506E-004  0.2221504E+03  0.7818608E-02  0.1132290E+00
         -5   -1    0    0    0  501 -0.00000000000E+00  0.00000000000E+00  0.12778870813E+04  0.12778957244E+04  0.47000000000E+01 0.  1.
          5   -1    0    0  501    0  0.00000000000E+00 -0.00000000000E+00 -0.41841719576E+02  0.42104863104E+02  0.47000000000E+01 0. -1.
          6    1    1    2  502    0 -0.10399392875E+03 -0.94615419237E+02  0.80482223691E+03  0.83491894684E+03  0.17200000000E+03 0. -1.
         -6    1    1    2    0  502  0.10399392875E+03  0.94615419237E+02  0.43122312480E+03  0.48508164069E+03  0.17200000000E+03 0.  1.
</event>
<event>
 4    1 -0.6532506E-004  0.2493154E+03  0.7818608E-02  0.1113738E+00
         -5   -1    0    0    0  501 -0.00000000000E+00  0.00000000000E+00  0.45419350644E+03  0.45421782362E+03  0.47000000000E+01 0.  1.
          5   -1    0    0  501    0  0.00000000000E+00 -0.00000000000E+00 -0.23811343560E+03  0.23815981653E+03  0.47000000000E+01 0. -1.
          6    1    1    2  502    0  0.90826843003E+02 -0.15596369163E+03 -0.11775026002E+03  0.27572325301E+03  0.17200000000E+03 0. -1.
         -6    1    1    2    0  502 -0.90826843003E+02  0.15596369163E+03  0.33383033087E+03  0.41665438714E+03  0.17200000000E+03 0.  1.
</event>
<event>
 4    1 -0.6532506E-004  0.1888334E+03  0.7818608E-02  0.1159518E+00
         -5   -1    0    0    0  501 -0.00000000000E+00  0.00000000000E+00  0.78584184221E+03  0.78585589708E+03  0.47000000000E+01 0.  1.
          5   -1    0    0  501    0  0.00000000000E+00 -0.00000000000E+00 -0.50970918641E+02  0.51187152168E+02  0.47000000000E+01 0. -1.
          6    1    1    2  502    0 -0.16739008933E+02 -0.76117351614E+02  0.50744410506E+03  0.54144026947E+03  0.17200000000E+03 0.  1.
         -6    1    1    2    0  502  0.16739008933E+02  0.76117351614E+02  0.22742681851E+03  0.29560277978E+03  0.17200000000E+03 0. -1.
</event>
<event>
 4    1 -0.6532506E-004  0.6757077E+03  0.7818608E-02  0.9759701E-01
         -5   -1    0    0    0  501 -0.00000000000E+00  0.00000000000E+00  0.37388043659E+03  0.37390997695E+03  0.47000000000E+01 0.  1.
          5   -1    0    0  501    0  0.00000000000E+00 -0.00000000000E+00 -0.18863439017E+04  0.18863497569E+04  0.47000000000E+01 0. -1.
          6    1    1    2  502    0 -0.53155530043E+03 -0.38006036334E+03 -0.14273514019E+04  0.15792127601E+04  0.17200000000E+03 0. -1.
         -6    1    1    2    0  502  0.53155530043E+03  0.38006036334E+03 -0.85112063218E+02  0.68104697379E+03  0.17200000000E+03 0.  1.
</event>
<event>
 4    1 -0.6532506E-004  0.2824194E+03  0.7818608E-02  0.1094375E+00
         -5   -1    0    0    0  501 -0.00000000000E+00  0.00000000000E+00  0.31443460437E+03  0.31446972895E+03  0.47000000000E+01 0.  1.
          5   -1    0    0  501    0  0.00000000000E+00 -0.00000000000E+00 -0.42413044054E+03  0.42415648126E+03  0.47000000000E+01 0. -1.
          6    1    1    2  502    0 -0.21524769217E+03 -0.62009047661E+02 -0.28901150064E+03  0.40408951790E+03  0.17200000000E+03 0. -1.
         -6    1    1    2    0  502  0.21524769217E+03  0.62009047661E+02  0.17931566446E+03  0.33453669230E+03  0.17200000000E+03 0.  1.
</event>
<event>
 4    1 -0.6532506E-004  0.2021338E+03  0.7818608E-02  0.1147951E+00
         -5   -1    0    0    0  501 -0.00000000000E+00  0.00000000000E+00  0.58091039867E+03  0.58092941162E+03  0.47000000000E+01 0.  1.
          5   -1    0    0  501    0  0.00000000000E+00 -0.00000000000E+00 -0.77206367163E+02  0.77349293019E+02  0.47000000000E+01 0. -1.
          6    1    1    2  502    0 -0.34395478986E+02  0.10045411098E+03  0.35064149417E+03  0.40473143543E+03  0.17200000000E+03 0.  1.
         -6    1    1    2    0  502  0.34395478986E+02 -0.10045411098E+03  0.15306253734E+03  0.25354726921E+03  0.17200000000E+03 0.  1.
</event>
<event>
 4    1 -0.6532506E-004  0.1765520E+03  0.7818608E-02  0.1171182E+00
         -5   -1    0    0    0  501 -0.00000000000E+00  0.00000000000E+00  0.23278067564E+02  0.23747808942E+02  0.47000000000E+01 0.  1.
          5   -1    0    0  501    0  0.00000000000E+00 -0.00000000000E+00 -0.13805125534E+04  0.13805205541E+04  0.47000000000E+01 0. -1.
          6    1    1    2  502    0 -0.27586821846E+02  0.28732960783E+02 -0.53810454513E+03  0.56632774721E+03  0.17200000000E+03 0.  1.
         -6    1    1    2    0  502  0.27586821846E+02 -0.28732960783E+02 -0.81912994075E+03  0.83794061580E+03  0.17200000000E+03 0. -1.
</event>
<event>
 4    1 -0.6532506E-004  0.2415201E+03  0.7818608E-02  0.1118784E+00
         -5   -1    0    0    0  501 -0.00000000000E+00  0.00000000000E+00  0.82523238750E+02  0.82656971477E+02  0.47000000000E+01 0.  1.
          5   -1    0    0  501    0  0.00000000000E+00 -0.00000000000E+00 -0.10095524688E+04  0.10095634092E+04  0.47000000000E+01 0. -1.
          6    1    1    2  502    0 -0.21017358485E+02  0.16824451679E+03 -0.76287907509E+03  0.80019774431E+03  0.17200000000E+03 0. -1.
         -6    1    1    2    0  502  0.21017358485E+02 -0.16824451679E+03 -0.16415015492E+03  0.29202263636E+03  0.17200000000E+03 0.  1.
</event>
<event>
 4    1 -0.6532506E-004  0.1748187E+03  0.7818608E-02  0.1172914E+00
         -5   -1    0    0    0  501 -0.00000000000E+00  0.00000000000E+00  0.28186794951E+03  0.28190713180E+03  0.47000000000E+01 0.  1.
          5   -1    0    0  501    0  0.00000000000E+00 -0.00000000000E+00 -0.10845247207E+03  0.10855426615E+03  0.47000000000E+01 0. -1.
          6    1    1    2  502    0  0.94546970142E+00 -0.31251885366E+02  0.93331466270E+02  0.19817249266E+03  0.17200000000E+03 0.  1.
         -6    1    1    2    0  502 -0.94546970142E+00  0.31251885366E+02  0.80084011165E+02  0.19228890529E+03  0.17200000000E+03 0. -1.
</event>
<event>
 4    1 -0.6532506E-004  0.2186828E+03  0.7818608E-02  0.1134869E+00
         -5   -1    0    0    0  501 -0.00000000000E+00  0.00000000000E+00  0.25848851648E+02  0.26272668907E+02  0.47000000000E+01 0.  1.
          5   -1    0    0  501    0  0.00000000000E+00 -0.00000000000E+00 -0.19379252744E+04  0.19379309738E+04  0.47000000000E+01 0. -1.
          6    1    1    2  502    0  0.13190020593E+03 -0.28991266490E+02 -0.11827876011E+04  0.12028335992E+04  0.17200000000E+03 0. -1.
         -6    1    1    2    0  502 -0.13190020593E+03  0.28991266490E+02 -0.72928882157E+03  0.76137004349E+03  0.17200000000E+03 0.  1.
</event>
<event>
 4    1 -0.6532506E-004  0.2420379E+03  0.7818608E-02  0.1118443E+00
         -5   -1    0    0    0  501 -0.00000000000E+00  0.00000000000E+00  0.58449286503E+02  0.58637949254E+02  0.47000000000E+01 0.  1.
          5   -1    0    0  501    0  0.00000000000E+00 -0.00000000000E+00 -0.10265185563E+04  0.10265293159E+04  0.47000000000E+01 0. -1.
          6    1    1    2  502    0 -0.27067055405E+02 -0.16812404936E+03 -0.57046346102E+03  0.61968611556E+03  0.17200000000E+03 0. -1.
         -6    1    1    2    0  502  0.27067055405E+02  0.16812404936E+03 -0.39760580875E+03  0.46548114958E+03  0.17200000000E+03 0.  1.
</event>
<event>
 4    1 -0.6532506E-004  0.1969245E+03  0.7818608E-02  0.1152360E+00
          5   -1    0    0  501    0  0.00000000000E+00  0.00000000000E+00  0.73741881749E+03  0.73743379526E+03  0.47000000000E+01 0. -1.
         -5   -1    0    0    0  501 -0.00000000000E+00 -0.00000000000E+00 -0.23319986126E+03  0.23324721926E+03  0.47000000000E+01 0.  1.
          6    1    1    2  502    0 -0.74459577521E+02 -0.60423792819E+02  0.67924613283E+03  0.70721607193E+03  0.17200000000E+03 0. -1.
         -6    1    1    2    0  502  0.74459577521E+02  0.60423792819E+02 -0.17502717661E+03  0.26346494259E+03  0.17200000000E+03 0.  1.
</event>
<event>
 4    1 -0.6532506E-004  0.1957823E+03  0.7818608E-02  0.1153347E+00
         -5   -1    0    0    0  501 -0.00000000000E+00  0.00000000000E+00  0.11266744689E+04  0.11266842721E+04  0.47000000000E+01 0.  1.
          5   -1    0    0  501    0  0.00000000000E+00 -0.00000000000E+00 -0.43744123828E+02  0.43995890370E+02  0.47000000000E+01 0. -1.
          6    1    1    2  502    0  0.91749626763E+02  0.18130981363E+02  0.26401257889E+03  0.32868429884E+03  0.17200000000E+03 0. -1.
         -6    1    1    2    0  502 -0.91749626763E+02 -0.18130981363E+02  0.81891776621E+03  0.84199586360E+03  0.17200000000E+03 0.  1.
</event>
<event>
 4    1 -0.6532506E-004  0.3623845E+03  0.7818608E-02  0.1057644E+00
          5   -1    0    0  501    0  0.00000000000E+00  0.00000000000E+00  0.11063939214E+03  0.11073917596E+03  0.47000000000E+01 0. -1.
         -5   -1    0    0    0  501 -0.00000000000E+00 -0.00000000000E+00 -0.13234424971E+04  0.13234508428E+04  0.47000000000E+01 0.  1.
          6    1    1    2  502    0  0.60571529612E+02  0.31316072343E+03 -0.37557370112E+03  0.52189860497E+03  0.17200000000E+03 0. -1.
         -6    1    1    2    0  502 -0.60571529612E+02 -0.31316072343E+03 -0.83722940389E+03  0.91229141377E+03  0.17200000000E+03 0.  1.
</event>
<event>
 4    1 -0.6532506E-004  0.2043850E+03  0.7818608E-02  0.1146091E+00
          5   -1    0    0  501    0  0.00000000000E+00  0.00000000000E+00  0.85273488740E+02  0.85402914950E+02  0.47000000000E+01 0. -1.
         -5   -1    0    0    0  501 -0.00000000000E+00 -0.00000000000E+00 -0.12195517877E+04  0.12195608443E+04  0.47000000000E+01 0.  1.
          6    1    1    2  502    0 -0.10840631116E+03  0.20911797277E+02 -0.62291285687E+02  0.21366664652E+03  0.17200000000E+03 0. -1.
         -6    1    1    2    0  502  0.10840631116E+03 -0.20911797277E+02 -0.10719870133E+04  0.10912971127E+04  0.17200000000E+03 0.  1.
</event>
<event>
 4    1 -0.6532506E-004  0.2002505E+03  0.7818608E-02  0.1149528E+00
          5   -1    0    0  501    0  0.00000000000E+00  0.00000000000E+00  0.33238771217E+02  0.33569419299E+02  0.47000000000E+01 0. -1.
         -5   -1    0    0    0  501 -0.00000000000E+00 -0.00000000000E+00 -0.13525899910E+04  0.13525981568E+04  0.47000000000E+01 0.  1.
          6    1    1    2  502    0 -0.83851627433E+02  0.59035231251E+02 -0.42700863058E+03  0.47163187397E+03  0.17200000000E+03 0. -1.
         -6    1    1    2    0  502  0.83851627433E+02 -0.59035231251E+02 -0.89234258922E+03  0.91453570214E+03  0.17200000000E+03 0.  1.
</event>
<event>
 4    1 -0.6532506E-004  0.1767759E+03  0.7818608E-02  0.1170960E+00
          5   -1    0    0  501    0  0.00000000000E+00  0.00000000000E+00  0.83118683935E+02  0.83251460162E+02  0.47000000000E+01 0. -1.
         -5   -1    0    0    0  501 -0.00000000000E+00 -0.00000000000E+00 -0.37709116750E+03  0.37712045637E+03  0.47000000000E+01 0.  1.
          6    1    1    2  502    0  0.35742832191E+02 -0.19702343119E+02 -0.13212012516E+03  0.22069313503E+03  0.17200000000E+03 0. -1.
         -6    1    1    2    0  502 -0.35742832191E+02  0.19702343119E+02 -0.16185235841E+03  0.23967878150E+03  0.17200000000E+03 0.  1.
</event>
<event>
 4    1 -0.6532506E-004  0.2282329E+03  0.7818608E-02  0.1127890E+00
          5   -1    0    0  501    0  0.00000000000E+00  0.00000000000E+00  0.19376051788E+04  0.19376108791E+04  0.47000000000E+01 0. -1.
         -5   -1    0    0    0  501 -0.00000000000E+00 -0.00000000000E+00 -0.28679372760E+02  0.29061941124E+02  0.47000000000E+01 0.  1.
          6    1    1    2  502    0 -0.14909874423E+03  0.16607722876E+02  0.12127705009E+04  0.12340593745E+04  0.17200000000E+03 0. -1.
         -6    1    1    2    0  502  0.14909874423E+03 -0.16607722876E+02  0.69615530515E+03  0.73261344574E+03  0.17200000000E+03 0. -1.
</event>
<event>
 4    1 -0.6532506E-004  0.1756120E+03  0.7818608E-02  0.1172119E+00
         -5   -1    0    0    0  501 -0.00000000000E+00  0.00000000000E+00  0.37446640706E+03  0.37449590120E+03  0.47000000000E+01 0.  1.
          5   -1    0    0  501    0  0.00000000000E+00 -0.00000000000E+00 -0.15766879734E+03  0.15773883370E+03  0.47000000000E+01 0. -1.
          6    1    1    2  502    0  0.18096822284E+02  0.30464567284E+02 -0.75568626867E+02  0.19118107177E+03  0.17200000000E+03 0. -1.
         -6    1    1    2    0  502 -0.18096822284E+02 -0.30464567284E+02  0.29236623658E+03  0.34105366312E+03  0.17200000000E+03 0.  1.
</event>
<event>
 4    1 -0.6532506E-004  0.2839746E+03  0.7818608E-02  0.1093538E+00
         -5   -1    0    0    0  501 -0.00000000000E+00  0.00000000000E+00  0.71049385597E+03  0.71050940132E+03  0.47000000000E+01 0.  1.
          5   -1    0    0  501    0  0.00000000000E+00 -0.00000000000E+00 -0.11757833826E+03  0.11767223814E+03  0.47000000000E+01 0. -1.
          6    1    1    2  502    0 -0.22544537128E+03 -0.15229495329E+02  0.37415196855E+03  0.46971400717E+03  0.17200000000E+03 0.  1.
         -6    1    1    2    0  502  0.22544537128E+03  0.15229495329E+02  0.21876354915E+03  0.35846763229E+03  0.17200000000E+03 0. -1.
</event>
<event>
 4    1 -0.6532506E-004  0.1917719E+03  0.7818608E-02  0.1156873E+00
          5   -1    0    0  501    0  0.00000000000E+00  0.00000000000E+00  0.73090696423E+02  0.73241654157E+02  0.47000000000E+01 0. -1.
         -5   -1    0    0    0  501 -0.00000000000E+00 -0.00000000000E+00 -0.54757197235E+03  0.54759214285E+03  0.47000000000E+01 0.  1.
          6    1    1    2  502    0 -0.71530251846E+02 -0.45561987017E+02 -0.14817693347E+03  0.24234866454E+03  0.17200000000E+03 0. -1.
         -6    1    1    2    0  502  0.71530251846E+02  0.45561987017E+02 -0.32630434246E+03  0.37848513246E+03  0.17200000000E+03 0.  1.
</event>
<event>
 4    1 -0.6532506E-004  0.1763020E+03  0.7818608E-02  0.1171431E+00
          5   -1    0    0  501    0  0.00000000000E+00  0.00000000000E+00  0.29745737309E+03  0.29749450214E+03  0.47000000000E+01 0. -1.
         -5   -1    0    0    0  501 -0.00000000000E+00 -0.00000000000E+00 -0.23106275741E+03  0.23111055334E+03  0.47000000000E+01 0.  1.
          6    1    1    2  502    0 -0.35767240476E+02  0.14801952954E+02  0.22883781988E+03  0.28887564991E+03  0.17200000000E+03 0. -1.
         -6    1    1    2    0  502  0.35767240476E+02 -0.14801952954E+02 -0.16244320421E+03  0.23972940557E+03  0.17200000000E+03 0.  1.
</event>
<event>
 4    1 -0.6532506E-004  0.2271911E+03  0.7818608E-02  0.1128633E+00
         -5   -1    0    0    0  501 -0.00000000000E+00  0.00000000000E+00  0.30114001727E+03  0.30117669233E+03  0.47000000000E+01 0.  1.
          5   -1    0    0  501    0  0.00000000000E+00 -0.00000000000E+00 -0.31437756307E+03  0.31441269402E+03  0.47000000000E+01 0. -1.
          6    1    1    2  502    0 -0.10257601463E+03 -0.10728451755E+03 -0.21421908035E+03  0.31225890039E+03  0.17200000000E+03 0. -1.
         -6    1    1    2    0  502  0.10257601463E+03  0.10728451755E+03  0.20098153455E+03  0.30333048597E+03  0.17200000000E+03 0.  1.
</event>
<event>
 4    1 -0.6532506E-004  0.2090635E+03  0.7818608E-02  0.1142310E+00
          5   -1    0    0  501    0  0.00000000000E+00  0.00000000000E+00  0.12760616118E+03  0.12769268722E+03  0.47000000000E+01 0. -1.
         -5   -1    0    0    0  501 -0.00000000000E+00 -0.00000000000E+00 -0.43185486950E+03  0.43188044447E+03  0.47000000000E+01 0.  1.
          6    1    1    2  502    0  0.11753193960E+03  0.17601434300E+02 -0.24732024743E+02  0.21052135370E+03  0.17200000000E+03 0. -1.
         -6    1    1    2    0  502 -0.11753193960E+03 -0.17601434300E+02 -0.27951668358E+03  0.34905177799E+03  0.17200000000E+03 0.  1.
</event>
<event>
 4    1 -0.6532506E-004  0.2343858E+03  0.7818608E-02  0.1123590E+00
          5   -1    0    0  501    0  0.00000000000E+00  0.00000000000E+00  0.34384610022E+03  0.34387822065E+03  0.47000000000E+01 0. -1.
         -5   -1    0    0    0  501 -0.00000000000E+00 -0.00000000000E+00 -0.16442613326E+03  0.16449329256E+03  0.47000000000E+01 0.  1.
          6    1    1    2  502    0 -0.15074379090E+03 -0.51273754212E+02  0.46615237434E+02  0.23897629323E+03  0.17200000000E+03 0. -1.
         -6    1    1    2    0  502  0.15074379090E+03  0.51273754212E+02  0.13280472953E+03  0.26939521998E+03  0.17200000000E+03 0. -1.
</event>
<event>
 4    1 -0.6532506E-004  0.2553671E+03  0.7818608E-02  0.1109959E+00
          5   -1    0    0  501    0  0.00000000000E+00  0.00000000000E+00  0.77775790248E+03  0.77777210343E+03  0.47000000000E+01 0. -1.
         -5   -1    0    0    0  501 -0.00000000000E+00 -0.00000000000E+00 -0.10755391949E+03  0.10765656319E+03  0.47000000000E+01 0.  1.
          6    1    1    2  502    0 -0.73858364414E+02  0.17370458822E+03  0.54317987706E+03  0.60021389588E+03  0.17200000000E+03 0. -1.
         -6    1    1    2    0  502  0.73858364414E+02 -0.17370458822E+03  0.12702410592E+03  0.28521477074E+03  0.17200000000E+03 0.  1.
</event>
<event>
 4    1 -0.6532506E-004  0.4021109E+03  0.7818608E-02  0.1043051E+00
          5   -1    0    0  501    0  0.00000000000E+00  0.00000000000E+00  0.22552053326E+04  0.22552102302E+04  0.47000000000E+01 0. -1.
         -5   -1    0    0    0  501 -0.00000000000E+00 -0.00000000000E+00 -0.73533934985E+02  0.73683984653E+02  0.47000000000E+01 0.  1.
          6    1    1    2  502    0  0.17296626223E+03 -0.31967458022E+03  0.12787058905E+04  0.13404409421E+04  0.17200000000E+03 0.  1.
         -6    1    1    2    0  502 -0.17296626223E+03  0.31967458022E+03  0.90296550719E+03  0.98845327269E+03  0.17200000000E+03 0. -1.
</event>
<event>
 4    1 -0.6532506E-004  0.3898376E+03  0.7818608E-02  0.1047356E+00
          5   -1    0    0  501    0  0.00000000000E+00  0.00000000000E+00  0.88156226813E+02  0.88281426846E+02  0.47000000000E+01 0. -1.
         -5   -1    0    0    0  501 -0.00000000000E+00 -0.00000000000E+00 -0.17536344921E+04  0.17536407905E+04  0.47000000000E+01 0.  1.
          6    1    1    2  502    0  0.21475264366E+03 -0.27617141076E+03 -0.95533438795E+03  0.10318125503E+04  0.17200000000E+03 0. -1.
         -6    1    1    2    0  502 -0.21475264366E+03  0.27617141076E+03 -0.71014387736E+03  0.81010966704E+03  0.17200000000E+03 0.  1.
</event>
<event>
 4    1 -0.6532506E-004  0.2896429E+03  0.7818608E-02  0.1090536E+00
          5   -1    0    0  501    0  0.00000000000E+00  0.00000000000E+00  0.21387309824E+04  0.21387361466E+04  0.47000000000E+01 0. -1.
         -5   -1    0    0    0  501 -0.00000000000E+00 -0.00000000000E+00 -0.51180613059E+02  0.51395964366E+02  0.47000000000E+01 0.  1.
          6    1    1    2  502    0  0.21894209004E+03  0.79833366559E+02  0.15749350049E+04  0.16013473311E+04  0.17200000000E+03 0. -1.
         -6    1    1    2    0  502 -0.21894209004E+03 -0.79833366559E+02  0.51261536442E+03  0.58878477990E+03  0.17200000000E+03 0.  1.
</event>
<event>
 4    1 -0.6532506E-004  0.1959073E+03  0.7818608E-02  0.1153239E+00
          5   -1    0    0  501    0  0.00000000000E+00  0.00000000000E+00  0.37624286859E+04  0.37624316215E+04  0.47000000000E+01 0. -1.
         -5   -1    0    0    0  501 -0.00000000000E+00 -0.00000000000E+00 -0.10187358951E+02  0.11219281724E+02  0.47000000000E+01 0.  1.
          6    1    1    2  502    0  0.54727515334E+02  0.76161528816E+02  0.14661355050E+04  0.14791663188E+04  0.17200000000E+03 0.  1.
         -6    1    1    2    0  502 -0.54727515334E+02 -0.76161528816E+02  0.22861058219E+04  0.22944845845E+04  0.17200000000E+03 0. -1.
</event>
<event>
 4    1 -0.6532506E-004  0.1835184E+03  0.7818608E-02  0.1164441E+00
          5   -1    0    0  501    0  0.00000000000E+00  0.00000000000E+00  0.45525572227E+02  0.45767540097E+02  0.47000000000E+01 0. -1.
         -5   -1    0    0    0  501 -0.00000000000E+00 -0.00000000000E+00 -0.73812155284E+03  0.73813651635E+03  0.47000000000E+01 0.  1.
          6    1    1    2  502    0  0.94033843548E+01 -0.63297578815E+02 -0.33560454077E+03  0.38250413711E+03  0.17200000000E+03 0.  1.
         -6    1    1    2    0  502 -0.94033843548E+01  0.63297578815E+02 -0.35699143984E+03  0.40139991933E+03  0.17200000000E+03 0.  1.
</event>
<event>
 4    1 -0.6532506E-004  0.1962131E+03  0.7818608E-02  0.1152974E+00
         -5   -1    0    0    0  501 -0.00000000000E+00  0.00000000000E+00  0.53917547759E+03  0.53919596218E+03  0.47000000000E+01 0.  1.
          5   -1    0    0  501    0  0.00000000000E+00 -0.00000000000E+00 -0.10707999591E+03  0.10718309346E+03  0.47000000000E+01 0. -1.
          6    1    1    2  502    0 -0.17322554454E+02  0.92819790892E+02  0.29371945338E+02  0.19839933379E+03  0.17200000000E+03 0. -1.
         -6    1    1    2    0  502  0.17322554454E+02 -0.92819790892E+02  0.40272353634E+03  0.44797972186E+03  0.17200000000E+03 0.  1.
</event>
<event>
 4    1 -0.6532506E-004  0.1824561E+03  0.7818608E-02  0.1165447E+00
         -5   -1    0    0    0  501 -0.00000000000E+00  0.00000000000E+00  0.24378835057E+03  0.24383365205E+03  0.47000000000E+01 0.  1.
          5   -1    0    0  501    0  0.00000000000E+00 -0.00000000000E+00 -0.13645531433E+03  0.13653623259E+03  0.47000000000E+01 0. -1.
          6    1    1    2  502    0 -0.29500282797E+02  0.53253630584E+02  0.53703554101E+02  0.19019539316E+03  0.17200000000E+03 0. -1.
         -6    1    1    2    0  502  0.29500282797E+02 -0.53253630584E+02  0.53629482139E+02  0.19017449148E+03  0.17200000000E+03 0. -1.
</event>
<event>
 4    1 -0.6532506E-004  0.2415672E+03  0.7818608E-02  0.1118753E+00
          5   -1    0    0  501    0  0.00000000000E+00  0.00000000000E+00  0.13166537712E+03  0.13174923731E+03  0.47000000000E+01 0. -1.
         -5   -1    0    0    0  501 -0.00000000000E+00 -0.00000000000E+00 -0.68047575395E+03  0.68049198505E+03  0.47000000000E+01 0.  1.
          6    1    1    2  502    0  0.22394522576E+02  0.16813444569E+03 -0.34491521206E+02  0.24401715412E+03  0.17200000000E+03 0.  1.
         -6    1    1    2    0  502 -0.22394522576E+02 -0.16813444569E+03 -0.51431885563E+03  0.56822406824E+03  0.17200000000E+03 0.  1.
</event>
<event>
 4    1 -0.6532506E-004  0.2049367E+03  0.7818608E-02  0.1145639E+00
         -5   -1    0    0    0  501 -0.00000000000E+00  0.00000000000E+00  0.83294108339E+02  0.83426605373E+02  0.47000000000E+01 0.  1.
          5   -1    0    0  501    0  0.00000000000E+00 -0.00000000000E+00 -0.61522406955E+03  0.61524202209E+03  0.47000000000E+01 0. -1.
          6    1    1    2  502    0  0.90056724842E+02 -0.65611240196E+02 -0.41469226798E+03  0.46256753632E+03  0.17200000000E+03 0. -1.
         -6    1    1    2    0  502 -0.90056724842E+02  0.65611240196E+02 -0.11723769322E+03  0.23610109115E+03  0.17200000000E+03 0.  1.
</event>
<event>
 4    1 -0.6532506E-004  0.2231607E+03  0.7818608E-02  0.1131548E+00
         -5   -1    0    0    0  501 -0.00000000000E+00  0.00000000000E+00  0.14259042340E+04  0.14259119800E+04  0.47000000000E+01 0.  1.
          5   -1    0    0  501    0  0.00000000000E+00 -0.00000000000E+00 -0.79550019489E+02  0.79688741994E+02  0.47000000000E+01 0. -1.
          6    1    1    2  502    0  0.11485341575E+03 -0.83817520115E+02  0.10913631121E+03  0.24841782990E+03  0.17200000000E+03 0. -1.
         -6    1    1    2    0  502 -0.11485341575E+03  0.83817520115E+02  0.12372179033E+04  0.12571828921E+04  0.17200000000E+03 0.  1.
</event>
<event>
 4    1 -0.6532506E-004  0.2115392E+03  0.7818608E-02  0.1140353E+00
         -5   -1    0    0    0  501 -0.00000000000E+00  0.00000000000E+00  0.79978167279E+03  0.79979548269E+03  0.47000000000E+01 0.  1.
          5   -1    0    0  501    0  0.00000000000E+00 -0.00000000000E+00 -0.76992427537E+02  0.77135749806E+02  0.47000000000E+01 0. -1.
          6    1    1    2  502    0 -0.11035928598E+03  0.54641101391E+02  0.13183769719E+03  0.24925890227E+03  0.17200000000E+03 0. -1.
         -6    1    1    2    0  502  0.11035928598E+03 -0.54641101391E+02  0.59095154806E+03  0.62767233022E+03  0.17200000000E+03 0.  1.
</event>
<event>
 4    1 -0.6532506E-004  0.3782811E+03  0.7818608E-02  0.1051571E+00
         -5   -1    0    0    0  501 -0.00000000000E+00  0.00000000000E+00  0.76992690238E+03  0.76994124777E+03  0.47000000000E+01 0.  1.
          5   -1    0    0  501    0  0.00000000000E+00 -0.00000000000E+00 -0.24799789180E+03  0.24804242447E+03  0.47000000000E+01 0. -1.
          6    1    1    2  502    0 -0.24754859333E+03 -0.22854390180E+03  0.61195635989E+01  0.37833063604E+03  0.17200000000E+03 0. -1.
         -6    1    1    2    0  502  0.24754859333E+03  0.22854390180E+03  0.51580944699E+03  0.63965303619E+03  0.17200000000E+03 0.  1.
</event>
<event>
 4    1 -0.6532506E-004  0.3475073E+03  0.7818608E-02  0.1063643E+00
         -5   -1    0    0    0  501 -0.00000000000E+00  0.00000000000E+00  0.26823983204E+03  0.26828100472E+03  0.47000000000E+01 0.  1.
          5   -1    0    0  501    0  0.00000000000E+00 -0.00000000000E+00 -0.50017453101E+03  0.50019661282E+03  0.47000000000E+01 0. -1.
          6    1    1    2  502    0 -0.10146855731E+02  0.30178527679E+03 -0.23752240297E+03  0.42092541368E+03  0.17200000000E+03 0. -1.
         -6    1    1    2    0  502  0.10146855731E+02 -0.30178527679E+03  0.55877039950E+01  0.34755220385E+03  0.17200000000E+03 0.  1.
</event>
<event>
 4    1 -0.6532506E-004  0.1783674E+03  0.7818608E-02  0.1169393E+00
          5   -1    0    0  501    0  0.00000000000E+00  0.00000000000E+00  0.24890145346E+03  0.24894582450E+03  0.47000000000E+01 0. -1.
         -5   -1    0    0    0  501 -0.00000000000E+00 -0.00000000000E+00 -0.13112586838E+03  0.13121007339E+03  0.47000000000E+01 0.  1.
          6    1    1    2  502    0 -0.36918252199E+02 -0.29461221322E+02  0.28279717848E+02  0.18059530268E+03  0.17200000000E+03 0.  1.
         -6    1    1    2    0  502  0.36918252199E+02  0.29461221322E+02  0.89495867233E+02  0.19956059521E+03  0.17200000000E+03 0. -1.
</event>
<event>
 4    1 -0.6532506E-004  0.1891829E+03  0.7818608E-02  0.1159200E+00
          5   -1    0    0  501    0  0.00000000000E+00  0.00000000000E+00  0.10695406400E+03  0.10705728282E+03  0.47000000000E+01 0. -1.
         -5   -1    0    0    0  501 -0.00000000000E+00 -0.00000000000E+00 -0.62696796353E+03  0.62698557982E+03  0.47000000000E+01 0.  1.
          6    1    1    2  502    0 -0.58427248497E+02  0.52843379690E+02 -0.92952054927E+01  0.18941110577E+03  0.17200000000E+03 0. -1.
         -6    1    1    2    0  502  0.58427248497E+02 -0.52843379690E+02 -0.51071869404E+03  0.54463175687E+03  0.17200000000E+03 0.  1.
</event>
<event>
 4    1 -0.6532506E-004  0.2034080E+03  0.7818608E-02  0.1146895E+00
          5   -1    0    0  501    0  0.00000000000E+00  0.00000000000E+00  0.70453002287E+02  0.70609599427E+02  0.47000000000E+01 0. -1.
         -5   -1    0    0    0  501 -0.00000000000E+00 -0.00000000000E+00 -0.66539967819E+03  0.66541627702E+03  0.47000000000E+01 0.  1.
          6    1    1    2  502    0  0.27877885490E+02  0.10494595884E+03 -0.17072608621E+03  0.26556021405E+03  0.17200000000E+03 0. -1.
         -6    1    1    2    0  502 -0.27877885490E+02 -0.10494595884E+03 -0.42422058969E+03  0.47046566240E+03  0.17200000000E+03 0.  1.
</event>
<event>
 4    1 -0.6532506E-004  0.2189761E+03  0.7818608E-02  0.1134649E+00
         -5   -1    0    0    0  501 -0.00000000000E+00  0.00000000000E+00  0.85643410056E+03  0.85644699696E+03  0.47000000000E+01 0.  1.
          5   -1    0    0  501    0  0.00000000000E+00 -0.00000000000E+00 -0.59793076334E+02  0.59977512265E+02  0.47000000000E+01 0. -1.
          6    1    1    2  502    0  0.11799170557E+03  0.66667079679E+02  0.28124954287E+03  0.35644332994E+03  0.17200000000E+03 0.  1.
         -6    1    1    2    0  502 -0.11799170557E+03 -0.66667079679E+02  0.51539148136E+03  0.55998117929E+03  0.17200000000E+03 0.  1.
</event>
<event>
 4    1 -0.6532506E-004  0.3834255E+03  0.7818608E-02  0.1049675E+00
          5   -1    0    0  501    0  0.00000000000E+00  0.00000000000E+00  0.40825021077E+03  0.40827726437E+03  0.47000000000E+01 0. -1.
         -5   -1    0    0    0  501 -0.00000000000E+00 -0.00000000000E+00 -0.39594134276E+03  0.39596923732E+03  0.47000000000E+01 0.  1.
          6    1    1    2  502    0 -0.31317311835E+03 -0.13911772837E+03  0.12720615775E+03  0.40397592871E+03  0.17200000000E+03 0.  1.
         -6    1    1    2    0  502  0.31317311835E+03  0.13911772837E+03 -0.11489728973E+03  0.40027057298E+03  0.17200000000E+03 0.  1.
</event>
<event>
 4    1 -0.6532506E-004  0.1872308E+03  0.7818608E-02  0.1160983E+00
         -5   -1    0    0    0  501 -0.00000000000E+00  0.00000000000E+00  0.10037703165E+04  0.10037813199E+04  0.47000000000E+01 0.  1.
          5   -1    0    0  501    0  0.00000000000E+00 -0.00000000000E+00 -0.72782155321E+02  0.72933751674E+02  0.47000000000E+01 0. -1.
          6    1    1    2  502    0  0.46611635563E+02 -0.57434487311E+02  0.77004465367E+02  0.20244765395E+03  0.17200000000E+03 0. -1.
         -6    1    1    2    0  502 -0.46611635563E+02  0.57434487311E+02  0.85398369579E+03  0.87426741766E+03  0.17200000000E+03 0.  1.
</event>
<event>
 4    1 -0.6532506E-004  0.3702227E+03  0.7818608E-02  0.1054608E+00
         -5   -1    0    0    0  501 -0.00000000000E+00  0.00000000000E+00  0.54141592427E+03  0.54143632410E+03  0.47000000000E+01 0.  1.
          5   -1    0    0  501    0  0.00000000000E+00 -0.00000000000E+00 -0.37841523684E+03  0.37844442323E+03  0.47000000000E+01 0. -1.
          6    1    1    2  502    0 -0.31118287119E+03 -0.10317976906E+03 -0.18314487515E+03  0.41304586834E+03  0.17200000000E+03 0. -1.
         -6    1    1    2    0  502  0.31118287119E+03  0.10317976906E+03  0.34614556258E+03  0.50683487899E+03  0.17200000000E+03 0.  1.
</event>
<event>
 4    1 -0.6532506E-004  0.2070890E+03  0.7818608E-02  0.1143892E+00
         -5   -1    0    0    0  501 -0.00000000000E+00  0.00000000000E+00  0.13400720018E+03  0.13408959579E+03  0.47000000000E+01 0.  1.
          5   -1    0    0  501    0  0.00000000000E+00 -0.00000000000E+00 -0.32516931279E+03  0.32520327793E+03  0.47000000000E+01 0. -1.
          6    1    1    2  502    0  0.11502151484E+03  0.84808657779E+01 -0.12500669921E+03  0.24189367252E+03  0.17200000000E+03 0.  1.
         -6    1    1    2    0  502 -0.11502151484E+03 -0.84808657779E+01 -0.66155413396E+02  0.21739920120E+03  0.17200000000E+03 0.  1.
</event>
<event>
 4    1 -0.6532506E-004  0.3986393E+03  0.7818608E-02  0.1044252E+00
         -5   -1    0    0    0  501 -0.00000000000E+00  0.00000000000E+00  0.43268402864E+03  0.43270955460E+03  0.47000000000E+01 0.  1.
          5   -1    0    0  501    0  0.00000000000E+00 -0.00000000000E+00 -0.52622824532E+03  0.52624923389E+03  0.47000000000E+01 0. -1.
          6    1    1    2  502    0  0.18204786428E+03 -0.31014164078E+03 -0.31032580812E+03  0.50518844941E+03  0.17200000000E+03 0. -1.
         -6    1    1    2    0  502 -0.18204786428E+03  0.31014164078E+03  0.21678159145E+03  0.45377033908E+03  0.17200000000E+03 0.  1.
</event>
<event>
 4    1 -0.6532506E-004  0.2241968E+03  0.7818608E-02  0.1130792E+00
         -5   -1    0    0    0  501 -0.00000000000E+00  0.00000000000E+00  0.49324303373E+02  0.49547723492E+02  0.47000000000E+01 0.  1.
          5   -1    0    0  501    0  0.00000000000E+00 -0.00000000000E+00 -0.10337955171E+04  0.10338062010E+04  0.47000000000E+01 0. -1.
          6    1    1    2  502    0 -0.23413752747E+01  0.14378715038E+03 -0.56224147182E+03  0.60529306893E+03  0.17200000000E+03 0. -1.
         -6    1    1    2    0  502  0.23413752747E+01 -0.14378715038E+03 -0.42222974191E+03  0.47806085555E+03  0.17200000000E+03 0.  1.
</event>
<event>
 4    1 -0.6532506E-004  0.2587386E+03  0.7818608E-02  0.1107903E+00
         -5   -1    0    0    0  501 -0.00000000000E+00  0.00000000000E+00  0.78438107557E+03  0.78439515661E+03  0.47000000000E+01 0.  1.
          5   -1    0    0  501    0  0.00000000000E+00 -0.00000000000E+00 -0.18842991696E+03  0.18848852380E+03  0.47000000000E+01 0. -1.
          6    1    1    2  502    0 -0.39984474792E+02 -0.18911079489E+03 -0.61847852077E+02  0.26602783271E+03  0.17200000000E+03 0. -1.
         -6    1    1    2    0  502  0.39984474792E+02  0.18911079489E+03  0.65779901069E+03  0.70685584770E+03  0.17200000000E+03 0.  1.
</event>
<event>
 4    1 -0.6532506E-004  0.4786609E+03  0.7818608E-02  0.1019504E+00
          5   -1    0    0  501    0  0.00000000000E+00  0.00000000000E+00  0.55574021603E+03  0.55576009006E+03  0.47000000000E+01 0. -1.
         -5   -1    0    0    0  501 -0.00000000000E+00 -0.00000000000E+00 -0.76732127470E+03  0.76733566880E+03  0.47000000000E+01 0.  1.
          6    1    1    2  502    0 -0.44235859196E+03 -0.62057449921E+02  0.34422784584E+03  0.58958380306E+03  0.17200000000E+03 0. -1.
         -6    1    1    2    0  502  0.44235859196E+03  0.62057449921E+02 -0.55580890451E+03  0.73351195581E+03  0.17200000000E+03 0. -1.
</event>
<event>
 4    1 -0.6532506E-004  0.3103499E+03  0.7818608E-02  0.1080178E+00
          5   -1    0    0  501    0  0.00000000000E+00  0.00000000000E+00  0.46826448345E+03  0.46828806995E+03  0.47000000000E+01 0. -1.
         -5   -1    0    0    0  501 -0.00000000000E+00 -0.00000000000E+00 -0.35860160664E+03  0.35863240552E+03  0.47000000000E+01 0.  1.
          6    1    1    2  502    0  0.10402710963E+02  0.25811783361E+03  0.32484640768E+03  0.44926853997E+03  0.17200000000E+03 0. -1.
         -6    1    1    2    0  502 -0.10402710963E+02 -0.25811783361E+03 -0.21518353088E+03  0.37765193550E+03  0.17200000000E+03 0.  1.
</event>
<event>
 4    1 -0.6532506E-004  0.1788193E+03  0.7818608E-02  0.1168951E+00
         -5   -1    0    0    0  501 -0.00000000000E+00  0.00000000000E+00  0.25182016629E+03  0.25186402313E+03  0.47000000000E+01 0.  1.
          5   -1    0    0  501    0  0.00000000000E+00 -0.00000000000E+00 -0.13474671253E+03  0.13482865622E+03  0.47000000000E+01 0. -1.
          6    1    1    2  502    0 -0.39248795061E+01  0.48753681714E+02  0.10522429272E+03  0.20748127130E+03  0.17200000000E+03 0.  1.
         -6    1    1    2    0  502  0.39248795061E+01 -0.48753681714E+02  0.11849161035E+02  0.17921140805E+03  0.17200000000E+03 0. -1.
</event>
<event>
 4    1 -0.6532506E-004  0.2207302E+03  0.7818608E-02  0.1133340E+00
         -5   -1    0    0    0  501 -0.00000000000E+00  0.00000000000E+00  0.23751399900E+03  0.23756049697E+03  0.47000000000E+01 0.  1.
          5   -1    0    0  501    0  0.00000000000E+00 -0.00000000000E+00 -0.20519929332E+03  0.20525311199E+03  0.47000000000E+01 0. -1.
          6    1    1    2  502    0  0.13833219722E+03 -0.14296488218E+01  0.99705787395E+01  0.22095531929E+03  0.17200000000E+03 0. -1.
         -6    1    1    2    0  502 -0.13833219722E+03  0.14296488218E+01  0.22344126935E+02  0.22185828966E+03  0.17200000000E+03 0.  1.
</event>
<event>
 4    1 -0.6532506E-004  0.2542604E+03  0.7818608E-02  0.1110642E+00
          5   -1    0    0  501    0  0.00000000000E+00  0.00000000000E+00  0.19332926820E+04  0.19332983950E+04  0.47000000000E+01 0. -1.
         -5   -1    0    0    0  501 -0.00000000000E+00 -0.00000000000E+00 -0.81081214965E+02  0.81217322169E+02  0.47000000000E+01 0.  1.
          6    1    1    2  502    0  0.17460549723E+03  0.67655675601E+02  0.16984534807E+04  0.17173795725E+04  0.17200000000E+03 0. -1.
         -6    1    1    2    0  502 -0.17460549723E+03 -0.67655675601E+02  0.15375798634E+03  0.29713614467E+03  0.17200000000E+03 0.  1.
</event>
<event>
 4    1 -0.6532506E-004  0.1784989E+03  0.7818608E-02  0.1169264E+00
         -5   -1    0    0    0  501 -0.00000000000E+00  0.00000000000E+00  0.39393579083E+03  0.39396382739E+03  0.47000000000E+01 0.  1.
          5   -1    0    0  501    0  0.00000000000E+00 -0.00000000000E+00 -0.89541856368E+02  0.89665121657E+02  0.47000000000E+01 0. -1.
          6    1    1    2  502    0  0.75194071543E+01 -0.47130982023E+02  0.76627987551E+02  0.19425169092E+03  0.17200000000E+03 0. -1.
         -6    1    1    2    0  502 -0.75194071543E+01  0.47130982023E+02  0.22776594691E+03  0.28937725813E+03  0.17200000000E+03 0.  1.
</event>
<event>
 4    1 -0.6532506E-004  0.3778310E+03  0.7818608E-02  0.1051738E+00
          5   -1    0    0  501    0  0.00000000000E+00  0.00000000000E+00  0.49655129449E+03  0.49657353741E+03  0.47000000000E+01 0. -1.
         -5   -1    0    0    0  501 -0.00000000000E+00 -0.00000000000E+00 -0.34048271135E+03  0.34051514904E+03  0.47000000000E+01 0.  1.
          6    1    1    2  502    0  0.76243232523E+02  0.32765716656E+03 -0.87138682987E+02  0.38774914491E+03  0.17200000000E+03 0. -1.
         -6    1    1    2    0  502 -0.76243232523E+02 -0.32765716656E+03  0.24320726613E+03  0.44933954155E+03  0.17200000000E+03 0. -1.
</event>
<event>
 4    1 -0.6532506E-004  0.2500196E+03  0.7818608E-02  0.1113292E+00
         -5   -1    0    0    0  501 -0.00000000000E+00  0.00000000000E+00  0.33303954933E+03  0.33307271191E+03  0.47000000000E+01 0.  1.
          5   -1    0    0  501    0  0.00000000000E+00 -0.00000000000E+00 -0.22968238662E+03  0.22973046973E+03  0.47000000000E+01 0. -1.
          6    1    1    2  502    0 -0.17050321423E+03  0.62084058456E+02 -0.68717740989E+02  0.25929115740E+03  0.17200000000E+03 0. -1.
         -6    1    1    2    0  502  0.17050321423E+03 -0.62084058456E+02  0.17207490370E+03  0.30351202424E+03  0.17200000000E+03 0.  1.
</event>
<event>
 4    1 -0.6532506E-004  0.1797065E+03  0.7818608E-02  0.1168087E+00
          5   -1    0    0  501    0  0.00000000000E+00  0.00000000000E+00  0.24445055883E+04  0.24445101066E+04  0.47000000000E+01 0. -1.
         -5   -1    0    0    0  501 -0.00000000000E+00 -0.00000000000E+00 -0.13950687680E+02  0.14721130621E+02  0.47000000000E+01 0.  1.
          6    1    1    2  502    0  0.51278133169E+02  0.89986362933E+01  0.15603538476E+04  0.15706681865E+04  0.17200000000E+03 0. -1.
         -6    1    1    2    0  502 -0.51278133169E+02 -0.89986362933E+01  0.87020105303E+03  0.88856305071E+03  0.17200000000E+03 0.  1.
</event>
<event>
 4    1 -0.6532506E-004  0.2061491E+03  0.7818608E-02  0.1144652E+00
         -5   -1    0    0    0  501 -0.00000000000E+00  0.00000000000E+00  0.10392048989E+03  0.10402671878E+03  0.47000000000E+01 0.  1.
          5   -1    0    0  501    0  0.00000000000E+00 -0.00000000000E+00 -0.49881635450E+03  0.49883849643E+03  0.47000000000E+01 0. -1.
          6    1    1    2  502    0  0.49229096322E+02  0.10242040956E+03 -0.32561417801E+03  0.38538556945E+03  0.17200000000E+03 0. -1.
         -6    1    1    2    0  502 -0.49229096322E+02 -0.10242040956E+03 -0.69281686595E+02  0.21747964575E+03  0.17200000000E+03 0.  1.
</event>
<event>
 4    1 -0.6532506E-004  0.2321079E+03  0.7818608E-02  0.1125165E+00
          5   -1    0    0  501    0  0.00000000000E+00  0.00000000000E+00  0.44025164424E+03  0.44027673145E+03  0.47000000000E+01 0. -1.
         -5   -1    0    0    0  501 -0.00000000000E+00 -0.00000000000E+00 -0.12236128685E+03  0.12245151906E+03  0.47000000000E+01 0.  1.
          6    1    1    2  502    0  0.15370672596E+03 -0.25774338850E+02  0.15251789912E+03  0.27773329599E+03  0.17200000000E+03 0.  1.
         -6    1    1    2    0  502 -0.15370672596E+03  0.25774338850E+02  0.16537245827E+03  0.28499495452E+03  0.17200000000E+03 0.  1.
</event>
<event>
 4    1 -0.6532506E-004  0.2013121E+03  0.7818608E-02  0.1148637E+00
         -5   -1    0    0    0  501 -0.00000000000E+00  0.00000000000E+00  0.24322164040E+03  0.24326704741E+03  0.47000000000E+01 0.  1.
          5   -1    0    0  501    0  0.00000000000E+00 -0.00000000000E+00 -0.17124655376E+03  0.17131103926E+03  0.47000000000E+01 0. -1.
          6    1    1    2  502    0 -0.69838112427E+02 -0.77879390313E+02  0.15966864114E+01  0.20131843132E+03  0.17200000000E+03 0. -1.
         -6    1    1    2    0  502  0.69838112427E+02  0.77879390313E+02  0.70378400230E+02  0.21325965535E+03  0.17200000000E+03 0.  1.
</event>
<event>
 4    1 -0.6532506E-004  0.2121554E+03  0.7818608E-02  0.1139870E+00
          5   -1    0    0  501    0  0.00000000000E+00  0.00000000000E+00  0.18186992725E+03  0.18193064733E+03  0.47000000000E+01 0. -1.
         -5   -1    0    0    0  501 -0.00000000000E+00 -0.00000000000E+00 -0.25037631429E+03  0.25042042401E+03  0.47000000000E+01 0.  1.
          6    1    1    2  502    0  0.33510009629E+02 -0.11959511871E+03 -0.57976552617E+02  0.21993452166E+03  0.17200000000E+03 0.  1.
         -6    1    1    2    0  502 -0.33510009629E+02  0.11959511871E+03 -0.10529834428E+02  0.21241654968E+03  0.17200000000E+03 0. -1.
</event>
<event>
 4    1 -0.6532506E-004  0.1999472E+03  0.7818608E-02  0.1149784E+00
         -5   -1    0    0    0  501 -0.00000000000E+00  0.00000000000E+00  0.57140112292E+02  0.57333083231E+02  0.47000000000E+01 0.  1.
          5   -1    0    0  501    0  0.00000000000E+00 -0.00000000000E+00 -0.72319811355E+03  0.72321338582E+03  0.47000000000E+01 0. -1.
          6    1    1    2  502    0  0.60636844767E+02 -0.81963652370E+02 -0.40545675983E+03  0.45207748379E+03  0.17200000000E+03 0. -1.
         -6    1    1    2    0  502 -0.60636844767E+02  0.81963652370E+02 -0.26060124142E+03  0.32846898527E+03  0.17200000000E+03 0.  1.
</event>
<event>
 4    1 -0.6532506E-004  0.3607648E+03  0.7818608E-02  0.1058281E+00
         -5   -1    0    0    0  501 -0.00000000000E+00  0.00000000000E+00  0.63978072163E+03  0.63979798513E+03  0.47000000000E+01 0.  1.
          5   -1    0    0  501    0  0.00000000000E+00 -0.00000000000E+00 -0.22039801571E+03  0.22044812389E+03  0.47000000000E+01 0. -1.
          6    1    1    2  502    0  0.30081184535E+03  0.10039649337E+03  0.90202863086E+02  0.37187064780E+03  0.17200000000E+03 0. -1.
         -6    1    1    2    0  502 -0.30081184535E+03 -0.10039649337E+03  0.32917984284E+03  0.48837546122E+03  0.17200000000E+03 0.  1.
</event>
<event>
 4    1 -0.6532506E-004  0.1816665E+03  0.7818608E-02  0.1166200E+00
          5   -1    0    0  501    0  0.00000000000E+00  0.00000000000E+00  0.39475843128E+02  0.39754649925E+02  0.47000000000E+01 0. -1.
         -5   -1    0    0    0  501 -0.00000000000E+00 -0.00000000000E+00 -0.83289457959E+03  0.83290784046E+03  0.47000000000E+01 0.  1.
          6    1    1    2  502    0 -0.19083225449E+02  0.55267984487E+02 -0.40146026463E+03  0.44065072753E+03  0.17200000000E+03 0. -1.
         -6    1    1    2    0  502  0.19083225449E+02 -0.55267984487E+02 -0.39195847183E+03  0.43201176285E+03  0.17200000000E+03 0. -1.
</event>
<event>
 4    1 -0.6532506E-004  0.2455164E+03  0.7818608E-02  0.1116172E+00
          5   -1    0    0  501    0  0.00000000000E+00  0.00000000000E+00  0.58218472185E+03  0.58220369318E+03  0.47000000000E+01 0. -1.
         -5   -1    0    0    0  501 -0.00000000000E+00 -0.00000000000E+00 -0.21852651588E+03  0.21857705310E+03  0.47000000000E+01 0.  1.
          6    1    1    2  502    0 -0.93133790290E+02  0.14839273142E+03  0.47229913967E+03  0.53230140237E+03  0.17200000000E+03 0. -1.
         -6    1    1    2    0  502  0.93133790290E+02 -0.14839273142E+03 -0.10864093370E+03  0.26847934391E+03  0.17200000000E+03 0.  1.
</event>
<event>
 4    1 -0.6532506E-004  0.1785430E+03  0.7818608E-02  0.1169221E+00
         -5   -1    0    0    0  501 -0.00000000000E+00  0.00000000000E+00  0.36576645515E+03  0.36579665076E+03  0.47000000000E+01 0.  1.
          5   -1    0    0  501    0  0.00000000000E+00 -0.00000000000E+00 -0.87190198882E+02  0.87316784075E+02  0.47000000000E+01 0. -1.
          6    1    1    2  502    0 -0.13500161125E+02 -0.45949251606E+02  0.14817960431E+03  0.23202323851E+03  0.17200000000E+03 0. -1.
         -6    1    1    2    0  502  0.13500161125E+02  0.45949251606E+02  0.13039665195E+03  0.22109019633E+03  0.17200000000E+03 0.  1.
</event>
<event>
 4    1 -0.6532506E-004  0.3042390E+03  0.7818608E-02  0.1083141E+00
         -5   -1    0    0    0  501 -0.00000000000E+00  0.00000000000E+00  0.30350621413E+03  0.30354260330E+03  0.47000000000E+01 0.  1.
          5   -1    0    0  501    0  0.00000000000E+00 -0.00000000000E+00 -0.45513175162E+03  0.45515601867E+03  0.47000000000E+01 0. -1.
          6    1    1    2  502    0  0.17678372060E+03 -0.17811478543E+03 -0.29374362805E+03  0.42290268346E+03  0.17200000000E+03 0. -1.
         -6    1    1    2    0  502 -0.17678372060E+03  0.17811478543E+03  0.14211809056E+03  0.33579593851E+03  0.17200000000E+03 0. -1.
</event>
<event>
 4    1 -0.6532506E-004  0.1917703E+03  0.7818608E-02  0.1156874E+00
         -5   -1    0    0    0  501 -0.00000000000E+00  0.00000000000E+00  0.31769809700E+03  0.31773286080E+03  0.47000000000E+01 0.  1.
          5   -1    0    0  501    0  0.00000000000E+00 -0.00000000000E+00 -0.16605730492E+03  0.16612380479E+03  0.47000000000E+01 0. -1.
          6    1    1    2  502    0  0.42933204009E+02 -0.73133925525E+02 -0.57401049173E+02  0.20017670073E+03  0.17200000000E+03 0. -1.
         -6    1    1    2    0  502 -0.42933204009E+02  0.73133925525E+02  0.20904184125E+03  0.28367996486E+03  0.17200000000E+03 0.  1.
</event>
<event>
 4    1 -0.6532506E-004  0.3650291E+03  0.7818608E-02  0.1056610E+00
         -5   -1    0    0    0  501 -0.00000000000E+00  0.00000000000E+00  0.48816931395E+03  0.48819193877E+03  0.47000000000E+01 0.  1.
          5   -1    0    0  501    0  0.00000000000E+00 -0.00000000000E+00 -0.28040638784E+03  0.28044577434E+03  0.47000000000E+01 0. -1.
          6    1    1    2  502    0 -0.22298799506E+03 -0.23224690239E+03  0.16674723279E+03  0.40131148657E+03  0.17200000000E+03 0. -1.
         -6    1    1    2    0  502  0.22298799506E+03  0.23224690239E+03  0.41015693314E+02  0.36732622654E+03  0.17200000000E+03 0.  1.
</event>
<event>
 4    1 -0.6532506E-004  0.4783915E+03  0.7818608E-02  0.1019578E+00
          5   -1    0    0  501    0  0.00000000000E+00  0.00000000000E+00  0.74917922999E+03  0.74919397264E+03  0.47000000000E+01 0. -1.
         -5   -1    0    0    0  501 -0.00000000000E+00 -0.00000000000E+00 -0.31919558652E+03  0.31923018726E+03  0.47000000000E+01 0.  1.
          6    1    1    2  502    0 -0.34988157082E+03 -0.27723158449E+03  0.10411472587E+03  0.48958997251E+03  0.17200000000E+03 0. -1.
         -6    1    1    2    0  502  0.34988157082E+03  0.27723158449E+03  0.32586891760E+03  0.57883418739E+03  0.17200000000E+03 0. -1.
</event>
<event>
 4    1 -0.6532506E-004  0.1722757E+03  0.7818608E-02  0.1175495E+00
          5   -1    0    0  501    0  0.00000000000E+00  0.00000000000E+00  0.45813422263E+02  0.46053877790E+02  0.47000000000E+01 0. -1.
         -5   -1    0    0    0  501 -0.00000000000E+00 -0.00000000000E+00 -0.72925571259E+03  0.72927085801E+03  0.47000000000E+01 0.  1.
          6    1    1    2  502    0 -0.52444748298E+00 -0.97275850058E+01 -0.21066228549E+03  0.27213507581E+03  0.17200000000E+03 0. -1.
         -6    1    1    2    0  502  0.52444748298E+00  0.97275850058E+01 -0.47278000483E+03  0.50318966000E+03  0.17200000000E+03 0.  1.
</event>
<event>
 4    1 -0.6532506E-004  0.1823206E+03  0.7818608E-02  0.1165576E+00
          5   -1    0    0  501    0  0.00000000000E+00  0.00000000000E+00  0.87818615803E+03  0.87819873500E+03  0.47000000000E+01 0. -1.
         -5   -1    0    0    0  501 -0.00000000000E+00 -0.00000000000E+00 -0.50167219777E+02  0.50386902467E+02  0.47000000000E+01 0.  1.
          6    1    1    2  502    0  0.41224151171E+02 -0.44242232653E+02  0.64491392257E+03  0.67019010237E+03  0.17200000000E+03 0. -1.
         -6    1    1    2    0  502 -0.41224151171E+02  0.44242232653E+02  0.18310501568E+03  0.25839553510E+03  0.17200000000E+03 0.  1.
</event>
<event>
 4    1 -0.6532506E-004  0.2231964E+03  0.7818608E-02  0.1131522E+00
          5   -1    0    0  501    0  0.00000000000E+00  0.00000000000E+00  0.67794380903E+03  0.67796010074E+03  0.47000000000E+01 0. -1.
         -5   -1    0    0    0  501 -0.00000000000E+00 -0.00000000000E+00 -0.81248232659E+02  0.81384060541E+02  0.47000000000E+01 0.  1.
          6    1    1    2  502    0 -0.13694448244E+03 -0.38455798961E+02  0.41631172844E+03  0.47236860076E+03  0.17200000000E+03 0. -1.
         -6    1    1    2    0  502  0.13694448244E+03  0.38455798961E+02  0.18038384793E+03  0.28697556052E+03  0.17200000000E+03 0.  1.
</event>
<event>
 4    1 -0.6532506E-004  0.2027834E+03  0.7818608E-02  0.1147412E+00
         -5   -1    0    0    0  501 -0.00000000000E+00  0.00000000000E+00  0.23688266972E+02  0.24150030893E+02  0.47000000000E+01 0.  1.
          5   -1    0    0  501    0  0.00000000000E+00 -0.00000000000E+00 -0.20116172736E+04  0.20116227642E+04  0.47000000000E+01 0. -1.
          6    1    1    2  502    0 -0.62057943813E+02 -0.87669425069E+02 -0.13823329202E+04  0.13971275599E+04  0.17200000000E+03 0. -1.
         -6    1    1    2    0  502  0.62057943813E+02  0.87669425069E+02 -0.60559608643E+03  0.63864523515E+03  0.17200000000E+03 0.  1.
</event>
<event>
 4    1 -0.6532506E-004  0.3465883E+03  0.7818608E-02  0.1064024E+00
         -5   -1    0    0    0  501 -0.00000000000E+00  0.00000000000E+00  0.36591356467E+03  0.36594374815E+03  0.47000000000E+01 0.  1.
          5   -1    0    0  501    0  0.00000000000E+00 -0.00000000000E+00 -0.33086774570E+03  0.33090112593E+03  0.47000000000E+01 0. -1.
          6    1    1    2  502    0 -0.25906765916E+03 -0.15304703340E+03 -0.13624315498E+02  0.34685597649E+03  0.17200000000E+03 0. -1.
         -6    1    1    2    0  502  0.25906765916E+03  0.15304703340E+03  0.48670134474E+02  0.34998889760E+03  0.17200000000E+03 0.  1.
</event>
<event>
 4    1 -0.6532506E-004  0.1784156E+03  0.7818608E-02  0.1169345E+00
         -5   -1    0    0    0  501 -0.00000000000E+00  0.00000000000E+00  0.73222869984E+03  0.73224378377E+03  0.47000000000E+01 0.  1.
          5   -1    0    0  501    0  0.00000000000E+00 -0.00000000000E+00 -0.44399304684E+02  0.44647376814E+02  0.47000000000E+01 0. -1.
          6    1    1    2  502    0  0.44442170696E+02 -0.16523160664E+02  0.40400874551E+03  0.44165052680E+03  0.17200000000E+03 0.  1.
         -6    1    1    2    0  502 -0.44442170696E+02  0.16523160664E+02  0.28382064965E+03  0.33524063379E+03  0.17200000000E+03 0. -1.
</event>
<event>
 4    1 -0.6532506E-004  0.2632900E+03  0.7818608E-02  0.1105183E+00
         -5   -1    0    0    0  501 -0.00000000000E+00  0.00000000000E+00  0.14047433587E+03  0.14055294034E+03  0.47000000000E+01 0.  1.
          5   -1    0    0  501    0  0.00000000000E+00 -0.00000000000E+00 -0.57727107294E+03  0.57729020575E+03  0.47000000000E+01 0. -1.
          6    1    1    2  502    0  0.17391410769E+03 -0.97424347830E+02 -0.35531444545E+03  0.44223294263E+03  0.17200000000E+03 0.  1.
         -6    1    1    2    0  502 -0.17391410769E+03  0.97424347830E+02 -0.81482291618E+02  0.27561020346E+03  0.17200000000E+03 0.  1.
</event>
<event>
 4    1 -0.6532506E-004  0.2297229E+03  0.7818608E-02  0.1126835E+00
          5   -1    0    0  501    0  0.00000000000E+00  0.00000000000E+00  0.12141011731E+04  0.12141102704E+04  0.47000000000E+01 0. -1.
         -5   -1    0    0    0  501 -0.00000000000E+00 -0.00000000000E+00 -0.84817793468E+02  0.84947913976E+02  0.47000000000E+01 0.  1.
          6    1    1    2  502    0 -0.13745701723E+03 -0.65530129074E+02  0.10183745739E+04  0.10439633145E+04  0.17200000000E+03 0.  1.
         -6    1    1    2    0  502  0.13745701723E+03  0.65530129074E+02  0.11090880582E+03  0.25509486982E+03  0.17200000000E+03 0.  1.
</event>
<event>
 4    1 -0.6532506E-004  0.2034367E+03  0.7818608E-02  0.1146871E+00
         -5   -1    0    0    0  501 -0.00000000000E+00  0.00000000000E+00  0.68710578679E+02  0.68871137804E+02  0.47000000000E+01 0.  1.
          5   -1    0    0  501    0  0.00000000000E+00 -0.00000000000E+00 -0.60189010381E+03  0.60190845406E+03  0.47000000000E+01 0. -1.
          6    1    1    2  502    0 -0.90514896436E+02 -0.60079521461E+02 -0.25760561503E+03  0.32824860742E+03  0.17200000000E+03 0.  1.
         -6    1    1    2    0  502  0.90514896436E+02  0.60079521461E+02 -0.27557391010E+03  0.34253098444E+03  0.17200000000E+03 0. -1.
</event>
<event>
 4    1 -0.6532506E-004  0.4254694E+03  0.7818608E-02  0.1035301E+00
          5   -1    0    0  501    0  0.00000000000E+00  0.00000000000E+00  0.13077248406E+04  0.13077332865E+04  0.47000000000E+01 0. -1.
         -5   -1    0    0    0  501 -0.00000000000E+00 -0.00000000000E+00 -0.14090069006E+03  0.14097905681E+03  0.47000000000E+01 0.  1.
          6    1    1    2  502    0  0.36105953915E+03 -0.14517639550E+03  0.68030478555E+03  0.80239564920E+03  0.17200000000E+03 0. -1.
         -6    1    1    2    0  502 -0.36105953915E+03  0.14517639550E+03  0.48651936501E+03  0.64631669416E+03  0.17200000000E+03 0.  1.
</event>
<event>
 4    1 -0.6532506E-004  0.2364143E+03  0.7818608E-02  0.1122205E+00
         -5   -1    0    0    0  501 -0.00000000000E+00  0.00000000000E+00  0.31137543035E+02  0.31490261769E+02  0.47000000000E+01 0.  1.
          5   -1    0    0  501    0  0.00000000000E+00 -0.00000000000E+00 -0.18123992160E+04  0.18124053101E+04  0.47000000000E+01 0. -1.
          6    1    1    2  502    0  0.14466900344E+03 -0.73338951400E+02 -0.10049458678E+04  0.10323797361E+04  0.17200000000E+03 0. -1.
         -6    1    1    2    0  502 -0.14466900344E+03  0.73338951400E+02 -0.77631580509E+03  0.81151583570E+03  0.17200000000E+03 0.  1.
</event>
<event>
 4    1 -0.6532506E-004  0.1992465E+03  0.7818608E-02  0.1150376E+00
          5   -1    0    0  501    0  0.00000000000E+00  0.00000000000E+00  0.23632567261E+03  0.23637240435E+03  0.47000000000E+01 0. -1.
         -5   -1    0    0    0  501 -0.00000000000E+00 -0.00000000000E+00 -0.19680652073E+03  0.19686263384E+03  0.47000000000E+01 0.  1.
          6    1    1    2  502    0 -0.99024781227E+02 -0.17585528239E+02  0.10277095311E+03  0.22418971186E+03  0.17200000000E+03 0.  1.
         -6    1    1    2    0  502  0.99024781227E+02  0.17585528239E+02 -0.63251801233E+02  0.20904532633E+03  0.17200000000E+03 0.  1.
</event>
<event>
 4    1 -0.6532506E-004  0.1803531E+03  0.7818608E-02  0.1167462E+00
         -5   -1    0    0    0  501 -0.00000000000E+00  0.00000000000E+00  0.18949698445E+04  0.18949756731E+04  0.47000000000E+01 0.  1.
          5   -1    0    0  501    0  0.00000000000E+00 -0.00000000000E+00 -0.35188896682E+02  0.35501386588E+02  0.47000000000E+01 0. -1.
          6    1    1    2  502    0  0.54249431116E+02 -0.49226851788E+00  0.23757825795E+03  0.29827951950E+03  0.17200000000E+03 0. -1.
         -6    1    1    2    0  502 -0.54249431116E+02  0.49226851788E+00  0.16222026899E+04  0.16321975402E+04  0.17200000000E+03 0.  1.
</event>
<event>
 4    1 -0.6532506E-004  0.3326727E+03  0.7818608E-02  0.1069960E+00
          5   -1    0    0  501    0  0.00000000000E+00  0.00000000000E+00  0.33719369786E+03  0.33722645192E+03  0.47000000000E+01 0. -1.
         -5   -1    0    0    0  501 -0.00000000000E+00 -0.00000000000E+00 -0.66182915731E+03  0.66184584570E+03  0.47000000000E+01 0.  1.
          6    1    1    2  502    0  0.22008464883E+03 -0.18069281415E+03  0.19236623445E+03  0.38428623953E+03  0.17200000000E+03 0. -1.
         -6    1    1    2    0  502 -0.22008464883E+03  0.18069281415E+03 -0.51700169390E+03  0.61478605810E+03  0.17200000000E+03 0.  1.
</event>
<event>
 4    1 -0.6532506E-004  0.1962889E+03  0.7818608E-02  0.1152908E+00
          5   -1    0    0  501    0  0.00000000000E+00  0.00000000000E+00  0.36569918333E+03  0.36572938450E+03  0.47000000000E+01 0. -1.
         -5   -1    0    0    0  501 -0.00000000000E+00 -0.00000000000E+00 -0.18651769313E+03  0.18657690064E+03  0.47000000000E+01 0.  1.
          6    1    1    2  502    0  0.94135987220E+02  0.91516480270E+01  0.27179651442E+03  0.33526509213E+03  0.17200000000E+03 0. -1.
         -6    1    1    2    0  502 -0.94135987220E+02 -0.91516480270E+01 -0.92615024218E+02  0.21704119301E+03  0.17200000000E+03 0.  1.
</event>
<event>
 4    1 -0.6532506E-004  0.2196597E+03  0.7818608E-02  0.1134137E+00
         -5   -1    0    0    0  501 -0.00000000000E+00  0.00000000000E+00  0.71195324324E+03  0.71196875673E+03  0.47000000000E+01 0.  1.
          5   -1    0    0  501    0  0.00000000000E+00 -0.00000000000E+00 -0.68714444261E+02  0.68874994375E+02  0.47000000000E+01 0. -1.
          6    1    1    2  502    0 -0.69208254598E+02 -0.11779889622E+03  0.27364069413E+03  0.35089826437E+03  0.17200000000E+03 0. -1.
         -6    1    1    2    0  502  0.69208254598E+02  0.11779889622E+03  0.36959810485E+03  0.42994548673E+03  0.17200000000E+03 0. -1.
</event>
<event>
 4    1 -0.6532506E-004  0.2449724E+03  0.7818608E-02  0.1116524E+00
          5   -1    0    0  501    0  0.00000000000E+00  0.00000000000E+00  0.13263195243E+04  0.13263278518E+04  0.47000000000E+01 0. -1.
         -5   -1    0    0    0  501 -0.00000000000E+00 -0.00000000000E+00 -0.65001655812E+02  0.65171353050E+02  0.47000000000E+01 0.  1.
          6    1    1    2  502    0  0.16536982645E+03  0.55500568728E+02  0.10148451875E+04  0.10439934134E+04  0.17200000000E+03 0. -1.
         -6    1    1    2    0  502 -0.16536982645E+03 -0.55500568728E+02  0.24647268093E+03  0.34750579142E+03  0.17200000000E+03 0.  1.
</event>
<event>
 4    1 -0.6532506E-004  0.2486761E+03  0.7818608E-02  0.1114144E+00
         -5   -1    0    0    0  501 -0.00000000000E+00  0.00000000000E+00  0.12454220699E+04  0.12454309383E+04  0.47000000000E+01 0.  1.
          5   -1    0    0  501    0  0.00000000000E+00 -0.00000000000E+00 -0.53792342159E+02  0.53997278403E+02  0.47000000000E+01 0. -1.
          6    1    1    2  502    0  0.17034424385E+03 -0.56909020215E+02  0.41337649844E+03  0.48241053829E+03  0.17200000000E+03 0. -1.
         -6    1    1    2    0  502 -0.17034424385E+03  0.56909020215E+02  0.77825322928E+03  0.81701767844E+03  0.17200000000E+03 0.  1.
</event>
<event>
 4    1 -0.6532506E-004  0.1959963E+03  0.7818608E-02  0.1153162E+00
          5   -1    0    0  501    0  0.00000000000E+00  0.00000000000E+00  0.78753364134E+02  0.78893487452E+02  0.47000000000E+01 0. -1.
         -5   -1    0    0    0  501 -0.00000000000E+00 -0.00000000000E+00 -0.48826343784E+03  0.48828605830E+03  0.47000000000E+01 0.  1.
          6    1    1    2  502    0  0.86056119336E+02  0.37747628543E+02 -0.19150871644E+03  0.27402577910E+03  0.17200000000E+03 0. -1.
         -6    1    1    2    0  502 -0.86056119336E+02 -0.37747628543E+02 -0.21800135726E+03  0.29315376665E+03  0.17200000000E+03 0.  1.
</event>
<event>
 4    1 -0.6532506E-004  0.3751247E+03  0.7818608E-02  0.1052751E+00
          5   -1    0    0  501    0  0.00000000000E+00  0.00000000000E+00  0.97202595096E+03  0.97203731375E+03  0.47000000000E+01 0. -1.
         -5   -1    0    0    0  501 -0.00000000000E+00 -0.00000000000E+00 -0.29443905476E+03  0.29447656438E+03  0.47000000000E+01 0.  1.
          6    1    1    2  502    0  0.24840593576E+03  0.22232646130E+03  0.79030971663E+03  0.87481884554E+03  0.17200000000E+03 0. -1.
         -6    1    1    2    0  502 -0.24840593576E+03 -0.22232646130E+03 -0.11272282043E+03  0.39169503260E+03  0.17200000000E+03 0.  1.
</event>
<event>
 4    1 -0.6532506E-004  0.1937933E+03  0.7818608E-02  0.1155084E+00
          5   -1    0    0  501    0  0.00000000000E+00  0.00000000000E+00  0.12719374103E+03  0.12728054744E+03  0.47000000000E+01 0. -1.
         -5   -1    0    0    0  501 -0.00000000000E+00 -0.00000000000E+00 -0.35363671940E+03  0.35366795064E+03  0.47000000000E+01 0.  1.
          6    1    1    2  502    0 -0.52153347833E+02  0.72469888630E+02 -0.15366544591E+02  0.19440161301E+03  0.17200000000E+03 0. -1.
         -6    1    1    2    0  502  0.52153347833E+02 -0.72469888630E+02 -0.21107643377E+03  0.28654688507E+03  0.17200000000E+03 0.  1.
</event>
<event>
 4    1 -0.6532506E-004  0.2275496E+03  0.7818608E-02  0.1128376E+00
          5   -1    0    0  501    0  0.00000000000E+00  0.00000000000E+00  0.53037362934E+02  0.53245205108E+02  0.47000000000E+01 0. -1.
         -5   -1    0    0    0  501 -0.00000000000E+00 -0.00000000000E+00 -0.11917016826E+04  0.11917109509E+04  0.47000000000E+01 0.  1.
          6    1    1    2  502    0  0.46509445340E+01  0.14890664266E+03 -0.30339207132E+03  0.37924341584E+03  0.17200000000E+03 0. -1.
         -6    1    1    2    0  502 -0.46509445340E+01 -0.14890664266E+03 -0.83527224838E+03  0.86571274014E+03  0.17200000000E+03 0.  1.
</event>
<event>
 4    1 -0.6532506E-004  0.1931276E+03  0.7818608E-02  0.1155670E+00
          5   -1    0    0  501    0  0.00000000000E+00  0.00000000000E+00  0.93121267266E+02  0.93239800607E+02  0.47000000000E+01 0. -1.
         -5   -1    0    0    0  501 -0.00000000000E+00 -0.00000000000E+00 -0.40703614983E+03  0.40706328410E+03  0.47000000000E+01 0.  1.
          6    1    1    2  502    0  0.33122377891E+02  0.81346048786E+02 -0.18949477583E+03  0.27056707419E+03  0.17200000000E+03 0.  1.
         -6    1    1    2    0  502 -0.33122377891E+02 -0.81346048786E+02 -0.12442010673E+03  0.22973601052E+03  0.17200000000E+03 0.  1.
</event>
<event>
 4    1 -0.6532506E-004  0.2002194E+03  0.7818608E-02  0.1149554E+00
          5   -1    0    0  501    0  0.00000000000E+00  0.00000000000E+00  0.50319242422E+02  0.50538264295E+02  0.47000000000E+01 0. -1.
         -5   -1    0    0    0  501 -0.00000000000E+00 -0.00000000000E+00 -0.80181223178E+03  0.80182600671E+03  0.47000000000E+01 0.  1.
          6    1    1    2  502    0 -0.91071690328E+02 -0.47008209618E+02 -0.41584015829E+03  0.46153099765E+03  0.17200000000E+03 0.  1.
         -6    1    1    2    0  502  0.91071690328E+02  0.47008209618E+02 -0.33565283107E+03  0.39083327335E+03  0.17200000000E+03 0. -1.
</event>
<event>
 4    1 -0.6532506E-004  0.2413502E+03  0.7818608E-02  0.1118897E+00
         -5   -1    0    0    0  501 -0.00000000000E+00  0.00000000000E+00  0.20692418777E+03  0.20697755792E+03  0.47000000000E+01 0.  1.
          5   -1    0    0  501    0  0.00000000000E+00 -0.00000000000E+00 -0.28398481570E+03  0.28402370596E+03  0.47000000000E+01 0. -1.
          6    1    1    2  502    0  0.16819717627E+03  0.19381334034E+02 -0.15087054965E+02  0.24182130891E+03  0.17200000000E+03 0. -1.
         -6    1    1    2    0  502 -0.16819717627E+03 -0.19381334034E+02 -0.61973572968E+02  0.24917995498E+03  0.17200000000E+03 0. -1.
</event>
<event>
 4    1 -0.6532506E-004  0.3076644E+03  0.7818608E-02  0.1081471E+00
          5   -1    0    0  501    0  0.00000000000E+00  0.00000000000E+00  0.90175793797E+03  0.90177018618E+03  0.47000000000E+01 0. -1.
         -5   -1    0    0    0  501 -0.00000000000E+00 -0.00000000000E+00 -0.11756089374E+03  0.11765480754E+03  0.47000000000E+01 0.  1.
          6    1    1    2  502    0 -0.10865375483E+03  0.23079805873E+03  0.22493306612E+03  0.38111975360E+03  0.17200000000E+03 0.  1.
         -6    1    1    2    0  502  0.10865375483E+03 -0.23079805873E+03  0.55926397811E+03  0.63830524012E+03  0.17200000000E+03 0. -1.
</event>
<event>
 4    1 -0.6532506E-004  0.2388264E+03  0.7818608E-02  0.1120577E+00
          5   -1    0    0  501    0  0.00000000000E+00  0.00000000000E+00  0.29923318688E+03  0.29927009561E+03  0.47000000000E+01 0. -1.
         -5   -1    0    0    0  501 -0.00000000000E+00 -0.00000000000E+00 -0.25203386883E+03  0.25207768850E+03  0.47000000000E+01 0.  1.
          6    1    1    2  502    0 -0.12768919993E+03 -0.10559129081E+03 -0.11255080186E+03  0.26401843775E+03  0.17200000000E+03 0. -1.
         -6    1    1    2    0  502  0.12768919993E+03  0.10559129081E+03  0.15975011990E+03  0.28732934636E+03  0.17200000000E+03 0.  1.
</event>
<event>
 4    1 -0.6532506E-004  0.1872017E+03  0.7818608E-02  0.1161010E+00
         -5   -1    0    0    0  501 -0.00000000000E+00  0.00000000000E+00  0.70112696281E+03  0.70114271584E+03  0.47000000000E+01 0.  1.
          5   -1    0    0  501    0  0.00000000000E+00 -0.00000000000E+00 -0.59306165328E+02  0.59492110788E+02  0.47000000000E+01 0. -1.
          6    1    1    2  502    0  0.56397511741E+02 -0.47747374126E+02  0.16937682863E+03  0.25245395846E+03  0.17200000000E+03 0. -1.
         -6    1    1    2    0  502 -0.56397511741E+02  0.47747374126E+02  0.47244396885E+03  0.50818086817E+03  0.17200000000E+03 0.  1.
</event>
<event>
 4    1 -0.6532506E-004  0.2598164E+03  0.7818608E-02  0.1107254E+00
         -5   -1    0    0    0  501 -0.00000000000E+00  0.00000000000E+00  0.53180167761E+03  0.53182244623E+03  0.47000000000E+01 0.  1.
          5   -1    0    0  501    0  0.00000000000E+00 -0.00000000000E+00 -0.16551940187E+03  0.16558611776E+03  0.47000000000E+01 0. -1.
          6    1    1    2  502    0 -0.19424384564E+03 -0.13780099654E+02  0.35159567081E+03  0.43717739929E+03  0.17200000000E+03 0.  1.
         -6    1    1    2    0  502  0.19424384564E+03  0.13780099654E+02  0.14686604936E+02  0.26023116470E+03  0.17200000000E+03 0. -1.
</event>
<event>
 4    1 -0.6532506E-004  0.1973176E+03  0.7818608E-02  0.1152022E+00
         -5   -1    0    0    0  501 -0.00000000000E+00  0.00000000000E+00  0.10882629300E+03  0.10892773774E+03  0.47000000000E+01 0.  1.
          5   -1    0    0  501    0  0.00000000000E+00 -0.00000000000E+00 -0.36383167170E+03  0.36386202788E+03  0.47000000000E+01 0. -1.
          6    1    1    2  502    0 -0.59723545919E+02 -0.76048271623E+02 -0.15872774862E+03  0.25323652923E+03  0.17200000000E+03 0. -1.
         -6    1    1    2    0  502  0.59723545919E+02  0.76048271623E+02 -0.96277630078E+02  0.21955323639E+03  0.17200000000E+03 0.  1.
</event>
<event>
 4    1 -0.6532506E-004  0.1949060E+03  0.7818608E-02  0.1154109E+00
          5   -1    0    0  501    0  0.00000000000E+00  0.00000000000E+00  0.90756067986E+02  0.90877686350E+02  0.47000000000E+01 0. -1.
         -5   -1    0    0    0  501 -0.00000000000E+00 -0.00000000000E+00 -0.54830042107E+03  0.54832056477E+03  0.47000000000E+01 0.  1.
          6    1    1    2  502    0 -0.64727562824E+02 -0.64920708341E+02 -0.73088631926E+02  0.20815932330E+03  0.17200000000E+03 0. -1.
         -6    1    1    2    0  502  0.64727562824E+02  0.64920708341E+02 -0.38445572116E+03  0.43103892781E+03  0.17200000000E+03 0.  1.
</event>
<event>
 4    1 -0.6532506E-004  0.2520921E+03  0.7818608E-02  0.1111990E+00
          5   -1    0    0  501    0  0.00000000000E+00  0.00000000000E+00  0.16237953232E+03  0.16244753774E+03  0.47000000000E+01 0. -1.
         -5   -1    0    0    0  501 -0.00000000000E+00 -0.00000000000E+00 -0.42538699539E+03  0.42541295919E+03  0.47000000000E+01 0.  1.
          6    1    1    2  502    0 -0.15275516794E+03  0.10311292062E+03 -0.48193413585E+02  0.25665739975E+03  0.17200000000E+03 0. -1.
         -6    1    1    2    0  502  0.15275516794E+03 -0.10311292062E+03 -0.21481404948E+03  0.33120309719E+03  0.17200000000E+03 0.  1.
</event>
<event>
 4    1 -0.6532506E-004  0.2234964E+03  0.7818608E-02  0.1131303E+00
          5   -1    0    0  501    0  0.00000000000E+00  0.00000000000E+00  0.23321976827E+03  0.23326712223E+03  0.47000000000E+01 0. -1.
         -5   -1    0    0    0  501 -0.00000000000E+00 -0.00000000000E+00 -0.26959730828E+03  0.26963827368E+03  0.47000000000E+01 0.  1.
          6    1    1    2  502    0  0.76071387507E+02 -0.12074684203E+03  0.95894844404E+02  0.24320048733E+03  0.17200000000E+03 0. -1.
         -6    1    1    2    0  502 -0.76071387507E+02  0.12074684203E+03 -0.13227238441E+03  0.25970490857E+03  0.17200000000E+03 0.  1.
</event>
<event>
 4    1 -0.6532506E-004  0.1886084E+03  0.7818608E-02  0.1159723E+00
         -5   -1    0    0    0  501 -0.00000000000E+00  0.00000000000E+00  0.14947338912E+03  0.14954726361E+03  0.47000000000E+01 0.  1.
          5   -1    0    0  501    0  0.00000000000E+00 -0.00000000000E+00 -0.24290816164E+03  0.24295362724E+03  0.47000000000E+01 0. -1.
          6    1    1    2  502    0 -0.71384939520E+02 -0.29888240000E+02 -0.75075411310E+02  0.20300106863E+03  0.17200000000E+03 0.  1.
         -6    1    1    2    0  502  0.71384939520E+02  0.29888240000E+02 -0.18359361210E+02  0.18949982223E+03  0.17200000000E+03 0. -1.
</event>
<event>
 4    1 -0.6532506E-004  0.1895505E+03  0.7818608E-02  0.1158867E+00
         -5   -1    0    0    0  501 -0.00000000000E+00  0.00000000000E+00  0.14553698058E+04  0.14553773950E+04  0.47000000000E+01 0.  1.
          5   -1    0    0  501    0  0.00000000000E+00 -0.00000000000E+00 -0.40462455980E+02  0.40734510478E+02  0.47000000000E+01 0. -1.
          6    1    1    2  502    0 -0.79411719710E+02  0.62601175757E+01  0.23908070059E+03  0.30510488638E+03  0.17200000000E+03 0. -1.
         -6    1    1    2    0  502  0.79411719710E+02 -0.62601175757E+01  0.11758266493E+04  0.11910070191E+04  0.17200000000E+03 0.  1.
</event>
<event>
 4    1 -0.6532506E-004  0.1733234E+03  0.7818608E-02  0.1174426E+00
         -5   -1    0    0    0  501 -0.00000000000E+00  0.00000000000E+00  0.12814661154E+03  0.12823277292E+03  0.47000000000E+01 0.  1.
          5   -1    0    0  501    0  0.00000000000E+00 -0.00000000000E+00 -0.32077493623E+03  0.32080936662E+03  0.47000000000E+01 0. -1.
          6    1    1    2  502    0 -0.98753953934E+01  0.18960066142E+02 -0.21290673375E+03  0.27453649087E+03  0.17200000000E+03 0. -1.
         -6    1    1    2    0  502  0.98753953934E+01 -0.18960066142E+02  0.20278409067E+02  0.17450564867E+03  0.17200000000E+03 0.  1.
</event>
<event>
 4    1 -0.6532506E-004  0.4773273E+03  0.7818608E-02  0.1019872E+00
          5   -1    0    0  501    0  0.00000000000E+00  0.00000000000E+00  0.52476609883E+03  0.52478714588E+03  0.47000000000E+01 0. -1.
         -5   -1    0    0    0  501 -0.00000000000E+00 -0.00000000000E+00 -0.43420634656E+03  0.43423178303E+03  0.47000000000E+01 0.  1.
          6    1    1    2  502    0 -0.43249967853E+03  0.10583635565E+03  0.39107932625E+02  0.47892665044E+03  0.17200000000E+03 0. -1.
         -6    1    1    2    0  502  0.43249967853E+03 -0.10583635565E+03  0.51451819645E+02  0.48009227847E+03  0.17200000000E+03 0.  1.
</event>
<event>
 4    1 -0.6532506E-004  0.2328860E+03  0.7818608E-02  0.1124625E+00
          5   -1    0    0  501    0  0.00000000000E+00  0.00000000000E+00  0.21399858052E+03  0.21405018679E+03  0.47000000000E+01 0. -1.
         -5   -1    0    0    0  501 -0.00000000000E+00 -0.00000000000E+00 -0.53929733207E+03  0.53931781204E+03  0.47000000000E+01 0.  1.
          6    1    1    2  502    0  0.22965588959E+02 -0.15532052848E+03  0.11162338900E+03  0.25825504025E+03  0.17200000000E+03 0. -1.
         -6    1    1    2    0  502 -0.22965588959E+02  0.15532052848E+03 -0.43692214055E+03  0.49511295857E+03  0.17200000000E+03 0.  1.
</event>
<event>
 4    1 -0.6532506E-004  0.2743222E+03  0.7818608E-02  0.1098831E+00
         -5   -1    0    0    0  501 -0.00000000000E+00  0.00000000000E+00  0.32365653689E+03  0.32369066077E+03  0.47000000000E+01 0.  1.
          5   -1    0    0  501    0  0.00000000000E+00 -0.00000000000E+00 -0.25687532150E+03  0.25691831541E+03  0.47000000000E+01 0. -1.
          6    1    1    2  502    0  0.19455953381E+03  0.88403834890E+02 -0.56136755467E+02  0.28000711694E+03  0.17200000000E+03 0. -1.
         -6    1    1    2    0  502 -0.19455953381E+03 -0.88403834890E+02  0.12291797086E+03  0.30060185924E+03  0.17200000000E+03 0.  1.
</event>
<event>
 4    1 -0.6532506E-004  0.2294062E+03  0.7818608E-02  0.1127058E+00
          5   -1    0    0  501    0  0.00000000000E+00  0.00000000000E+00  0.10623685418E+04  0.10623789384E+04  0.47000000000E+01 0. -1.
         -5   -1    0    0    0  501 -0.00000000000E+00 -0.00000000000E+00 -0.18987226494E+03  0.18993042672E+03  0.47000000000E+01 0.  1.
          6    1    1    2  502    0  0.73500024244E+02 -0.13281919207E+03  0.97457946311E+03  0.10012154220E+04  0.17200000000E+03 0. -1.
         -6    1    1    2    0  502 -0.73500024244E+02  0.13281919207E+03 -0.10208318621E+03  0.25109394308E+03  0.17200000000E+03 0.  1.
</event>
<event>
 4    1 -0.6532506E-004  0.2185041E+03  0.7818608E-02  0.1135003E+00
         -5   -1    0    0    0  501 -0.00000000000E+00  0.00000000000E+00  0.25100290360E+03  0.25104690322E+03  0.47000000000E+01 0.  1.
          5   -1    0    0  501    0  0.00000000000E+00 -0.00000000000E+00 -0.19623325425E+03  0.19628953124E+03  0.47000000000E+01 0. -1.
          6    1    1    2  502    0 -0.74953164134E+02 -0.11199142111E+03 -0.12071795675E+02  0.21883734477E+03  0.17200000000E+03 0. -1.
         -6    1    1    2    0  502  0.74953164134E+02  0.11199142111E+03  0.66841445018E+02  0.22849908969E+03  0.17200000000E+03 0. -1.
</event>
<event>
 4    1 -0.6532506E-004  0.1830949E+03  0.7818608E-02  0.1164841E+00
          5   -1    0    0  501    0  0.00000000000E+00  0.00000000000E+00  0.20521802777E+04  0.20521856598E+04  0.47000000000E+01 0. -1.
         -5   -1    0    0    0  501 -0.00000000000E+00 -0.00000000000E+00 -0.18609161694E+02  0.19193511897E+02  0.47000000000E+01 0.  1.
          6    1    1    2  502    0 -0.39758979492E+02 -0.48569017911E+02  0.63485966847E+03  0.66073483683E+03  0.17200000000E+03 0. -1.
         -6    1    1    2    0  502  0.39758979492E+02  0.48569017911E+02  0.13987114476E+04  0.14106443349E+04  0.17200000000E+03 0. -1.
</event>
<event>
 4    1 -0.6532506E-004  0.3128182E+03  0.7818608E-02  0.1079003E+00
         -5   -1    0    0    0  501 -0.00000000000E+00  0.00000000000E+00  0.91686537476E+02  0.91806923237E+02  0.47000000000E+01 0.  1.
          5   -1    0    0  501    0  0.00000000000E+00 -0.00000000000E+00 -0.10889733196E+04  0.10889834621E+04  0.47000000000E+01 0. -1.
          6    1    1    2  502    0  0.65761055715E+02 -0.25287687934E+03 -0.58353819144E+03  0.66209671002E+03  0.17200000000E+03 0. -1.
         -6    1    1    2    0  502 -0.65761055715E+02  0.25287687934E+03 -0.41374859068E+03  0.51869367535E+03  0.17200000000E+03 0.  1.
</event>
<event>
 4    1 -0.6532506E-004  0.2506901E+03  0.7818608E-02  0.1112869E+00
         -5   -1    0    0    0  501 -0.00000000000E+00  0.00000000000E+00  0.46628788640E+03  0.46631157288E+03  0.47000000000E+01 0.  1.
          5   -1    0    0  501    0  0.00000000000E+00 -0.00000000000E+00 -0.16514730217E+03  0.16521416832E+03  0.47000000000E+01 0. -1.
          6    1    1    2  502    0  0.17256295288E+03 -0.59021571937E+02  0.15052130394E+02  0.25114156424E+03  0.17200000000E+03 0. -1.
         -6    1    1    2    0  502 -0.17256295288E+03  0.59021571937E+02  0.28608845384E+03  0.38038417696E+03  0.17200000000E+03 0.  1.
</event>
<event>
 4    1 -0.6532506E-004  0.3815148E+03  0.7818608E-02  0.1050375E+00
          5   -1    0    0  501    0  0.00000000000E+00  0.00000000000E+00  0.10888615216E+03  0.10898754117E+03  0.47000000000E+01 0. -1.
         -5   -1    0    0    0  501 -0.00000000000E+00 -0.00000000000E+00 -0.13379942191E+04  0.13380024739E+04  0.47000000000E+01 0.  1.
          6    1    1    2  502    0  0.33980418834E+03  0.22420408944E+02 -0.64232722950E+03  0.74708622723E+03  0.17200000000E+03 0. -1.
         -6    1    1    2    0  502 -0.33980418834E+03 -0.22420408944E+02 -0.58678083741E+03  0.69990378789E+03  0.17200000000E+03 0.  1.
</event>
<event>
 4    1 -0.6532506E-004  0.2164485E+03  0.7818608E-02  0.1136559E+00
         -5   -1    0    0    0  501 -0.00000000000E+00  0.00000000000E+00  0.16705964495E+03  0.16712574599E+03  0.47000000000E+01 0.  1.
          5   -1    0    0  501    0  0.00000000000E+00 -0.00000000000E+00 -0.29029301266E+03  0.29033105794E+03  0.47000000000E+01 0. -1.
          6    1    1    2  502    0  0.21466084155E+02 -0.12963469082E+03 -0.10405257056E+03  0.24016012007E+03  0.17200000000E+03 0. -1.
         -6    1    1    2    0  502 -0.21466084155E+02  0.12963469082E+03 -0.19180797151E+02  0.21729668385E+03  0.17200000000E+03 0.  1.
</event>
<event>
 4    1 -0.6532506E-004  0.2284208E+03  0.7818608E-02  0.1127756E+00
          5   -1    0    0  501    0  0.00000000000E+00  0.00000000000E+00  0.12362568712E+03  0.12371499713E+03  0.47000000000E+01 0. -1.
         -5   -1    0    0    0  501 -0.00000000000E+00 -0.00000000000E+00 -0.65425085858E+03  0.65426774027E+03  0.47000000000E+01 0.  1.
          6    1    1    2  502    0 -0.15030303285E+03 -0.10319827447E+01 -0.33465172206E+02  0.23085923075E+03  0.17200000000E+03 0.  1.
         -6    1    1    2    0  502  0.15030303285E+03  0.10319827447E+01 -0.49715999925E+03  0.54712350665E+03  0.17200000000E+03 0.  1.
</event>
<event>
 4    1 -0.6532506E-004  0.1962269E+03  0.7818608E-02  0.1152962E+00
          5   -1    0    0  501    0  0.00000000000E+00  0.00000000000E+00  0.18303194056E+04  0.18303254401E+04  0.47000000000E+01 0. -1.
         -5   -1    0    0    0  501 -0.00000000000E+00 -0.00000000000E+00 -0.22961360233E+02  0.23437450027E+02  0.47000000000E+01 0.  1.
          6    1    1    2  502    0  0.50213281085E+02 -0.79997681078E+02  0.11869976282E+04  0.12031077973E+04  0.17200000000E+03 0. -1.
         -6    1    1    2    0  502 -0.50213281085E+02  0.79997681078E+02  0.62036041716E+03  0.65065509277E+03  0.17200000000E+03 0.  1.
</event>
<event>
 4    1 -0.6532506E-004  0.1994064E+03  0.7818608E-02  0.1150241E+00
          5   -1    0    0  501    0  0.00000000000E+00  0.00000000000E+00  0.17441164780E+03  0.17447496350E+03  0.47000000000E+01 0. -1.
         -5   -1    0    0    0  501 -0.00000000000E+00 -0.00000000000E+00 -0.59573583752E+03  0.59575437733E+03  0.47000000000E+01 0.  1.
          6    1    1    2  502    0  0.79065277837E+02  0.62670494274E+02  0.91947000706E+02  0.21958406124E+03  0.17200000000E+03 0. -1.
         -6    1    1    2    0  502 -0.79065277837E+02 -0.62670494274E+02 -0.51327119043E+03  0.55064527959E+03  0.17200000000E+03 0.  1.
</event>
<event>
 4    1 -0.6532506E-004  0.2248709E+03  0.7818608E-02  0.1130303E+00
         -5   -1    0    0    0  501 -0.00000000000E+00  0.00000000000E+00  0.23955519196E+03  0.23960129380E+03  0.47000000000E+01 0.  1.
          5   -1    0    0  501    0  0.00000000000E+00 -0.00000000000E+00 -0.26149114441E+03  0.26153337953E+03  0.47000000000E+01 0. -1.
          6    1    1    2  502    0  0.75541856426E+02 -0.12359752016E+03 -0.12105883422E+03  0.25538629643E+03  0.17200000000E+03 0. -1.
         -6    1    1    2    0  502 -0.75541856426E+02  0.12359752016E+03  0.99122881761E+02  0.24574837690E+03  0.17200000000E+03 0.  1.
</event>
<event>
 4    1 -0.6532506E-004  0.2053260E+03  0.7818608E-02  0.1145322E+00
         -5   -1    0    0    0  501 -0.00000000000E+00  0.00000000000E+00  0.14918846167E+03  0.14926247718E+03  0.47000000000E+01 0.  1.
          5   -1    0    0  501    0  0.00000000000E+00 -0.00000000000E+00 -0.40221569858E+03  0.40224315803E+03  0.47000000000E+01 0. -1.
          6    1    1    2  502    0 -0.20508860899E+02  0.11024582402E+03 -0.27698248263E+03  0.34478696434E+03  0.17200000000E+03 0. -1.
         -6    1    1    2    0  502  0.20508860899E+02 -0.11024582402E+03  0.23955245725E+02  0.20671867087E+03  0.17200000000E+03 0.  1.
</event>
<event>
 4    1 -0.6532506E-004  0.1783880E+03  0.7818608E-02  0.1169372E+00
         -5   -1    0    0    0  501 -0.00000000000E+00  0.00000000000E+00  0.38608769580E+03  0.38611630223E+03  0.47000000000E+01 0.  1.
          5   -1    0    0  501    0  0.00000000000E+00 -0.00000000000E+00 -0.92338858613E+02  0.92458395022E+02  0.47000000000E+01 0. -1.
          6    1    1    2  502    0  0.27694774072E+02 -0.38357378622E+02  0.22561346967E+03  0.28761732684E+03  0.17200000000E+03 0.  1.
         -6    1    1    2    0  502 -0.27694774072E+02  0.38357378622E+02  0.68135367517E+02  0.19095737041E+03  0.17200000000E+03 0. -1.
</event>
<event>
 4    1 -0.6532506E-004  0.1782682E+03  0.7818608E-02  0.1169490E+00
          5   -1    0    0  501    0  0.00000000000E+00  0.00000000000E+00  0.63762308939E+03  0.63764041130E+03  0.47000000000E+01 0. -1.
         -5   -1    0    0    0  501 -0.00000000000E+00 -0.00000000000E+00 -0.64045647035E+02  0.64217870598E+02  0.47000000000E+01 0.  1.
          6    1    1    2  502    0 -0.45700512635E+02 -0.10344227187E+02  0.45253001593E+03  0.48637737942E+03  0.17200000000E+03 0. -1.
         -6    1    1    2    0  502  0.45700512635E+02  0.10344227187E+02  0.12104742643E+03  0.21548090249E+03  0.17200000000E+03 0.  1.
</event>
<event>
 4    1 -0.6532506E-004  0.2243993E+03  0.7818608E-02  0.1130645E+00
         -5   -1    0    0    0  501 -0.00000000000E+00  0.00000000000E+00  0.21189342699E+03  0.21194554584E+03  0.47000000000E+01 0.  1.
          5   -1    0    0  501    0  0.00000000000E+00 -0.00000000000E+00 -0.31871718358E+03  0.31875183624E+03  0.47000000000E+01 0. -1.
          6    1    1    2  502    0 -0.20815482777E+02 -0.14261051770E+03 -0.18730911654E+03  0.29230078553E+03  0.17200000000E+03 0.  1.
         -6    1    1    2    0  502  0.20815482777E+02  0.14261051770E+03  0.80485359954E+02  0.23839659656E+03  0.17200000000E+03 0.  1.
</event>
<event>
 4    1 -0.6532506E-004  0.1799318E+03  0.7818608E-02  0.1167869E+00
          5   -1    0    0  501    0  0.00000000000E+00  0.00000000000E+00  0.89976306136E+02  0.90098977053E+02  0.47000000000E+01 0. -1.
         -5   -1    0    0    0  501 -0.00000000000E+00 -0.00000000000E+00 -0.50384703579E+03  0.50386895665E+03  0.47000000000E+01 0.  1.
          6    1    1    2  502    0  0.44697584564E+01  0.52644846198E+02 -0.47965321460E+02  0.18621528035E+03  0.17200000000E+03 0. -1.
         -6    1    1    2    0  502 -0.44697584564E+01 -0.52644846198E+02 -0.36590540819E+03  0.40775265335E+03  0.17200000000E+03 0.  1.
</event>
<event>
 4    1 -0.6532506E-004  0.1844394E+03  0.7818608E-02  0.1163574E+00
          5   -1    0    0  501    0  0.00000000000E+00  0.00000000000E+00  0.21572593886E+03  0.21577713201E+03  0.47000000000E+01 0. -1.
         -5   -1    0    0    0  501 -0.00000000000E+00 -0.00000000000E+00 -0.15767133084E+03  0.15774136607E+03  0.47000000000E+01 0.  1.
          6    1    1    2  502    0  0.30983066506E+01 -0.66515371327E+02  0.33385919265E+02  0.18743669260E+03  0.17200000000E+03 0. -1.
         -6    1    1    2    0  502 -0.30983066506E+01  0.66515371327E+02  0.24668688752E+02  0.18608180548E+03  0.17200000000E+03 0. -1.
</event>
<event>
 4    1 -0.6532506E-004  0.2404824E+03  0.7818608E-02  0.1119472E+00
          5   -1    0    0  501    0  0.00000000000E+00  0.00000000000E+00  0.49652152239E+02  0.49874103721E+02  0.47000000000E+01 0. -1.
         -5   -1    0    0    0  501 -0.00000000000E+00 -0.00000000000E+00 -0.11662297184E+04  0.11662391890E+04  0.47000000000E+01 0.  1.
          6    1    1    2  502    0 -0.11720424559E+03 -0.12046149034E+03 -0.59527042507E+03  0.64201143666E+03  0.17200000000E+03 0. -1.
         -6    1    1    2    0  502  0.11720424559E+03  0.12046149034E+03 -0.52130714108E+03  0.57410185610E+03  0.17200000000E+03 0.  1.
</event>
<event>
 4    1 -0.6532506E-004  0.2910950E+03  0.7818608E-02  0.1089779E+00
          5   -1    0    0  501    0  0.00000000000E+00  0.00000000000E+00  0.50754327538E+03  0.50756503660E+03  0.47000000000E+01 0. -1.
         -5   -1    0    0    0  501 -0.00000000000E+00 -0.00000000000E+00 -0.25014447904E+03  0.25018862963E+03  0.47000000000E+01 0.  1.
          6    1    1    2  502    0  0.22693037685E+02  0.23374628229E+03  0.34723666260E+03  0.45311102204E+03  0.17200000000E+03 0. -1.
         -6    1    1    2    0  502 -0.22693037685E+02 -0.23374628229E+03 -0.89837866264E+02  0.30464264419E+03  0.17200000000E+03 0.  1.
</event>
<event>
 4    1 -0.6532506E-004  0.1842850E+03  0.7818608E-02  0.1163719E+00
          5   -1    0    0  501    0  0.00000000000E+00  0.00000000000E+00  0.77400259016E+02  0.77542827494E+02  0.47000000000E+01 0. -1.
         -5   -1    0    0    0  501 -0.00000000000E+00 -0.00000000000E+00 -0.12621856452E+04  0.12621943959E+04  0.47000000000E+01 0.  1.
          6    1    1    2  502    0  0.45786138844E+02 -0.47755676971E+02 -0.51193370308E+02  0.19126352594E+03  0.17200000000E+03 0. -1.
         -6    1    1    2    0  502 -0.45786138844E+02  0.47755676971E+02 -0.11335920159E+04  0.11484736975E+04  0.17200000000E+03 0.  1.
</event>
<event>
 4    1 -0.6532506E-004  0.1879863E+03  0.7818608E-02  0.1160290E+00
         -5   -1    0    0    0  501 -0.00000000000E+00  0.00000000000E+00  0.66306013945E+03  0.66307679686E+03  0.47000000000E+01 0.  1.
          5   -1    0    0  501    0  0.00000000000E+00 -0.00000000000E+00 -0.83621952493E+02  0.83753930885E+02  0.47000000000E+01 0. -1.
          6    1    1    2  502    0  0.64103017539E+02 -0.40566488481E+02  0.64649730753E+02  0.19879241568E+03  0.17200000000E+03 0.  1.
         -6    1    1    2    0  502 -0.64103017539E+02  0.40566488481E+02  0.51478845621E+03  0.54803831206E+03  0.17200000000E+03 0.  1.
</event>
<event>
 4    1 -0.6532506E-004  0.2122139E+03  0.7818608E-02  0.1139825E+00
         -5   -1    0    0    0  501 -0.00000000000E+00  0.00000000000E+00  0.14239716052E+03  0.14247470415E+03  0.47000000000E+01 0.  1.
          5   -1    0    0  501    0  0.00000000000E+00 -0.00000000000E+00 -0.31789933492E+03  0.31793407672E+03  0.47000000000E+01 0. -1.
          6    1    1    2  502    0 -0.11555249905E+03  0.45807665167E+02 -0.70340395362E+02  0.22356764847E+03  0.17200000000E+03 0. -1.
         -6    1    1    2    0  502  0.11555249905E+03 -0.45807665167E+02 -0.10516177904E+03  0.23684113240E+03  0.17200000000E+03 0. -1.
</event>
<event>
 4    1 -0.6532506E-004  0.2770619E+03  0.7818608E-02  0.1097305E+00
         -5   -1    0    0    0  501 -0.00000000000E+00  0.00000000000E+00  0.21396459076E+04  0.21396510696E+04  0.47000000000E+01 0.  1.
          5   -1    0    0  501    0  0.00000000000E+00 -0.00000000000E+00 -0.38648899703E+02  0.38933628758E+02  0.47000000000E+01 0. -1.
          6    1    1    2  502    0 -0.68361637180E+02 -0.20616975948E+03  0.75166578433E+03  0.80110219979E+03  0.17200000000E+03 0. -1.
         -6    1    1    2    0  502  0.68361637180E+02  0.20616975948E+03  0.13493312235E+04  0.13774824986E+04  0.17200000000E+03 0.  1.
</event>
<event>
 4    1 -0.6532506E-004  0.2186160E+03  0.7818608E-02  0.1134919E+00
         -5   -1    0    0    0  501 -0.00000000000E+00  0.00000000000E+00  0.81050194285E+02  0.81186353494E+02  0.47000000000E+01 0.  1.
          5   -1    0    0  501    0  0.00000000000E+00 -0.00000000000E+00 -0.59008789958E+03  0.59010661683E+03  0.47000000000E+01 0. -1.
          6    1    1    2  502    0 -0.71637610213E+02 -0.11435468900E+03 -0.24031225461E+03  0.32487370132E+03  0.17200000000E+03 0.  1.
         -6    1    1    2    0  502  0.71637610213E+02  0.11435468900E+03 -0.26872545068E+03  0.34641926901E+03  0.17200000000E+03 0. -1.
</event>
<event>
 4    1 -0.6532506E-004  0.2048651E+03  0.7818608E-02  0.1145698E+00
          5   -1    0    0  501    0  0.00000000000E+00  0.00000000000E+00  0.20332824466E+03  0.20338255844E+03  0.47000000000E+01 0. -1.
         -5   -1    0    0    0  501 -0.00000000000E+00 -0.00000000000E+00 -0.24573845008E+03  0.24578339213E+03  0.47000000000E+01 0.  1.
          6    1    1    2  502    0 -0.91330960925E+02 -0.63595196295E+02  0.68740930400E+02  0.21609027958E+03  0.17200000000E+03 0.  1.
         -6    1    1    2    0  502  0.91330960925E+02  0.63595196295E+02 -0.11115113582E+03  0.23307567099E+03  0.17200000000E+03 0.  1.
</event>
<event>
 4    1 -0.6532506E-004  0.1942290E+03  0.7818608E-02  0.1154701E+00
          5   -1    0    0  501    0  0.00000000000E+00  0.00000000000E+00  0.14284721963E+03  0.14292451909E+03  0.47000000000E+01 0. -1.
         -5   -1    0    0    0  501 -0.00000000000E+00 -0.00000000000E+00 -0.40237556133E+03  0.40240300987E+03  0.47000000000E+01 0.  1.
          6    1    1    2  502    0 -0.81948978679E+02  0.37752608781E+02  0.30155468917E+02  0.19655596374E+03  0.17200000000E+03 0. -1.
         -6    1    1    2    0  502  0.81948978679E+02 -0.37752608781E+02 -0.28968381061E+03  0.34877156522E+03  0.17200000000E+03 0.  1.
</event>
<event>
 4    1 -0.6532506E-004  0.2057165E+03  0.7818608E-02  0.1145004E+00
          5   -1    0    0  501    0  0.00000000000E+00  0.00000000000E+00  0.15472757114E+03  0.15479893821E+03  0.47000000000E+01 0. -1.
         -5   -1    0    0    0  501 -0.00000000000E+00 -0.00000000000E+00 -0.31022321574E+03  0.31025881709E+03  0.47000000000E+01 0.  1.
          6    1    1    2  502    0 -0.42209963807E+02  0.10465952165E+03  0.24008441832E+01  0.20573055332E+03  0.17200000000E+03 0. -1.
         -6    1    1    2    0  502  0.42209963807E+02 -0.10465952165E+03 -0.15789648878E+03  0.25932720198E+03  0.17200000000E+03 0.  1.
</event>
<event>
 4    1 -0.6532506E-004  0.2283023E+03  0.7818608E-02  0.1127840E+00
          5   -1    0    0  501    0  0.00000000000E+00  0.00000000000E+00  0.10599776924E+03  0.10610191838E+03  0.47000000000E+01 0. -1.
         -5   -1    0    0    0  501 -0.00000000000E+00 -0.00000000000E+00 -0.52582479618E+03  0.52584580086E+03  0.47000000000E+01 0.  1.
          6    1    1    2  502    0  0.14587211582E+03 -0.35486222141E+02 -0.12904049340E+03  0.26224682090E+03  0.17200000000E+03 0. -1.
         -6    1    1    2    0  502 -0.14587211582E+03  0.35486222141E+02 -0.29078653354E+03  0.36970089833E+03  0.17200000000E+03 0.  1.
</event>
<event>
 4    1 -0.6532506E-004  0.2234504E+03  0.7818608E-02  0.1131337E+00
         -5   -1    0    0    0  501 -0.00000000000E+00  0.00000000000E+00  0.66851386521E+02  0.67016400081E+02  0.47000000000E+01 0.  1.
          5   -1    0    0  501    0  0.00000000000E+00 -0.00000000000E+00 -0.10279837454E+04  0.10279944897E+04  0.47000000000E+01 0. -1.
          6    1    1    2  502    0  0.41220136424E+02 -0.13655389409E+03 -0.76740151330E+03  0.79927163609E+03  0.17200000000E+03 0. -1.
         -6    1    1    2    0  502 -0.41220136424E+02  0.13655389409E+03 -0.19373084561E+03  0.29573925370E+03  0.17200000000E+03 0.  1.
</event>
<event>
 4    1 -0.6532506E-004  0.3718587E+03  0.7818608E-02  0.1053985E+00
          5   -1    0    0  501    0  0.00000000000E+00  0.00000000000E+00  0.11161012968E+04  0.11161111928E+04  0.47000000000E+01 0. -1.
         -5   -1    0    0    0  501 -0.00000000000E+00 -0.00000000000E+00 -0.13389564783E+03  0.13397811205E+03  0.47000000000E+01 0.  1.
          6    1    1    2  502    0 -0.15397485369E+03  0.29152465471E+03  0.31986974405E+03  0.49050538533E+03  0.17200000000E+03 0. -1.
         -6    1    1    2    0  502  0.15397485369E+03 -0.29152465471E+03  0.66233590494E+03  0.75958391956E+03  0.17200000000E+03 0.  1.
</event>
<event>
 4    1 -0.6532506E-004  0.1899116E+03  0.7818608E-02  0.1158541E+00
          5   -1    0    0  501    0  0.00000000000E+00  0.00000000000E+00  0.70225447045E+03  0.70227019819E+03  0.47000000000E+01 0. -1.
         -5   -1    0    0    0  501 -0.00000000000E+00 -0.00000000000E+00 -0.19636453629E+03  0.19642077566E+03  0.47000000000E+01 0.  1.
          6    1    1    2  502    0 -0.44209567326E+02  0.67289949906E+02 -0.13320908293E+03  0.23197215992E+03  0.17200000000E+03 0.  1.
         -6    1    1    2    0  502  0.44209567326E+02 -0.67289949906E+02  0.63909901710E+03  0.66671881393E+03  0.17200000000E+03 0. -1.
</event>
<event>
 4    1 -0.6532506E-004  0.2037080E+03  0.7818608E-02  0.1146648E+00
         -5   -1    0    0    0  501 -0.00000000000E+00  0.00000000000E+00  0.11705097928E+03  0.11714530187E+03  0.47000000000E+01 0.  1.
          5   -1    0    0  501    0  0.00000000000E+00 -0.00000000000E+00 -0.35427604437E+03  0.35430721925E+03  0.47000000000E+01 0. -1.
          6    1    1    2  502    0  0.68255935893E+02 -0.85170803024E+02 -0.11976886816E+03  0.23630810450E+03  0.17200000000E+03 0. -1.
         -6    1    1    2    0  502 -0.68255935893E+02  0.85170803024E+02 -0.11745619693E+03  0.23514441662E+03  0.17200000000E+03 0.  1.
</event>
<event>
 4    1 -0.6532506E-004  0.1748148E+03  0.7818608E-02  0.1172918E+00
         -5   -1    0    0    0  501 -0.00000000000E+00  0.00000000000E+00  0.29606223525E+03  0.29609953925E+03  0.47000000000E+01 0.  1.
          5   -1    0    0  501    0  0.00000000000E+00 -0.00000000000E+00 -0.14396491046E+03  0.14404161012E+03  0.47000000000E+01 0. -1.
          6    1    1    2  502    0 -0.23333001041E+02 -0.20779629013E+02 -0.41111911284E+02  0.17958399475E+03  0.17200000000E+03 0. -1.
         -6    1    1    2    0  502  0.23333001041E+02  0.20779629013E+02  0.19320923607E+03  0.26055715462E+03  0.17200000000E+03 0.  1.
</event>
<event>
 4    1 -0.6532506E-004  0.1946515E+03  0.7818608E-02  0.1154332E+00
         -5   -1    0    0    0  501 -0.00000000000E+00  0.00000000000E+00  0.32716147876E+03  0.32719523711E+03  0.47000000000E+01 0.  1.
          5   -1    0    0  501    0  0.00000000000E+00 -0.00000000000E+00 -0.15482423991E+03  0.15489556244E+03  0.47000000000E+01 0. -1.
          6    1    1    2  502    0  0.90984077900E+02 -0.52078276185E+01  0.20725679891E+03  0.28433185645E+03  0.17200000000E+03 0.  1.
         -6    1    1    2    0  502 -0.90984077900E+02  0.52078276185E+01 -0.34919560058E+02  0.19775894310E+03  0.17200000000E+03 0. -1.
</event>
<event>
 4    1 -0.6532506E-004  0.2797074E+03  0.7818608E-02  0.1095849E+00
         -5   -1    0    0    0  501 -0.00000000000E+00  0.00000000000E+00  0.14991398163E+04  0.14991471839E+04  0.47000000000E+01 0.  1.
          5   -1    0    0  501    0  0.00000000000E+00 -0.00000000000E+00 -0.20215100734E+03  0.20220563733E+03  0.47000000000E+01 0. -1.
          6    1    1    2  502    0  0.20384395318E+03  0.84260703304E+02 -0.84216253279E+02  0.29211059667E+03  0.17200000000E+03 0. -1.
         -6    1    1    2    0  502 -0.20384395318E+03 -0.84260703304E+02  0.13812050623E+04  0.14092422245E+04  0.17200000000E+03 0.  1.
</event>
<event>
 4    1 -0.6532506E-004  0.2201952E+03  0.7818608E-02  0.1133738E+00
          5   -1    0    0  501    0  0.00000000000E+00  0.00000000000E+00  0.62485211097E+03  0.62486978691E+03  0.47000000000E+01 0. -1.
         -5   -1    0    0    0  501 -0.00000000000E+00 -0.00000000000E+00 -0.11718974244E+03  0.11728395344E+03  0.47000000000E+01 0.  1.
          6    1    1    2  502    0 -0.91376632049E+02 -0.10272404022E+03  0.46964254534E+03  0.51870033518E+03  0.17200000000E+03 0. -1.
         -6    1    1    2    0  502  0.91376632049E+02  0.10272404022E+03  0.38019823197E+02  0.22345340516E+03  0.17200000000E+03 0. -1.
</event>
<event>
 4    1 -0.6532506E-004  0.3194350E+03  0.7818608E-02  0.1075910E+00
          5   -1    0    0  501    0  0.00000000000E+00  0.00000000000E+00  0.53033463105E+03  0.53035545711E+03  0.47000000000E+01 0. -1.
         -5   -1    0    0    0  501 -0.00000000000E+00 -0.00000000000E+00 -0.22442255755E+03  0.22447176735E+03  0.47000000000E+01 0.  1.
          6    1    1    2  502    0 -0.26890275468E+03  0.12083194039E+02  0.29560620067E+03  0.43522605727E+03  0.17200000000E+03 0. -1.
         -6    1    1    2    0  502  0.26890275468E+03 -0.12083194039E+02  0.10305872825E+02  0.31960116719E+03  0.17200000000E+03 0.  1.
</event>
<event>
 4    1 -0.6532506E-004  0.1941001E+03  0.7818608E-02  0.1154814E+00
          5   -1    0    0  501    0  0.00000000000E+00  0.00000000000E+00  0.39760466805E+02  0.40037291624E+02  0.47000000000E+01 0. -1.
         -5   -1    0    0    0  501 -0.00000000000E+00 -0.00000000000E+00 -0.17344136668E+04  0.17344200349E+04  0.47000000000E+01 0.  1.
          6    1    1    2  502    0  0.19937786848E+02 -0.87711630114E+02 -0.24842238544E+03  0.31525945979E+03  0.17200000000E+03 0. -1.
         -6    1    1    2    0  502 -0.19937786848E+02  0.87711630114E+02 -0.14462308146E+04  0.14591978668E+04  0.17200000000E+03 0.  1.
</event>
<event>
 4    1 -0.6532506E-004  0.1924939E+03  0.7818608E-02  0.1156231E+00
          5   -1    0    0  501    0  0.00000000000E+00  0.00000000000E+00  0.22393085104E+02  0.22881002174E+02  0.47000000000E+01 0. -1.
         -5   -1    0    0    0  501 -0.00000000000E+00 -0.00000000000E+00 -0.20603363291E+04  0.20603416899E+04  0.47000000000E+01 0.  1.
          6    1    1    2  502    0 -0.82023852007E+02  0.27239217758E+02 -0.54653228097E+03  0.57944061078E+03  0.17200000000E+03 0. -1.
         -6    1    1    2    0  502  0.82023852007E+02 -0.27239217758E+02 -0.14914109630E+04  0.15037820813E+04  0.17200000000E+03 0.  1.
</event>
<event>
 4    1 -0.6532506E-004  0.3125885E+03  0.7818608E-02  0.1079112E+00
          5   -1    0    0  501    0  0.00000000000E+00  0.00000000000E+00  0.60342300536E+03  0.60344130900E+03  0.47000000000E+01 0. -1.
         -5   -1    0    0    0  501 -0.00000000000E+00 -0.00000000000E+00 -0.16266123321E+03  0.16272912090E+03  0.47000000000E+01 0.  1.
          6    1    1    2  502    0  0.26043692402E+03 -0.17325732345E+02  0.24702520209E+03  0.39841313088E+03  0.17200000000E+03 0. -1.
         -6    1    1    2    0  502 -0.26043692402E+03  0.17325732345E+02  0.19373657007E+03  0.36775729901E+03  0.17200000000E+03 0. -1.
</event>
<event>
 4    1 -0.6532506E-004  0.2461314E+03  0.7818608E-02  0.1115774E+00
         -5   -1    0    0    0  501 -0.00000000000E+00  0.00000000000E+00  0.35768800412E+03  0.35771888166E+03  0.47000000000E+01 0.  1.
          5   -1    0    0  501    0  0.00000000000E+00 -0.00000000000E+00 -0.19204391285E+03  0.19210141712E+03  0.47000000000E+01 0. -1.
          6    1    1    2  502    0 -0.17493813162E+03 -0.19832581122E+02 -0.11769311572E+02  0.24641265768E+03  0.17200000000E+03 0. -1.
         -6    1    1    2    0  502  0.17493813162E+03  0.19832581122E+02  0.17741340285E+03  0.30340764110E+03  0.17200000000E+03 0.  1.
</event>
<event>
 4    1 -0.6532506E-004  0.1873945E+03  0.7818608E-02  0.1160833E+00
         -5   -1    0    0    0  501 -0.00000000000E+00  0.00000000000E+00  0.35194876412E+02  0.35507313692E+02  0.47000000000E+01 0.  1.
          5   -1    0    0  501    0  0.00000000000E+00 -0.00000000000E+00 -0.10025547712E+04  0.10025657880E+04  0.47000000000E+01 0. -1.
          6    1    1    2  502    0  0.50736632271E+02  0.54392118650E+02 -0.43315507655E+03  0.47195341801E+03  0.17200000000E+03 0. -1.
         -6    1    1    2    0  502 -0.50736632271E+02 -0.54392118650E+02 -0.53420481827E+03  0.56611968372E+03  0.17200000000E+03 0.  1.
</event>
<event>
 4    1 -0.6532506E-004  0.1799909E+03  0.7818608E-02  0.1167812E+00
          5   -1    0    0  501    0  0.00000000000E+00  0.00000000000E+00  0.14965524471E+03  0.14972902948E+03  0.47000000000E+01 0. -1.
         -5   -1    0    0    0  501 -0.00000000000E+00 -0.00000000000E+00 -0.78788200812E+03  0.78789602659E+03  0.47000000000E+01 0.  1.
          6    1    1    2  502    0 -0.30358133484E+02  0.43486720758E+02  0.80159552011E+02  0.19703366446E+03  0.17200000000E+03 0. -1.
         -6    1    1    2    0  502  0.30358133484E+02 -0.43486720758E+02 -0.71838631542E+03  0.74059139161E+03  0.17200000000E+03 0.  1.
</event>
<event>
 4    1 -0.6532506E-004  0.2875919E+03  0.7818608E-02  0.1091613E+00
         -5   -1    0    0    0  501 -0.00000000000E+00  0.00000000000E+00  0.84386319977E+03  0.84387628828E+03  0.47000000000E+01 0.  1.
          5   -1    0    0  501    0  0.00000000000E+00 -0.00000000000E+00 -0.11105617491E+03  0.11115558459E+03  0.47000000000E+01 0. -1.
          6    1    1    2  502    0 -0.10901136279E+03  0.20308032585E+03  0.20240114790E+03  0.35167502134E+03  0.17200000000E+03 0. -1.
         -6    1    1    2    0  502  0.10901136279E+03 -0.20308032585E+03  0.53040587697E+03  0.60335685153E+03  0.17200000000E+03 0.  1.
</event>
<event>
 4    1 -0.6532506E-004  0.1848148E+03  0.7818608E-02  0.1163223E+00
          5   -1    0    0  501    0  0.00000000000E+00  0.00000000000E+00  0.10955930852E+04  0.10956031664E+04  0.47000000000E+01 0. -1.
         -5   -1    0    0    0  501 -0.00000000000E+00 -0.00000000000E+00 -0.58055005115E+02  0.58244945007E+02  0.47000000000E+01 0.  1.
          6    1    1    2  502    0 -0.62897536067E+02  0.24827463299E+02  0.91173855458E+03  0.93028151378E+03  0.17200000000E+03 0. -1.
         -6    1    1    2    0  502  0.62897536067E+02 -0.24827463299E+02  0.12579952549E+03  0.22356659767E+03  0.17200000000E+03 0.  1.
</event>
<event>
 4    1 -0.6532506E-004  0.1722366E+03  0.7818608E-02  0.1175535E+00
          5   -1    0    0  501    0  0.00000000000E+00  0.00000000000E+00  0.21785682563E+03  0.21790751817E+03  0.47000000000E+01 0. -1.
         -5   -1    0    0    0  501 -0.00000000000E+00 -0.00000000000E+00 -0.13980969502E+03  0.13988867296E+03  0.47000000000E+01 0.  1.
          6    1    1    2  502    0  0.85940292853E+01 -0.27543059735E+01  0.68298560862E+02  0.18528393605E+03  0.17200000000E+03 0. -1.
         -6    1    1    2    0  502 -0.85940292853E+01  0.27543059735E+01  0.97485697434E+01  0.17251225508E+03  0.17200000000E+03 0.  1.
</event>
<event>
 4    1 -0.6532506E-004  0.3612637E+03  0.7818608E-02  0.1058085E+00
         -5   -1    0    0    0  501 -0.00000000000E+00  0.00000000000E+00  0.38095610217E+03  0.38098509391E+03  0.47000000000E+01 0.  1.
          5   -1    0    0  501    0  0.00000000000E+00 -0.00000000000E+00 -0.47335241776E+03  0.47337575075E+03  0.47000000000E+01 0. -1.
          6    1    1    2  502    0 -0.30465383620E+03  0.90075174986E+02 -0.27075801061E+03  0.45146583190E+03  0.17200000000E+03 0. -1.
         -6    1    1    2    0  502  0.30465383620E+03 -0.90075174986E+02  0.17836169503E+03  0.40289501276E+03  0.17200000000E+03 0.  1.
</event>
<event>
 4    1 -0.6532506E-004  0.1788530E+03  0.7818608E-02  0.1168918E+00
          5   -1    0    0  501    0  0.00000000000E+00  0.00000000000E+00  0.14838276234E+03  0.14845717955E+03  0.47000000000E+01 0. -1.
         -5   -1    0    0    0  501 -0.00000000000E+00 -0.00000000000E+00 -0.21823237416E+03  0.21828297949E+03  0.47000000000E+01 0.  1.
          6    1    1    2  502    0 -0.47219162709E+02  0.13218640605E+02 -0.55712738716E+02  0.18732936513E+03  0.17200000000E+03 0.  1.
         -6    1    1    2    0  502  0.47219162709E+02 -0.13218640605E+02 -0.14136873110E+02  0.17941079390E+03  0.17200000000E+03 0. -1.
</event>
<event>
 4    1 -0.6532506E-004  0.1982284E+03  0.7818608E-02  0.1151242E+00
          5   -1    0    0  501    0  0.00000000000E+00  0.00000000000E+00  0.83504192838E+02  0.83636357055E+02  0.47000000000E+01 0. -1.
         -5   -1    0    0    0  501 -0.00000000000E+00 -0.00000000000E+00 -0.49978659608E+03  0.49980869503E+03  0.47000000000E+01 0.  1.
          6    1    1    2  502    0 -0.22074379960E+01 -0.98517148355E+02 -0.27928429119E+03  0.34248243256E+03  0.17200000000E+03 0. -1.
         -6    1    1    2    0  502  0.22074379960E+01  0.98517148355E+02 -0.13699811205E+03  0.24096261952E+03  0.17200000000E+03 0. -1.
</event>
<event>
 4    1 -0.6532506E-004  0.1737560E+03  0.7818608E-02  0.1173987E+00
          5   -1    0    0  501    0  0.00000000000E+00  0.00000000000E+00  0.30838124832E+03  0.30841706230E+03  0.47000000000E+01 0. -1.
         -5   -1    0    0    0  501 -0.00000000000E+00 -0.00000000000E+00 -0.10459688983E+03  0.10470243245E+03  0.47000000000E+01 0.  1.
          6    1    1    2  502    0 -0.23427623077E+02  0.76355357620E+01  0.49289345910E+02  0.18061172318E+03  0.17200000000E+03 0.  1.
         -6    1    1    2    0  502  0.23427623077E+02 -0.76355357620E+01  0.15449501258E+03  0.23250777157E+03  0.17200000000E+03 0. -1.
</event>
<event>
 4    1 -0.6532506E-004  0.1790206E+03  0.7818608E-02  0.1168754E+00
          5   -1    0    0  501    0  0.00000000000E+00  0.00000000000E+00  0.72234789365E+02  0.72387532039E+02  0.47000000000E+01 0. -1.
         -5   -1    0    0    0  501 -0.00000000000E+00 -0.00000000000E+00 -0.47377930862E+03  0.47380262059E+03  0.47000000000E+01 0.  1.
          6    1    1    2  502    0 -0.37487951613E+02 -0.32542874945E+02 -0.13121843889E+03  0.22196095136E+03  0.17200000000E+03 0. -1.
         -6    1    1    2    0  502  0.37487951613E+02  0.32542874945E+02 -0.27032608037E+03  0.32422920127E+03  0.17200000000E+03 0.  1.
</event>
<event>
 4    1 -0.6532506E-004  0.3129116E+03  0.7818608E-02  0.1078959E+00
         -5   -1    0    0    0  501 -0.00000000000E+00  0.00000000000E+00  0.22307770702E+03  0.22312721342E+03  0.47000000000E+01 0.  1.
          5   -1    0    0  501    0  0.00000000000E+00 -0.00000000000E+00 -0.44242812432E+03  0.44245308813E+03  0.47000000000E+01 0. -1.
          6    1    1    2  502    0 -0.17100870287E+03  0.19770106363E+03 -0.79587525537E+02  0.32287437377E+03  0.17200000000E+03 0. -1.
         -6    1    1    2    0  502  0.17100870287E+03 -0.19770106363E+03 -0.13976289177E+03  0.34270592778E+03  0.17200000000E+03 0.  1.
</event>
<event>
 4    1 -0.6532506E-004  0.1928672E+03  0.7818608E-02  0.1155900E+00
         -5   -1    0    0    0  501 -0.00000000000E+00  0.00000000000E+00  0.53318381098E+03  0.53320452576E+03  0.47000000000E+01 0.  1.
          5   -1    0    0  501    0  0.00000000000E+00 -0.00000000000E+00 -0.11288678684E+03  0.11298458587E+03  0.47000000000E+01 0. -1.
          6    1    1    2  502    0  0.87162922926E+02  0.40476515202E+01  0.10356607308E+02  0.19314506965E+03  0.17200000000E+03 0. -1.
         -6    1    1    2    0  502 -0.87162922926E+02 -0.40476515202E+01  0.40994041683E+03  0.45304404197E+03  0.17200000000E+03 0.  1.
</event>
<event>
 4    1 -0.6532506E-004  0.2067988E+03  0.7818608E-02  0.1144126E+00
          5   -1    0    0  501    0  0.00000000000E+00  0.00000000000E+00  0.79548658016E+03  0.79550046462E+03  0.47000000000E+01 0. -1.
         -5   -1    0    0    0  501 -0.00000000000E+00 -0.00000000000E+00 -0.53653269857E+02  0.53858735283E+02  0.47000000000E+01 0.  1.
          6    1    1    2  502    0 -0.64410881264E+02  0.95042041454E+02  0.37666847617E+03  0.42970326065E+03  0.17200000000E+03 0. -1.
         -6    1    1    2    0  502  0.64410881264E+02 -0.95042041454E+02  0.36516483413E+03  0.41965593926E+03  0.17200000000E+03 0.  1.
</event>
<event>
 4    1 -0.6532506E-004  0.1852157E+03  0.7818608E-02  0.1162849E+00
          5   -1    0    0  501    0  0.00000000000E+00  0.00000000000E+00  0.50656431766E+03  0.50658612094E+03  0.47000000000E+01 0. -1.
         -5   -1    0    0    0  501 -0.00000000000E+00 -0.00000000000E+00 -0.88855673042E+02  0.88979888918E+02  0.47000000000E+01 0.  1.
          6    1    1    2  502    0 -0.40083980763E+02  0.55804452805E+02  0.35430947701E+03  0.39980003498E+03  0.17200000000E+03 0. -1.
         -6    1    1    2    0  502  0.40083980763E+02 -0.55804452805E+02  0.63399167605E+02  0.19576597488E+03  0.17200000000E+03 0.  1.
</event>
<event>
 4    1 -0.6532506E-004  0.8317993E+03  0.7818608E-02  0.9515096E-01
         -5   -1    0    0    0  501 -0.00000000000E+00  0.00000000000E+00  0.10978623088E+04  0.10978723692E+04  0.47000000000E+01 0.  1.
          5   -1    0    0  501    0  0.00000000000E+00 -0.00000000000E+00 -0.75480907294E+03  0.75482370564E+03  0.47000000000E+01 0. -1.
          6    1    1    2  502    0 -0.67285123153E+03 -0.45779607908E+03 -0.20485939021E+03  0.85665477268E+03  0.17200000000E+03 0. -1.
         -6    1    1    2    0  502  0.67285123153E+03  0.45779607908E+03  0.54791262604E+03  0.99604130214E+03  0.17200000000E+03 0.  1.
</event>
<event>
 4    1 -0.6532506E-004  0.2613333E+03  0.7818608E-02  0.1106345E+00
         -5   -1    0    0    0  501 -0.00000000000E+00  0.00000000000E+00  0.63976879199E+02  0.64149287385E+02  0.47000000000E+01 0.  1.
          5   -1    0    0  501    0  0.00000000000E+00 -0.00000000000E+00 -0.13364050801E+04  0.13364133448E+04  0.47000000000E+01 0. -1.
          6    1    1    2  502    0  0.10569900673E+03  0.16594820654E+03 -0.95126145122E+03  0.98650566945E+03  0.17200000000E+03 0. -1.
         -6    1    1    2    0  502 -0.10569900673E+03 -0.16594820654E+03 -0.32116674969E+03  0.41405696273E+03  0.17200000000E+03 0.  1.
</event>
<event>
 4    1 -0.6532506E-004  0.2973394E+03  0.7818608E-02  0.1086578E+00
         -5   -1    0    0    0  501 -0.00000000000E+00  0.00000000000E+00  0.14448979510E+03  0.14456621627E+03  0.47000000000E+01 0.  1.
          5   -1    0    0  501    0  0.00000000000E+00 -0.00000000000E+00 -0.65723898319E+03  0.65725578812E+03  0.47000000000E+01 0. -1.
          6    1    1    2  502    0  0.53989582298E+02 -0.23645685420E+03 -0.36197298373E+03  0.46843906738E+03  0.17200000000E+03 0. -1.
         -6    1    1    2    0  502 -0.53989582298E+02  0.23645685420E+03 -0.15077620436E+03  0.33338293702E+03  0.17200000000E+03 0.  1.
</event>
<event>
 4    1 -0.6532506E-004  0.1730500E+03  0.7818608E-02  0.1174704E+00
          5   -1    0    0  501    0  0.00000000000E+00  0.00000000000E+00  0.54141605878E+03  0.54143645861E+03  0.47000000000E+01 0. -1.
         -5   -1    0    0    0  501 -0.00000000000E+00 -0.00000000000E+00 -0.56955887775E+02  0.57149480770E+02  0.47000000000E+01 0.  1.
          6    1    1    2  502    0 -0.53334641897E+01  0.18271301293E+02  0.18962622785E+03  0.25671850845E+03  0.17200000000E+03 0.  1.
         -6    1    1    2    0  502  0.53334641897E+01 -0.18271301293E+02  0.29483394316E+03  0.34186743093E+03  0.17200000000E+03 0. -1.
</event>
<event>
 4    1 -0.6532506E-004  0.1877915E+03  0.7818608E-02  0.1160468E+00
         -5   -1    0    0    0  501 -0.00000000000E+00  0.00000000000E+00  0.39276758476E+02  0.39556968493E+02  0.47000000000E+01 0.  1.
          5   -1    0    0  501    0  0.00000000000E+00 -0.00000000000E+00 -0.89454759484E+03  0.89455994178E+03  0.47000000000E+01 0. -1.
          6    1    1    2  502    0  0.74498924440E+02  0.11469813779E+02 -0.43367775446E+03  0.47259077550E+03  0.17200000000E+03 0.  1.
         -6    1    1    2    0  502 -0.74498924440E+02 -0.11469813779E+02 -0.42159308191E+03  0.46152613478E+03  0.17200000000E+03 0.  1.
</event>
<event>
 4    1 -0.6532506E-004  0.2027775E+03  0.7818608E-02  0.1147417E+00
         -5   -1    0    0    0  501 -0.00000000000E+00  0.00000000000E+00  0.14346003682E+03  0.14353700625E+03  0.47000000000E+01 0.  1.
          5   -1    0    0  501    0  0.00000000000E+00 -0.00000000000E+00 -0.30549329158E+03  0.30552944408E+03  0.47000000000E+01 0. -1.
          6    1    1    2  502    0 -0.49294658373E+02 -0.95418726341E+02 -0.13706857855E+03  0.24475802726E+03  0.17200000000E+03 0. -1.
         -6    1    1    2    0  502  0.49294658373E+02  0.95418726341E+02 -0.24964676205E+02  0.20430842307E+03  0.17200000000E+03 0.  1.
</event>
<event>
 4    1 -0.6532506E-004  0.1834139E+03  0.7818608E-02  0.1164539E+00
         -5   -1    0    0    0  501 -0.00000000000E+00  0.00000000000E+00  0.15477020476E+03  0.15484155218E+03  0.47000000000E+01 0.  1.
          5   -1    0    0  501    0  0.00000000000E+00 -0.00000000000E+00 -0.23675414723E+03  0.23680079441E+03  0.47000000000E+01 0. -1.
          6    1    1    2  502    0  0.34721247835E+02 -0.53395777273E+02 -0.97237366948E+02  0.20759523023E+03  0.17200000000E+03 0. -1.
         -6    1    1    2    0  502 -0.34721247835E+02  0.53395777273E+02  0.15253424469E+02  0.18404711636E+03  0.17200000000E+03 0. -1.
</event>
<event>
 4    1 -0.6532506E-004  0.1971297E+03  0.7818608E-02  0.1152184E+00
          5   -1    0    0  501    0  0.00000000000E+00  0.00000000000E+00  0.18880722033E+03  0.18886571009E+03  0.47000000000E+01 0. -1.
         -5   -1    0    0    0  501 -0.00000000000E+00 -0.00000000000E+00 -0.62653444523E+03  0.62655207370E+03  0.47000000000E+01 0.  1.
          6    1    1    2  502    0  0.29665001150E+02 -0.91630296496E+02  0.11525430520E+03  0.22834990343E+03  0.17200000000E+03 0. -1.
         -6    1    1    2    0  502 -0.29665001150E+02  0.91630296496E+02 -0.55298153010E+03  0.58706788037E+03  0.17200000000E+03 0.  1.
</event>
<event>
 4    1 -0.6532506E-004  0.2370716E+03  0.7818608E-02  0.1121759E+00
          5   -1    0    0  501    0  0.00000000000E+00  0.00000000000E+00  0.72829278882E+02  0.72980777349E+02  0.47000000000E+01 0. -1.
         -5   -1    0    0    0  501 -0.00000000000E+00 -0.00000000000E+00 -0.89092974329E+03  0.89094214037E+03  0.47000000000E+01 0.  1.
          6    1    1    2  502    0 -0.16185258564E+03  0.20559373611E+02 -0.23205145192E+03  0.33173908973E+03  0.17200000000E+03 0. -1.
         -6    1    1    2    0  502  0.16185258564E+03 -0.20559373611E+02 -0.58604901249E+03  0.63218382798E+03  0.17200000000E+03 0. -1.
</event>
<event>
 4    1 -0.6532506E-004  0.2267122E+03  0.7818608E-02  0.1128976E+00
          5   -1    0    0  501    0  0.00000000000E+00  0.00000000000E+00  0.11417714487E+03  0.11427383958E+03  0.47000000000E+01 0. -1.
         -5   -1    0    0    0  501 -0.00000000000E+00 -0.00000000000E+00 -0.86647910635E+03  0.86649185325E+03  0.47000000000E+01 0.  1.
          6    1    1    2  502    0 -0.12609310601E+03 -0.76908601025E+02 -0.36138598533E+02  0.22957439447E+03  0.17200000000E+03 0. -1.
         -6    1    1    2    0  502  0.12609310601E+03  0.76908601025E+02 -0.71616336294E+03  0.75119129835E+03  0.17200000000E+03 0.  1.
</event>
<event>
 4    1 -0.6532506E-004  0.1995065E+03  0.7818608E-02  0.1150156E+00
          5   -1    0    0  501    0  0.00000000000E+00  0.00000000000E+00  0.22685814313E+03  0.22690682472E+03  0.47000000000E+01 0. -1.
         -5   -1    0    0    0  501 -0.00000000000E+00 -0.00000000000E+00 -0.17861485241E+03  0.17867667867E+03  0.47000000000E+01 0.  1.
          6    1    1    2  502    0 -0.59907662509E+02 -0.81424172715E+02 -0.32724131858E+01  0.19953328699E+03  0.17200000000E+03 0.  1.
         -6    1    1    2    0  502  0.59907662509E+02  0.81424172715E+02  0.51515703904E+02  0.20605021640E+03  0.17200000000E+03 0.  1.
</event>
<event>
 4    1 -0.6532506E-004  0.2139925E+03  0.7818608E-02  0.1138443E+00
          5   -1    0    0  501    0  0.00000000000E+00  0.00000000000E+00  0.21731580272E+03  0.21736662143E+03  0.47000000000E+01 0. -1.
         -5   -1    0    0    0  501 -0.00000000000E+00 -0.00000000000E+00 -0.32489373984E+03  0.32492773379E+03  0.47000000000E+01 0.  1.
          6    1    1    2  502    0 -0.10180717727E+03  0.76446579412E+02  0.10699695246E+03  0.23925118324E+03  0.17200000000E+03 0. -1.
         -6    1    1    2    0  502  0.10180717727E+03 -0.76446579412E+02 -0.21457488958E+03  0.30304317198E+03  0.17200000000E+03 0.  1.
</event>
<event>
 4    1 -0.6532506E-004  0.2036385E+03  0.7818608E-02  0.1146705E+00
          5   -1    0    0  501    0  0.00000000000E+00  0.00000000000E+00  0.47824411253E+03  0.47826720687E+03  0.47000000000E+01 0. -1.
         -5   -1    0    0    0  501 -0.00000000000E+00 -0.00000000000E+00 -0.13075753178E+03  0.13084197383E+03  0.47000000000E+01 0.  1.
          6    1    1    2  502    0  0.10782407157E+03 -0.16081108790E+02  0.35059746875E+03  0.40544693557E+03  0.17200000000E+03 0. -1.
         -6    1    1    2    0  502 -0.10782407157E+03  0.16081108790E+02 -0.31108879987E+01  0.20366224514E+03  0.17200000000E+03 0.  1.
</event>
<event>
 4    1 -0.6532506E-004  0.3756144E+03  0.7818608E-02  0.1052567E+00
          5   -1    0    0  501    0  0.00000000000E+00  0.00000000000E+00  0.28218133462E+03  0.28222047341E+03  0.47000000000E+01 0. -1.
         -5   -1    0    0    0  501 -0.00000000000E+00 -0.00000000000E+00 -0.86105458176E+03  0.86106740896E+03  0.47000000000E+01 0.  1.
          6    1    1    2  502    0  0.32678903825E+03  0.68637571213E+02  0.80768978975E+02  0.38420023382E+03  0.17200000000E+03 0. -1.
         -6    1    1    2    0  502 -0.32678903825E+03 -0.68637571213E+02 -0.65964222611E+03  0.75908764854E+03  0.17200000000E+03 0.  1.
</event>
<event>
 4    1 -0.6532506E-004  0.2189690E+03  0.7818608E-02  0.1134654E+00
         -5   -1    0    0    0  501 -0.00000000000E+00  0.00000000000E+00  0.55224593176E+02  0.55424233792E+02  0.47000000000E+01 0.  1.
          5   -1    0    0  501    0  0.00000000000E+00 -0.00000000000E+00 -0.87085647789E+03  0.87086916071E+03  0.47000000000E+01 0. -1.
          6    1    1    2  502    0  0.74682497932E+02 -0.11307505590E+03 -0.44074302599E+03  0.49214008039E+03  0.17200000000E+03 0. -1.
         -6    1    1    2    0  502 -0.74682497932E+02  0.11307505590E+03 -0.37488885872E+03  0.43415331412E+03  0.17200000000E+03 0.  1.
</event>
<event>
 4    1 -0.6532506E-004  0.1752853E+03  0.7818608E-02  0.1172446E+00
         -5   -1    0    0    0  501 -0.00000000000E+00  0.00000000000E+00  0.13260192719E+04  0.13260276013E+04  0.47000000000E+01 0.  1.
          5   -1    0    0  501    0  0.00000000000E+00 -0.00000000000E+00 -0.37376775027E+02  0.37671120390E+02  0.47000000000E+01 0. -1.
          6    1    1    2  502    0 -0.11594871144E+02 -0.31725398762E+02  0.10661017257E+04  0.10804155828E+04  0.17200000000E+03 0.  1.
         -6    1    1    2    0  502  0.11594871144E+02  0.31725398762E+02  0.22254077114E+03  0.28328313889E+03  0.17200000000E+03 0. -1.
</event>
<event>
 4    1 -0.6532506E-004  0.2535799E+03  0.7818608E-02  0.1111063E+00
         -5   -1    0    0    0  501 -0.00000000000E+00  0.00000000000E+00  0.23255305171E+03  0.23260054140E+03  0.47000000000E+01 0.  1.
          5   -1    0    0  501    0  0.00000000000E+00 -0.00000000000E+00 -0.32819744490E+03  0.32823109670E+03  0.47000000000E+01 0. -1.
          6    1    1    2  502    0 -0.11612464047E+03  0.14571836472E+03 -0.15919568793E+03  0.29940948715E+03  0.17200000000E+03 0.  1.
         -6    1    1    2    0  502  0.11612464047E+03 -0.14571836472E+03  0.63551294741E+02  0.26142215095E+03  0.17200000000E+03 0.  1.
</event>
<event>
 4    1 -0.6532506E-004  0.1846557E+03  0.7818608E-02  0.1163372E+00
         -5   -1    0    0    0  501 -0.00000000000E+00  0.00000000000E+00  0.23179452927E+04  0.23179500577E+04  0.47000000000E+01 0.  1.
          5   -1    0    0  501    0  0.00000000000E+00 -0.00000000000E+00 -0.39992165215E+02  0.40267397216E+02  0.47000000000E+01 0. -1.
          6    1    1    2  502    0  0.62136992889E+02  0.25548401436E+02  0.20051035147E+03  0.27258416636E+03  0.17200000000E+03 0. -1.
         -6    1    1    2    0  502 -0.62136992889E+02 -0.25548401436E+02  0.20774427760E+04  0.20856332885E+04  0.17200000000E+03 0.  1.
</event>
<event>
 4    1 -0.6532506E-004  0.1740306E+03  0.7818608E-02  0.1173709E+00
          5   -1    0    0  501    0  0.00000000000E+00  0.00000000000E+00  0.26286591659E+02  0.26703462342E+02  0.47000000000E+01 0. -1.
         -5   -1    0    0    0  501 -0.00000000000E+00 -0.00000000000E+00 -0.13653096779E+04  0.13653177676E+04  0.47000000000E+01 0.  1.
          6    1    1    2  502    0 -0.24358185841E+02 -0.10456673679E+02 -0.95051942891E+03  0.96631974417E+03  0.17200000000E+03 0.  1.
         -6    1    1    2    0  502  0.24358185841E+02  0.10456673679E+02 -0.38850365735E+03  0.42570148581E+03  0.17200000000E+03 0.  1.
</event>
<event>
 4    1 -0.6532506E-004  0.2728839E+03  0.7818608E-02  0.1099640E+00
         -5   -1    0    0    0  501 -0.00000000000E+00  0.00000000000E+00  0.23897796982E+03  0.23902418300E+03  0.47000000000E+01 0.  1.
          5   -1    0    0  501    0  0.00000000000E+00 -0.00000000000E+00 -0.58251797483E+03  0.58253693531E+03  0.47000000000E+01 0. -1.
          6    1    1    2  502    0  0.19978232531E+03  0.70488575336E+02 -0.45194015665E+03  0.52793514938E+03  0.17200000000E+03 0. -1.
         -6    1    1    2    0  502 -0.19978232531E+03 -0.70488575336E+02  0.10840015163E+03  0.29362596894E+03  0.17200000000E+03 0.  1.
</event>
<event>
 4    1 -0.6532506E-004  0.1888980E+03  0.7818608E-02  0.1159459E+00
         -5   -1    0    0    0  501 -0.00000000000E+00  0.00000000000E+00  0.46152031682E+03  0.46154424797E+03  0.47000000000E+01 0.  1.
          5   -1    0    0  501    0  0.00000000000E+00 -0.00000000000E+00 -0.77665471962E+02  0.77807554486E+02  0.47000000000E+01 0. -1.
          6    1    1    2  502    0  0.65972289754E+02 -0.41786610184E+02  0.21238309576E+03  0.28423413442E+03  0.17200000000E+03 0.  1.
         -6    1    1    2    0  502 -0.65972289754E+02  0.41786610184E+02  0.17147174909E+03  0.25511766803E+03  0.17200000000E+03 0. -1.
</event>
<event>
 4    1 -0.6532506E-004  0.2404543E+03  0.7818608E-02  0.1119491E+00
         -5   -1    0    0    0  501 -0.00000000000E+00  0.00000000000E+00  0.14962436219E+03  0.14969816218E+03  0.47000000000E+01 0.  1.
          5   -1    0    0  501    0  0.00000000000E+00 -0.00000000000E+00 -0.80308978940E+03  0.80310354241E+03  0.47000000000E+01 0. -1.
          6    1    1    2  502    0 -0.42555220478E+02  0.16255254054E+03 -0.66993870053E+03  0.71178377173E+03  0.17200000000E+03 0. -1.
         -6    1    1    2    0  502  0.42555220478E+02 -0.16255254054E+03  0.16473273320E+02  0.24101793286E+03  0.17200000000E+03 0.  1.
</event>
<event>
 4    1 -0.6532506E-004  0.2370859E+03  0.7818608E-02  0.1121749E+00
          5   -1    0    0  501    0  0.00000000000E+00  0.00000000000E+00  0.27138706528E+03  0.27142776056E+03  0.47000000000E+01 0. -1.
         -5   -1    0    0    0  501 -0.00000000000E+00 -0.00000000000E+00 -0.23908002244E+03  0.23912621590E+03  0.47000000000E+01 0.  1.
          6    1    1    2  502    0  0.57298379353E+02  0.15278287469E+03  0.10959148101E+03  0.26118959356E+03  0.17200000000E+03 0. -1.
         -6    1    1    2    0  502 -0.57298379353E+02 -0.15278287469E+03 -0.77284438167E+02  0.24936438290E+03  0.17200000000E+03 0. -1.
</event>
<event>
 4    1 -0.6532506E-004  0.1740914E+03  0.7818608E-02  0.1173647E+00
          5   -1    0    0  501    0  0.00000000000E+00  0.00000000000E+00  0.30171471332E+03  0.30175131853E+03  0.47000000000E+01 0. -1.
         -5   -1    0    0    0  501 -0.00000000000E+00 -0.00000000000E+00 -0.10104944066E+03  0.10115868454E+03  0.47000000000E+01 0.  1.
          6    1    1    2  502    0 -0.17683673299E+02 -0.20275858711E+02  0.83634869663E+02  0.19313884687E+03  0.17200000000E+03 0.  1.
         -6    1    1    2    0  502  0.17683673299E+02  0.20275858711E+02  0.11703040299E+03  0.20977115620E+03  0.17200000000E+03 0.  1.
</event>
<event>
 4    1 -0.6532506E-004  0.1778267E+03  0.7818608E-02  0.1169923E+00
          5   -1    0    0  501    0  0.00000000000E+00  0.00000000000E+00  0.33731762166E+02  0.34057624386E+02  0.47000000000E+01 0. -1.
         -5   -1    0    0    0  501 -0.00000000000E+00 -0.00000000000E+00 -0.11289988001E+04  0.11290085830E+04  0.47000000000E+01 0.  1.
          6    1    1    2  502    0 -0.31670538197E+02  0.32176378826E+02 -0.30513848607E+03  0.35317394868E+03  0.17200000000E+03 0. -1.
         -6    1    1    2    0  502  0.31670538197E+02 -0.32176378826E+02 -0.79012855185E+03  0.80989225875E+03  0.17200000000E+03 0.  1.
</event>
<event>
 4    1 -0.6532506E-004  0.2513335E+03  0.7818608E-02  0.1112465E+00
         -5   -1    0    0    0  501 -0.00000000000E+00  0.00000000000E+00  0.44728984495E+03  0.44731453743E+03  0.47000000000E+01 0.  1.
          5   -1    0    0  501    0  0.00000000000E+00 -0.00000000000E+00 -0.14248026059E+03  0.14255775902E+03  0.47000000000E+01 0. -1.
          6    1    1    2  502    0  0.17722392277E+02 -0.18240184927E+03  0.12399519983E+03  0.28025582489E+03  0.17200000000E+03 0.  1.
         -6    1    1    2    0  502 -0.17722392277E+02  0.18240184927E+03  0.18081438453E+03  0.30961647156E+03  0.17200000000E+03 0.  1.
</event>
<event>
 4    1 -0.6532506E-004  0.2462319E+03  0.7818608E-02  0.1115710E+00
          5   -1    0    0  501    0  0.00000000000E+00  0.00000000000E+00  0.86274071065E+02  0.86401998462E+02  0.47000000000E+01 0. -1.
         -5   -1    0    0    0  501 -0.00000000000E+00 -0.00000000000E+00 -0.10038694689E+04  0.10038804712E+04  0.47000000000E+01 0.  1.
          6    1    1    2  502    0  0.80136298617E+02  0.15692134624E+03 -0.15993375365E+03  0.29361359100E+03  0.17200000000E+03 0. -1.
         -6    1    1    2    0  502 -0.80136298617E+02 -0.15692134624E+03 -0.75766164415E+03  0.79666887870E+03  0.17200000000E+03 0.  1.
</event>
<event>
 4    1 -0.6532506E-004  0.8747903E+03  0.7818608E-02  0.9457655E-01
         -5   -1    0    0    0  501 -0.00000000000E+00  0.00000000000E+00  0.72003463044E+03  0.72004996982E+03  0.47000000000E+01 0.  1.
          5   -1    0    0  501    0  0.00000000000E+00 -0.00000000000E+00 -0.10660588121E+04  0.10660691726E+04  0.47000000000E+01 0. -1.
          6    1    1    2  502    0  0.26271347812E+03 -0.81648986382E+03 -0.12345067489E+03  0.88345805698E+03  0.17200000000E+03 0. -1.
         -6    1    1    2    0  502 -0.26271347812E+03  0.81648986382E+03 -0.22257350675E+03  0.90266108546E+03  0.17200000000E+03 0.  1.
</event>
<event>
 4    1 -0.6532506E-004  0.3299741E+03  0.7818608E-02  0.1071148E+00
         -5   -1    0    0    0  501 -0.00000000000E+00  0.00000000000E+00  0.22764682049E+03  0.22769533346E+03  0.47000000000E+01 0.  1.
          5   -1    0    0  501    0  0.00000000000E+00 -0.00000000000E+00 -0.53225453007E+03  0.53227528102E+03  0.47000000000E+01 0. -1.
          6    1    1    2  502    0 -0.18900232061E+03  0.20875112115E+03 -0.27340512475E+03  0.42852452674E+03  0.17200000000E+03 0. -1.
         -6    1    1    2    0  502  0.18900232061E+03 -0.20875112115E+03 -0.31202584834E+02  0.33144608774E+03  0.17200000000E+03 0.  1.
</event>
<event>
 4    1 -0.6532506E-004  0.1986519E+03  0.7818608E-02  0.1150881E+00
         -5   -1    0    0    0  501 -0.00000000000E+00  0.00000000000E+00  0.35486493466E+03  0.35489605781E+03  0.47000000000E+01 0.  1.
          5   -1    0    0  501    0  0.00000000000E+00 -0.00000000000E+00 -0.12518243105E+03  0.12527063121E+03  0.47000000000E+01 0. -1.
          6    1    1    2  502    0 -0.59046111360E+02  0.79950805322E+02  0.34410468414E+02  0.20161015568E+03  0.17200000000E+03 0. -1.
         -6    1    1    2    0  502  0.59046111360E+02 -0.79950805322E+02  0.19527203519E+03  0.27855653334E+03  0.17200000000E+03 0.  1.
</event>
<event>
 4    1 -0.6532506E-004  0.1761432E+03  0.7818608E-02  0.1171589E+00
          5   -1    0    0  501    0  0.00000000000E+00  0.00000000000E+00  0.87556505677E+02  0.87682562043E+02  0.47000000000E+01 0. -1.
         -5   -1    0    0    0  501 -0.00000000000E+00 -0.00000000000E+00 -0.37595377395E+03  0.37598315141E+03  0.47000000000E+01 0.  1.
          6    1    1    2  502    0  0.32330372636E+02 -0.19928924780E+02 -0.88139586148E+02  0.19696446807E+03  0.17200000000E+03 0. -1.
         -6    1    1    2    0  502 -0.32330372636E+02  0.19928924780E+02 -0.20025768212E+03  0.26670124538E+03  0.17200000000E+03 0.  1.
</event>
<event>
 4    1 -0.6532506E-004  0.2349168E+03  0.7818608E-02  0.1123226E+00
          5   -1    0    0  501    0  0.00000000000E+00  0.00000000000E+00  0.80988508032E+02  0.81124770775E+02  0.47000000000E+01 0. -1.
         -5   -1    0    0    0  501 -0.00000000000E+00 -0.00000000000E+00 -0.70600123860E+03  0.70601688288E+03  0.47000000000E+01 0.  1.
          6    1    1    2  502    0 -0.28287001068E+02  0.15748570061E+03 -0.23798922734E+03  0.33440211222E+03  0.17200000000E+03 0. -1.
         -6    1    1    2    0  502  0.28287001068E+02 -0.15748570061E+03 -0.38702350323E+03  0.45273954144E+03  0.17200000000E+03 0. -1.
</event>
<event>
 4    1 -0.6532506E-004  0.3234085E+03  0.7818608E-02  0.1074091E+00
         -5   -1    0    0    0  501 -0.00000000000E+00  0.00000000000E+00  0.21819363609E+03  0.21824425039E+03  0.47000000000E+01 0.  1.
          5   -1    0    0  501    0  0.00000000000E+00 -0.00000000000E+00 -0.93536171858E+03  0.93537352677E+03  0.47000000000E+01 0. -1.
          6    1    1    2  502    0 -0.27184422769E+03 -0.33312832223E+02 -0.76136250622E+03  0.82720365980E+03  0.17200000000E+03 0. -1.
         -6    1    1    2    0  502  0.27184422769E+03  0.33312832223E+02  0.44194423727E+02  0.32641411736E+03  0.17200000000E+03 0.  1.
</event>
<event>
 4    1 -0.6532506E-004  0.1896472E+03  0.7818608E-02  0.1158780E+00
          5   -1    0    0  501    0  0.00000000000E+00  0.00000000000E+00  0.10224669215E+03  0.10235465820E+03  0.47000000000E+01 0. -1.
         -5   -1    0    0    0  501 -0.00000000000E+00 -0.00000000000E+00 -0.35159649107E+03  0.35162790352E+03  0.47000000000E+01 0.  1.
          6    1    1    2  502    0 -0.63983502649E+02  0.47834954737E+02 -0.12933105433E+03  0.22954867266E+03  0.17200000000E+03 0. -1.
         -6    1    1    2    0  502  0.63983502649E+02 -0.47834954737E+02 -0.12001874458E+03  0.22443388906E+03  0.17200000000E+03 0.  1.
</event>
<event>
 4    1 -0.6532506E-004  0.1996654E+03  0.7818608E-02  0.1150022E+00
         -5   -1    0    0    0  501 -0.00000000000E+00  0.00000000000E+00  0.13318159046E+03  0.13326449654E+03  0.47000000000E+01 0.  1.
          5   -1    0    0  501    0  0.00000000000E+00 -0.00000000000E+00 -0.29972664030E+03  0.29976348828E+03  0.47000000000E+01 0. -1.
          6    1    1    2  502    0 -0.10121769172E+03  0.61026051956E+01 -0.73721239961E+02  0.21284051336E+03  0.17200000000E+03 0. -1.
         -6    1    1    2    0  502  0.10121769172E+03 -0.61026051956E+01 -0.92823809882E+02  0.22018747146E+03  0.17200000000E+03 0.  1.
</event>
<event>
 4    1 -0.6532506E-004  0.1784526E+03  0.7818608E-02  0.1169309E+00
         -5   -1    0    0    0  501 -0.00000000000E+00  0.00000000000E+00  0.39241703754E+03  0.39244518261E+03  0.47000000000E+01 0.  1.
          5   -1    0    0  501    0  0.00000000000E+00 -0.00000000000E+00 -0.89127972888E+02  0.89251809792E+02  0.47000000000E+01 0. -1.
          6    1    1    2  502    0  0.13967490105E+02 -0.45455777938E+02  0.79212019951E+02  0.19524308600E+03  0.17200000000E+03 0. -1.
         -6    1    1    2    0  502 -0.13967490105E+02  0.45455777938E+02  0.22407704470E+03  0.28645390640E+03  0.17200000000E+03 0.  1.
</event>
<event>
 4    1 -0.6532506E-004  0.1893206E+03  0.7818608E-02  0.1159076E+00
          5   -1    0    0  501    0  0.00000000000E+00  0.00000000000E+00  0.76092560370E+02  0.76237574356E+02  0.47000000000E+01 0. -1.
         -5   -1    0    0    0  501 -0.00000000000E+00 -0.00000000000E+00 -0.92598116983E+03  0.92599309764E+03  0.47000000000E+01 0.  1.
          6    1    1    2  502    0 -0.17786206614E+02  0.77084036846E+02 -0.73491606237E+02  0.20308449983E+03  0.17200000000E+03 0. -1.
         -6    1    1    2    0  502  0.17786206614E+02 -0.77084036846E+02 -0.77639700323E+03  0.79914617217E+03  0.17200000000E+03 0.  1.
</event>
<event>
 4    1 -0.6532506E-004  0.1787247E+03  0.7818608E-02  0.1169043E+00
         -5   -1    0    0    0  501 -0.00000000000E+00  0.00000000000E+00  0.70777257474E+03  0.70778817986E+03  0.47000000000E+01 0.  1.
          5   -1    0    0  501    0  0.00000000000E+00 -0.00000000000E+00 -0.45590348466E+02  0.45831974354E+02  0.47000000000E+01 0. -1.
          6    1    1    2  502    0 -0.17437627514E+02  0.45325970346E+02  0.37411814907E+03  0.41461657457E+03  0.17200000000E+03 0. -1.
         -6    1    1    2    0  502  0.17437627514E+02 -0.45325970346E+02  0.28806407720E+03  0.33900357965E+03  0.17200000000E+03 0.  1.
</event>
<event>
 4    1 -0.6532506E-004  0.1837356E+03  0.7818608E-02  0.1164236E+00
          5   -1    0    0  501    0  0.00000000000E+00  0.00000000000E+00  0.96661900906E+03  0.96663043541E+03  0.47000000000E+01 0. -1.
         -5   -1    0    0    0  501 -0.00000000000E+00 -0.00000000000E+00 -0.42627939172E+02  0.42886258848E+02  0.47000000000E+01 0.  1.
          6    1    1    2  502    0 -0.53572692066E+02 -0.36121252921E+02  0.67816479893E+03  0.70261388596E+03  0.17200000000E+03 0. -1.
         -6    1    1    2    0  502  0.53572692066E+02  0.36121252921E+02  0.24582627096E+03  0.30690280830E+03  0.17200000000E+03 0.  1.
</event>
<event>
 4    1 -0.6532506E-004  0.2326985E+03  0.7818608E-02  0.1124755E+00
         -5   -1    0    0    0  501 -0.00000000000E+00  0.00000000000E+00  0.83049081690E+03  0.83050411616E+03  0.47000000000E+01 0.  1.
          5   -1    0    0  501    0  0.00000000000E+00 -0.00000000000E+00 -0.10682087351E+03  0.10692422091E+03  0.47000000000E+01 0. -1.
          6    1    1    2  502    0  0.48366044288E+02 -0.14908164831E+03  0.69122529628E+02  0.24274788610E+03  0.17200000000E+03 0. -1.
         -6    1    1    2    0  502 -0.48366044288E+02  0.14908164831E+03  0.65454741376E+03  0.69468045097E+03  0.17200000000E+03 0.  1.
</event>
<event>
 4    1 -0.6532506E-004  0.4107099E+03  0.7818608E-02  0.1040133E+00
          5   -1    0    0  501    0  0.00000000000E+00  0.00000000000E+00  0.77925913268E+02  0.78067521792E+02  0.47000000000E+01 0. -1.
         -5   -1    0    0    0  501 -0.00000000000E+00 -0.00000000000E+00 -0.22813538589E+04  0.22813587003E+04  0.47000000000E+01 0.  1.
          6    1    1    2  502    0  0.29079677994E+03  0.23352909120E+03 -0.83250361645E+03  0.92830214642E+03  0.17200000000E+03 0. -1.
         -6    1    1    2    0  502 -0.29079677994E+03 -0.23352909120E+03 -0.13709243292E+04  0.14311240757E+04  0.17200000000E+03 0.  1.
</event>
<event>
 4    1 -0.6532506E-004  0.2120700E+03  0.7818608E-02  0.1139937E+00
          5   -1    0    0  501    0  0.00000000000E+00  0.00000000000E+00  0.65958024025E+03  0.65959698554E+03  0.47000000000E+01 0. -1.
         -5   -1    0    0    0  501 -0.00000000000E+00 -0.00000000000E+00 -0.68089849508E+02  0.68251868883E+02  0.47000000000E+01 0.  1.
          6    1    1    2  502    0  0.17970885838E+02 -0.12274663619E+03  0.29821929885E+03  0.36593502107E+03  0.17200000000E+03 0. -1.
         -6    1    1    2    0  502 -0.17970885838E+02  0.12274663619E+03  0.29327109189E+03  0.36191383335E+03  0.17200000000E+03 0.  1.
</event>
<event>
 4    1 -0.6532506E-004  0.2247047E+03  0.7818608E-02  0.1130423E+00
          5   -1    0    0  501    0  0.00000000000E+00  0.00000000000E+00  0.11756521633E+03  0.11765912668E+03  0.47000000000E+01 0. -1.
         -5   -1    0    0    0  501 -0.00000000000E+00 -0.00000000000E+00 -0.45035733372E+03  0.45038185802E+03  0.47000000000E+01 0.  1.
          6    1    1    2  502    0  0.37026436632E+00 -0.14459624777E+03 -0.10485007774E+03  0.24796320446E+03  0.17200000000E+03 0. -1.
         -6    1    1    2    0  502 -0.37026436632E+00  0.14459624777E+03 -0.22794203964E+03  0.32007778024E+03  0.17200000000E+03 0. -1.
</event>
<event>
 4    1 -0.6532506E-004  0.1824527E+03  0.7818608E-02  0.1165450E+00
         -5   -1    0    0    0  501 -0.00000000000E+00  0.00000000000E+00  0.24345453593E+03  0.24349989952E+03  0.47000000000E+01 0.  1.
          5   -1    0    0  501    0  0.00000000000E+00 -0.00000000000E+00 -0.23210470851E+03  0.23215228992E+03  0.47000000000E+01 0. -1.
          6    1    1    2  502    0  0.37685561626E+02 -0.47799517769E+02 -0.14681538469E+03  0.23418743057E+03  0.17200000000E+03 0. -1.
         -6    1    1    2    0  502 -0.37685561626E+02  0.47799517769E+02  0.15816521210E+03  0.24146475887E+03  0.17200000000E+03 0.  1.
</event>
<event>
 4    1 -0.6532506E-004  0.1924622E+03  0.7818608E-02  0.1156259E+00
         -5   -1    0    0    0  501 -0.00000000000E+00  0.00000000000E+00  0.76386382045E+03  0.76387827970E+03  0.47000000000E+01 0.  1.
          5   -1    0    0  501    0  0.00000000000E+00 -0.00000000000E+00 -0.60928248255E+02  0.61109258181E+02  0.47000000000E+01 0. -1.
          6    1    1    2  502    0 -0.61559333084E+02  0.60565304632E+02  0.16448466468E+03  0.25317368057E+03  0.17200000000E+03 0. -1.
         -6    1    1    2    0  502  0.61559333084E+02 -0.60565304632E+02  0.53845090751E+03  0.57181385731E+03  0.17200000000E+03 0.  1.
</event>
<event>
 4    1 -0.6532506E-004  0.2263386E+03  0.7818608E-02  0.1129244E+00
         -5   -1    0    0    0  501 -0.00000000000E+00  0.00000000000E+00  0.10788160730E+04  0.10788263110E+04  0.47000000000E+01 0.  1.
          5   -1    0    0  501    0  0.00000000000E+00 -0.00000000000E+00 -0.55562313613E+02  0.55760745100E+02  0.47000000000E+01 0. -1.
          6    1    1    2  502    0 -0.85065422313E+02 -0.12003767166E+03  0.72915404703E+03  0.76347546980E+03  0.17200000000E+03 0.  1.
         -6    1    1    2    0  502  0.85065422313E+02  0.12003767166E+03  0.29409971232E+03  0.37111158629E+03  0.17200000000E+03 0. -1.
</event>
<event>
 4    1 -0.6532506E-004  0.1785225E+03  0.7818608E-02  0.1169241E+00
         -5   -1    0    0    0  501 -0.00000000000E+00  0.00000000000E+00  0.22178646179E+03  0.22183625635E+03  0.47000000000E+01 0.  1.
          5   -1    0    0  501    0  0.00000000000E+00 -0.00000000000E+00 -0.14848590494E+03  0.14856027048E+03  0.47000000000E+01 0. -1.
          6    1    1    2  502    0  0.41215301755E+02  0.24240241379E+02  0.30484600756E+01  0.17854854665E+03  0.17200000000E+03 0. -1.
         -6    1    1    2    0  502 -0.41215301755E+02 -0.24240241379E+02  0.70252096774E+02  0.19184798019E+03  0.17200000000E+03 0.  1.
</event>
<event>
 4    1 -0.6532506E-004  0.1814437E+03  0.7818608E-02  0.1166413E+00
         -5   -1    0    0    0  501 -0.00000000000E+00  0.00000000000E+00  0.10987032429E+03  0.10997080594E+03  0.47000000000E+01 0.  1.
          5   -1    0    0  501    0  0.00000000000E+00 -0.00000000000E+00 -0.43157681414E+03  0.43160240559E+03  0.47000000000E+01 0. -1.
          6    1    1    2  502    0  0.51351444306E+02 -0.26473581476E+02 -0.31069451620E+03  0.35979564165E+03  0.17200000000E+03 0. -1.
         -6    1    1    2    0  502 -0.51351444306E+02  0.26473581476E+02 -0.11011973652E+02  0.18177756988E+03  0.17200000000E+03 0.  1.
</event>
<event>
 4    1 -0.6532506E-004  0.1880666E+03  0.7818608E-02  0.1160217E+00
         -5   -1    0    0    0  501 -0.00000000000E+00  0.00000000000E+00  0.98049376651E+02  0.98161959341E+02  0.47000000000E+01 0.  1.
          5   -1    0    0  501    0  0.00000000000E+00 -0.00000000000E+00 -0.57596567074E+03  0.57598484691E+03  0.47000000000E+01 0. -1.
          6    1    1    2  502    0 -0.72195277609E+02 -0.23934743303E+02 -0.44515041790E+03  0.48324727066E+03  0.17200000000E+03 0. -1.
         -6    1    1    2    0  502  0.72195277609E+02  0.23934743303E+02 -0.32765876190E+02  0.19089953559E+03  0.17200000000E+03 0.  1.
</event>
<event>
 4    1 -0.6532506E-004  0.2486514E+03  0.7818608E-02  0.1114160E+00
          5   -1    0    0  501    0  0.00000000000E+00  0.00000000000E+00  0.19511813966E+03  0.19517473818E+03  0.47000000000E+01 0. -1.
         -5   -1    0    0    0  501 -0.00000000000E+00 -0.00000000000E+00 -0.36653002080E+03  0.36656015352E+03  0.47000000000E+01 0.  1.
          6    1    1    2  502    0  0.17905972341E+03  0.13457803072E+02  0.17787329392E+02  0.24928675476E+03  0.17200000000E+03 0. -1.
         -6    1    1    2    0  502 -0.17905972341E+03 -0.13457803072E+02 -0.18919921053E+03  0.31244813694E+03  0.17200000000E+03 0.  1.
</event>
<event>
 4    1 -0.6532506E-004  0.2233727E+03  0.7818608E-02  0.1131393E+00
         -5   -1    0    0    0  501 -0.00000000000E+00  0.00000000000E+00  0.37060721280E+03  0.37063701404E+03  0.47000000000E+01 0.  1.
          5   -1    0    0  501    0  0.00000000000E+00 -0.00000000000E+00 -0.15443586475E+03  0.15450736656E+03  0.47000000000E+01 0. -1.
          6    1    1    2  502    0 -0.97541537746E+02  0.10390863687E+03  0.13909485547E+02  0.22380533995E+03  0.17200000000E+03 0. -1.
         -6    1    1    2    0  502  0.97541537746E+02 -0.10390863687E+03  0.20226186250E+03  0.30133904066E+03  0.17200000000E+03 0.  1.
</event>
<event>
 4    1 -0.6532506E-004  0.2274645E+03  0.7818608E-02  0.1128437E+00
         -5   -1    0    0    0  501 -0.00000000000E+00  0.00000000000E+00  0.21455542478E+03  0.21460689715E+03  0.47000000000E+01 0.  1.
          5   -1    0    0  501    0  0.00000000000E+00 -0.00000000000E+00 -0.36857601742E+03  0.36860598288E+03  0.47000000000E+01 0. -1.
          6    1    1    2  502    0 -0.30707650654E+02  0.14564732125E+03 -0.24851872548E+03  0.33690007259E+03  0.17200000000E+03 0. -1.
         -6    1    1    2    0  502  0.30707650654E+02 -0.14564732125E+03  0.94498132846E+02  0.24631280744E+03  0.17200000000E+03 0.  1.
</event>
<event>
 4    1 -0.6532506E-004  0.2179779E+03  0.7818608E-02  0.1135400E+00
          5   -1    0    0  501    0  0.00000000000E+00  0.00000000000E+00  0.29030359063E+03  0.29034163452E+03  0.47000000000E+01 0. -1.
         -5   -1    0    0    0  501 -0.00000000000E+00 -0.00000000000E+00 -0.20147633063E+03  0.20153114351E+03  0.47000000000E+01 0.  1.
          6    1    1    2  502    0  0.12197260784E+03  0.55254425955E+02  0.15103692382E+03  0.26519147989E+03  0.17200000000E+03 0. -1.
         -6    1    1    2    0  502 -0.12197260784E+03 -0.55254425955E+02 -0.62209663814E+02  0.22668129813E+03  0.17200000000E+03 0.  1.
</event>
<event>
 4    1 -0.6532506E-004  0.3024970E+03  0.7818608E-02  0.1083999E+00
          5   -1    0    0  501    0  0.00000000000E+00  0.00000000000E+00  0.46931588415E+03  0.46933941781E+03  0.47000000000E+01 0. -1.
         -5   -1    0    0    0  501 -0.00000000000E+00 -0.00000000000E+00 -0.35171286913E+03  0.35174427118E+03  0.47000000000E+01 0.  1.
          6    1    1    2  502    0 -0.21371122246E+03  0.12746755878E+03  0.33288844956E+03  0.44979904957E+03  0.17200000000E+03 0. -1.
         -6    1    1    2    0  502  0.21371122246E+03 -0.12746755878E+03 -0.21528543454E+03  0.37128463942E+03  0.17200000000E+03 0.  1.
</event>
<event>
 4    1 -0.6532506E-004  0.1900415E+03  0.7818608E-02  0.1158424E+00
          5   -1    0    0  501    0  0.00000000000E+00  0.00000000000E+00  0.74742742417E+03  0.74744220138E+03  0.47000000000E+01 0. -1.
         -5   -1    0    0    0  501 -0.00000000000E+00 -0.00000000000E+00 -0.49154501938E+02  0.49378690351E+02  0.47000000000E+01 0.  1.
          6    1    1    2  502    0  0.59892882246E+02  0.54264237199E+02  0.40479372106E+03  0.44718421416E+03  0.17200000000E+03 0. -1.
         -6    1    1    2    0  502 -0.59892882246E+02 -0.54264237199E+02  0.29347920117E+03  0.34963667757E+03  0.17200000000E+03 0. -1.
</event>
<event>
 4    1 -0.6532506E-004  0.2143562E+03  0.7818608E-02  0.1138162E+00
          5   -1    0    0  501    0  0.00000000000E+00  0.00000000000E+00  0.97442955848E+03  0.97444089325E+03  0.47000000000E+01 0. -1.
         -5   -1    0    0    0  501 -0.00000000000E+00 -0.00000000000E+00 -0.10607742932E+03  0.10618150033E+03  0.47000000000E+01 0.  1.
          6    1    1    2  502    0  0.82499518819E+02 -0.97767025780E+02  0.83696732947E+03  0.86398082881E+03  0.17200000000E+03 0. -1.
         -6    1    1    2    0  502 -0.82499518819E+02  0.97767025780E+02  0.31384799683E+02  0.21664156477E+03  0.17200000000E+03 0.  1.
</event>
<event>
 4    1 -0.6532506E-004  0.2205871E+03  0.7818608E-02  0.1133446E+00
         -5   -1    0    0    0  501 -0.00000000000E+00  0.00000000000E+00  0.17617451317E+03  0.17623719554E+03  0.47000000000E+01 0.  1.
          5   -1    0    0  501    0  0.00000000000E+00 -0.00000000000E+00 -0.31171601060E+03  0.31175144148E+03  0.47000000000E+01 0. -1.
          6    1    1    2  502    0  0.98435706337E+02 -0.96876608190E+02 -0.15027420781E+03  0.26691010290E+03  0.17200000000E+03 0. -1.
         -6    1    1    2    0  502 -0.98435706337E+02  0.96876608190E+02  0.14732710374E+02  0.22107853413E+03  0.17200000000E+03 0. -1.
</event>
<event>
 4    1 -0.6532506E-004  0.2990757E+03  0.7818608E-02  0.1085704E+00
         -5   -1    0    0    0  501 -0.00000000000E+00  0.00000000000E+00  0.50444552662E+03  0.50446742147E+03  0.47000000000E+01 0.  1.
          5   -1    0    0  501    0  0.00000000000E+00 -0.00000000000E+00 -0.24317219133E+03  0.24321760758E+03  0.47000000000E+01 0. -1.
          6    1    1    2  502    0  0.18414506309E+03  0.16109897555E+03 -0.63966441953E+02  0.30583981081E+03  0.17200000000E+03 0. -1.
         -6    1    1    2    0  502 -0.18414506309E+03 -0.16109897555E+03  0.32523977724E+03  0.44184521824E+03  0.17200000000E+03 0.  1.
</event>
<event>
 4    1 -0.6532506E-004  0.3455265E+03  0.7818608E-02  0.1064466E+00
         -5   -1    0    0    0  501 -0.00000000000E+00  0.00000000000E+00  0.40606300856E+03  0.40609020786E+03  0.47000000000E+01 0.  1.
          5   -1    0    0  501    0  0.00000000000E+00 -0.00000000000E+00 -0.29751752073E+03  0.29755464228E+03  0.47000000000E+01 0. -1.
          6    1    1    2  502    0  0.15981554658E+03  0.25350254088E+03  0.15799845782E+02  0.34588752838E+03  0.17200000000E+03 0. -1.
         -6    1    1    2    0  502 -0.15981554658E+03 -0.25350254088E+03  0.92745642049E+02  0.35775732177E+03  0.17200000000E+03 0.  1.
</event>
<event>
 4    1 -0.6532506E-004  0.2357544E+03  0.7818608E-02  0.1122654E+00
          5   -1    0    0  501    0  0.00000000000E+00  0.00000000000E+00  0.17073783965E+03  0.17080251722E+03  0.47000000000E+01 0. -1.
         -5   -1    0    0    0  501 -0.00000000000E+00 -0.00000000000E+00 -0.54006957819E+03  0.54009002887E+03  0.47000000000E+01 0.  1.
          6    1    1    2  502    0 -0.81862181727E+02 -0.13890546974E+03  0.39418577883E+02  0.23902713361E+03  0.17200000000E+03 0. -1.
         -6    1    1    2    0  502  0.81862181727E+02  0.13890546974E+03 -0.40875031643E+03  0.47186541248E+03  0.17200000000E+03 0.  1.
</event>
<event>
 4    1 -0.6532506E-004  0.4664923E+03  0.7818608E-02  0.1022915E+00
          5   -1    0    0  501    0  0.00000000000E+00  0.00000000000E+00  0.13088193026E+04  0.13088277415E+04  0.47000000000E+01 0. -1.
         -5   -1    0    0    0  501 -0.00000000000E+00 -0.00000000000E+00 -0.18674858302E+03  0.18680771735E+03  0.47000000000E+01 0.  1.
          6    1    1    2  502    0 -0.50629126767E+02 -0.43065971408E+03  0.80889148939E+03  0.93376685496E+03  0.17200000000E+03 0. -1.
         -6    1    1    2    0  502  0.50629126767E+02  0.43065971408E+03  0.31317923022E+03  0.56186860390E+03  0.17200000000E+03 0.  1.
</event>
<event>
 4    1 -0.6532506E-004  0.2620302E+03  0.7818608E-02  0.1105930E+00
         -5   -1    0    0    0  501 -0.00000000000E+00  0.00000000000E+00  0.24837426532E+03  0.24841873052E+03  0.47000000000E+01 0.  1.
          5   -1    0    0  501    0  0.00000000000E+00 -0.00000000000E+00 -0.30728800231E+03  0.30732394369E+03  0.47000000000E+01 0. -1.
          6    1    1    2  502    0 -0.14738878322E+03  0.13172836251E+03 -0.11761753108E+03  0.28721716266E+03  0.17200000000E+03 0. -1.
         -6    1    1    2    0  502  0.14738878322E+03 -0.13172836251E+03  0.58703794083E+02  0.26852551154E+03  0.17200000000E+03 0.  1.
</event>
<event>
 4    1 -0.6532506E-004  0.1806253E+03  0.7818608E-02  0.1167199E+00
         -5   -1    0    0    0  501 -0.00000000000E+00  0.00000000000E+00  0.60407143285E+03  0.60408971684E+03  0.47000000000E+01 0.  1.
          5   -1    0    0  501    0  0.00000000000E+00 -0.00000000000E+00 -0.60542863641E+02  0.60725022337E+02  0.47000000000E+01 0. -1.
          6    1    1    2  502    0  0.12354918110E+02  0.53748055469E+02  0.16174911793E+03  0.24246293453E+03  0.17200000000E+03 0. -1.
         -6    1    1    2    0  502 -0.12354918110E+02 -0.53748055469E+02  0.38177945128E+03  0.42235180465E+03  0.17200000000E+03 0.  1.
</event>
<event>
 4    1 -0.6532506E-004  0.1888106E+03  0.7818608E-02  0.1159538E+00
          5   -1    0    0  501    0  0.00000000000E+00  0.00000000000E+00  0.24978268231E+03  0.24982689683E+03  0.47000000000E+01 0. -1.
         -5   -1    0    0    0  501 -0.00000000000E+00 -0.00000000000E+00 -0.18446724938E+03  0.18452711479E+03  0.47000000000E+01 0.  1.
          6    1    1    2  502    0 -0.69156172601E+02  0.35817128534E+02  0.13605812624E+03  0.23272571113E+03  0.17200000000E+03 0. -1.
         -6    1    1    2    0  502  0.69156172601E+02 -0.35817128534E+02 -0.70742693309E+02  0.20162830050E+03  0.17200000000E+03 0.  1.
</event>
<event>
 4    1 -0.6532506E-004  0.1990507E+03  0.7818608E-02  0.1150542E+00
         -5   -1    0    0    0  501 -0.00000000000E+00  0.00000000000E+00  0.92710229855E+02  0.92829288050E+02  0.47000000000E+01 0.  1.
          5   -1    0    0  501    0  0.00000000000E+00 -0.00000000000E+00 -0.43640626598E+03  0.43643157423E+03  0.47000000000E+01 0. -1.
          6    1    1    2  502    0  0.70341016969E+02  0.71339453229E+02 -0.21077616496E+03  0.28990993079E+03  0.17200000000E+03 0. -1.
         -6    1    1    2    0  502 -0.70341016969E+02 -0.71339453229E+02 -0.13291987116E+03  0.23935093149E+03  0.17200000000E+03 0.  1.
</event>
<event>
 4    1 -0.6532506E-004  0.1788807E+03  0.7818608E-02  0.1168891E+00
          5   -1    0    0  501    0  0.00000000000E+00  0.00000000000E+00  0.19894711015E+02  0.20442346401E+02  0.47000000000E+01 0. -1.
         -5   -1    0    0    0  501 -0.00000000000E+00 -0.00000000000E+00 -0.16140832587E+04  0.16140901016E+04  0.47000000000E+01 0.  1.
          6    1    1    2  502    0  0.49123582512E+02  0.10921508793E+01 -0.68930345684E+03  0.71213592436E+03  0.17200000000E+03 0.  1.
         -6    1    1    2    0  502 -0.49123582512E+02 -0.10921508793E+01 -0.90488509081E+03  0.92239652359E+03  0.17200000000E+03 0. -1.
</event>
<event>
 4    1 -0.6532506E-004  0.4640883E+03  0.7818608E-02  0.1023602E+00
         -5   -1    0    0    0  501 -0.00000000000E+00  0.00000000000E+00  0.78090435469E+03  0.78091849842E+03  0.47000000000E+01 0.  1.
          5   -1    0    0  501    0  0.00000000000E+00 -0.00000000000E+00 -0.32356423969E+03  0.32359837331E+03  0.47000000000E+01 0. -1.
          6    1    1    2  502    0  0.56955714762E+02 -0.42725867973E+03  0.16433823026E+02  0.46437915908E+03  0.17200000000E+03 0. -1.
         -6    1    1    2    0  502 -0.56955714762E+02  0.42725867973E+03  0.44090629197E+03  0.64013771265E+03  0.17200000000E+03 0.  1.
</event>
<event>
 4    1 -0.6532506E-004  0.2016784E+03  0.7818608E-02  0.1148331E+00
         -5   -1    0    0    0  501 -0.00000000000E+00  0.00000000000E+00  0.43334879181E+03  0.43337427861E+03  0.47000000000E+01 0.  1.
          5   -1    0    0  501    0  0.00000000000E+00 -0.00000000000E+00 -0.14003069775E+03  0.14010955111E+03  0.47000000000E+01 0. -1.
          6    1    1    2  502    0 -0.46263463937E+02  0.94603753849E+02 -0.18073542463E+02  0.20248661999E+03  0.17200000000E+03 0. -1.
         -6    1    1    2    0  502  0.46263463937E+02 -0.94603753849E+02  0.31139163652E+03  0.37099720973E+03  0.17200000000E+03 0.  1.
</event>
<event>
 4    1 -0.6532506E-004  0.2679842E+03  0.7818608E-02  0.1102439E+00
         -5   -1    0    0    0  501 -0.00000000000E+00  0.00000000000E+00  0.14883460016E+03  0.14890879156E+03  0.47000000000E+01 0.  1.
          5   -1    0    0  501    0  0.00000000000E+00 -0.00000000000E+00 -0.48828537943E+03  0.48830799887E+03  0.47000000000E+01 0. -1.
          6    1    1    2  502    0  0.20262660929E+03 -0.34263140683E+02 -0.20495846863E+03  0.33737735470E+03  0.17200000000E+03 0. -1.
         -6    1    1    2    0  502 -0.20262660929E+03  0.34263140683E+02 -0.13449231063E+03  0.29983943573E+03  0.17200000000E+03 0.  1.
</event>
<event>
 4    1 -0.6532506E-004  0.1804545E+03  0.7818608E-02  0.1167364E+00
          5   -1    0    0  501    0  0.00000000000E+00  0.00000000000E+00  0.81860235346E+02  0.81995049429E+02  0.47000000000E+01 0. -1.
         -5   -1    0    0    0  501 -0.00000000000E+00 -0.00000000000E+00 -0.42548569937E+03  0.42551165715E+03  0.47000000000E+01 0.  1.
          6    1    1    2  502    0 -0.49309013575E+02 -0.23418838287E+02 -0.23708570364E+03  0.29794874001E+03  0.17200000000E+03 0.  1.
         -6    1    1    2    0  502  0.49309013575E+02  0.23418838287E+02 -0.10653976038E+03  0.20955796656E+03  0.17200000000E+03 0.  1.
</event>
<event>
 4    1 -0.6532506E-004  0.2557339E+03  0.7818608E-02  0.1109734E+00
          5   -1    0    0  501    0  0.00000000000E+00  0.00000000000E+00  0.12119760637E+03  0.12128870430E+03  0.47000000000E+01 0. -1.
         -5   -1    0    0    0  501 -0.00000000000E+00 -0.00000000000E+00 -0.86332886768E+03  0.86334166109E+03  0.47000000000E+01 0.  1.
          6    1    1    2  502    0 -0.59796970934E+02 -0.17955540406E+03 -0.69477829934E+02  0.26500375415E+03  0.17200000000E+03 0. -1.
         -6    1    1    2    0  502  0.59796970934E+02  0.17955540406E+03 -0.67265343137E+03  0.71962661123E+03  0.17200000000E+03 0.  1.
</event>
<event>
 4    1 -0.6532506E-004  0.1893976E+03  0.7818608E-02  0.1159006E+00
          5   -1    0    0  501    0  0.00000000000E+00  0.00000000000E+00  0.72864487419E+02  0.73015912833E+02  0.47000000000E+01 0. -1.
         -5   -1    0    0    0  501 -0.00000000000E+00 -0.00000000000E+00 -0.78985812724E+03  0.78987211064E+03  0.47000000000E+01 0.  1.
          6    1    1    2  502    0  0.49190342796E+02 -0.62191327838E+02 -0.93416426484E+02  0.21118257461E+03  0.17200000000E+03 0. -1.
         -6    1    1    2    0  502 -0.49190342796E+02  0.62191327838E+02 -0.62357721334E+03  0.65170544886E+03  0.17200000000E+03 0.  1.
</event>
<event>
 4    1 -0.6532506E-004  0.6729702E+03  0.7818608E-02  0.9764607E-01
          5   -1    0    0  501    0  0.00000000000E+00  0.00000000000E+00  0.31675239421E+03  0.31678726180E+03  0.47000000000E+01 0. -1.
         -5   -1    0    0    0  501 -0.00000000000E+00 -0.00000000000E+00 -0.18471988069E+04  0.18472047862E+04  0.47000000000E+01 0.  1.
          6    1    1    2  502    0 -0.51307325295E+03 -0.40007596751E+03 -0.25081654742E+03  0.71819070109E+03  0.17200000000E+03 0. -1.
         -6    1    1    2    0  502  0.51307325295E+03  0.40007596751E+03 -0.12796298653E+04  0.14458013469E+04  0.17200000000E+03 0.  1.
</event>
<event>
 4    1 -0.6532506E-004  0.2111264E+03  0.7818608E-02  0.1140677E+00
          5   -1    0    0  501    0  0.00000000000E+00  0.00000000000E+00  0.46574565631E+03  0.46576937037E+03  0.47000000000E+01 0. -1.
         -5   -1    0    0    0  501 -0.00000000000E+00 -0.00000000000E+00 -0.15605536842E+03  0.15612612854E+03  0.47000000000E+01 0.  1.
          6    1    1    2  502    0  0.15391384474E+02 -0.12146374897E+03  0.34827608493E+03  0.40727210605E+03  0.17200000000E+03 0. -1.
         -6    1    1    2    0  502 -0.15391384474E+02  0.12146374897E+03 -0.38585797042E+02  0.21462339286E+03  0.17200000000E+03 0.  1.
</event>
<event>
 4    1 -0.6532506E-004  0.2876242E+03  0.7818608E-02  0.1091596E+00
         -5   -1    0    0    0  501 -0.00000000000E+00  0.00000000000E+00  0.36781216359E+03  0.36784219128E+03  0.47000000000E+01 0.  1.
          5   -1    0    0  501    0  0.00000000000E+00 -0.00000000000E+00 -0.22494619834E+03  0.22499529361E+03  0.47000000000E+01 0. -1.
          6    1    1    2  502    0 -0.19036514446E+03  0.13001839450E+03  0.77416985283E+02  0.29786080766E+03  0.17200000000E+03 0. -1.
         -6    1    1    2    0  502  0.19036514446E+03 -0.13001839450E+03  0.65448979973E+02  0.29497667723E+03  0.17200000000E+03 0.  1.
</event>
<event>
 4    1 -0.6532506E-004  0.5003637E+03  0.7818608E-02  0.1013684E+00
         -5   -1    0    0    0  501 -0.00000000000E+00  0.00000000000E+00  0.11065078975E+03  0.11075056331E+03  0.47000000000E+01 0.  1.
          5   -1    0    0  501    0  0.00000000000E+00 -0.00000000000E+00 -0.22648956303E+04  0.22649005069E+04  0.47000000000E+01 0. -1.
          6    1    1    2  502    0 -0.32367249093E+03  0.34061118587E+03 -0.10313125988E+04  0.11462851032E+04  0.17200000000E+03 0. -1.
         -6    1    1    2    0  502  0.32367249093E+03 -0.34061118587E+03 -0.11229322418E+04  0.12293659670E+04  0.17200000000E+03 0.  1.
</event>
<event>
 4    1 -0.6532506E-004  0.2094586E+03  0.7818608E-02  0.1141995E+00
         -5   -1    0    0    0  501 -0.00000000000E+00  0.00000000000E+00  0.19014844660E+02  0.19587095686E+02  0.47000000000E+01 0.  1.
          5   -1    0    0  501    0  0.00000000000E+00 -0.00000000000E+00 -0.24885673608E+04  0.24885717991E+04  0.47000000000E+01 0. -1.
          6    1    1    2  502    0  0.10535958311E+02 -0.11907093809E+03 -0.16042439816E+04  0.16178602063E+04  0.17200000000E+03 0. -1.
         -6    1    1    2    0  502 -0.10535958311E+02  0.11907093809E+03 -0.86530853461E+03  0.89029868853E+03  0.17200000000E+03 0.  1.
</event>
<event>
 4    1 -0.6532506E-004  0.1990372E+03  0.7818608E-02  0.1150554E+00
         -5   -1    0    0    0  501 -0.00000000000E+00  0.00000000000E+00  0.52337406584E+02  0.52548017355E+02  0.47000000000E+01 0.  1.
          5   -1    0    0  501    0  0.00000000000E+00 -0.00000000000E+00 -0.84439762208E+03  0.84441070231E+03  0.47000000000E+01 0. -1.
          6    1    1    2  502    0  0.96338318019E+02  0.27399190140E+02 -0.54177905633E+03  0.57718310182E+03  0.17200000000E+03 0. -1.
         -6    1    1    2    0  502 -0.96338318019E+02 -0.27399190140E+02 -0.25028115916E+03  0.31977561785E+03  0.17200000000E+03 0.  1.
</event>
<event>
 4    1 -0.6532506E-004  0.2162218E+03  0.7818608E-02  0.1136732E+00
          5   -1    0    0  501    0  0.00000000000E+00  0.00000000000E+00  0.10752221677E+04  0.10752324399E+04  0.47000000000E+01 0. -1.
         -5   -1    0    0    0  501 -0.00000000000E+00 -0.00000000000E+00 -0.43762384467E+02  0.44014046556E+02  0.47000000000E+01 0.  1.
          6    1    1    2  502    0 -0.69649202340E+01  0.13084098283E+03  0.46114976998E+03  0.50932404543E+03  0.17200000000E+03 0. -1.
         -6    1    1    2    0  502  0.69649202340E+01 -0.13084098283E+03  0.57031001322E+03  0.60992244104E+03  0.17200000000E+03 0. -1.
</event>
<event>
 4    1 -0.6532506E-004  0.2444758E+03  0.7818608E-02  0.1116847E+00
         -5   -1    0    0    0  501 -0.00000000000E+00  0.00000000000E+00  0.93493499888E+02  0.93611561900E+02  0.47000000000E+01 0.  1.
          5   -1    0    0  501    0  0.00000000000E+00 -0.00000000000E+00 -0.76030071378E+03  0.76031524079E+03  0.47000000000E+01 0. -1.
          6    1    1    2  502    0  0.50209566100E+02 -0.16632329181E+03 -0.16270095498E+03  0.29366654334E+03  0.17200000000E+03 0.  1.
         -6    1    1    2    0  502 -0.50209566100E+02  0.16632329181E+03 -0.50410625891E+03  0.56026025934E+03  0.17200000000E+03 0. -1.
</event>
<event>
 4    1 -0.6532506E-004  0.1951994E+03  0.7818608E-02  0.1153854E+00
          5   -1    0    0  501    0  0.00000000000E+00  0.00000000000E+00  0.37946173142E+02  0.38236135476E+02  0.47000000000E+01 0. -1.
         -5   -1    0    0    0  501 -0.00000000000E+00 -0.00000000000E+00 -0.13873295795E+04  0.13873375409E+04  0.47000000000E+01 0.  1.
          6    1    1    2  502    0  0.92276141476E+02  0.19758884916E+01 -0.29811130096E+03  0.35633290359E+03  0.17200000000E+03 0. -1.
         -6    1    1    2    0  502 -0.92276141476E+02 -0.19758884916E+01 -0.10512721054E+04  0.10692407727E+04  0.17200000000E+03 0.  1.
</event>
<event>
 4    1 -0.6532506E-004  0.3956271E+03  0.7818608E-02  0.1045304E+00
         -5   -1    0    0    0  501 -0.00000000000E+00  0.00000000000E+00  0.60441571408E+03  0.60443398765E+03  0.47000000000E+01 0.  1.
          5   -1    0    0  501    0  0.00000000000E+00 -0.00000000000E+00 -0.48678696105E+03  0.48680965012E+03  0.47000000000E+01 0. -1.
          6    1    1    2  502    0  0.35438743413E+03 -0.36692160801E+02 -0.31447149790E+03  0.50538410256E+03  0.17200000000E+03 0. -1.
         -6    1    1    2    0  502 -0.35438743413E+03  0.36692160801E+02  0.43210025093E+03  0.58585953520E+03  0.17200000000E+03 0.  1.
</event>
<event>
 4    1 -0.6532506E-004  0.4963677E+03  0.7818608E-02  0.1014731E+00
          5   -1    0    0  501    0  0.00000000000E+00  0.00000000000E+00  0.10881342495E+04  0.10881443998E+04  0.47000000000E+01 0. -1.
         -5   -1    0    0    0  501 -0.00000000000E+00 -0.00000000000E+00 -0.30832906844E+03  0.30836488847E+03  0.47000000000E+01 0.  1.
          6    1    1    2  502    0  0.27570833758E+03  0.37520896976E+03  0.74983139714E+03  0.89923744503E+03  0.17200000000E+03 0. -1.
         -6    1    1    2    0  502 -0.27570833758E+03 -0.37520896976E+03  0.29973783908E+02  0.49727184328E+03  0.17200000000E+03 0.  1.
</event>
<event>
 4    1 -0.6532506E-004  0.3886296E+03  0.7818608E-02  0.1047790E+00
          5   -1    0    0  501    0  0.00000000000E+00  0.00000000000E+00  0.72084809183E+03  0.72086341390E+03  0.47000000000E+01 0. -1.
         -5   -1    0    0    0  501 -0.00000000000E+00 -0.00000000000E+00 -0.29227837319E+03  0.29231616007E+03  0.47000000000E+01 0.  1.
          6    1    1    2  502    0 -0.30166588457E+03 -0.17448973680E+03  0.48389177812E+03  0.62063211897E+03  0.17200000000E+03 0. -1.
         -6    1    1    2    0  502  0.30166588457E+03  0.17448973680E+03 -0.55322059483E+02  0.39254745500E+03  0.17200000000E+03 0.  1.
</event>
<event>
 4    1 -0.6532506E-004  0.2150283E+03  0.7818608E-02  0.1137645E+00
         -5   -1    0    0    0  501 -0.00000000000E+00  0.00000000000E+00  0.37550500582E+03  0.37553441839E+03  0.47000000000E+01 0.  1.
          5   -1    0    0  501    0  0.00000000000E+00 -0.00000000000E+00 -0.29066832938E+03  0.29070632554E+03  0.47000000000E+01 0. -1.
          6    1    1    2  502    0 -0.10694274938E+03  0.72224640237E+02 -0.21050449717E+03  0.30091409676E+03  0.17200000000E+03 0. -1.
         -6    1    1    2    0  502  0.10694274938E+03 -0.72224640237E+02  0.29534117360E+03  0.36532664716E+03  0.17200000000E+03 0.  1.
</event>
<event>
 4    1 -0.6532506E-004  0.2567876E+03  0.7818608E-02  0.1109089E+00
          5   -1    0    0  501    0  0.00000000000E+00  0.00000000000E+00  0.21768579309E+04  0.21768630047E+04  0.47000000000E+01 0. -1.
         -5   -1    0    0    0  501 -0.00000000000E+00 -0.00000000000E+00 -0.32110367606E+02  0.32452514661E+02  0.47000000000E+01 0.  1.
          6    1    1    2  502    0 -0.12831759369E+03  0.14103356210E+03  0.13469830421E+04  0.13712414763E+04  0.17200000000E+03 0. -1.
         -6    1    1    2    0  502  0.12831759369E+03 -0.14103356210E+03  0.79776452115E+03  0.83807404308E+03  0.17200000000E+03 0.  1.
</event>
<event>
 4    1 -0.6532506E-004  0.3123940E+03  0.7818608E-02  0.1079204E+00
         -5   -1    0    0    0  501 -0.00000000000E+00  0.00000000000E+00  0.21469700831E+03  0.21474844674E+03  0.47000000000E+01 0.  1.
          5   -1    0    0  501    0  0.00000000000E+00 -0.00000000000E+00 -0.46323003106E+03  0.46325387389E+03  0.47000000000E+01 0. -1.
          6    1    1    2  502    0 -0.83634280181E+02 -0.24700470306E+03 -0.17098831538E+03  0.35612781435E+03  0.17200000000E+03 0. -1.
         -6    1    1    2    0  502  0.83634280181E+02  0.24700470306E+03 -0.77544707370E+02  0.32187450629E+03  0.17200000000E+03 0.  1.
</event>
<event>
 4    1 -0.6532506E-004  0.1865880E+03  0.7818608E-02  0.1161575E+00
         -5   -1    0    0    0  501 -0.00000000000E+00  0.00000000000E+00  0.25306239811E+03  0.25310603971E+03  0.47000000000E+01 0.  1.
          5   -1    0    0  501    0  0.00000000000E+00 -0.00000000000E+00 -0.14328983913E+03  0.14336689994E+03  0.47000000000E+01 0. -1.
          6    1    1    2  502    0 -0.45869136429E+01 -0.72180557326E+02  0.94788353213E+02  0.20928426730E+03  0.17200000000E+03 0.  1.
         -6    1    1    2    0  502  0.45869136429E+01  0.72180557326E+02  0.14984205764E+02  0.18718867235E+03  0.17200000000E+03 0.  1.
</event>
<event>
 4    1 -0.6532506E-004  0.2141728E+03  0.7818608E-02  0.1138304E+00
          5   -1    0    0  501    0  0.00000000000E+00  0.00000000000E+00  0.38748117832E+03  0.38750968188E+03  0.47000000000E+01 0. -1.
         -5   -1    0    0    0  501 -0.00000000000E+00 -0.00000000000E+00 -0.29680959131E+03  0.29684680139E+03  0.47000000000E+01 0.  1.
          6    1    1    2  502    0 -0.92490952359E+02 -0.87928396690E+02  0.31065895146E+03  0.37733137072E+03  0.17200000000E+03 0. -1.
         -6    1    1    2    0  502  0.92490952359E+02  0.87928396690E+02 -0.21998736445E+03  0.30702511254E+03  0.17200000000E+03 0.  1.
</event>
<event>
 4    1 -0.6532506E-004  0.1867076E+03  0.7818608E-02  0.1161465E+00
         -5   -1    0    0    0  501 -0.00000000000E+00  0.00000000000E+00  0.43731262771E+03  0.43733788352E+03  0.47000000000E+01 0.  1.
          5   -1    0    0  501    0  0.00000000000E+00 -0.00000000000E+00 -0.12247379626E+03  0.12256394564E+03  0.47000000000E+01 0. -1.
          6    1    1    2  502    0 -0.65922238879E+02  0.30495719217E+02  0.32292948054E+03  0.37301900739E+03  0.17200000000E+03 0.  1.
         -6    1    1    2    0  502  0.65922238879E+02 -0.30495719217E+02 -0.80906490903E+01  0.18688282177E+03  0.17200000000E+03 0. -1.
</event>
<event>
 4    1 -0.6532506E-004  0.1788715E+03  0.7818608E-02  0.1168900E+00
         -5   -1    0    0    0  501 -0.00000000000E+00  0.00000000000E+00  0.65958773177E+02  0.66126014239E+02  0.47000000000E+01 0.  1.
          5   -1    0    0  501    0  0.00000000000E+00 -0.00000000000E+00 -0.91107755756E+03  0.91108968049E+03  0.47000000000E+01 0. -1.
          6    1    1    2  502    0  0.48853936514E+02  0.49313110605E+01 -0.75694535801E+03  0.77779258157E+03  0.17200000000E+03 0. -1.
         -6    1    1    2    0  502 -0.48853936514E+02 -0.49313110605E+01 -0.88173426381E+02  0.19942311316E+03  0.17200000000E+03 0.  1.
</event>
<event>
 4    1 -0.6532506E-004  0.3416629E+03  0.7818608E-02  0.1066090E+00
          5   -1    0    0  501    0  0.00000000000E+00  0.00000000000E+00  0.35271738968E+03  0.35274870231E+03  0.47000000000E+01 0. -1.
         -5   -1    0    0    0  501 -0.00000000000E+00 -0.00000000000E+00 -0.33612442981E+03  0.33615728806E+03  0.47000000000E+01 0.  1.
          6    1    1    2  502    0  0.75755415789E+02  0.28532550295E+03  0.51268330257E+02  0.34548801331E+03  0.17200000000E+03 0. -1.
         -6    1    1    2    0  502 -0.75755415789E+02 -0.28532550295E+03 -0.34675370388E+02  0.34341797706E+03  0.17200000000E+03 0.  1.
</event>
<event>
 4    1 -0.6532506E-004  0.1773041E+03  0.7818608E-02  0.1170438E+00
         -5   -1    0    0    0  501 -0.00000000000E+00  0.00000000000E+00  0.25746057353E+03  0.25750346973E+03  0.47000000000E+01 0.  1.
          5   -1    0    0  501    0  0.00000000000E+00 -0.00000000000E+00 -0.24275907381E+03  0.24280456733E+03  0.47000000000E+01 0. -1.
          6    1    1    2  502    0 -0.42644406789E+02  0.58477282325E+01 -0.16903837515E+03  0.24497084241E+03  0.17200000000E+03 0. -1.
         -6    1    1    2    0  502  0.42644406789E+02 -0.58477282325E+01  0.18373987487E+03  0.25533719465E+03  0.17200000000E+03 0.  1.
</event>
<event>
 4    1 -0.6532506E-004  0.4824916E+03  0.7818608E-02  0.1018453E+00
          5   -1    0    0  501    0  0.00000000000E+00  0.00000000000E+00  0.88052497337E+03  0.88053751694E+03  0.47000000000E+01 0. -1.
         -5   -1    0    0    0  501 -0.00000000000E+00 -0.00000000000E+00 -0.27130999992E+03  0.27135070676E+03  0.47000000000E+01 0.  1.
          6    1    1    2  502    0  0.41090369024E+03  0.18539765782E+03  0.39684334064E+03  0.62472615696E+03  0.17200000000E+03 0. -1.
         -6    1    1    2    0  502 -0.41090369024E+03 -0.18539765782E+03  0.21237163281E+03  0.52716206673E+03  0.17200000000E+03 0.  1.
</event>
<event>
 4    1 -0.6532506E-004  0.1939647E+03  0.7818608E-02  0.1154933E+00
          5   -1    0    0  501    0  0.00000000000E+00  0.00000000000E+00  0.18978479576E+02  0.19551794982E+02  0.47000000000E+01 0. -1.
         -5   -1    0    0    0  501 -0.00000000000E+00 -0.00000000000E+00 -0.20580324574E+04  0.20580378241E+04  0.47000000000E+01 0.  1.
          6    1    1    2  502    0 -0.53367296210E+02  0.72043300224E+02 -0.78409807503E+03  0.80773268887E+03  0.17200000000E+03 0. -1.
         -6    1    1    2    0  502  0.53367296210E+02 -0.72043300224E+02 -0.12549559028E+04  0.12698569302E+04  0.17200000000E+03 0.  1.
</event>
<event>
 4    1 -0.6532506E-004  0.4731112E+03  0.7818608E-02  0.1021046E+00
          5   -1    0    0  501    0  0.00000000000E+00  0.00000000000E+00  0.99033385415E+02  0.99144850732E+02  0.47000000000E+01 0. -1.
         -5   -1    0    0    0  501 -0.00000000000E+00 -0.00000000000E+00 -0.28733896727E+04  0.28733935166E+04  0.47000000000E+01 0.  1.
          6    1    1    2  502    0  0.14902360330E+03  0.41477965453E+03 -0.69982071987E+03  0.84473856080E+03  0.17200000000E+03 0. -1.
         -6    1    1    2    0  502 -0.14902360330E+03 -0.41477965453E+03 -0.20745355674E+04  0.21277998065E+04  0.17200000000E+03 0.  1.
</event>
<event>
 4    1 -0.6532506E-004  0.2076112E+03  0.7818608E-02  0.1143472E+00
          5   -1    0    0  501    0  0.00000000000E+00  0.00000000000E+00  0.24256502258E+02  0.24707648649E+02  0.47000000000E+01 0. -1.
         -5   -1    0    0    0  501 -0.00000000000E+00 -0.00000000000E+00 -0.18429037257E+04  0.18429097189E+04  0.47000000000E+01 0.  1.
          6    1    1    2  502    0  0.11593644413E+03 -0.87847437028E+01 -0.11072182430E+04  0.11265143889E+04  0.17200000000E+03 0.  1.
         -6    1    1    2    0  502 -0.11593644413E+03  0.87847437028E+01 -0.71142898042E+03  0.74110297867E+03  0.17200000000E+03 0. -1.
</event>
<event>
 4    1 -0.6532506E-004  0.2988664E+03  0.7818608E-02  0.1085809E+00
          5   -1    0    0  501    0  0.00000000000E+00  0.00000000000E+00  0.30529470724E+03  0.30533088325E+03  0.47000000000E+01 0. -1.
         -5   -1    0    0    0  501 -0.00000000000E+00 -0.00000000000E+00 -0.29357028148E+03  0.29360790209E+03  0.47000000000E+01 0.  1.
          6    1    1    2  502    0 -0.17497354327E+03  0.17064990624E+03  0.23932779871E+02  0.29982313002E+03  0.17200000000E+03 0.  1.
         -6    1    1    2    0  502  0.17497354327E+03 -0.17064990624E+03 -0.12208354114E+02  0.29911565531E+03  0.17200000000E+03 0. -1.
</event>
<event>
 4    1 -0.6532506E-004  0.1741848E+03  0.7818608E-02  0.1173553E+00
         -5   -1    0    0    0  501 -0.00000000000E+00  0.00000000000E+00  0.40828448725E+03  0.40831153857E+03  0.47000000000E+01 0.  1.
          5   -1    0    0  501    0  0.00000000000E+00 -0.00000000000E+00 -0.76680334316E+02  0.76824238823E+02  0.47000000000E+01 0. -1.
          6    1    1    2  502    0  0.40632564079E+01 -0.27199619991E+02  0.20930969606E+03  0.27230658870E+03  0.17200000000E+03 0.  1.
         -6    1    1    2    0  502 -0.40632564079E+01  0.27199619991E+02  0.12229445687E+03  0.21282918870E+03  0.17200000000E+03 0. -1.
</event>
<event>
 4    1 -0.6532506E-004  0.1774609E+03  0.7818608E-02  0.1170283E+00
         -5   -1    0    0    0  501 -0.00000000000E+00  0.00000000000E+00  0.71048131143E+03  0.71049685706E+03  0.47000000000E+01 0.  1.
          5   -1    0    0  501    0  0.00000000000E+00 -0.00000000000E+00 -0.85737342730E+02  0.85866069774E+02  0.47000000000E+01 0. -1.
          6    1    1    2  502    0 -0.35859839272E+02  0.24949161418E+02  0.35500941986E+02  0.18097708587E+03  0.17200000000E+03 0. -1.
         -6    1    1    2    0  502  0.35859839272E+02 -0.24949161418E+02  0.58924302672E+03  0.61538584097E+03  0.17200000000E+03 0.  1.
</event>
<event>
 4    1 -0.6532506E-004  0.2280185E+03  0.7818608E-02  0.1128042E+00
          5   -1    0    0  501    0  0.00000000000E+00  0.00000000000E+00  0.13696853756E+03  0.13704915280E+03  0.47000000000E+01 0. -1.
         -5   -1    0    0    0  501 -0.00000000000E+00 -0.00000000000E+00 -0.78708092105E+03  0.78709495379E+03  0.47000000000E+01 0.  1.
          6    1    1    2  502    0 -0.11542935506E+03  0.95312536688E+02  0.74800094173E+01  0.22814111028E+03  0.17200000000E+03 0. -1.
         -6    1    1    2    0  502  0.11542935506E+03 -0.95312536688E+02 -0.65759239291E+03  0.69600299631E+03  0.17200000000E+03 0.  1.
</event>
<event>
 4    1 -0.6532506E-004  0.1765910E+03  0.7818608E-02  0.1171144E+00
         -5   -1    0    0    0  501 -0.00000000000E+00  0.00000000000E+00  0.28343118466E+03  0.28347015087E+03  0.47000000000E+01 0.  1.
          5   -1    0    0  501    0  0.00000000000E+00 -0.00000000000E+00 -0.11001965361E+03  0.11011999900E+03  0.47000000000E+01 0. -1.
          6    1    1    2  502    0 -0.26142203657E+02 -0.30281434961E+02  0.81022274891E+02  0.19429099090E+03  0.17200000000E+03 0.  1.
         -6    1    1    2    0  502  0.26142203657E+02  0.30281434961E+02  0.92389256159E+02  0.19929915898E+03  0.17200000000E+03 0.  1.
</event>
<event>
 4    1 -0.6532506E-004  0.4234440E+03  0.7818608E-02  0.1035951E+00
          5   -1    0    0  501    0  0.00000000000E+00  0.00000000000E+00  0.69526069978E+02  0.69684750173E+02  0.47000000000E+01 0. -1.
         -5   -1    0    0    0  501 -0.00000000000E+00 -0.00000000000E+00 -0.27568333474E+04  0.27568373538E+04  0.47000000000E+01 0.  1.
          6    1    1    2  502    0 -0.94373824457E+02  0.37525249485E+03 -0.98156583242E+03  0.10690071735E+04  0.17200000000E+03 0. -1.
         -6    1    1    2    0  502  0.94373824457E+02 -0.37525249485E+03 -0.17057414450E+04  0.17575149305E+04  0.17200000000E+03 0.  1.
</event>
<event>
 4    1 -0.6532506E-004  0.1879098E+03  0.7818608E-02  0.1160360E+00
          5   -1    0    0  501    0  0.00000000000E+00  0.00000000000E+00  0.31988378695E+03  0.31991831325E+03  0.47000000000E+01 0. -1.
         -5   -1    0    0    0  501 -0.00000000000E+00 -0.00000000000E+00 -0.14104179001E+03  0.14112007840E+03  0.47000000000E+01 0.  1.
          6    1    1    2  502    0 -0.75626960996E+02 -0.25780109975E+01  0.19700626526E+03  0.27225273538E+03  0.17200000000E+03 0. -1.
         -6    1    1    2    0  502  0.75626960996E+02  0.25780109975E+01 -0.18164268322E+02  0.18878565627E+03  0.17200000000E+03 0.  1.
</event>
<event>
 4    1 -0.6532506E-004  0.1947049E+03  0.7818608E-02  0.1154285E+00
          5   -1    0    0  501    0  0.00000000000E+00  0.00000000000E+00  0.16024535582E+04  0.16024604508E+04  0.47000000000E+01 0. -1.
         -5   -1    0    0    0  501 -0.00000000000E+00 -0.00000000000E+00 -0.26313378594E+02  0.26729831519E+02  0.47000000000E+01 0.  1.
          6    1    1    2  502    0  0.46730056629E+02 -0.78372838866E+02  0.10560534967E+04  0.10738524051E+04  0.17200000000E+03 0. -1.
         -6    1    1    2    0  502 -0.46730056629E+02  0.78372838866E+02  0.52008668293E+03  0.55533787717E+03  0.17200000000E+03 0. -1.
</event>
<event>
 4    1 -0.6532506E-004  0.1896878E+03  0.7818608E-02  0.1158743E+00
         -5   -1    0    0    0  501 -0.00000000000E+00  0.00000000000E+00  0.42451532159E+02  0.42710918776E+02  0.47000000000E+01 0.  1.
          5   -1    0    0  501    0  0.00000000000E+00 -0.00000000000E+00 -0.11248182271E+04  0.11248280465E+04  0.47000000000E+01 0. -1.
          6    1    1    2  502    0 -0.76000452018E+02  0.24927370694E+02 -0.83244722233E+03  0.85378558226E+03  0.17200000000E+03 0. -1.
         -6    1    1    2    0  502  0.76000452018E+02 -0.24927370694E+02 -0.24991947265E+03  0.31375338297E+03  0.17200000000E+03 0.  1.
</event>
<event>
 4    1 -0.6532506E-004  0.3001647E+03  0.7818608E-02  0.1085158E+00
         -5   -1    0    0    0  501 -0.00000000000E+00  0.00000000000E+00  0.42743160899E+03  0.42745744860E+03  0.47000000000E+01 0.  1.
          5   -1    0    0  501    0  0.00000000000E+00 -0.00000000000E+00 -0.25917024505E+03  0.25921285832E+03  0.47000000000E+01 0. -1.
          6    1    1    2  502    0  0.18428340658E+03 -0.16295550099E+03  0.23253769807E+03  0.37970073778E+03  0.17200000000E+03 0. -1.
         -6    1    1    2    0  502 -0.18428340658E+03  0.16295550099E+03 -0.64276334134E+02  0.30696956914E+03  0.17200000000E+03 0.  1.
</event>
<event>
 4    1 -0.6532506E-004  0.3085353E+03  0.7818608E-02  0.1081050E+00
          5   -1    0    0  501    0  0.00000000000E+00  0.00000000000E+00  0.38959503358E+03  0.38962338250E+03  0.47000000000E+01 0. -1.
         -5   -1    0    0    0  501 -0.00000000000E+00 -0.00000000000E+00 -0.24663908548E+03  0.24668386345E+03  0.47000000000E+01 0.  1.
          6    1    1    2  502    0 -0.13631906695E+03 -0.21685741588E+03  0.10258152099E+03  0.32514150041E+03  0.17200000000E+03 0. -1.
         -6    1    1    2    0  502  0.13631906695E+03  0.21685741588E+03  0.40374427117E+02  0.31116574555E+03  0.17200000000E+03 0.  1.
</event>
<event>
 4    1 -0.6532506E-004  0.1931685E+03  0.7818608E-02  0.1155634E+00
         -5   -1    0    0    0  501 -0.00000000000E+00  0.00000000000E+00  0.58014251976E+02  0.58204324859E+02  0.47000000000E+01 0.  1.
          5   -1    0    0  501    0  0.00000000000E+00 -0.00000000000E+00 -0.72386243640E+03  0.72387769466E+03  0.47000000000E+01 0. -1.
          6    1    1    2  502    0 -0.33822765536E+02 -0.81154611809E+02 -0.46445919415E+03  0.50302722940E+03  0.17200000000E+03 0. -1.
         -6    1    1    2    0  502  0.33822765536E+02  0.81154611809E+02 -0.20138899027E+03  0.27905479012E+03  0.17200000000E+03 0.  1.
</event>
<event>
 4    1 -0.6532506E-004  0.1972066E+03  0.7818608E-02  0.1152117E+00
         -5   -1    0    0    0  501 -0.00000000000E+00  0.00000000000E+00  0.11905820484E+03  0.11915093848E+03  0.47000000000E+01 0.  1.
          5   -1    0    0  501    0  0.00000000000E+00 -0.00000000000E+00 -0.32752699326E+03  0.32756071393E+03  0.47000000000E+01 0. -1.
          6    1    1    2  502    0  0.88708975234E+02  0.37910031008E+02 -0.91216260517E+02  0.21728059950E+03  0.17200000000E+03 0. -1.
         -6    1    1    2    0  502 -0.88708975234E+02 -0.37910031008E+02 -0.11725252790E+03  0.22943105290E+03  0.17200000000E+03 0.  1.
</event>
<event>
 4    1 -0.6532506E-004  0.2543555E+03  0.7818608E-02  0.1110583E+00
          5   -1    0    0  501    0  0.00000000000E+00  0.00000000000E+00  0.15820401074E+03  0.15827381026E+03  0.47000000000E+01 0. -1.
         -5   -1    0    0    0  501 -0.00000000000E+00 -0.00000000000E+00 -0.48340607298E+03  0.48342892073E+03  0.47000000000E+01 0.  1.
          6    1    1    2  502    0  0.16261834441E+03  0.93102039377E+02 -0.28866058360E+03  0.38473581611E+03  0.17200000000E+03 0. -1.
         -6    1    1    2    0  502 -0.16261834441E+03 -0.93102039377E+02 -0.36541478647E+02  0.25696691487E+03  0.17200000000E+03 0.  1.
</event>
<event>
 4    1 -0.6532506E-004  0.2552769E+03  0.7818608E-02  0.1110015E+00
          5   -1    0    0  501    0  0.00000000000E+00  0.00000000000E+00  0.11109289881E+03  0.11119227566E+03  0.47000000000E+01 0. -1.
         -5   -1    0    0    0  501 -0.00000000000E+00 -0.00000000000E+00 -0.62444422787E+03  0.62446191534E+03  0.47000000000E+01 0.  1.
          6    1    1    2  502    0  0.18783861096E+03  0.17289768570E+02 -0.16568095427E+03  0.30432952284E+03  0.17200000000E+03 0. -1.
         -6    1    1    2    0  502 -0.18783861096E+03 -0.17289768570E+02 -0.34767037478E+03  0.43132466816E+03  0.17200000000E+03 0.  1.
</event>
<event>
 4    1 -0.6532506E-004  0.1825544E+03  0.7818608E-02  0.1165354E+00
         -5   -1    0    0    0  501 -0.00000000000E+00  0.00000000000E+00  0.43224785563E+03  0.43227340734E+03  0.47000000000E+01 0.  1.
          5   -1    0    0  501    0  0.00000000000E+00 -0.00000000000E+00 -0.88208161604E+02  0.88333288026E+02  0.47000000000E+01 0. -1.
          6    1    1    2  502    0 -0.10327556479E+02  0.60294551731E+02  0.79315653378E+02  0.19904035837E+03  0.17200000000E+03 0. -1.
         -6    1    1    2    0  502  0.10327556479E+02 -0.60294551731E+02  0.26472404065E+03  0.32156633699E+03  0.17200000000E+03 0.  1.
</event>
<event>
 4    1 -0.6532506E-004  0.2928053E+03  0.7818608E-02  0.1088894E+00
         -5   -1    0    0    0  501 -0.00000000000E+00  0.00000000000E+00  0.51085516374E+03  0.51087678390E+03  0.47000000000E+01 0.  1.
          5   -1    0    0  501    0  0.00000000000E+00 -0.00000000000E+00 -0.25752523033E+03  0.25756811576E+03  0.47000000000E+01 0. -1.
          6    1    1    2  502    0 -0.23662652840E+03 -0.12601925903E+02 -0.10013502308E+03  0.30945427017E+03  0.17200000000E+03 0. -1.
         -6    1    1    2    0  502  0.23662652840E+03  0.12601925903E+02  0.35346495650E+03  0.45899062948E+03  0.17200000000E+03 0.  1.
</event>
<event>
 4    1 -0.6532506E-004  0.1959836E+03  0.7818608E-02  0.1153173E+00
          5   -1    0    0  501    0  0.00000000000E+00  0.00000000000E+00  0.92093840739E+02  0.92213694764E+02  0.47000000000E+01 0. -1.
         -5   -1    0    0    0  501 -0.00000000000E+00 -0.00000000000E+00 -0.50029868431E+03  0.50032076064E+03  0.47000000000E+01 0.  1.
          6    1    1    2  502    0 -0.88976493561E+01  0.93522306795E+02 -0.82988261891E+02  0.21283007692E+03  0.17200000000E+03 0. -1.
         -6    1    1    2    0  502  0.88976493561E+01 -0.93522306795E+02 -0.32521658168E+03  0.37970437848E+03  0.17200000000E+03 0.  1.
</event>
<event>
 4    1 -0.6532506E-004  0.2160048E+03  0.7818608E-02  0.1136897E+00
          5   -1    0    0  501    0  0.00000000000E+00  0.00000000000E+00  0.33343896898E+03  0.33347209184E+03  0.47000000000E+01 0. -1.
         -5   -1    0    0    0  501 -0.00000000000E+00 -0.00000000000E+00 -0.14767971482E+03  0.14775448612E+03  0.47000000000E+01 0.  1.
          6    1    1    2  502    0 -0.73520013122E+02  0.10802258734E+03  0.14826073641E+03  0.26199106410E+03  0.17200000000E+03 0. -1.
         -6    1    1    2    0  502  0.73520013122E+02 -0.10802258734E+03  0.37498517754E+02  0.21923551386E+03  0.17200000000E+03 0.  1.
</event>
<event>
 4    1 -0.6532506E-004  0.2259470E+03  0.7818608E-02  0.1129525E+00
          5   -1    0    0  501    0  0.00000000000E+00  0.00000000000E+00  0.75785130195E+03  0.75786587591E+03  0.47000000000E+01 0. -1.
         -5   -1    0    0    0  501 -0.00000000000E+00 -0.00000000000E+00 -0.90445638095E+02  0.90567673319E+02  0.47000000000E+01 0.  1.
          6    1    1    2  502    0  0.42746734132E+02 -0.14014557793E+03  0.54826832367E+03  0.59300102953E+03  0.17200000000E+03 0. -1.
         -6    1    1    2    0  502 -0.42746734132E+02  0.14014557793E+03  0.11913734019E+03  0.25543251970E+03  0.17200000000E+03 0.  1.
</event>
<event>
 4    1 -0.6532506E-004  0.5029428E+03  0.7818608E-02  0.1013014E+00
         -5   -1    0    0    0  501 -0.00000000000E+00  0.00000000000E+00  0.58676791188E+03  0.58678673503E+03  0.47000000000E+01 0.  1.
          5   -1    0    0  501    0  0.00000000000E+00 -0.00000000000E+00 -0.18962572708E+04  0.18962630954E+04  0.47000000000E+01 0. -1.
          6    1    1    2  502    0 -0.30228142680E+03 -0.36330892452E+03 -0.17460637716E+04  0.18170553459E+04  0.17200000000E+03 0. -1.
         -6    1    1    2    0  502  0.30228142680E+03  0.36330892452E+03  0.43657441268E+03  0.66599448454E+03  0.17200000000E+03 0.  1.
</event>
<event>
 4    1 -0.6532506E-004  0.3912099E+03  0.7818608E-02  0.1046867E+00
          5   -1    0    0  501    0  0.00000000000E+00  0.00000000000E+00  0.44738196305E+03  0.44740665045E+03  0.47000000000E+01 0. -1.
         -5   -1    0    0    0  501 -0.00000000000E+00 -0.00000000000E+00 -0.57574298620E+03  0.57576216979E+03  0.47000000000E+01 0.  1.
          6    1    1    2  502    0  0.34046392224E+03  0.86864910302E+02  0.26174301967E+03  0.47069587138E+03  0.17200000000E+03 0. -1.
         -6    1    1    2    0  502 -0.34046392224E+03 -0.86864910302E+02 -0.39010404282E+03  0.55247294886E+03  0.17200000000E+03 0.  1.
</event>
<event>
 4    1 -0.6532506E-004  0.2579810E+03  0.7818608E-02  0.1108362E+00
         -5   -1    0    0    0  501 -0.00000000000E+00  0.00000000000E+00  0.69626989265E+03  0.69628575557E+03  0.47000000000E+01 0.  1.
          5   -1    0    0  501    0  0.00000000000E+00 -0.00000000000E+00 -0.12748348178E+03  0.12757009104E+03  0.47000000000E+01 0. -1.
          6    1    1    2  502    0  0.14276899236E+02  0.19174553678E+03  0.78199029410E+02  0.26957238161E+03  0.17200000000E+03 0. -1.
         -6    1    1    2    0  502 -0.14276899236E+02 -0.19174553678E+03  0.49058738146E+03  0.55428346500E+03  0.17200000000E+03 0.  1.
</event>
<event>
 4    1 -0.6532506E-004  0.2386392E+03  0.7818608E-02  0.1120703E+00
          5   -1    0    0  501    0  0.00000000000E+00  0.00000000000E+00  0.20694304659E+04  0.20694358031E+04  0.47000000000E+01 0. -1.
         -5   -1    0    0    0  501 -0.00000000000E+00 -0.00000000000E+00 -0.50312743284E+02  0.50531793326E+02  0.47000000000E+01 0.  1.
          6    1    1    2  502    0  0.15806134523E+03 -0.48798390005E+02  0.17239970328E+04  0.17404351298E+04  0.17200000000E+03 0. -1.
         -6    1    1    2    0  502 -0.15806134523E+03  0.48798390005E+02  0.29512068982E+03  0.37953246670E+03  0.17200000000E+03 0.  1.
</event>
<event>
 4    1 -0.6532506E-004  0.1748298E+03  0.7818608E-02  0.1172903E+00
         -5   -1    0    0    0  501 -0.00000000000E+00  0.00000000000E+00  0.56738048214E+03  0.56739994846E+03  0.47000000000E+01 0.  1.
          5   -1    0    0  501    0  0.00000000000E+00 -0.00000000000E+00 -0.77776830939E+02  0.77918710403E+02  0.47000000000E+01 0. -1.
          6    1    1    2  502    0 -0.30869019133E+02 -0.53441792901E+01  0.65681385000E+02  0.18676054436E+03  0.17200000000E+03 0. -1.
         -6    1    1    2    0  502  0.30869019133E+02  0.53441792901E+01  0.42392226620E+03  0.45855811450E+03  0.17200000000E+03 0.  1.
</event>
<event>
 4    1 -0.6532506E-004  0.1951828E+03  0.7818608E-02  0.1153868E+00
         -5   -1    0    0    0  501 -0.00000000000E+00  0.00000000000E+00  0.35427142862E+03  0.35430260391E+03  0.47000000000E+01 0.  1.
          5   -1    0    0  501    0  0.00000000000E+00 -0.00000000000E+00 -0.11492485639E+03  0.11502092251E+03  0.47000000000E+01 0. -1.
          6    1    1    2  502    0 -0.81264480331E+02  0.43685220421E+02  0.59848928203E+02  0.20415241476E+03  0.17200000000E+03 0.  1.
         -6    1    1    2    0  502  0.81264480331E+02 -0.43685220421E+02  0.17949764403E+03  0.26517111166E+03  0.17200000000E+03 0.  1.
</event>
<event>
 4    1 -0.6532506E-004  0.1789951E+03  0.7818608E-02  0.1168779E+00
          5   -1    0    0  501    0  0.00000000000E+00  0.00000000000E+00  0.35686046958E+03  0.35689141871E+03  0.47000000000E+01 0. -1.
         -5   -1    0    0    0  501 -0.00000000000E+00 -0.00000000000E+00 -0.11318421809E+03  0.11328176034E+03  0.47000000000E+01 0.  1.
          6    1    1    2  502    0 -0.46631406098E+02  0.16755872905E+02  0.22889026682E+03  0.29056841115E+03  0.17200000000E+03 0. -1.
         -6    1    1    2    0  502  0.46631406098E+02 -0.16755872905E+02  0.14785984674E+02  0.17960476791E+03  0.17200000000E+03 0.  1.
</event>
<event>
 4    1 -0.6532506E-004  0.2621295E+03  0.7818608E-02  0.1105871E+00
         -5   -1    0    0    0  501 -0.00000000000E+00  0.00000000000E+00  0.68554912218E+02  0.68715835069E+02  0.47000000000E+01 0.  1.
          5   -1    0    0  501    0  0.00000000000E+00 -0.00000000000E+00 -0.10793401534E+04  0.10793503864E+04  0.47000000000E+01 0. -1.
          6    1    1    2  502    0 -0.31364284654E+02  0.19530524379E+03 -0.35070346748E+03  0.43784104274E+03  0.17200000000E+03 0. -1.
         -6    1    1    2    0  502  0.31364284654E+02 -0.19530524379E+03 -0.66008177368E+03  0.71022517877E+03  0.17200000000E+03 0. -1.
</event>
<event>
 4    1 -0.6532506E-004  0.2100804E+03  0.7818608E-02  0.1141502E+00
         -5   -1    0    0    0  501 -0.00000000000E+00  0.00000000000E+00  0.75202432867E+02  0.75349159977E+02  0.47000000000E+01 0.  1.
          5   -1    0    0  501    0  0.00000000000E+00 -0.00000000000E+00 -0.12252820696E+04  0.12252910838E+04  0.47000000000E+01 0. -1.
          6    1    1    2  502    0 -0.91888776449E+02  0.78142454160E+02 -0.10446958709E+04  0.10656093341E+04  0.17200000000E+03 0. -1.
         -6    1    1    2    0  502  0.91888776449E+02 -0.78142454160E+02 -0.10538376583E+03  0.23503090963E+03  0.17200000000E+03 0.  1.
</event>
<event>
 4    1 -0.6532506E-004  0.2802425E+03  0.7818608E-02  0.1095557E+00
         -5   -1    0    0    0  501 -0.00000000000E+00  0.00000000000E+00  0.21061650761E+03  0.21066894237E+03  0.47000000000E+01 0.  1.
          5   -1    0    0  501    0  0.00000000000E+00 -0.00000000000E+00 -0.55505402839E+03  0.55507392700E+03  0.47000000000E+01 0. -1.
          6    1    1    2  502    0  0.91680230278E+01  0.22106065026E+03  0.47176443530E+02  0.28418564454E+03  0.17200000000E+03 0. -1.
         -6    1    1    2    0  502 -0.91680230278E+01 -0.22106065026E+03 -0.39161396431E+03  0.48155722483E+03  0.17200000000E+03 0.  1.
</event>
<event>
 4    1 -0.6532506E-004  0.1880943E+03  0.7818608E-02  0.1160191E+00
          5   -1    0    0  501    0  0.00000000000E+00  0.00000000000E+00  0.50789056260E+03  0.50791230894E+03  0.47000000000E+01 0. -1.
         -5   -1    0    0    0  501 -0.00000000000E+00 -0.00000000000E+00 -0.69628092682E+02  0.69786540899E+02  0.47000000000E+01 0.  1.
          6    1    1    2  502    0 -0.64207270714E+02 -0.40901112878E+02  0.20991970806E+03  0.28186123976E+03  0.17200000000E+03 0. -1.
         -6    1    1    2    0  502  0.64207270714E+02  0.40901112878E+02  0.22834276186E+03  0.29583761009E+03  0.17200000000E+03 0.  1.
</event>
<event>
 4    1 -0.6532506E-004  0.1735986E+03  0.7818608E-02  0.1174146E+00
          5   -1    0    0  501    0  0.00000000000E+00  0.00000000000E+00  0.47208387131E+02  0.47441772896E+02  0.47000000000E+01 0. -1.
         -5   -1    0    0    0  501 -0.00000000000E+00 -0.00000000000E+00 -0.68806847789E+03  0.68808452989E+03  0.47000000000E+01 0.  1.
          6    1    1    2  502    0 -0.18297740288E+02  0.14754093139E+02 -0.21982209113E+03  0.28010398482E+03  0.17200000000E+03 0. -1.
         -6    1    1    2    0  502  0.18297740288E+02 -0.14754093139E+02 -0.42103799963E+03  0.45542231796E+03  0.17200000000E+03 0.  1.
</event>
<event>
 4    1 -0.6532506E-004  0.1868140E+03  0.7818608E-02  0.1161367E+00
          5   -1    0    0  501    0  0.00000000000E+00  0.00000000000E+00  0.17908599944E+03  0.17914766310E+03  0.47000000000E+01 0. -1.
         -5   -1    0    0    0  501 -0.00000000000E+00 -0.00000000000E+00 -0.42931788436E+03  0.42934361045E+03  0.47000000000E+01 0.  1.
          6    1    1    2  502    0  0.71498041384E+02  0.14265979512E+02 -0.34997751481E+03  0.39671620709E+03  0.17200000000E+03 0.  1.
         -6    1    1    2    0  502 -0.71498041384E+02 -0.14265979512E+02  0.99745629888E+02  0.21177506646E+03  0.17200000000E+03 0. -1.
</event>
<event>
 4    1 -0.6532506E-004  0.1982040E+03  0.7818608E-02  0.1151263E+00
          5   -1    0    0  501    0  0.00000000000E+00  0.00000000000E+00  0.85299821655E+03  0.85301116490E+03  0.47000000000E+01 0. -1.
         -5   -1    0    0    0  501 -0.00000000000E+00 -0.00000000000E+00 -0.47520708158E+02  0.47752567510E+02  0.47000000000E+01 0.  1.
          6    1    1    2  502    0  0.98169222002E+02  0.79760934581E+01  0.48513852721E+03  0.52406507688E+03  0.17200000000E+03 0. -1.
         -6    1    1    2    0  502 -0.98169222002E+02 -0.79760934581E+01  0.32033898118E+03  0.37669865553E+03  0.17200000000E+03 0.  1.
</event>
<event>
 4    1 -0.6532506E-004  0.2083292E+03  0.7818608E-02  0.1142896E+00
         -5   -1    0    0    0  501 -0.00000000000E+00  0.00000000000E+00  0.14375838431E+04  0.14375915261E+04  0.47000000000E+01 0.  1.
          5   -1    0    0  501    0  0.00000000000E+00 -0.00000000000E+00 -0.44188460249E+02  0.44437709428E+02  0.47000000000E+01 0. -1.
          6    1    1    2  502    0  0.59413237396E+02  0.10142540874E+03  0.11151086893E+04  0.11344022370E+04  0.17200000000E+03 0. -1.
         -6    1    1    2    0  502 -0.59413237396E+02 -0.10142540874E+03  0.27828669354E+03  0.34762699854E+03  0.17200000000E+03 0. -1.
</event>
<event>
 4    1 -0.6532506E-004  0.2844433E+03  0.7818608E-02  0.1093287E+00
         -5   -1    0    0    0  501 -0.00000000000E+00  0.00000000000E+00  0.20736788633E+03  0.20742114232E+03  0.47000000000E+01 0.  1.
          5   -1    0    0  501    0  0.00000000000E+00 -0.00000000000E+00 -0.39011683731E+03  0.39014514832E+03  0.47000000000E+01 0. -1.
          6    1    1    2  502    0  0.18560258224E+03  0.12990635491E+03 -0.95317533002E+02  0.29998901927E+03  0.17200000000E+03 0.  1.
         -6    1    1    2    0  502 -0.18560258224E+03 -0.12990635491E+03 -0.87431417985E+02  0.29757727137E+03  0.17200000000E+03 0.  1.
</event>
<event>
 4    1 -0.6532506E-004  0.2644930E+03  0.7818608E-02  0.1104473E+00
         -5   -1    0    0    0  501 -0.00000000000E+00  0.00000000000E+00  0.49266640522E+03  0.49268882353E+03  0.47000000000E+01 0.  1.
          5   -1    0    0  501    0  0.00000000000E+00 -0.00000000000E+00 -0.94815403678E+03  0.94816568566E+03  0.47000000000E+01 0. -1.
          6    1    1    2  502    0  0.10631386559E+03 -0.17049904093E+03 -0.89204165843E+03  0.93042725742E+03  0.17200000000E+03 0. -1.
         -6    1    1    2    0  502 -0.10631386559E+03  0.17049904093E+03  0.43655402687E+03  0.51042725177E+03  0.17200000000E+03 0.  1.
</event>
<event>
 4    1 -0.6532506E-004  0.1843937E+03  0.7818608E-02  0.1163617E+00
          5   -1    0    0  501    0  0.00000000000E+00  0.00000000000E+00  0.45667295236E+02  0.45908516140E+02  0.47000000000E+01 0. -1.
         -5   -1    0    0    0  501 -0.00000000000E+00 -0.00000000000E+00 -0.15318232622E+04  0.15318304725E+04  0.47000000000E+01 0.  1.
          6    1    1    2  502    0 -0.23854063575E+02  0.62032543013E+02 -0.17678692609E+03  0.25544993635E+03  0.17200000000E+03 0. -1.
         -6    1    1    2    0  502  0.23854063575E+02 -0.62032543013E+02 -0.13093690409E+04  0.13222890523E+04  0.17200000000E+03 0.  1.
</event>
<event>
 4    1 -0.6532506E-004  0.2358815E+03  0.7818608E-02  0.1122567E+00
          5   -1    0    0  501    0  0.00000000000E+00  0.00000000000E+00  0.67896801213E+02  0.68059280153E+02  0.47000000000E+01 0. -1.
         -5   -1    0    0    0  501 -0.00000000000E+00 -0.00000000000E+00 -0.15724167561E+04  0.15724237803E+04  0.47000000000E+01 0.  1.
          6    1    1    2  502    0 -0.15832032623E+03 -0.31476042893E+02 -0.18426521395E+03  0.29932212755E+03  0.17200000000E+03 0. -1.
         -6    1    1    2    0  502  0.15832032623E+03  0.31476042893E+02 -0.13202547409E+04  0.13411609329E+04  0.17200000000E+03 0.  1.
</event>
<event>
 4    1 -0.6532506E-004  0.2551657E+03  0.7818608E-02  0.1110083E+00
         -5   -1    0    0    0  501 -0.00000000000E+00  0.00000000000E+00  0.18429629771E+03  0.18435621863E+03  0.47000000000E+01 0.  1.
          5   -1    0    0  501    0  0.00000000000E+00 -0.00000000000E+00 -0.61550454208E+03  0.61552248644E+03  0.47000000000E+01 0. -1.
          6    1    1    2  502    0  0.14439299803E+03  0.12114542110E+03 -0.47669359718E+03  0.54069061072E+03  0.17200000000E+03 0. -1.
         -6    1    1    2    0  502 -0.14439299803E+03 -0.12114542110E+03  0.45485352806E+02  0.25918809435E+03  0.17200000000E+03 0.  1.
</event>
<event>
 4    1 -0.6532506E-004  0.2062882E+03  0.7818608E-02  0.1144540E+00
         -5   -1    0    0    0  501 -0.00000000000E+00  0.00000000000E+00  0.18284789301E+03  0.18290828844E+03  0.47000000000E+01 0.  1.
          5   -1    0    0  501    0  0.00000000000E+00 -0.00000000000E+00 -0.23900665485E+03  0.23905286249E+03  0.47000000000E+01 0. -1.
          6    1    1    2  502    0 -0.99738082791E+02 -0.54982907646E+02  0.64262118919E+01  0.20638823002E+03  0.17200000000E+03 0.  1.
         -6    1    1    2    0  502  0.99738082791E+02  0.54982907646E+02 -0.62584973732E+02  0.21557292091E+03  0.17200000000E+03 0. -1.
</event>
<event>
 4    1 -0.6532506E-004  0.3367231E+03  0.7818608E-02  0.1068200E+00
         -5   -1    0    0    0  501 -0.00000000000E+00  0.00000000000E+00  0.31724858504E+03  0.31728339810E+03  0.47000000000E+01 0.  1.
          5   -1    0    0  501    0  0.00000000000E+00 -0.00000000000E+00 -0.36121814682E+03  0.36124872262E+03  0.47000000000E+01 0. -1.
          6    1    1    2  502    0  0.16207864370E+03  0.23985192646E+03  0.13241722314E+02  0.33698334763E+03  0.17200000000E+03 0. -1.
         -6    1    1    2    0  502 -0.16207864370E+03 -0.23985192646E+03 -0.57211284093E+02  0.34154877309E+03  0.17200000000E+03 0. -1.
</event>
<event>
 4    1 -0.6532506E-004  0.2960021E+03  0.7818608E-02  0.1087256E+00
          5   -1    0    0  501    0  0.00000000000E+00  0.00000000000E+00  0.43001088124E+03  0.43003656587E+03  0.47000000000E+01 0. -1.
         -5   -1    0    0    0  501 -0.00000000000E+00 -0.00000000000E+00 -0.20375015319E+03  0.20380435453E+03  0.47000000000E+01 0.  1.
          6    1    1    2  502    0 -0.77737915505E+02 -0.22801327921E+03  0.11824877647E+03  0.31874756806E+03  0.17200000000E+03 0. -1.
         -6    1    1    2    0  502  0.77737915505E+02  0.22801327921E+03  0.10801195158E+03  0.31509335234E+03  0.17200000000E+03 0.  1.
</event>
<event>
 4    1 -0.6532506E-004  0.2193855E+03  0.7818608E-02  0.1134342E+00
          5   -1    0    0  501    0  0.00000000000E+00  0.00000000000E+00  0.55684853227E+02  0.55882849596E+02  0.47000000000E+01 0. -1.
         -5   -1    0    0    0  501 -0.00000000000E+00 -0.00000000000E+00 -0.12709971392E+04  0.12710058292E+04  0.47000000000E+01 0.  1.
          6    1    1    2  502    0 -0.73850849496E+02 -0.11442047302E+03 -0.23160818959E+03  0.31901778336E+03  0.17200000000E+03 0. -1.
         -6    1    1    2    0  502  0.73850849496E+02  0.11442047302E+03 -0.98370409643E+03  0.10078708955E+04  0.17200000000E+03 0.  1.
</event>
<event>
 4    1 -0.6532506E-004  0.2095187E+03  0.7818608E-02  0.1141948E+00
          5   -1    0    0  501    0  0.00000000000E+00  0.00000000000E+00  0.23610442754E+03  0.23615120305E+03  0.47000000000E+01 0. -1.
         -5   -1    0    0    0  501 -0.00000000000E+00 -0.00000000000E+00 -0.22508933695E+03  0.22513840101E+03  0.47000000000E+01 0.  1.
          6    1    1    2  502    0  0.94349396414E+02  0.73568207815E+02 -0.90793492275E+02  0.22834523872E+03  0.17200000000E+03 0.  1.
         -6    1    1    2    0  502 -0.94349396414E+02 -0.73568207815E+02  0.10180858286E+03  0.23294436535E+03  0.17200000000E+03 0. -1.
</event>
<event>
 4    1 -0.6532506E-004  0.2583750E+03  0.7818608E-02  0.1108124E+00
         -5   -1    0    0    0  501 -0.00000000000E+00  0.00000000000E+00  0.10075857804E+03  0.10086813694E+03  0.47000000000E+01 0.  1.
          5   -1    0    0  501    0  0.00000000000E+00 -0.00000000000E+00 -0.66260997599E+03  0.66262664471E+03  0.47000000000E+01 0. -1.
          6    1    1    2  502    0 -0.15963217665E+03  0.10812591869E+03 -0.29179627744E+03  0.38974698670E+03  0.17200000000E+03 0.  1.
         -6    1    1    2    0  502  0.15963217665E+03 -0.10812591869E+03 -0.27005512051E+03  0.37374779495E+03  0.17200000000E+03 0.  1.
</event>
<event>
 4    1 -0.6532506E-004  0.2494994E+03  0.7818608E-02  0.1113622E+00
          5   -1    0    0  501    0  0.00000000000E+00  0.00000000000E+00  0.11523133085E+03  0.11532714168E+03  0.47000000000E+01 0. -1.
         -5   -1    0    0    0  501 -0.00000000000E+00 -0.00000000000E+00 -0.73843917053E+03  0.73845412760E+03  0.47000000000E+01 0.  1.
          6    1    1    2  502    0 -0.10433972786E+03  0.14757766220E+03 -0.53294579583E+03  0.58845659694E+03  0.17200000000E+03 0.  1.
         -6    1    1    2    0  502  0.10433972786E+03 -0.14757766220E+03 -0.90262043850E+02  0.26532467234E+03  0.17200000000E+03 0.  1.
</event>
<event>
 4    1 -0.6532506E-004  0.2034190E+03  0.7818608E-02  0.1146886E+00
          5   -1    0    0  501    0  0.00000000000E+00  0.00000000000E+00  0.20569729898E+04  0.20569783593E+04  0.47000000000E+01 0. -1.
         -5   -1    0    0    0  501 -0.00000000000E+00 -0.00000000000E+00 -0.23074312462E+02  0.23548118727E+02  0.47000000000E+01 0.  1.
          6    1    1    2  502    0 -0.11959633133E+02 -0.10794559862E+03  0.14023275392E+04  0.14170045209E+04  0.17200000000E+03 0. -1.
         -6    1    1    2    0  502  0.11959633133E+02  0.10794559862E+03  0.63157113806E+03  0.66352195708E+03  0.17200000000E+03 0.  1.
</event>
<event>
 4    1 -0.6532506E-004  0.1859654E+03  0.7818608E-02  0.1162151E+00
          5   -1    0    0  501    0  0.00000000000E+00  0.00000000000E+00  0.25627968302E+03  0.25632277684E+03  0.47000000000E+01 0. -1.
         -5   -1    0    0    0  501 -0.00000000000E+00 -0.00000000000E+00 -0.13511030804E+03  0.13519203135E+03  0.47000000000E+01 0.  1.
          6    1    1    2  502    0  0.51947880615E+02  0.47963972081E+02  0.69213964498E+02  0.19842806707E+03  0.17200000000E+03 0. -1.
         -6    1    1    2    0  502 -0.51947880615E+02 -0.47963972081E+02  0.51955410475E+02  0.19308674112E+03  0.17200000000E+03 0.  1.
</event>
<event>
 4    1 -0.6532506E-004  0.3860935E+03  0.7818608E-02  0.1048704E+00
          5   -1    0    0  501    0  0.00000000000E+00  0.00000000000E+00  0.11505803648E+04  0.11505899642E+04  0.47000000000E+01 0. -1.
         -5   -1    0    0    0  501 -0.00000000000E+00 -0.00000000000E+00 -0.15308266032E+03  0.15315479389E+03  0.47000000000E+01 0.  1.
          6    1    1    2  502    0  0.29291305647E+03 -0.18353775162E+03  0.24300076724E+03  0.45619901118E+03  0.17200000000E+03 0. -1.
         -6    1    1    2    0  502 -0.29291305647E+03  0.18353775162E+03  0.75449693720E+03  0.84754574695E+03  0.17200000000E+03 0.  1.
</event>
<event>
 4    1 -0.6532506E-004  0.3860128E+03  0.7818608E-02  0.1048734E+00
          5   -1    0    0  501    0  0.00000000000E+00  0.00000000000E+00  0.11642311541E+04  0.11642406410E+04  0.47000000000E+01 0. -1.
         -5   -1    0    0    0  501 -0.00000000000E+00 -0.00000000000E+00 -0.24176638495E+03  0.24181206523E+03  0.47000000000E+01 0.  1.
          6    1    1    2  502    0 -0.19372989764E+03  0.28616529868E+03  0.94355771663E+03  0.10194640828E+04  0.17200000000E+03 0. -1.
         -6    1    1    2    0  502  0.19372989764E+03 -0.28616529868E+03 -0.21092947446E+02  0.38658862352E+03  0.17200000000E+03 0.  1.
</event>
<event>
 4    1 -0.6532506E-004  0.1929863E+03  0.7818608E-02  0.1155795E+00
         -5   -1    0    0    0  501 -0.00000000000E+00  0.00000000000E+00  0.31236446231E+03  0.31239981964E+03  0.47000000000E+01 0.  1.
          5   -1    0    0  501    0  0.00000000000E+00 -0.00000000000E+00 -0.13076026982E+03  0.13084471010E+03  0.47000000000E+01 0. -1.
          6    1    1    2  502    0 -0.67654054909E+02 -0.55521363496E+02  0.24775311229E+02  0.19457006192E+03  0.17200000000E+03 0. -1.
         -6    1    1    2    0  502  0.67654054909E+02  0.55521363496E+02  0.15682888126E+03  0.24867446783E+03  0.17200000000E+03 0. -1.
</event>
<event>
 4    1 -0.6532506E-004  0.3353847E+03  0.7818608E-02  0.1068779E+00
          5   -1    0    0  501    0  0.00000000000E+00  0.00000000000E+00  0.68817370014E+03  0.68818974968E+03  0.47000000000E+01 0. -1.
         -5   -1    0    0    0  501 -0.00000000000E+00 -0.00000000000E+00 -0.30314316190E+03  0.30317959464E+03  0.47000000000E+01 0.  1.
          6    1    1    2  502    0 -0.26184083181E+03  0.11974246607E+03  0.52902594466E+03  0.62637954110E+03  0.17200000000E+03 0. -1.
         -6    1    1    2    0  502  0.26184083181E+03 -0.11974246607E+03 -0.14399540643E+03  0.36498980322E+03  0.17200000000E+03 0.  1.
</event>
<event>
 4    1 -0.6532506E-004  0.2082743E+03  0.7818608E-02  0.1142940E+00
         -5   -1    0    0    0  501 -0.00000000000E+00  0.00000000000E+00  0.73121028559E+03  0.73122539053E+03  0.47000000000E+01 0.  1.
          5   -1    0    0  501    0  0.00000000000E+00 -0.00000000000E+00 -0.63888496518E+02  0.64061142569E+02  0.47000000000E+01 0. -1.
          6    1    1    2  502    0 -0.19074184305E+02  0.11588943660E+03  0.44104591406E+03  0.48774961233E+03  0.17200000000E+03 0.  1.
         -6    1    1    2    0  502  0.19074184305E+02 -0.11588943660E+03  0.22627587502E+03  0.30753692077E+03  0.17200000000E+03 0. -1.
</event>
<event>
 4    1 -0.6532506E-004  0.3455330E+03  0.7818608E-02  0.1064464E+00
         -5   -1    0    0    0  501 -0.00000000000E+00  0.00000000000E+00  0.34056099396E+03  0.34059342420E+03  0.47000000000E+01 0.  1.
          5   -1    0    0  501    0  0.00000000000E+00 -0.00000000000E+00 -0.74835687754E+03  0.74837163640E+03  0.47000000000E+01 0. -1.
          6    1    1    2  502    0  0.10922338499E+03 -0.27906869127E+03 -0.60087910372E+03  0.69314412611E+03  0.17200000000E+03 0. -1.
         -6    1    1    2    0  502 -0.10922338499E+03  0.27906869127E+03  0.19308322014E+03  0.39582093448E+03  0.17200000000E+03 0.  1.
</event>
<event>
 4    1 -0.6532506E-004  0.2321174E+03  0.7818608E-02  0.1125158E+00
          5   -1    0    0  501    0  0.00000000000E+00  0.00000000000E+00  0.56064341370E+03  0.56066311393E+03  0.47000000000E+01 0. -1.
         -5   -1    0    0    0  501 -0.00000000000E+00 -0.00000000000E+00 -0.10085031186E+03  0.10095977121E+03  0.47000000000E+01 0.  1.
          6    1    1    2  502    0  0.12571406927E+03 -0.92143795694E+02  0.30223024421E+03  0.38107955444E+03  0.17200000000E+03 0. -1.
         -6    1    1    2    0  502 -0.12571406927E+03  0.92143795694E+02  0.15756285762E+03  0.28054333070E+03  0.17200000000E+03 0.  1.
</event>
<event>
 4    1 -0.6532506E-004  0.1947712E+03  0.7818608E-02  0.1154227E+00
         -5   -1    0    0    0  501 -0.00000000000E+00  0.00000000000E+00  0.60310510573E+03  0.60312341901E+03  0.47000000000E+01 0.  1.
          5   -1    0    0  501    0  0.00000000000E+00 -0.00000000000E+00 -0.82357211797E+02  0.82491213683E+02  0.47000000000E+01 0. -1.
          6    1    1    2  502    0  0.46316616824E+02  0.78782020378E+02  0.93470332522E+02  0.21603828085E+03  0.17200000000E+03 0. -1.
         -6    1    1    2    0  502 -0.46316616824E+02 -0.78782020378E+02  0.42727756141E+03  0.46957635185E+03  0.17200000000E+03 0.  1.
</event>
<event>
 4    1 -0.6532506E-004  0.4015968E+03  0.7818608E-02  0.1043228E+00
          5   -1    0    0  501    0  0.00000000000E+00  0.00000000000E+00  0.41061355497E+03  0.41064045286E+03  0.47000000000E+01 0. -1.
         -5   -1    0    0    0  501 -0.00000000000E+00 -0.00000000000E+00 -0.40327143755E+03  0.40329882512E+03  0.47000000000E+01 0.  1.
          6    1    1    2  502    0  0.24693458813E+03 -0.26593101909E+03  0.69482646459E+02  0.40756329065E+03  0.17200000000E+03 0. -1.
         -6    1    1    2    0  502 -0.24693458813E+03  0.26593101909E+03 -0.62140529044E+02  0.40637598733E+03  0.17200000000E+03 0.  1.
</event>
<event>
 4    1 -0.6532506E-004  0.1805450E+03  0.7818608E-02  0.1167277E+00
         -5   -1    0    0    0  501 -0.00000000000E+00  0.00000000000E+00  0.71312146221E+02  0.71466860842E+02  0.47000000000E+01 0.  1.
          5   -1    0    0  501    0  0.00000000000E+00 -0.00000000000E+00 -0.45911725040E+03  0.45914130681E+03  0.47000000000E+01 0. -1.
          6    1    1    2  502    0  0.16132420136E+02  0.52461827675E+02 -0.17362398811E+03  0.25048310839E+03  0.17200000000E+03 0.  1.
         -6    1    1    2    0  502 -0.16132420136E+02 -0.52461827675E+02 -0.21418111607E+03  0.28012505925E+03  0.17200000000E+03 0. -1.
</event>
<event>
 4    1 -0.6532506E-004  0.4813164E+03  0.7818608E-02  0.1018774E+00
          5   -1    0    0  501    0  0.00000000000E+00  0.00000000000E+00  0.15757953672E+04  0.15758023763E+04  0.47000000000E+01 0. -1.
         -5   -1    0    0    0  501 -0.00000000000E+00 -0.00000000000E+00 -0.37360900079E+03  0.37363856261E+03  0.47000000000E+01 0.  1.
          6    1    1    2  502    0 -0.10277987126E+03 -0.43762743746E+03  0.13602022928E+04  0.14428498721E+04  0.17200000000E+03 0. -1.
         -6    1    1    2    0  502  0.10277987126E+03  0.43762743746E+03 -0.15801592648E+03  0.50659106681E+03  0.17200000000E+03 0.  1.
</event>
<event>
 4    1 -0.6532506E-004  0.2607912E+03  0.7818608E-02  0.1106669E+00
         -5   -1    0    0    0  501 -0.00000000000E+00  0.00000000000E+00  0.51478667705E+03  0.51480813209E+03  0.47000000000E+01 0.  1.
          5   -1    0    0  501    0  0.00000000000E+00 -0.00000000000E+00 -0.19711289305E+03  0.19716891896E+03  0.47000000000E+01 0. -1.
          6    1    1    2  502    0  0.62994827705E+02  0.18563323988E+03 -0.45638713235E+02  0.26475449045E+03  0.17200000000E+03 0. -1.
         -6    1    1    2    0  502 -0.62994827705E+02 -0.18563323988E+03  0.36331249723E+03  0.44722256060E+03  0.17200000000E+03 0.  1.
</event>
<event>
 4    1 -0.6532506E-004  0.1785205E+03  0.7818608E-02  0.1169243E+00
         -5   -1    0    0    0  501 -0.00000000000E+00  0.00000000000E+00  0.81327558998E+03  0.81328917074E+03  0.47000000000E+01 0.  1.
          5   -1    0    0  501    0  0.00000000000E+00 -0.00000000000E+00 -0.46741958868E+02  0.46977661914E+02  0.47000000000E+01 0. -1.
          6    1    1    2  502    0 -0.21085288282E+02 -0.42906733840E+02  0.20907838604E+03  0.27492425993E+03  0.17200000000E+03 0. -1.
         -6    1    1    2    0  502  0.21085288282E+02  0.42906733840E+02  0.55745524507E+03  0.58534257273E+03  0.17200000000E+03 0.  1.
</event>
<event>
 4    1 -0.6532506E-004  0.3120688E+03  0.7818608E-02  0.1079358E+00
         -5   -1    0    0    0  501 -0.00000000000E+00  0.00000000000E+00  0.23803053059E+03  0.23807692768E+03  0.47000000000E+01 0.  1.
          5   -1    0    0  501    0  0.00000000000E+00 -0.00000000000E+00 -0.98224164931E+03  0.98225289393E+03  0.47000000000E+01 0. -1.
          6    1    1    2  502    0  0.29575558406E+02  0.25870486394E+03 -0.83820503874E+03  0.89441299590E+03  0.17200000000E+03 0. -1.
         -6    1    1    2    0  502 -0.29575558406E+02 -0.25870486394E+03  0.93993920017E+02  0.32591682571E+03  0.17200000000E+03 0.  1.
</event>
<event>
 4    1 -0.6532506E-004  0.1824629E+03  0.7818608E-02  0.1165441E+00
         -5   -1    0    0    0  501 -0.00000000000E+00  0.00000000000E+00  0.55192743472E+02  0.55392498878E+02  0.47000000000E+01 0.  1.
          5   -1    0    0  501    0  0.00000000000E+00 -0.00000000000E+00 -0.60881027433E+03  0.60882841600E+03  0.47000000000E+01 0. -1.
          6    1    1    2  502    0 -0.60880721087E+02  0.14998695064E+01 -0.24145708283E+03  0.30264539425E+03  0.17200000000E+03 0. -1.
         -6    1    1    2    0  502  0.60880721087E+02 -0.14998695064E+01 -0.31216044802E+03  0.36157552063E+03  0.17200000000E+03 0. -1.
</event>
<event>
 4    1 -0.6532506E-004  0.2527801E+03  0.7818608E-02  0.1111560E+00
          5   -1    0    0  501    0  0.00000000000E+00  0.00000000000E+00  0.17732598261E+04  0.17732660547E+04  0.47000000000E+01 0. -1.
         -5   -1    0    0    0  501 -0.00000000000E+00 -0.00000000000E+00 -0.37648075515E+02  0.37940316156E+02  0.47000000000E+01 0.  1.
          6    1    1    2  502    0  0.14115488158E+03  0.11995441505E+03  0.10635716594E+04  0.10931982606E+04  0.17200000000E+03 0.  1.
         -6    1    1    2    0  502 -0.14115488158E+03 -0.11995441505E+03  0.67204009113E+03  0.71800811024E+03  0.17200000000E+03 0. -1.
</event>
<event>
 4    1 -0.6532506E-004  0.2514093E+03  0.7818608E-02  0.1112417E+00
          5   -1    0    0  501    0  0.00000000000E+00  0.00000000000E+00  0.17740460982E+04  0.17740523240E+04  0.47000000000E+01 0. -1.
         -5   -1    0    0    0  501 -0.00000000000E+00 -0.00000000000E+00 -0.36018823412E+02  0.36324174319E+02  0.47000000000E+01 0.  1.
          6    1    1    2  502    0 -0.81642632982E+02  0.16418627965E+03  0.98054742220E+03  0.10122647387E+04  0.17200000000E+03 0. -1.
         -6    1    1    2    0  502  0.81642632982E+02 -0.16418627965E+03  0.75747985256E+03  0.79811175970E+03  0.17200000000E+03 0.  1.
</event>
<event>
 4    1 -0.6532506E-004  0.2390426E+03  0.7818608E-02  0.1120432E+00
         -5   -1    0    0    0  501 -0.00000000000E+00  0.00000000000E+00  0.29478025583E+03  0.29481772203E+03  0.47000000000E+01 0.  1.
          5   -1    0    0  501    0  0.00000000000E+00 -0.00000000000E+00 -0.20302875911E+03  0.20308315299E+03  0.47000000000E+01 0. -1.
          6    1    1    2  502    0  0.14661816832E+03  0.77849014524E+02 -0.72877427134E+01  0.23915364839E+03  0.17200000000E+03 0. -1.
         -6    1    1    2    0  502 -0.14661816832E+03 -0.77849014524E+02  0.99039239426E+02  0.25874722663E+03  0.17200000000E+03 0.  1.
</event>
<event>
 4    1 -0.6532506E-004  0.2057539E+03  0.7818608E-02  0.1144973E+00
          5   -1    0    0  501    0  0.00000000000E+00  0.00000000000E+00  0.13617795311E+04  0.13617876418E+04  0.47000000000E+01 0. -1.
         -5   -1    0    0    0  501 -0.00000000000E+00 -0.00000000000E+00 -0.30909674655E+02  0.31264964214E+02  0.47000000000E+01 0.  1.
          6    1    1    2  502    0 -0.74529536924E+02 -0.84829352686E+02  0.65442718230E+03  0.68600991821E+03  0.17200000000E+03 0.  1.
         -6    1    1    2    0  502  0.74529536924E+02  0.84829352686E+02  0.67644267414E+03  0.70704268778E+03  0.17200000000E+03 0. -1.
</event>
<event>
 4    1 -0.6532506E-004  0.2777059E+03  0.7818608E-02  0.1096949E+00
          5   -1    0    0  501    0  0.00000000000E+00  0.00000000000E+00  0.33286103148E+03  0.33289421184E+03  0.47000000000E+01 0. -1.
         -5   -1    0    0    0  501 -0.00000000000E+00 -0.00000000000E+00 -0.23498868570E+03  0.23503568327E+03  0.47000000000E+01 0.  1.
          6    1    1    2  502    0 -0.12795059209E+03  0.17653664878E+03  0.14949343064E+02  0.27810793811E+03  0.17200000000E+03 0.  1.
         -6    1    1    2    0  502  0.12795059209E+03 -0.17653664878E+03  0.82923002713E+02  0.28982195700E+03  0.17200000000E+03 0. -1.
</event>
<event>
 4    1 -0.6532506E-004  0.2939975E+03  0.7818608E-02  0.1088280E+00
          5   -1    0    0  501    0  0.00000000000E+00  0.00000000000E+00  0.10771892648E+04  0.10771995183E+04  0.47000000000E+01 0. -1.
         -5   -1    0    0    0  501 -0.00000000000E+00 -0.00000000000E+00 -0.15147735839E+03  0.15155025603E+03  0.47000000000E+01 0.  1.
          6    1    1    2  502    0 -0.21734835887E+03 -0.98031734499E+02  0.41462685788E+02  0.29690686146E+03  0.17200000000E+03 0.  1.
         -6    1    1    2    0  502  0.21734835887E+03  0.98031734499E+02  0.88424922063E+03  0.93184291286E+03  0.17200000000E+03 0. -1.
</event>
<event>
 4    1 -0.6532506E-004  0.1962671E+03  0.7818608E-02  0.1152927E+00
          5   -1    0    0  501    0  0.00000000000E+00  0.00000000000E+00  0.97131627409E+02  0.97245272600E+02  0.47000000000E+01 0. -1.
         -5   -1    0    0    0  501 -0.00000000000E+00 -0.00000000000E+00 -0.48286098035E+03  0.48288385389E+03  0.47000000000E+01 0.  1.
          6    1    1    2  502    0  0.53924994245E+02  0.77645770648E+02 -0.70015166951E+02  0.20838160741E+03  0.17200000000E+03 0. -1.
         -6    1    1    2    0  502 -0.53924994245E+02 -0.77645770648E+02 -0.31571418599E+03  0.37174751908E+03  0.17200000000E+03 0.  1.
</event>
<event>
 4    1 -0.6532506E-004  0.2654000E+03  0.7818608E-02  0.1103942E+00
         -5   -1    0    0    0  501 -0.00000000000E+00  0.00000000000E+00  0.70748192008E+03  0.70749753162E+03  0.47000000000E+01 0.  1.
          5   -1    0    0  501    0  0.00000000000E+00 -0.00000000000E+00 -0.11668913867E+03  0.11678375351E+03  0.47000000000E+01 0. -1.
          6    1    1    2  502    0 -0.17206878306E+03  0.10604471551E+03  0.45355271261E+03  0.52549710837E+03  0.17200000000E+03 0. -1.
         -6    1    1    2    0  502  0.17206878306E+03 -0.10604471551E+03  0.13724006881E+03  0.29878417676E+03  0.17200000000E+03 0. -1.
</event>
<event>
 4    1 -0.6532506E-004  0.2909532E+03  0.7818608E-02  0.1089852E+00
         -5   -1    0    0    0  501 -0.00000000000E+00  0.00000000000E+00  0.11203841760E+04  0.11203940342E+04  0.47000000000E+01 0.  1.
          5   -1    0    0  501    0  0.00000000000E+00 -0.00000000000E+00 -0.77717161112E+02  0.77859149310E+02  0.47000000000E+01 0. -1.
          6    1    1    2  502    0 -0.12461034532E+03  0.19885183571E+03  0.41965973693E+03  0.51065456575E+03  0.17200000000E+03 0. -1.
         -6    1    1    2    0  502  0.12461034532E+03 -0.19885183571E+03  0.62300727797E+03  0.68759861775E+03  0.17200000000E+03 0.  1.
</event>
<event>
 4    1 -0.6532506E-004  0.2232366E+03  0.7818608E-02  0.1131493E+00
         -5   -1    0    0    0  501 -0.00000000000E+00  0.00000000000E+00  0.15737981164E+04  0.15738051345E+04  0.47000000000E+01 0.  1.
          5   -1    0    0  501    0  0.00000000000E+00 -0.00000000000E+00 -0.35940897447E+02  0.36246904824E+02  0.47000000000E+01 0. -1.
          6    1    1    2  502    0 -0.14227644473E+03  0.28269921376E+01  0.48674099738E+03  0.53549171529E+03  0.17200000000E+03 0.  1.
         -6    1    1    2    0  502  0.14227644473E+03 -0.28269921376E+01  0.10511162216E+04  0.10745603240E+04  0.17200000000E+03 0.  1.
</event>
<event>
 4    1 -0.6532506E-004  0.1872887E+03  0.7818608E-02  0.1160930E+00
          5   -1    0    0  501    0  0.00000000000E+00  0.00000000000E+00  0.13100118770E+03  0.13108547280E+03  0.47000000000E+01 0. -1.
         -5   -1    0    0    0  501 -0.00000000000E+00 -0.00000000000E+00 -0.37015783164E+03  0.37018766906E+03  0.47000000000E+01 0.  1.
          6    1    1    2  502    0 -0.34526665847E+02  0.65581827103E+02  0.12346873022E+02  0.18769526359E+03  0.17200000000E+03 0. -1.
         -6    1    1    2    0  502  0.34526665847E+02 -0.65581827103E+02 -0.25150351696E+03  0.31357787828E+03  0.17200000000E+03 0.  1.
</event>
<event>
 4    1 -0.6532506E-004  0.2004943E+03  0.7818608E-02  0.1149323E+00
          5   -1    0    0  501    0  0.00000000000E+00  0.00000000000E+00  0.37190666313E+03  0.37193636026E+03  0.47000000000E+01 0. -1.
         -5   -1    0    0    0  501 -0.00000000000E+00 -0.00000000000E+00 -0.19234135318E+03  0.19239876856E+03  0.47000000000E+01 0.  1.
          6    1    1    2  502    0  0.90780471742E+02 -0.48712119524E+02  0.27657743881E+03  0.34160363624E+03  0.17200000000E+03 0. -1.
         -6    1    1    2    0  502 -0.90780471742E+02  0.48712119524E+02 -0.97012128852E+02  0.22273149257E+03  0.17200000000E+03 0.  1.
</event>
<event>
 4    1 -0.6532506E-004  0.1775517E+03  0.7818608E-02  0.1170194E+00
          5   -1    0    0  501    0  0.00000000000E+00  0.00000000000E+00  0.17823530183E+02  0.18432803047E+02  0.47000000000E+01 0. -1.
         -5   -1    0    0    0  501 -0.00000000000E+00 -0.00000000000E+00 -0.17556674038E+04  0.17556736949E+04  0.47000000000E+01 0.  1.
          6    1    1    2  502    0 -0.34242420146E+02  0.27713997277E+02 -0.78089570248E+03  0.80082626526E+03  0.17200000000E+03 0.  1.
         -6    1    1    2    0  502  0.34242420146E+02 -0.27713997277E+02 -0.95694817116E+03  0.97328023265E+03  0.17200000000E+03 0. -1.
</event>
<event>
 4    1 -0.6532506E-004  0.3219776E+03  0.7818608E-02  0.1074743E+00
         -5   -1    0    0    0  501 -0.00000000000E+00  0.00000000000E+00  0.10516404603E+03  0.10526902003E+03  0.47000000000E+01 0.  1.
          5   -1    0    0  501    0  0.00000000000E+00 -0.00000000000E+00 -0.15037941006E+04  0.15038014454E+04  0.47000000000E+01 0. -1.
          6    1    1    2  502    0  0.25261313974E+03  0.10135185797E+03 -0.11717625796E+04  0.12151942809E+04  0.17200000000E+03 0. -1.
         -6    1    1    2    0  502 -0.25261313974E+03 -0.10135185797E+03 -0.22686747504E+03  0.39387618450E+03  0.17200000000E+03 0.  1.
</event>
<event>
 4    1 -0.6532506E-004  0.2187443E+03  0.7818608E-02  0.1134823E+00
         -5   -1    0    0    0  501 -0.00000000000E+00  0.00000000000E+00  0.51569298235E+03  0.51571439969E+03  0.47000000000E+01 0.  1.
          5   -1    0    0  501    0  0.00000000000E+00 -0.00000000000E+00 -0.10795898675E+03  0.10806124569E+03  0.47000000000E+01 0. -1.
          6    1    1    2  502    0 -0.69022702392E+02  0.11619346881E+03  0.86695268637E+02  0.23529794993E+03  0.17200000000E+03 0. -1.
         -6    1    1    2    0  502  0.69022702392E+02 -0.11619346881E+03  0.32103872697E+03  0.38847769544E+03  0.17200000000E+03 0.  1.
</event>
<event>
 4    1 -0.6532506E-004  0.1977671E+03  0.7818608E-02  0.1151637E+00
         -5   -1    0    0    0  501 -0.00000000000E+00  0.00000000000E+00  0.30271771462E+02  0.30634460130E+02  0.47000000000E+01 0.  1.
          5   -1    0    0  501    0  0.00000000000E+00 -0.00000000000E+00 -0.12882296663E+04  0.12882382400E+04  0.47000000000E+01 0. -1.
          6    1    1    2  502    0  0.50707904033E+02 -0.83405879330E+02 -0.66692693994E+03  0.69563163776E+03  0.17200000000E+03 0. -1.
         -6    1    1    2    0  502 -0.50707904033E+02  0.83405879330E+02 -0.59103095488E+03  0.62324106240E+03  0.17200000000E+03 0.  1.
</event>
<event>
 4    1 -0.6532506E-004  0.3848032E+03  0.7818608E-02  0.1049173E+00
         -5   -1    0    0    0  501 -0.00000000000E+00  0.00000000000E+00  0.14126672415E+04  0.14126750600E+04  0.47000000000E+01 0.  1.
          5   -1    0    0  501    0  0.00000000000E+00 -0.00000000000E+00 -0.11567689458E+03  0.11577233667E+03  0.47000000000E+01 0. -1.
          6    1    1    2  502    0 -0.22030325930E+03  0.26449196507E+03  0.41380694595E+03  0.56507496331E+03  0.17200000000E+03 0. -1.
         -6    1    1    2    0  502  0.22030325930E+03 -0.26449196507E+03  0.88318340094E+03  0.96337243335E+03  0.17200000000E+03 0.  1.
</event>
<event>
 4    1 -0.6532506E-004  0.2314584E+03  0.7818608E-02  0.1125617E+00
          5   -1    0    0  501    0  0.00000000000E+00  0.00000000000E+00  0.19508940065E+03  0.19514600750E+03  0.47000000000E+01 0. -1.
         -5   -1    0    0    0  501 -0.00000000000E+00 -0.00000000000E+00 -0.38512570819E+03  0.38515438607E+03  0.47000000000E+01 0.  1.
          6    1    1    2  502    0 -0.45803358984E+02 -0.14795622401E+03  0.60476799169E+02  0.23922883429E+03  0.17200000000E+03 0. -1.
         -6    1    1    2    0  502  0.45803358984E+02  0.14795622401E+03 -0.25051310672E+03  0.34107155929E+03  0.17200000000E+03 0.  1.
</event>
<event>
 4    1 -0.6532506E-004  0.1909910E+03  0.7818608E-02  0.1157571E+00
          5   -1    0    0  501    0  0.00000000000E+00  0.00000000000E+00  0.68965433341E+02  0.69125400512E+02  0.47000000000E+01 0. -1.
         -5   -1    0    0    0  501 -0.00000000000E+00 -0.00000000000E+00 -0.66595969354E+03  0.66597627842E+03  0.47000000000E+01 0.  1.
          6    1    1    2  502    0 -0.56506320453E+02  0.60832672682E+02 -0.13131607181E+03  0.23177896590E+03  0.17200000000E+03 0.  1.
         -6    1    1    2    0  502  0.56506320453E+02 -0.60832672682E+02 -0.46567818839E+03  0.50332271304E+03  0.17200000000E+03 0.  1.
</event>
<event>
 4    1 -0.6532506E-004  0.2872775E+03  0.7818608E-02  0.1091779E+00
          5   -1    0    0  501    0  0.00000000000E+00  0.00000000000E+00  0.25331922099E+03  0.25336281835E+03  0.47000000000E+01 0. -1.
         -5   -1    0    0    0  501 -0.00000000000E+00 -0.00000000000E+00 -0.44843509408E+03  0.44845972350E+03  0.47000000000E+01 0.  1.
          6    1    1    2  502    0  0.17374281171E+03 -0.15085688612E+03  0.86010343142E+02  0.29987688114E+03  0.17200000000E+03 0. -1.
         -6    1    1    2    0  502 -0.17374281171E+03  0.15085688612E+03 -0.28112621624E+03  0.40194566072E+03  0.17200000000E+03 0.  1.
</event>
<event>
 4    1 -0.6532506E-004  0.2218982E+03  0.7818608E-02  0.1132476E+00
          5   -1    0    0  501    0  0.00000000000E+00  0.00000000000E+00  0.11343795027E+04  0.11343892393E+04  0.47000000000E+01 0. -1.
         -5   -1    0    0    0  501 -0.00000000000E+00 -0.00000000000E+00 -0.11011558680E+03  0.11021584486E+03  0.47000000000E+01 0.  1.
          6    1    1    2  502    0  0.17241711617E+02 -0.13913130627E+03  0.99658188581E+03  0.10209869011E+04  0.17200000000E+03 0. -1.
         -6    1    1    2    0  502 -0.17241711617E+02  0.13913130627E+03  0.27682030081E+02  0.22361818305E+03  0.17200000000E+03 0.  1.
</event>
<event>
 4    1 -0.6532506E-004  0.2634596E+03  0.7818608E-02  0.1105082E+00
         -5   -1    0    0    0  501 -0.00000000000E+00  0.00000000000E+00  0.25583059407E+03  0.25587376353E+03  0.47000000000E+01 0.  1.
          5   -1    0    0  501    0  0.00000000000E+00 -0.00000000000E+00 -0.30769095011E+03  0.30772684442E+03  0.47000000000E+01 0. -1.
          6    1    1    2  502    0  0.14037007374E+02 -0.19907259209E+03 -0.12292377525E+03  0.29072528101E+03  0.17200000000E+03 0. -1.
         -6    1    1    2    0  502 -0.14037007374E+02  0.19907259209E+03  0.71063419208E+02  0.27287532693E+03  0.17200000000E+03 0.  1.
</event>
<event>
 4    1 -0.6532506E-004  0.2220052E+03  0.7818608E-02  0.1132397E+00
          5   -1    0    0  501    0  0.00000000000E+00  0.00000000000E+00  0.98154357155E+02  0.98266819570E+02  0.47000000000E+01 0. -1.
         -5   -1    0    0    0  501 -0.00000000000E+00 -0.00000000000E+00 -0.79782231079E+03  0.79783615460E+03  0.47000000000E+01 0.  1.
          6    1    1    2  502    0  0.11419348649E+03 -0.81622116480E+02 -0.76898243391E+02  0.23494608337E+03  0.17200000000E+03 0. -1.
         -6    1    1    2    0  502 -0.11419348649E+03  0.81622116480E+02 -0.62276971024E+03  0.66115689080E+03  0.17200000000E+03 0.  1.
</event>
<event>
 4    1 -0.6532506E-004  0.2657855E+03  0.7818608E-02  0.1103716E+00
          5   -1    0    0  501    0  0.00000000000E+00  0.00000000000E+00  0.59167794074E+03  0.59169660769E+03  0.47000000000E+01 0. -1.
         -5   -1    0    0    0  501 -0.00000000000E+00 -0.00000000000E+00 -0.14845733616E+03  0.14853171601E+03  0.47000000000E+01 0.  1.
          6    1    1    2  502    0 -0.79218755670E+02 -0.18650021042E+03  0.38550605235E+03  0.46824871183E+03  0.17200000000E+03 0.  1.
         -6    1    1    2    0  502  0.79218755670E+02  0.18650021042E+03  0.57714552224E+02  0.27197961187E+03  0.17200000000E+03 0.  1.
</event>
<event>
 4    1 -0.6532506E-004  0.1902295E+03  0.7818608E-02  0.1158255E+00
          5   -1    0    0  501    0  0.00000000000E+00  0.00000000000E+00  0.12920059437E+04  0.12920144924E+04  0.47000000000E+01 0. -1.
         -5   -1    0    0    0  501 -0.00000000000E+00 -0.00000000000E+00 -0.31396641990E+02  0.31746482140E+02  0.47000000000E+01 0.  1.
          6    1    1    2  502    0  0.73186498234E+02  0.35312638573E+02  0.85289477511E+03  0.87385167127E+03  0.17200000000E+03 0. -1.
         -6    1    1    2    0  502 -0.73186498234E+02 -0.35312638573E+02  0.40771452661E+03  0.44990930328E+03  0.17200000000E+03 0. -1.
</event>
<event>
 4    1 -0.6532506E-004  0.5514739E+03  0.7818608E-02  0.1001153E+00
          5   -1    0    0  501    0  0.00000000000E+00  0.00000000000E+00  0.25164126397E+03  0.25168515199E+03  0.47000000000E+01 0. -1.
         -5   -1    0    0    0  501 -0.00000000000E+00 -0.00000000000E+00 -0.12645685644E+04  0.12645772986E+04  0.47000000000E+01 0.  1.
          6    1    1    2  502    0 -0.52379907873E+03  0.13190661637E+02 -0.34669613991E+03  0.65139978651E+03  0.17200000000E+03 0. -1.
         -6    1    1    2    0  502  0.52379907873E+03 -0.13190661637E+02 -0.66623116054E+03  0.86486266407E+03  0.17200000000E+03 0.  1.
</event>
<event>
 4    1 -0.6532506E-004  0.2708018E+03  0.7818608E-02  0.1100822E+00
          5   -1    0    0  501    0  0.00000000000E+00  0.00000000000E+00  0.20705592417E+03  0.20710926037E+03  0.47000000000E+01 0. -1.
         -5   -1    0    0    0  501 -0.00000000000E+00 -0.00000000000E+00 -0.43764265418E+03  0.43766789094E+03  0.47000000000E+01 0.  1.
          6    1    1    2  502    0  0.20047713544E+03 -0.59653525351E+02  0.25584046970E+02  0.27200766235E+03  0.17200000000E+03 0. -1.
         -6    1    1    2    0  502 -0.20047713544E+03  0.59653525351E+02 -0.25617077699E+03  0.37276948896E+03  0.17200000000E+03 0.  1.
</event>
<event>
 4    1 -0.6532506E-004  0.4635247E+03  0.7818608E-02  0.1023764E+00
         -5   -1    0    0    0  501 -0.00000000000E+00  0.00000000000E+00  0.40303239608E+03  0.40305979989E+03  0.47000000000E+01 0.  1.
          5   -1    0    0  501    0  0.00000000000E+00 -0.00000000000E+00 -0.16297322961E+04  0.16297390733E+04  0.47000000000E+01 0. -1.
          6    1    1    2  502    0 -0.42437603193E+03 -0.71945213574E+02 -0.14471138476E+04  0.15195373039E+04  0.17200000000E+03 0. -1.
         -6    1    1    2    0  502  0.42437603193E+03  0.71945213574E+02  0.22041394750E+03  0.51326156927E+03  0.17200000000E+03 0.  1.
</event>
<event>
 4    1 -0.6532506E-004  0.1837008E+03  0.7818608E-02  0.1164269E+00
         -5   -1    0    0    0  501 -0.00000000000E+00  0.00000000000E+00  0.98950385883E+03  0.98951502093E+03  0.47000000000E+01 0.  1.
          5   -1    0    0  501    0  0.00000000000E+00 -0.00000000000E+00 -0.38956293105E+02  0.39238791680E+02  0.47000000000E+01 0. -1.
          6    1    1    2  502    0  0.20251832010E+01 -0.64481513428E+02  0.65928552139E+03  0.68440000414E+03  0.17200000000E+03 0.  1.
         -6    1    1    2    0  502 -0.20251832010E+01  0.64481513428E+02  0.29126204433E+03  0.34435380847E+03  0.17200000000E+03 0. -1.
</event>
<event>
 4    1 -0.6532506E-004  0.2217055E+03  0.7818608E-02  0.1132618E+00
          5   -1    0    0  501    0  0.00000000000E+00  0.00000000000E+00  0.44501817625E+03  0.44504299477E+03  0.47000000000E+01 0. -1.
         -5   -1    0    0    0  501 -0.00000000000E+00 -0.00000000000E+00 -0.11665676885E+03  0.11675140992E+03  0.47000000000E+01 0.  1.
          6    1    1    2  502    0 -0.38572225011E+01 -0.13983718288E+03  0.22933222620E+03  0.31897740649E+03  0.17200000000E+03 0. -1.
         -6    1    1    2    0  502  0.38572225011E+01  0.13983718288E+03  0.99029181207E+02  0.24281699819E+03  0.17200000000E+03 0.  1.
</event>
<event>
 4    1 -0.6532506E-004  0.1750734E+03  0.7818608E-02  0.1172658E+00
         -5   -1    0    0    0  501 -0.00000000000E+00  0.00000000000E+00  0.10174215823E+03  0.10185065911E+03  0.47000000000E+01 0.  1.
          5   -1    0    0  501    0  0.00000000000E+00 -0.00000000000E+00 -0.36159325715E+03  0.36162380124E+03  0.47000000000E+01 0. -1.
          6    1    1    2  502    0 -0.23246481309E+02 -0.22941444756E+02 -0.22479259306E+03  0.28492528613E+03  0.17200000000E+03 0. -1.
         -6    1    1    2    0  502  0.23246481309E+02  0.22941444756E+02 -0.35058505864E+02  0.17854917422E+03  0.17200000000E+03 0.  1.
</event>
<event>
 4    1 -0.6532506E-004  0.1905794E+03  0.7818608E-02  0.1157940E+00
          5   -1    0    0  501    0  0.00000000000E+00  0.00000000000E+00  0.87322981034E+02  0.87449374021E+02  0.47000000000E+01 0. -1.
         -5   -1    0    0    0  501 -0.00000000000E+00 -0.00000000000E+00 -0.41789817812E+03  0.41792460717E+03  0.47000000000E+01 0.  1.
          6    1    1    2  502    0 -0.26317162194E+02  0.77742720391E+02 -0.14611983149E+03  0.24014897200E+03  0.17200000000E+03 0. -1.
         -6    1    1    2    0  502  0.26317162194E+02 -0.77742720391E+02 -0.18445536559E+03  0.26522500918E+03  0.17200000000E+03 0.  1.
</event>
<event>
 4    1 -0.6532506E-004  0.2693100E+03  0.7818608E-02  0.1101675E+00
          5   -1    0    0  501    0  0.00000000000E+00  0.00000000000E+00  0.12462824194E+04  0.12462912817E+04  0.47000000000E+01 0. -1.
         -5   -1    0    0    0  501 -0.00000000000E+00 -0.00000000000E+00 -0.65129804356E+02  0.65299168566E+02  0.47000000000E+01 0.  1.
          6    1    1    2  502    0 -0.15788288221E+03 -0.13422696093E+03  0.80584850977E+03  0.84965857980E+03  0.17200000000E+03 0. -1.
         -6    1    1    2    0  502  0.15788288221E+03  0.13422696093E+03  0.37530410526E+03  0.46193187047E+03  0.17200000000E+03 0.  1.
</event>
<event>
 4    1 -0.6532506E-004  0.1894666E+03  0.7818608E-02  0.1158943E+00
          5   -1    0    0  501    0  0.00000000000E+00  0.00000000000E+00  0.17548545549E+04  0.17548608488E+04  0.47000000000E+01 0. -1.
         -5   -1    0    0    0  501 -0.00000000000E+00 -0.00000000000E+00 -0.35623919390E+02  0.35932626298E+02  0.47000000000E+01 0.  1.
          6    1    1    2  502    0  0.42753626970E+02 -0.66975537705E+02  0.27358973164E+03  0.33278962803E+03  0.17200000000E+03 0.  1.
         -6    1    1    2    0  502 -0.42753626970E+02  0.66975537705E+02  0.14456409038E+04  0.14580038471E+04  0.17200000000E+03 0. -1.
</event>
<event>
 4    1 -0.6532506E-004  0.1774756E+03  0.7818608E-02  0.1170269E+00
          5   -1    0    0  501    0  0.00000000000E+00  0.00000000000E+00  0.96226593686E+03  0.96227741490E+03  0.47000000000E+01 0. -1.
         -5   -1    0    0    0  501 -0.00000000000E+00 -0.00000000000E+00 -0.47063780684E+02  0.47297879997E+02  0.47000000000E+01 0.  1.
          6    1    1    2  502    0 -0.89471533529E+01  0.42819799013E+02  0.73701878887E+03  0.75808593305E+03  0.17200000000E+03 0. -1.
         -6    1    1    2    0  502  0.89471533529E+01 -0.42819799013E+02  0.17818336730E+03  0.25148936185E+03  0.17200000000E+03 0.  1.
</event>
<event>
 4    1 -0.6532506E-004  0.1720506E+03  0.7818608E-02  0.1175726E+00
          5   -1    0    0  501    0  0.00000000000E+00  0.00000000000E+00  0.17669902279E+03  0.17676151915E+03  0.47000000000E+01 0. -1.
         -5   -1    0    0    0  501 -0.00000000000E+00 -0.00000000000E+00 -0.18539327210E+03  0.18545283859E+03  0.47000000000E+01 0.  1.
          6    1    1    2  502    0  0.26659408964E+01  0.32084143974E+01  0.52056283944E+02  0.17975332504E+03  0.17200000000E+03 0. -1.
         -6    1    1    2    0  502 -0.26659408964E+01 -0.32084143974E+01 -0.60750533258E+02  0.18246103270E+03  0.17200000000E+03 0.  1.
</event>
<event>
 4    1 -0.6532506E-004  0.1975363E+03  0.7818608E-02  0.1151834E+00
         -5   -1    0    0    0  501 -0.00000000000E+00  0.00000000000E+00  0.12637469040E+03  0.12646205903E+03  0.47000000000E+01 0.  1.
          5   -1    0    0  501    0  0.00000000000E+00 -0.00000000000E+00 -0.40470807925E+03  0.40473536961E+03  0.47000000000E+01 0. -1.
          6    1    1    2  502    0 -0.84679948612E+02  0.47601333646E+02 -0.26860664820E+03  0.33342182310E+03  0.17200000000E+03 0. -1.
         -6    1    1    2    0  502  0.84679948612E+02 -0.47601333646E+02 -0.97267406585E+01  0.19777560554E+03  0.17200000000E+03 0.  1.
</event>
<event>
 4    1 -0.6532506E-004  0.1773206E+03  0.7818608E-02  0.1170422E+00
         -5   -1    0    0    0  501 -0.00000000000E+00  0.00000000000E+00  0.31928210460E+03  0.31931669596E+03  0.47000000000E+01 0.  1.
          5   -1    0    0  501    0  0.00000000000E+00 -0.00000000000E+00 -0.98879519620E+02  0.98991158193E+02  0.47000000000E+01 0. -1.
          6    1    1    2  502    0 -0.40563128108E+02 -0.14601848721E+02  0.12501193107E+03  0.21695751717E+03  0.17200000000E+03 0.  1.
         -6    1    1    2    0  502  0.40563128108E+02  0.14601848721E+02  0.95390653914E+02  0.20135033698E+03  0.17200000000E+03 0.  1.
</event>
<event>
 4    1 -0.6532506E-004  0.1923689E+03  0.7818608E-02  0.1156342E+00
          5   -1    0    0  501    0  0.00000000000E+00  0.00000000000E+00  0.29200842817E+03  0.29204624998E+03  0.47000000000E+01 0. -1.
         -5   -1    0    0    0  501 -0.00000000000E+00 -0.00000000000E+00 -0.13685892406E+03  0.13693960382E+03  0.47000000000E+01 0.  1.
          6    1    1    2  502    0 -0.61925239877E+02 -0.59892029624E+02  0.13616289549E+03  0.23568225358E+03  0.17200000000E+03 0. -1.
         -6    1    1    2    0  502  0.61925239877E+02  0.59892029624E+02  0.18986608628E+02  0.19330360021E+03  0.17200000000E+03 0.  1.
</event>
<event>
 4    1 -0.6532506E-004  0.2019033E+03  0.7818608E-02  0.1148143E+00
         -5   -1    0    0    0  501 -0.00000000000E+00  0.00000000000E+00  0.24003426446E+02  0.24459241222E+02  0.47000000000E+01 0.  1.
          5   -1    0    0  501    0  0.00000000000E+00 -0.00000000000E+00 -0.17182700031E+04  0.17182764310E+04  0.47000000000E+01 0. -1.
          6    1    1    2  502    0 -0.95297369514E+02 -0.45818710414E+02 -0.97395148068E+03  0.99465895139E+03  0.17200000000E+03 0. -1.
         -6    1    1    2    0  502  0.95297369514E+02  0.45818710414E+02 -0.72031509595E+03  0.74807672088E+03  0.17200000000E+03 0. -1.
</event>
<event>
 4    1 -0.6532506E-004  0.2625463E+03  0.7818608E-02  0.1105623E+00
         -5   -1    0    0    0  501 -0.00000000000E+00  0.00000000000E+00  0.12066975707E+04  0.12067067238E+04  0.47000000000E+01 0.  1.
          5   -1    0    0  501    0  0.00000000000E+00 -0.00000000000E+00 -0.57036801822E+02  0.57230121108E+02  0.47000000000E+01 0. -1.
          6    1    1    2  502    0  0.17962110556E+03  0.84159570659E+02  0.56315343650E+03  0.62134722011E+03  0.17200000000E+03 0. -1.
         -6    1    1    2    0  502 -0.17962110556E+03 -0.84159570659E+02  0.58650733241E+03  0.64258962477E+03  0.17200000000E+03 0.  1.
</event>
<event>
 4    1 -0.6532506E-004  0.2806271E+03  0.7818608E-02  0.1095347E+00
         -5   -1    0    0    0  501 -0.00000000000E+00  0.00000000000E+00  0.23887462065E+03  0.23892085382E+03  0.47000000000E+01 0.  1.
          5   -1    0    0  501    0  0.00000000000E+00 -0.00000000000E+00 -0.33001269834E+03  0.33004616505E+03  0.47000000000E+01 0. -1.
          6    1    1    2  502    0 -0.20037689966E+03  0.94956034164E+02 -0.55839680354E+02  0.28612867777E+03  0.17200000000E+03 0. -1.
         -6    1    1    2    0  502  0.20037689966E+03 -0.94956034164E+02 -0.35298397336E+02  0.28283834110E+03  0.17200000000E+03 0.  1.
</event>
<event>
 4    1 -0.6532506E-004  0.1777605E+03  0.7818608E-02  0.1169988E+00
          5   -1    0    0  501    0  0.00000000000E+00  0.00000000000E+00  0.10245901060E+03  0.10256675315E+03  0.47000000000E+01 0. -1.
         -5   -1    0    0    0  501 -0.00000000000E+00 -0.00000000000E+00 -0.45276981420E+03  0.45279420784E+03  0.47000000000E+01 0.  1.
          6    1    1    2  502    0 -0.12641156510E+02  0.43069857329E+02 -0.18225958240E+02  0.17869246487E+03  0.17200000000E+03 0. -1.
         -6    1    1    2    0  502  0.12641156510E+02 -0.43069857329E+02 -0.33208484536E+03  0.37666849612E+03  0.17200000000E+03 0.  1.
</event>
<event>
 4    1 -0.6532506E-004  0.2354682E+03  0.7818608E-02  0.1122849E+00
          5   -1    0    0  501    0  0.00000000000E+00  0.00000000000E+00  0.11372672354E+03  0.11382380088E+03  0.47000000000E+01 0. -1.
         -5   -1    0    0    0  501 -0.00000000000E+00 -0.00000000000E+00 -0.63524165140E+03  0.63525903824E+03  0.47000000000E+01 0.  1.
          6    1    1    2  502    0  0.14767105428E+03 -0.63675076378E+02 -0.79972833073E+02  0.24867832566E+03  0.17200000000E+03 0. -1.
         -6    1    1    2    0  502 -0.14767105428E+03  0.63675076378E+02 -0.44154209478E+03  0.50040451346E+03  0.17200000000E+03 0.  1.
</event>
<event>
 4    1 -0.6532506E-004  0.2054233E+03  0.7818608E-02  0.1145242E+00
          5   -1    0    0  501    0  0.00000000000E+00  0.00000000000E+00  0.37881816523E+03  0.37884732057E+03  0.47000000000E+01 0. -1.
         -5   -1    0    0    0  501 -0.00000000000E+00 -0.00000000000E+00 -0.11512697537E+03  0.11522287298E+03  0.47000000000E+01 0.  1.
          6    1    1    2  502    0  0.10746008102E+03  0.32665881357E+02  0.17678601137E+03  0.27102033620E+03  0.17200000000E+03 0. -1.
         -6    1    1    2    0  502 -0.10746008102E+03 -0.32665881357E+02  0.86905178484E+02  0.22304985735E+03  0.17200000000E+03 0.  1.
</event>
<event>
 4    1 -0.6532506E-004  0.1813623E+03  0.7818608E-02  0.1166491E+00
         -5   -1    0    0    0  501 -0.00000000000E+00  0.00000000000E+00  0.32504749049E+02  0.32842787804E+02  0.47000000000E+01 0.  1.
          5   -1    0    0  501    0  0.00000000000E+00 -0.00000000000E+00 -0.17074531543E+04  0.17074596229E+04  0.47000000000E+01 0. -1.
          6    1    1    2  502    0 -0.34874507140E+00 -0.57516631423E+02 -0.27994327343E+03  0.33355737266E+03  0.17200000000E+03 0.  1.
         -6    1    1    2    0  502  0.34874507140E+00  0.57516631423E+02 -0.13950051318E+04  0.14067450381E+04  0.17200000000E+03 0.  1.
</event>
<event>
 4    1 -0.6532506E-004  0.1778502E+03  0.7818608E-02  0.1169900E+00
          5   -1    0    0  501    0  0.00000000000E+00  0.00000000000E+00  0.93062603066E+03  0.93063789894E+03  0.47000000000E+01 0. -1.
         -5   -1    0    0    0  501 -0.00000000000E+00 -0.00000000000E+00 -0.35228575395E+02  0.35540716430E+02  0.47000000000E+01 0.  1.
          6    1    1    2  502    0 -0.14938688819E+02  0.42702796525E+02  0.54405188875E+03  0.57238374445E+03  0.17200000000E+03 0. -1.
         -6    1    1    2    0  502  0.14938688819E+02 -0.42702796525E+02  0.35134556652E+03  0.39379487093E+03  0.17200000000E+03 0.  1.
</event>
<event>
 4    1 -0.6532506E-004  0.2496312E+03  0.7818608E-02  0.1113538E+00
          5   -1    0    0  501    0  0.00000000000E+00  0.00000000000E+00  0.19108332085E+03  0.19114111412E+03  0.47000000000E+01 0. -1.
         -5   -1    0    0    0  501 -0.00000000000E+00 -0.00000000000E+00 -0.35726604979E+03  0.35729696379E+03  0.47000000000E+01 0.  1.
          6    1    1    2  502    0 -0.15128241075E+03 -0.99223730101E+02 -0.19718791826E+01  0.24963894873E+03  0.17200000000E+03 0. -1.
         -6    1    1    2    0  502  0.15128241075E+03  0.99223730101E+02 -0.16421084976E+03  0.29879912917E+03  0.17200000000E+03 0.  1.
</event>
<event>
 4    1 -0.6532506E-004  0.1808439E+03  0.7818608E-02  0.1166989E+00
         -5   -1    0    0    0  501 -0.00000000000E+00  0.00000000000E+00  0.30359174710E+03  0.30362812601E+03  0.47000000000E+01 0.  1.
          5   -1    0    0  501    0  0.00000000000E+00 -0.00000000000E+00 -0.11103576085E+03  0.11113518879E+03  0.47000000000E+01 0. -1.
          6    1    1    2  502    0 -0.12314336864E+01  0.55847911056E+02  0.59986603337E+02  0.19053319443E+03  0.17200000000E+03 0.  1.
         -6    1    1    2    0  502  0.12314336864E+01 -0.55847911056E+02  0.13256938292E+03  0.22423012038E+03  0.17200000000E+03 0.  1.
</event>
<event>
 4    1 -0.6532506E-004  0.1898399E+03  0.7818608E-02  0.1158606E+00
         -5   -1    0    0    0  501 -0.00000000000E+00  0.00000000000E+00  0.30025965100E+03  0.30029643358E+03  0.47000000000E+01 0.  1.
          5   -1    0    0  501    0  0.00000000000E+00 -0.00000000000E+00 -0.11998830823E+03  0.12008032359E+03  0.47000000000E+01 0. -1.
          6    1    1    2  502    0 -0.29363560868E+02 -0.74786067289E+02  0.94499447954E+02  0.21205970912E+03  0.17200000000E+03 0.  1.
         -6    1    1    2    0  502  0.29363560868E+02  0.74786067289E+02  0.85771894811E+02  0.20831704805E+03  0.17200000000E+03 0. -1.
</event>
<event>
 4    1 -0.6532506E-004  0.2410210E+03  0.7818608E-02  0.1119115E+00
          5   -1    0    0  501    0  0.00000000000E+00  0.00000000000E+00  0.13673015576E+03  0.13681091146E+03  0.47000000000E+01 0. -1.
         -5   -1    0    0    0  501 -0.00000000000E+00 -0.00000000000E+00 -0.48039857941E+03  0.48042157018E+03  0.47000000000E+01 0.  1.
          6    1    1    2  502    0  0.12792990458E+03 -0.11018647448E+03 -0.66704712215E+02  0.25008126334E+03  0.17200000000E+03 0. -1.
         -6    1    1    2    0  502 -0.12792990458E+03  0.11018647448E+03 -0.27696371143E+03  0.36715121829E+03  0.17200000000E+03 0.  1.
</event>
<event>
 4    1 -0.6532506E-004  0.1757685E+03  0.7818608E-02  0.1171962E+00
          5   -1    0    0  501    0  0.00000000000E+00  0.00000000000E+00  0.88346928307E+02  0.88471858471E+02  0.47000000000E+01 0. -1.
         -5   -1    0    0    0  501 -0.00000000000E+00 -0.00000000000E+00 -0.35506488081E+03  0.35509598644E+03  0.47000000000E+01 0.  1.
          6    1    1    2  502    0  0.12250089051E+02  0.34066055850E+02 -0.10512510126E+03  0.20480685477E+03  0.17200000000E+03 0. -1.
         -6    1    1    2    0  502 -0.12250089051E+02 -0.34066055850E+02 -0.16159285124E+03  0.23876099014E+03  0.17200000000E+03 0.  1.
</event>
<event>
 4    1 -0.6532506E-004  0.2869462E+03  0.7818608E-02  0.1091954E+00
          5   -1    0    0  501    0  0.00000000000E+00  0.00000000000E+00  0.16649997027E+03  0.16656629341E+03  0.47000000000E+01 0. -1.
         -5   -1    0    0    0  501 -0.00000000000E+00 -0.00000000000E+00 -0.49663405950E+03  0.49665629872E+03  0.47000000000E+01 0.  1.
          6    1    1    2  502    0  0.10580460009E+03  0.20386155062E+03 -0.14256808836E+03  0.32041193024E+03  0.17200000000E+03 0. -1.
         -6    1    1    2    0  502 -0.10580460009E+03 -0.20386155062E+03 -0.18756600087E+03  0.34281066189E+03  0.17200000000E+03 0.  1.
</event>
<event>
 4    1 -0.6532506E-004  0.2123046E+03  0.7818608E-02  0.1139754E+00
         -5   -1    0    0    0  501 -0.00000000000E+00  0.00000000000E+00  0.77604786144E+03  0.77606209368E+03  0.47000000000E+01 0.  1.
          5   -1    0    0  501    0  0.00000000000E+00 -0.00000000000E+00 -0.70604038745E+02  0.70760301632E+02  0.47000000000E+01 0. -1.
          6    1    1    2  502    0  0.11230317346E+03 -0.53639862241E+02  0.53158974476E+03  0.57241671388E+03  0.17200000000E+03 0.  1.
         -6    1    1    2    0  502 -0.11230317346E+03  0.53639862241E+02  0.17385407794E+03  0.27440568144E+03  0.17200000000E+03 0. -1.
</event>
<event>
 4    1 -0.6532506E-004  0.2062304E+03  0.7818608E-02  0.1144586E+00
         -5   -1    0    0    0  501 -0.00000000000E+00  0.00000000000E+00  0.62271211444E+03  0.62272985111E+03  0.47000000000E+01 0.  1.
          5   -1    0    0  501    0  0.00000000000E+00 -0.00000000000E+00 -0.70248408363E+02  0.70405460566E+02  0.47000000000E+01 0. -1.
          6    1    1    2  502    0 -0.98801813749E+02 -0.56437456222E+02  0.21712598530E+03  0.29945730640E+03  0.17200000000E+03 0. -1.
         -6    1    1    2    0  502  0.98801813749E+02  0.56437456222E+02  0.33533772077E+03  0.39367800528E+03  0.17200000000E+03 0.  1.
</event>
<event>
 4    1 -0.6532506E-004  0.4266477E+03  0.7818608E-02  0.1034924E+00
          5   -1    0    0  501    0  0.00000000000E+00  0.00000000000E+00  0.11095436111E+04  0.11095535656E+04  0.47000000000E+01 0. -1.
         -5   -1    0    0    0  501 -0.00000000000E+00 -0.00000000000E+00 -0.19226349440E+03  0.19232093302E+03  0.47000000000E+01 0.  1.
          6    1    1    2  502    0 -0.19923522256E+03 -0.33578207799E+03  0.70811423362E+03  0.82671279515E+03  0.17200000000E+03 0. -1.
         -6    1    1    2    0  502  0.19923522256E+03  0.33578207799E+03  0.20916588310E+03  0.47516170349E+03  0.17200000000E+03 0.  1.
</event>
<event>
 4    1 -0.6532506E-004  0.2865960E+03  0.7818608E-02  0.1092140E+00
          5   -1    0    0  501    0  0.00000000000E+00  0.00000000000E+00  0.35726121020E+03  0.35729212462E+03  0.47000000000E+01 0. -1.
         -5   -1    0    0    0  501 -0.00000000000E+00 -0.00000000000E+00 -0.44963662766E+03  0.44966119127E+03  0.47000000000E+01 0.  1.
          6    1    1    2  502    0 -0.13889368266E+03 -0.18237825089E+03  0.23588583271E+03  0.37118648622E+03  0.17200000000E+03 0. -1.
         -6    1    1    2    0  502  0.13889368266E+03  0.18237825089E+03 -0.32826125017E+03  0.43576682967E+03  0.17200000000E+03 0.  1.
</event>
<event>
 4    1 -0.6532506E-004  0.2210662E+03  0.7818608E-02  0.1133091E+00
          5   -1    0    0  501    0  0.00000000000E+00  0.00000000000E+00  0.73753328250E+03  0.73754825794E+03  0.47000000000E+01 0. -1.
         -5   -1    0    0    0  501 -0.00000000000E+00 -0.00000000000E+00 -0.89065102329E+02  0.89189026527E+02  0.47000000000E+01 0.  1.
          6    1    1    2  502    0  0.13049318165E+03 -0.47516317275E+02  0.53366128416E+03  0.57763711539E+03  0.17200000000E+03 0. -1.
         -6    1    1    2    0  502 -0.13049318165E+03  0.47516317275E+02  0.11480689601E+03  0.24910016908E+03  0.17200000000E+03 0.  1.
</event>
<event>
 4    1 -0.6532506E-004  0.1901010E+03  0.7818608E-02  0.1158370E+00
          5   -1    0    0  501    0  0.00000000000E+00  0.00000000000E+00  0.40074372881E+03  0.40077128912E+03  0.47000000000E+01 0. -1.
         -5   -1    0    0    0  501 -0.00000000000E+00 -0.00000000000E+00 -0.90385764035E+02  0.90507879989E+02  0.47000000000E+01 0.  1.
          6    1    1    2  502    0 -0.43426373296E+02 -0.68326721201E+02  0.14105357352E+03  0.23671607747E+03  0.17200000000E+03 0. -1.
         -6    1    1    2    0  502  0.43426373296E+02  0.68326721201E+02  0.16930439125E+03  0.25456309164E+03  0.17200000000E+03 0. -1.
</event>
<event>
 4    1 -0.6532506E-004  0.2464159E+03  0.7818608E-02  0.1115591E+00
          5   -1    0    0  501    0  0.00000000000E+00  0.00000000000E+00  0.71312576242E+03  0.71314125041E+03  0.47000000000E+01 0. -1.
         -5   -1    0    0    0  501 -0.00000000000E+00 -0.00000000000E+00 -0.91830211691E+02  0.91950409348E+02  0.47000000000E+01 0.  1.
          6    1    1    2  502    0 -0.15662966753E+03 -0.81264593787E+02  0.41981601107E+03  0.48679181392E+03  0.17200000000E+03 0. -1.
         -6    1    1    2    0  502  0.15662966753E+03  0.81264593787E+02  0.20147953967E+03  0.31829984583E+03  0.17200000000E+03 0.  1.
</event>
<event>
 4    1 -0.6532506E-004  0.1773493E+03  0.7818608E-02  0.1170393E+00
         -5   -1    0    0    0  501 -0.00000000000E+00  0.00000000000E+00  0.13060459901E+04  0.13060544469E+04  0.47000000000E+01 0.  1.
          5   -1    0    0  501    0  0.00000000000E+00 -0.00000000000E+00 -0.23972780589E+02  0.24429167181E+02  0.47000000000E+01 0. -1.
          6    1    1    2  502    0 -0.33371734155E+02 -0.27479213750E+02  0.68923142149E+03  0.71168302790E+03  0.17200000000E+03 0.  1.
         -6    1    1    2    0  502  0.33371734155E+02  0.27479213750E+02  0.59284178798E+03  0.61880058614E+03  0.17200000000E+03 0.  1.
</event>
<event>
 4    1 -0.6532506E-004  0.2217114E+03  0.7818608E-02  0.1132614E+00
          5   -1    0    0  501    0  0.00000000000E+00  0.00000000000E+00  0.26048787872E+02  0.26469404028E+02  0.47000000000E+01 0. -1.
         -5   -1    0    0    0  501 -0.00000000000E+00 -0.00000000000E+00 -0.19542857564E+04  0.19542914080E+04  0.47000000000E+01 0.  1.
          6    1    1    2  502    0  0.50217356933E+02 -0.13057629802E+03 -0.11678908959E+04  0.11887493837E+04  0.17200000000E+03 0. -1.
         -6    1    1    2    0  502 -0.50217356933E+02  0.13057629802E+03 -0.76034607257E+03  0.79201142833E+03  0.17200000000E+03 0.  1.
</event>
<event>
 4    1 -0.6532506E-004  0.1746860E+03  0.7818608E-02  0.1173047E+00
          5   -1    0    0  501    0  0.00000000000E+00  0.00000000000E+00  0.59126490379E+03  0.59128358379E+03  0.47000000000E+01 0. -1.
         -5   -1    0    0    0  501 -0.00000000000E+00 -0.00000000000E+00 -0.55748816993E+02  0.55946586993E+02  0.47000000000E+01 0.  1.
          6    1    1    2  502    0 -0.15626524361E+02 -0.26210616596E+02  0.17842437144E+03  0.24970070286E+03  0.17200000000E+03 0.  1.
         -6    1    1    2    0  502  0.15626524361E+02  0.26210616596E+02  0.35709171536E+03  0.39752946792E+03  0.17200000000E+03 0. -1.
</event>
<event>
 4    1 -0.6532506E-004  0.7007578E+03  0.7818608E-02  0.9715937E-01
          5   -1    0    0  501    0  0.00000000000E+00  0.00000000000E+00  0.21083123573E+04  0.21083175961E+04  0.47000000000E+01 0. -1.
         -5   -1    0    0    0  501 -0.00000000000E+00 -0.00000000000E+00 -0.23495452581E+03  0.23500153021E+03  0.47000000000E+01 0.  1.
          6    1    1    2  502    0  0.66722375821E+03  0.12763226413E+03  0.10465590270E+04  0.12595028127E+04  0.17200000000E+03 0. -1.
         -6    1    1    2    0  502 -0.66722375821E+03 -0.12763226413E+03  0.82679880453E+03  0.10838163136E+04  0.17200000000E+03 0.  1.
</event>
<event>
 4    1 -0.6532506E-004  0.1793075E+03  0.7818608E-02  0.1168475E+00
         -5   -1    0    0    0  501 -0.00000000000E+00  0.00000000000E+00  0.19311639400E+03  0.19317357902E+03  0.47000000000E+01 0.  1.
          5   -1    0    0  501    0  0.00000000000E+00 -0.00000000000E+00 -0.20831862731E+03  0.20837164031E+03  0.47000000000E+01 0. -1.
          6    1    1    2  502    0 -0.41711762878E+02  0.28763072901E+02 -0.97669456797E+02  0.20418253676E+03  0.17200000000E+03 0. -1.
         -6    1    1    2    0  502  0.41711762878E+02 -0.28763072901E+02  0.82467223484E+02  0.19736268258E+03  0.17200000000E+03 0.  1.
</event>
<event>
 4    1 -0.6532506E-004  0.2151977E+03  0.7818608E-02  0.1137515E+00
         -5   -1    0    0    0  501 -0.00000000000E+00  0.00000000000E+00  0.15619635450E+03  0.15626705078E+03  0.47000000000E+01 0.  1.
          5   -1    0    0  501    0  0.00000000000E+00 -0.00000000000E+00 -0.29892255843E+03  0.29895950552E+03  0.47000000000E+01 0. -1.
          6    1    1    2  502    0  0.12109851043E+03  0.45400252503E+02 -0.92558386400E+02  0.23425859013E+03  0.17200000000E+03 0. -1.
         -6    1    1    2    0  502 -0.12109851043E+03 -0.45400252503E+02 -0.50167817530E+02  0.22096796617E+03  0.17200000000E+03 0.  1.
</event>
<event>
 4    1 -0.6532506E-004  0.2198375E+03  0.7818608E-02  0.1134004E+00
         -5   -1    0    0    0  501 -0.00000000000E+00  0.00000000000E+00  0.13462517217E+04  0.13462599259E+04  0.47000000000E+01 0.  1.
          5   -1    0    0  501    0  0.00000000000E+00 -0.00000000000E+00 -0.50998541664E+02  0.51214658564E+02  0.47000000000E+01 0. -1.
          6    1    1    2  502    0 -0.40784785729E+00 -0.13690999158E+03  0.26638899192E+03  0.34538617105E+03  0.17200000000E+03 0. -1.
         -6    1    1    2    0  502  0.40784785729E+00  0.13690999158E+03  0.10288641881E+04  0.10520884134E+04  0.17200000000E+03 0.  1.
</event>
<event>
 4    1 -0.6532506E-004  0.1938984E+03  0.7818608E-02  0.1154992E+00
         -5   -1    0    0    0  501 -0.00000000000E+00  0.00000000000E+00  0.28556231061E+02  0.28940427302E+02  0.47000000000E+01 0.  1.
          5   -1    0    0  501    0  0.00000000000E+00 -0.00000000000E+00 -0.21926651631E+04  0.21926702003E+04  0.47000000000E+01 0. -1.
          6    1    1    2  502    0 -0.88878718406E+02 -0.10637029379E+02 -0.17878048516E+04  0.17982888423E+04  0.17200000000E+03 0. -1.
         -6    1    1    2    0  502  0.88878718406E+02  0.10637029379E+02 -0.37630408040E+03  0.42332178529E+03  0.17200000000E+03 0.  1.
</event>
<event>
 4    1 -0.6532506E-004  0.2346373E+03  0.7818608E-02  0.1123418E+00
          5   -1    0    0  501    0  0.00000000000E+00  0.00000000000E+00  0.22038847050E+04  0.22038897166E+04  0.47000000000E+01 0. -1.
         -5   -1    0    0    0  501 -0.00000000000E+00 -0.00000000000E+00 -0.37979216913E+02  0.38268928876E+02  0.47000000000E+01 0.  1.
          6    1    1    2  502    0  0.42826920270E+02 -0.15374172404E+03  0.17412836161E+04  0.17570211423E+04  0.17200000000E+03 0. -1.
         -6    1    1    2    0  502 -0.42826920270E+02  0.15374172404E+03  0.42462187199E+03  0.48513750317E+03  0.17200000000E+03 0.  1.
</event>
<event>
 4    1 -0.6532506E-004  0.1910047E+03  0.7818608E-02  0.1157558E+00
          5   -1    0    0  501    0  0.00000000000E+00  0.00000000000E+00  0.47471717047E+02  0.47703814516E+02  0.47000000000E+01 0. -1.
         -5   -1    0    0    0  501 -0.00000000000E+00 -0.00000000000E+00 -0.83703595830E+03  0.83704915356E+03  0.47000000000E+01 0.  1.
          6    1    1    2  502    0 -0.68213395500E+02 -0.47389213132E+02 -0.26629510050E+03  0.32771311447E+03  0.17200000000E+03 0. -1.
         -6    1    1    2    0  502  0.68213395500E+02  0.47389213132E+02 -0.52326914075E+03  0.55703985361E+03  0.17200000000E+03 0.  1.
</event>
<event>
 4    1 -0.6532506E-004  0.1905763E+03  0.7818608E-02  0.1157943E+00
          5   -1    0    0  501    0  0.00000000000E+00  0.00000000000E+00  0.32475861526E+02  0.32814197870E+02  0.47000000000E+01 0. -1.
         -5   -1    0    0    0  501 -0.00000000000E+00 -0.00000000000E+00 -0.11416070674E+04  0.11416167423E+04  0.47000000000E+01 0.  1.
          6    1    1    2  502    0 -0.78979974771E+02  0.22304063323E+02 -0.46034812922E+03  0.49823659814E+03  0.17200000000E+03 0. -1.
         -6    1    1    2    0  502  0.78979974771E+02 -0.22304063323E+02 -0.64878307666E+03  0.67619434205E+03  0.17200000000E+03 0.  1.
</event>
<event>
 4    1 -0.6532506E-004  0.2971702E+03  0.7818608E-02  0.1086664E+00
         -5   -1    0    0    0  501 -0.00000000000E+00  0.00000000000E+00  0.97269887284E+03  0.97271022777E+03  0.47000000000E+01 0.  1.
          5   -1    0    0  501    0  0.00000000000E+00 -0.00000000000E+00 -0.91481579651E+02  0.91602234773E+02  0.47000000000E+01 0. -1.
          6    1    1    2  502    0  0.23267320009E+03 -0.67744286052E+02  0.39196260975E+03  0.49187884055E+03  0.17200000000E+03 0. -1.
         -6    1    1    2    0  502 -0.23267320009E+03  0.67744286052E+02  0.48925468343E+03  0.57243362200E+03  0.17200000000E+03 0. -1.
</event>
<event>
 4    1 -0.6532506E-004  0.2732472E+03  0.7818608E-02  0.1099435E+00
         -5   -1    0    0    0  501 -0.00000000000E+00  0.00000000000E+00  0.51479191111E+03  0.51481336594E+03  0.47000000000E+01 0.  1.
          5   -1    0    0  501    0  0.00000000000E+00 -0.00000000000E+00 -0.16785959924E+03  0.16792538538E+03  0.47000000000E+01 0. -1.
          6    1    1    2  502    0 -0.19942145396E+03  0.72877580104E+02  0.47456010292E+02  0.27733757570E+03  0.17200000000E+03 0. -1.
         -6    1    1    2    0  502  0.19942145396E+03 -0.72877580104E+02  0.29947630159E+03  0.40540117562E+03  0.17200000000E+03 0.  1.
</event>
<event>
 4    1 -0.6532506E-004  0.1795652E+03  0.7818608E-02  0.1168225E+00
         -5   -1    0    0    0  501 -0.00000000000E+00  0.00000000000E+00  0.25341283180E+03  0.25345641306E+03  0.47000000000E+01 0.  1.
          5   -1    0    0  501    0  0.00000000000E+00 -0.00000000000E+00 -0.13410898415E+03  0.13419131726E+03  0.47000000000E+01 0. -1.
          6    1    1    2  502    0 -0.11300161221E+02 -0.50318586289E+02  0.15488294078E+02  0.18023190900E+03  0.17200000000E+03 0. -1.
         -6    1    1    2    0  502  0.11300161221E+02  0.50318586289E+02  0.10381555357E+03  0.20741582132E+03  0.17200000000E+03 0.  1.
</event>
<event>
 4    1 -0.6532506E-004  0.2134783E+03  0.7818608E-02  0.1138841E+00
          5   -1    0    0  501    0  0.00000000000E+00  0.00000000000E+00  0.28008413458E+03  0.28012356638E+03  0.47000000000E+01 0. -1.
         -5   -1    0    0    0  501 -0.00000000000E+00 -0.00000000000E+00 -0.21503652649E+03  0.21508788372E+03  0.47000000000E+01 0.  1.
          6    1    1    2  502    0  0.10013859830E+03  0.77209009673E+02  0.15473476766E+03  0.26365852606E+03  0.17200000000E+03 0. -1.
         -6    1    1    2    0  502 -0.10013859830E+03 -0.77209009673E+02 -0.89687159565E+02  0.23155292405E+03  0.17200000000E+03 0.  1.
</event>
<event>
 4    1 -0.6532506E-004  0.1952659E+03  0.7818608E-02  0.1153796E+00
         -5   -1    0    0    0  501 -0.00000000000E+00  0.00000000000E+00  0.62519549990E+03  0.62521316612E+03  0.47000000000E+01 0.  1.
          5   -1    0    0  501    0  0.00000000000E+00 -0.00000000000E+00 -0.61586700189E+02  0.61765780496E+02  0.47000000000E+01 0. -1.
          6    1    1    2  502    0  0.52673091748E+02 -0.75962723626E+02  0.31859544470E+03  0.37367345016E+03  0.17200000000E+03 0.  1.
         -6    1    1    2    0  502 -0.52673091748E+02  0.75962723626E+02  0.24501335501E+03  0.31330549645E+03  0.17200000000E+03 0.  1.
</event>
<event>
 4    1 -0.6532506E-004  0.2357100E+03  0.7818608E-02  0.1122684E+00
          5   -1    0    0  501    0  0.00000000000E+00  0.00000000000E+00  0.78519124684E+02  0.78659665274E+02  0.47000000000E+01 0. -1.
         -5   -1    0    0    0  501 -0.00000000000E+00 -0.00000000000E+00 -0.13034918464E+04  0.13035003198E+04  0.47000000000E+01 0.  1.
          6    1    1    2  502    0 -0.13271390636E+03 -0.91445068328E+02 -0.14494363687E+03  0.27670894335E+03  0.17200000000E+03 0. -1.
         -6    1    1    2    0  502  0.13271390636E+03  0.91445068328E+02 -0.10800290849E+04  0.11054510417E+04  0.17200000000E+03 0.  1.
</event>
<event>
 4    1 -0.6532506E-004  0.2299122E+03  0.7818608E-02  0.1126702E+00
          5   -1    0    0  501    0  0.00000000000E+00  0.00000000000E+00  0.22941390753E+03  0.22946204690E+03  0.47000000000E+01 0. -1.
         -5   -1    0    0    0  501 -0.00000000000E+00 -0.00000000000E+00 -0.24629479896E+03  0.24633963952E+03  0.47000000000E+01 0.  1.
          6    1    1    2  502    0  0.12825985514E+03  0.82613753540E+02 -0.69025655783E+02  0.24005033612E+03  0.17200000000E+03 0. -1.
         -6    1    1    2    0  502 -0.12825985514E+03 -0.82613753540E+02  0.52144764343E+02  0.23575135029E+03  0.17200000000E+03 0. -1.
</event>
<event>
 4    1 -0.6532506E-004  0.3317633E+03  0.7818608E-02  0.1070359E+00
          5   -1    0    0  501    0  0.00000000000E+00  0.00000000000E+00  0.23009493699E+03  0.23014293391E+03  0.47000000000E+01 0. -1.
         -5   -1    0    0    0  501 -0.00000000000E+00 -0.00000000000E+00 -0.74696435117E+03  0.74697913753E+03  0.47000000000E+01 0.  1.
          6    1    1    2  502    0  0.20365609778E+03 -0.19750211533E+03 -0.55145590949E+03  0.64356080664E+03  0.17200000000E+03 0.  1.
         -6    1    1    2    0  502 -0.20365609778E+03  0.19750211533E+03  0.34586495323E+02  0.33356126481E+03  0.17200000000E+03 0.  1.
</event>
<event>
 4    1 -0.6532506E-004  0.2053890E+03  0.7818608E-02  0.1145270E+00
         -5   -1    0    0    0  501 -0.00000000000E+00  0.00000000000E+00  0.56730501731E+03  0.56732448622E+03  0.47000000000E+01 0.  1.
          5   -1    0    0  501    0  0.00000000000E+00 -0.00000000000E+00 -0.79909008325E+02  0.80047108702E+02  0.47000000000E+01 0. -1.
          6    1    1    2  502    0  0.17991883920E+02  0.11080134330E+03  0.15775917467E+03  0.25898378860E+03  0.17200000000E+03 0. -1.
         -6    1    1    2    0  502 -0.17991883920E+02 -0.11080134330E+03  0.32963683431E+03  0.38838780632E+03  0.17200000000E+03 0.  1.
</event>
<event>
 4    1 -0.6532506E-004  0.1769237E+03  0.7818608E-02  0.1170814E+00
          5   -1    0    0  501    0  0.00000000000E+00  0.00000000000E+00  0.57339551265E+02  0.57531853258E+02  0.47000000000E+01 0. -1.
         -5   -1    0    0    0  501 -0.00000000000E+00 -0.00000000000E+00 -0.54935420332E+03  0.54937430838E+03  0.47000000000E+01 0.  1.
          6    1    1    2  502    0 -0.38313906231E+02 -0.15812942535E+02 -0.27366274703E+03  0.32587314046E+03  0.17200000000E+03 0.  1.
         -6    1    1    2    0  502  0.38313906231E+02  0.15812942535E+02 -0.21835190503E+03  0.28103302117E+03  0.17200000000E+03 0.  1.
</event>
<event>
 4    1 -0.6532506E-004  0.2381129E+03  0.7818608E-02  0.1121056E+00
         -5   -1    0    0    0  501 -0.00000000000E+00  0.00000000000E+00  0.61786534968E+03  0.61788322548E+03  0.47000000000E+01 0.  1.
          5   -1    0    0  501    0  0.00000000000E+00 -0.00000000000E+00 -0.13531341436E+03  0.13539501507E+03  0.47000000000E+01 0. -1.
          6    1    1    2  502    0 -0.19738023340E+02  0.16347519698E+03  0.27503613107E+02  0.23969601233E+03  0.17200000000E+03 0. -1.
         -6    1    1    2    0  502  0.19738023340E+02 -0.16347519698E+03  0.45504832221E+03  0.51358222822E+03  0.17200000000E+03 0.  1.
</event>
<event>
 4    1 -0.6532506E-004  0.2224350E+03  0.7818608E-02  0.1132081E+00
         -5   -1    0    0    0  501 -0.00000000000E+00  0.00000000000E+00  0.30284503519E+02  0.30647041511E+02  0.47000000000E+01 0.  1.
          5   -1    0    0  501    0  0.00000000000E+00 -0.00000000000E+00 -0.16300821531E+04  0.16300889289E+04  0.47000000000E+01 0. -1.
          6    1    1    2  502    0  0.13628543380E+03  0.36326627000E+02 -0.85199477067E+03  0.88055234515E+03  0.17200000000E+03 0.  1.
         -6    1    1    2    0  502 -0.13628543380E+03 -0.36326627000E+02 -0.74780287895E+03  0.78018362522E+03  0.17200000000E+03 0.  1.
</event>
<event>
 4    1 -0.6532506E-004  0.2761868E+03  0.7818608E-02  0.1097790E+00
          5   -1    0    0  501    0  0.00000000000E+00  0.00000000000E+00  0.18078689082E+03  0.18084797454E+03  0.47000000000E+01 0. -1.
         -5   -1    0    0    0  501 -0.00000000000E+00 -0.00000000000E+00 -0.47322328085E+03  0.47324662021E+03  0.47000000000E+01 0.  1.
          6    1    1    2  502    0  0.48895043496E+02 -0.21048614849E+03 -0.38400632720E+02  0.27884359878E+03  0.17200000000E+03 0. -1.
         -6    1    1    2    0  502 -0.48895043496E+02  0.21048614849E+03 -0.25403575731E+03  0.37525099597E+03  0.17200000000E+03 0.  1.
</event>
<event>
 4    1 -0.6532506E-004  0.2054616E+03  0.7818608E-02  0.1145211E+00
          5   -1    0    0  501    0  0.00000000000E+00  0.00000000000E+00  0.65477261095E+02  0.65645728883E+02  0.47000000000E+01 0. -1.
         -5   -1    0    0    0  501 -0.00000000000E+00 -0.00000000000E+00 -0.66633104576E+03  0.66634762140E+03  0.47000000000E+01 0.  1.
          6    1    1    2  502    0  0.89697696794E+02 -0.67711076709E+02 -0.23300689579E+03  0.31065524332E+03  0.17200000000E+03 0.  1.
         -6    1    1    2    0  502 -0.89697696794E+02  0.67711076709E+02 -0.36784688888E+03  0.42133810696E+03  0.17200000000E+03 0. -1.
</event>
<event>
 4    1 -0.6532506E-004  0.1841191E+03  0.7818608E-02  0.1163875E+00
         -5   -1    0    0    0  501 -0.00000000000E+00  0.00000000000E+00  0.57905744231E+02  0.58096172120E+02  0.47000000000E+01 0.  1.
          5   -1    0    0  501    0  0.00000000000E+00 -0.00000000000E+00 -0.98184945970E+03  0.98186070882E+03  0.47000000000E+01 0. -1.
          6    1    1    2  502    0 -0.31839502928E+02 -0.57463867894E+02 -0.79282027638E+03  0.81391881702E+03  0.17200000000E+03 0. -1.
         -6    1    1    2    0  502  0.31839502928E+02  0.57463867894E+02 -0.13112343909E+03  0.22603806392E+03  0.17200000000E+03 0.  1.
</event>
<event>
 4    1 -0.6532506E-004  0.3034614E+03  0.7818608E-02  0.1083523E+00
         -5   -1    0    0    0  501 -0.00000000000E+00  0.00000000000E+00  0.11752979220E+04  0.11753073196E+04  0.47000000000E+01 0.  1.
          5   -1    0    0  501    0  0.00000000000E+00 -0.00000000000E+00 -0.96966361935E+02  0.97080200591E+02  0.47000000000E+01 0. -1.
          6    1    1    2  502    0 -0.24206503869E+03  0.62524495887E+02  0.26003222937E+03  0.39963177533E+03  0.17200000000E+03 0.  1.
         -6    1    1    2    0  502  0.24206503869E+03 -0.62524495887E+02  0.81829933068E+03  0.87275574483E+03  0.17200000000E+03 0.  1.
</event>
<event>
 4    1 -0.6532506E-004  0.1771879E+03  0.7818608E-02  0.1170553E+00
         -5   -1    0    0    0  501 -0.00000000000E+00  0.00000000000E+00  0.62962746460E+02  0.63137923958E+02  0.47000000000E+01 0.  1.
          5   -1    0    0  501    0  0.00000000000E+00 -0.00000000000E+00 -0.58878377622E+03  0.58880253493E+03  0.47000000000E+01 0. -1.
          6    1    1    2  502    0  0.42421236917E+02 -0.34616035369E+01 -0.39105810544E+03  0.42932736446E+03  0.17200000000E+03 0. -1.
         -6    1    1    2    0  502 -0.42421236917E+02  0.34616035369E+01 -0.13476292432E+03  0.22261309443E+03  0.17200000000E+03 0. -1.
</event>
<event>
 4    1 -0.6532506E-004  0.2229888E+03  0.7818608E-02  0.1131674E+00
         -5   -1    0    0    0  501 -0.00000000000E+00  0.00000000000E+00  0.27694071359E+03  0.27698059290E+03  0.47000000000E+01 0.  1.
          5   -1    0    0  501    0  0.00000000000E+00 -0.00000000000E+00 -0.25808844467E+03  0.25813123653E+03  0.47000000000E+01 0. -1.
          6    1    1    2  502    0 -0.11278354779E+03 -0.86138591309E+02 -0.13822341122E+03  0.26235414419E+03  0.17200000000E+03 0. -1.
         -6    1    1    2    0  502  0.11278354779E+03  0.86138591309E+02  0.15707568014E+03  0.27275768524E+03  0.17200000000E+03 0.  1.
</event>
<event>
 4    1 -0.6532506E-004  0.1781734E+03  0.7818608E-02  0.1169583E+00
         -5   -1    0    0    0  501 -0.00000000000E+00  0.00000000000E+00  0.15634149285E+03  0.15641212353E+03  0.47000000000E+01 0.  1.
          5   -1    0    0  501    0  0.00000000000E+00 -0.00000000000E+00 -0.26148527703E+03  0.26152751309E+03  0.47000000000E+01 0. -1.
          6    1    1    2  502    0 -0.40839951632E+02  0.22223068883E+02  0.46310104333E+02  0.18409343335E+03  0.17200000000E+03 0.  1.
         -6    1    1    2    0  502  0.40839951632E+02 -0.22223068883E+02 -0.15145388851E+03  0.23384620327E+03  0.17200000000E+03 0. -1.
</event>
<event>
 4    1 -0.6532506E-004  0.1762475E+03  0.7818608E-02  0.1171485E+00
          5   -1    0    0  501    0  0.00000000000E+00  0.00000000000E+00  0.25028170775E+03  0.25032583413E+03  0.47000000000E+01 0. -1.
         -5   -1    0    0    0  501 -0.00000000000E+00 -0.00000000000E+00 -0.13629676924E+03  0.13637778157E+03  0.47000000000E+01 0.  1.
          6    1    1    2  502    0 -0.30618275473E+02 -0.23274518611E+02  0.11501016754E+03  0.21045313171E+03  0.17200000000E+03 0. -1.
         -6    1    1    2    0  502  0.30618275473E+02  0.23274518611E+02 -0.10252290396E+01  0.17625048398E+03  0.17200000000E+03 0. -1.
</event>
<event>
 4    1 -0.6532506E-004  0.2007091E+03  0.7818608E-02  0.1149142E+00
          5   -1    0    0  501    0  0.00000000000E+00  0.00000000000E+00  0.52298348121E+03  0.52300460000E+03  0.47000000000E+01 0. -1.
         -5   -1    0    0    0  501 -0.00000000000E+00 -0.00000000000E+00 -0.79264697554E+02  0.79403918533E+02  0.47000000000E+01 0.  1.
          6    1    1    2  502    0  0.99383846592E+02 -0.28687618548E+02  0.27346528954E+03  0.33921585017E+03  0.17200000000E+03 0. -1.
         -6    1    1    2    0  502 -0.99383846592E+02  0.28687618548E+02  0.17025349411E+03  0.26319266836E+03  0.17200000000E+03 0.  1.
</event>
<event>
 4    1 -0.6532506E-004  0.2355885E+03  0.7818608E-02  0.1122767E+00
         -5   -1    0    0    0  501 -0.00000000000E+00  0.00000000000E+00  0.44647869844E+03  0.44650343577E+03  0.47000000000E+01 0.  1.
          5   -1    0    0  501    0  0.00000000000E+00 -0.00000000000E+00 -0.15216076461E+03  0.15223333500E+03  0.47000000000E+01 0. -1.
          6    1    1    2  502    0  0.14392902041E+03 -0.72127638151E+02  0.18959919656E+02  0.23635024361E+03  0.17200000000E+03 0. -1.
         -6    1    1    2    0  502 -0.14392902041E+03  0.72127638151E+02  0.27535801418E+03  0.36238652717E+03  0.17200000000E+03 0. -1.
</event>
<event>
 4    1 -0.6532506E-004  0.2041742E+03  0.7818608E-02  0.1146264E+00
         -5   -1    0    0    0  501 -0.00000000000E+00  0.00000000000E+00  0.83751424330E+02  0.83883199017E+02  0.47000000000E+01 0.  1.
          5   -1    0    0  501    0  0.00000000000E+00 -0.00000000000E+00 -0.50555856830E+03  0.50558041495E+03  0.47000000000E+01 0. -1.
          6    1    1    2  502    0  0.86149728984E+02 -0.68420113027E+02 -0.24876407642E+03  0.32182394782E+03  0.17200000000E+03 0. -1.
         -6    1    1    2    0  502 -0.86149728984E+02  0.68420113027E+02 -0.17304306755E+03  0.26763966615E+03  0.17200000000E+03 0.  1.
</event>
<event>
 4    1 -0.6532506E-004  0.1989434E+03  0.7818608E-02  0.1150634E+00
         -5   -1    0    0    0  501 -0.00000000000E+00  0.00000000000E+00  0.84487305088E+02  0.84617933802E+02  0.47000000000E+01 0.  1.
          5   -1    0    0  501    0  0.00000000000E+00 -0.00000000000E+00 -0.54171424893E+03  0.54173463752E+03  0.47000000000E+01 0. -1.
          6    1    1    2  502    0 -0.56604714597E+01  0.99812027173E+02 -0.11306501890E+03  0.22882783966E+03  0.17200000000E+03 0.  1.
         -6    1    1    2    0  502  0.56604714597E+01 -0.99812027173E+02 -0.34416192494E+03  0.39752473166E+03  0.17200000000E+03 0. -1.
</event>
<event>
 4    1 -0.6532506E-004  0.1758369E+03  0.7818608E-02  0.1171894E+00
         -5   -1    0    0    0  501 -0.00000000000E+00  0.00000000000E+00  0.25981238085E+03  0.25985488881E+03  0.47000000000E+01 0.  1.
          5   -1    0    0  501    0  0.00000000000E+00 -0.00000000000E+00 -0.12967466506E+03  0.12975981180E+03  0.47000000000E+01 0. -1.
          6    1    1    2  502    0 -0.28907191081E+02 -0.22337757419E+02  0.89562082392E+01  0.17606480275E+03  0.17200000000E+03 0. -1.
         -6    1    1    2    0  502  0.28907191081E+02  0.22337757419E+02  0.12118150755E+03  0.21354989786E+03  0.17200000000E+03 0.  1.
</event>
<event>
 4    1 -0.6532506E-004  0.2141659E+03  0.7818608E-02  0.1138309E+00
         -5   -1    0    0    0  501 -0.00000000000E+00  0.00000000000E+00  0.40872744610E+03  0.40875446811E+03  0.47000000000E+01 0.  1.
          5   -1    0    0  501    0  0.00000000000E+00 -0.00000000000E+00 -0.13234872229E+03  0.13243214976E+03  0.47000000000E+01 0. -1.
          6    1    1    2  502    0 -0.23146401591E+02  0.12548819324E+03  0.24388131413E+03  0.32456915739E+03  0.17200000000E+03 0.  1.
         -6    1    1    2    0  502  0.23146401591E+02 -0.12548819324E+03  0.32497409686E+02  0.21661746048E+03  0.17200000000E+03 0. -1.
</event>
<event>
 4    1 -0.6532506E-004  0.3261660E+03  0.7818608E-02  0.1072846E+00
          5   -1    0    0  501    0  0.00000000000E+00  0.00000000000E+00  0.31438364344E+03  0.31441877371E+03  0.47000000000E+01 0. -1.
         -5   -1    0    0    0  501 -0.00000000000E+00 -0.00000000000E+00 -0.39825048209E+03  0.39827821492E+03  0.47000000000E+01 0.  1.
          6    1    1    2  502    0 -0.26245997936E+03 -0.88966560070E+02  0.96291469007E+02  0.34008283782E+03  0.17200000000E+03 0. -1.
         -6    1    1    2    0  502  0.26245997936E+03  0.88966560070E+02 -0.18015830765E+03  0.37261415082E+03  0.17200000000E+03 0.  1.
</event>
<event>
 4    1 -0.6532506E-004  0.1813864E+03  0.7818608E-02  0.1166468E+00
         -5   -1    0    0    0  501 -0.00000000000E+00  0.00000000000E+00  0.35457825102E+02  0.35767965569E+02  0.47000000000E+01 0.  1.
          5   -1    0    0  501    0  0.00000000000E+00 -0.00000000000E+00 -0.11487999773E+04  0.11488095916E+04  0.47000000000E+01 0. -1.
          6    1    1    2  502    0 -0.48962592505E+02 -0.30326692199E+02 -0.81890970818E+03  0.83875750601E+03  0.17200000000E+03 0. -1.
         -6    1    1    2    0  502  0.48962592505E+02  0.30326692199E+02 -0.29443244400E+03  0.34582005119E+03  0.17200000000E+03 0.  1.
</event>
<event>
 4    1 -0.6532506E-004  0.1787706E+03  0.7818608E-02  0.1168998E+00
         -5   -1    0    0    0  501 -0.00000000000E+00  0.00000000000E+00  0.33407273199E+03  0.33410579201E+03  0.47000000000E+01 0.  1.
          5   -1    0    0  501    0  0.00000000000E+00 -0.00000000000E+00 -0.95818111244E+02  0.95933312475E+02  0.47000000000E+01 0. -1.
          6    1    1    2  502    0  0.46706984253E+02  0.13906671664E+02  0.13008095817E+03  0.22108820315E+03  0.17200000000E+03 0.  1.
         -6    1    1    2    0  502 -0.46706984253E+02 -0.13906671664E+02  0.10817366258E+03  0.20895090134E+03  0.17200000000E+03 0. -1.
</event>
<event>
 4    1 -0.6532506E-004  0.1811081E+03  0.7818608E-02  0.1166735E+00
         -5   -1    0    0    0  501 -0.00000000000E+00  0.00000000000E+00  0.35436178812E+02  0.35746507085E+02  0.47000000000E+01 0.  1.
          5   -1    0    0  501    0  0.00000000000E+00 -0.00000000000E+00 -0.92990219498E+03  0.92991407250E+03  0.47000000000E+01 0. -1.
          6    1    1    2  502    0 -0.51729650808E+02  0.23241714758E+02 -0.40069404005E+03  0.43972246680E+03  0.17200000000E+03 0.  1.
         -6    1    1    2    0  502  0.51729650808E+02 -0.23241714758E+02 -0.49377197612E+03  0.52593811279E+03  0.17200000000E+03 0.  1.
</event>
<event>
 4    1 -0.6532506E-004  0.2112858E+03  0.7818608E-02  0.1140552E+00
         -5   -1    0    0    0  501 -0.00000000000E+00  0.00000000000E+00  0.14171573976E+03  0.14179365605E+03  0.47000000000E+01 0.  1.
          5   -1    0    0  501    0  0.00000000000E+00 -0.00000000000E+00 -0.46977911022E+03  0.46980262068E+03  0.47000000000E+01 0. -1.
          6    1    1    2  502    0  0.10954952130E+03  0.55286335512E+02 -0.33963705414E+03  0.39999375627E+03  0.17200000000E+03 0. -1.
         -6    1    1    2    0  502 -0.10954952130E+03 -0.55286335512E+02  0.11573683682E+02  0.21160252046E+03  0.17200000000E+03 0.  1.
</event>
<event>
 4    1 -0.6532506E-004  0.2328514E+03  0.7818608E-02  0.1124649E+00
         -5   -1    0    0    0  501 -0.00000000000E+00  0.00000000000E+00  0.28774322617E+02  0.29155645115E+02  0.47000000000E+01 0.  1.
          5   -1    0    0  501    0  0.00000000000E+00 -0.00000000000E+00 -0.19442442771E+04  0.19442499580E+04  0.47000000000E+01 0. -1.
          6    1    1    2  502    0 -0.43219460123E+02  0.15089014295E+03 -0.76692580873E+03  0.80149544794E+03  0.17200000000E+03 0. -1.
         -6    1    1    2    0  502  0.43219460123E+02 -0.15089014295E+03 -0.11485441458E+04  0.11719101552E+04  0.17200000000E+03 0.  1.
</event>
<event>
 4    1 -0.6532506E-004  0.2131276E+03  0.7818608E-02  0.1139113E+00
         -5   -1    0    0    0  501 -0.00000000000E+00  0.00000000000E+00  0.12468242597E+03  0.12477097958E+03  0.47000000000E+01 0.  1.
          5   -1    0    0  501    0  0.00000000000E+00 -0.00000000000E+00 -0.41384539345E+03  0.41387208130E+03  0.47000000000E+01 0. -1.
          6    1    1    2  502    0 -0.53115372341E+01 -0.12574250078E+03 -0.23796192804E+03  0.31945151139E+03  0.17200000000E+03 0. -1.
         -6    1    1    2    0  502  0.53115372341E+01  0.12574250078E+03 -0.51201039430E+02  0.21919154949E+03  0.17200000000E+03 0.  1.
</event>
<event>
 4    1 -0.6532506E-004  0.6319928E+03  0.7818608E-02  0.9841168E-01
         -5   -1    0    0    0  501 -0.00000000000E+00  0.00000000000E+00  0.11279315388E+04  0.11279413310E+04  0.47000000000E+01 0.  1.
          5   -1    0    0  501    0  0.00000000000E+00 -0.00000000000E+00 -0.41260304787E+03  0.41262981608E+03  0.47000000000E+01 0. -1.
          6    1    1    2  502    0  0.38082697990E+03  0.47413260064E+03  0.67591391249E+02  0.63559696962E+03  0.17200000000E+03 0. -1.
         -6    1    1    2    0  502 -0.38082697990E+03 -0.47413260064E+03  0.64773709970E+03  0.90497417750E+03  0.17200000000E+03 0.  1.
</event>
<event>
 4    1 -0.6532506E-004  0.1794038E+03  0.7818608E-02  0.1168381E+00
          5   -1    0    0  501    0  0.00000000000E+00  0.00000000000E+00  0.68684472466E+02  0.68845092475E+02  0.47000000000E+01 0. -1.
         -5   -1    0    0    0  501 -0.00000000000E+00 -0.00000000000E+00 -0.59892506941E+03  0.59894351050E+03  0.47000000000E+01 0.  1.
          6    1    1    2  502    0  0.50869710880E+02 -0.37392329021E+01 -0.10896282271E+03  0.20990141991E+03  0.17200000000E+03 0. -1.
         -6    1    1    2    0  502 -0.50869710880E+02  0.37392329021E+01 -0.42127777424E+03  0.45788718306E+03  0.17200000000E+03 0.  1.
</event>
<event>
 4    1 -0.6532506E-004  0.2131401E+03  0.7818608E-02  0.1139103E+00
          5   -1    0    0  501    0  0.00000000000E+00  0.00000000000E+00  0.45775310923E+02  0.46015965600E+02  0.47000000000E+01 0. -1.
         -5   -1    0    0    0  501 -0.00000000000E+00 -0.00000000000E+00 -0.10039488780E+04  0.10039598795E+04  0.47000000000E+01 0.  1.
          6    1    1    2  502    0  0.11348049381E+03  0.54468915011E+02 -0.41628704354E+03  0.46767893666E+03  0.17200000000E+03 0.  1.
         -6    1    1    2    0  502 -0.11348049381E+03 -0.54468915011E+02 -0.54188652351E+03  0.58229690841E+03  0.17200000000E+03 0.  1.
</event>
<event>
 4    1 -0.6532506E-004  0.2632692E+03  0.7818608E-02  0.1105195E+00
          5   -1    0    0  501    0  0.00000000000E+00  0.00000000000E+00  0.10633883724E+04  0.10633987590E+04  0.47000000000E+01 0. -1.
         -5   -1    0    0    0  501 -0.00000000000E+00 -0.00000000000E+00 -0.72906702791E+02  0.73058040706E+02  0.47000000000E+01 0.  1.
          6    1    1    2  502    0  0.45568095512E+02  0.19403666253E+03  0.68115805455E+03  0.73026500191E+03  0.17200000000E+03 0. -1.
         -6    1    1    2    0  502 -0.45568095512E+02 -0.19403666253E+03  0.30932361508E+03  0.40619179777E+03  0.17200000000E+03 0.  1.
</event>
<event>
 4    1 -0.6532506E-004  0.4349245E+03  0.7818608E-02  0.1032316E+00
         -5   -1    0    0    0  501 -0.00000000000E+00  0.00000000000E+00  0.23125746442E+03  0.23130522011E+03  0.47000000000E+01 0.  1.
          5   -1    0    0  501    0  0.00000000000E+00 -0.00000000000E+00 -0.83489597210E+03  0.83490920119E+03  0.47000000000E+01 0. -1.
          6    1    1    2  502    0  0.21913168082E+03 -0.33400088532E+03 -0.37805625602E+03  0.57626887617E+03  0.17200000000E+03 0. -1.
         -6    1    1    2    0  502 -0.21913168082E+03  0.33400088532E+03 -0.22558225166E+03  0.48994554513E+03  0.17200000000E+03 0.  1.
</event>
<event>
 4    1 -0.6532506E-004  0.1873776E+03  0.7818608E-02  0.1160848E+00
          5   -1    0    0  501    0  0.00000000000E+00  0.00000000000E+00  0.84563824232E+02  0.84694334927E+02  0.47000000000E+01 0. -1.
         -5   -1    0    0    0  501 -0.00000000000E+00 -0.00000000000E+00 -0.41569473851E+03  0.41572130764E+03  0.47000000000E+01 0.  1.
          6    1    1    2  502    0  0.29524827237E+01  0.74280960080E+02 -0.17761776520E+03  0.25818297523E+03  0.17200000000E+03 0. -1.
         -6    1    1    2    0  502 -0.29524827237E+01 -0.74280960080E+02 -0.15351314908E+03  0.24223266734E+03  0.17200000000E+03 0. -1.
</event>
<event>
 4    1 -0.6532506E-004  0.1997024E+03  0.7818608E-02  0.1149990E+00
         -5   -1    0    0    0  501 -0.00000000000E+00  0.00000000000E+00  0.47458034713E+02  0.47690198771E+02  0.47000000000E+01 0.  1.
          5   -1    0    0  501    0  0.00000000000E+00 -0.00000000000E+00 -0.11375079103E+04  0.11375176201E+04  0.47000000000E+01 0. -1.
          6    1    1    2  502    0  0.96021257321E+02 -0.32817220358E+02 -0.84904733549E+03  0.87221696252E+03  0.17200000000E+03 0. -1.
         -6    1    1    2    0  502 -0.96021257321E+02  0.32817220358E+02 -0.24100254007E+03  0.31299085631E+03  0.17200000000E+03 0.  1.
</event>
<event>
 4    1 -0.6532506E-004  0.1823125E+03  0.7818608E-02  0.1165584E+00
         -5   -1    0    0    0  501 -0.00000000000E+00  0.00000000000E+00  0.13235124708E+03  0.13243467297E+03  0.47000000000E+01 0.  1.
          5   -1    0    0  501    0  0.00000000000E+00 -0.00000000000E+00 -0.25214574707E+03  0.25218954730E+03  0.47000000000E+01 0. -1.
          6    1    1    2  502    0 -0.31686932087E+02 -0.51476139186E+02 -0.46652233650E+02  0.18818683661E+03  0.17200000000E+03 0. -1.
         -6    1    1    2    0  502  0.31686932087E+02  0.51476139186E+02 -0.73142266337E+02  0.19643738365E+03  0.17200000000E+03 0. -1.
</event>
<event>
 4    1 -0.6532506E-004  0.2759482E+03  0.7818608E-02  0.1097923E+00
         -5   -1    0    0    0  501 -0.00000000000E+00  0.00000000000E+00  0.37663574966E+03  0.37666507394E+03  0.47000000000E+01 0.  1.
          5   -1    0    0  501    0  0.00000000000E+00 -0.00000000000E+00 -0.28036410677E+03  0.28040349920E+03  0.47000000000E+01 0. -1.
          6    1    1    2  502    0 -0.19434689120E+03  0.93769272958E+02 -0.12540625979E+03  0.30310744079E+03  0.17200000000E+03 0. -1.
         -6    1    1    2    0  502  0.19434689120E+03 -0.93769272958E+02  0.22167790268E+03  0.35396113234E+03  0.17200000000E+03 0.  1.
</event>
<event>
 4    1 -0.6532506E-004  0.4699678E+03  0.7818608E-02  0.1021929E+00
         -5   -1    0    0    0  501 -0.00000000000E+00  0.00000000000E+00  0.38296717261E+03  0.38299601211E+03  0.47000000000E+01 0.  1.
          5   -1    0    0  501    0  0.00000000000E+00 -0.00000000000E+00 -0.10933128773E+04  0.10933229796E+04  0.47000000000E+01 0. -1.
          6    1    1    2  502    0  0.43541155722E+03 -0.41261809578E+02 -0.86258798276E+03  0.98230738015E+03  0.17200000000E+03 0. -1.
         -6    1    1    2    0  502 -0.43541155722E+03  0.41261809578E+02  0.15224227808E+03  0.49401161153E+03  0.17200000000E+03 0.  1.
</event>
<event>
 4    1 -0.6532506E-004  0.2008002E+03  0.7818608E-02  0.1149066E+00
         -5   -1    0    0    0  501 -0.00000000000E+00  0.00000000000E+00  0.15226004368E+03  0.15233256678E+03  0.47000000000E+01 0.  1.
          5   -1    0    0  501    0  0.00000000000E+00 -0.00000000000E+00 -0.41813742201E+03  0.41816383594E+03  0.47000000000E+01 0. -1.
          6    1    1    2  502    0 -0.66136728864E+02 -0.79766347627E+02 -0.30573417449E+03  0.36577878912E+03  0.17200000000E+03 0. -1.
         -6    1    1    2    0  502  0.66136728864E+02  0.79766347627E+02  0.39856796157E+02  0.20471761360E+03  0.17200000000E+03 0.  1.
</event>
<event>
 4    1 -0.6532506E-004  0.3816207E+03  0.7818608E-02  0.1050336E+00
         -5   -1    0    0    0  501 -0.00000000000E+00  0.00000000000E+00  0.12979841658E+04  0.12979926752E+04  0.47000000000E+01 0.  1.
          5   -1    0    0  501    0  0.00000000000E+00 -0.00000000000E+00 -0.21242297848E+03  0.21247496743E+03  0.47000000000E+01 0. -1.
          6    1    1    2  502    0  0.33666622807E+03 -0.52021077371E+02  0.23976081869E+02  0.38237310852E+03  0.17200000000E+03 0. -1.
         -6    1    1    2    0  502 -0.33666622807E+03  0.52021077371E+02  0.10615851055E+04  0.11280945341E+04  0.17200000000E+03 0.  1.
</event>
<event>
 4    1 -0.6532506E-004  0.2076498E+03  0.7818608E-02  0.1143441E+00
          5   -1    0    0  501    0  0.00000000000E+00  0.00000000000E+00  0.18838892295E+04  0.18838950924E+04  0.47000000000E+01 0. -1.
         -5   -1    0    0    0  501 -0.00000000000E+00 -0.00000000000E+00 -0.31733150032E+02  0.32079320613E+02  0.47000000000E+01 0.  1.
          6    1    1    2  502    0  0.51356726709E+02  0.10438832405E+03  0.14355086850E+04  0.14504494546E+04  0.17200000000E+03 0. -1.
         -6    1    1    2    0  502 -0.51356726709E+02 -0.10438832405E+03  0.41664739449E+03  0.46552495842E+03  0.17200000000E+03 0.  1.
</event>
<event>
 4    1 -0.6532506E-004  0.1742018E+03  0.7818608E-02  0.1173535E+00
         -5   -1    0    0    0  501 -0.00000000000E+00  0.00000000000E+00  0.18434212541E+03  0.18440203145E+03  0.47000000000E+01 0.  1.
          5   -1    0    0  501    0  0.00000000000E+00 -0.00000000000E+00 -0.16636167059E+03  0.16642804884E+03  0.47000000000E+01 0. -1.
          6    1    1    2  502    0  0.22747581487E+02 -0.15647055941E+02 -0.95633029458E+01  0.17446414986E+03  0.17200000000E+03 0.  1.
         -6    1    1    2    0  502 -0.22747581487E+02  0.15647055941E+02  0.27543757771E+02  0.17636593043E+03  0.17200000000E+03 0.  1.
</event>
<event>
 4    1 -0.6532506E-004  0.3011099E+03  0.7818608E-02  0.1084687E+00
         -5   -1    0    0    0  501 -0.00000000000E+00  0.00000000000E+00  0.51985605771E+03  0.51987730354E+03  0.47000000000E+01 0.  1.
          5   -1    0    0  501    0  0.00000000000E+00 -0.00000000000E+00 -0.26510557358E+03  0.26514723296E+03  0.47000000000E+01 0. -1.
          6    1    1    2  502    0  0.24712175817E+03 -0.37431125512E+01 -0.10224801580E+03  0.31799658958E+03  0.17200000000E+03 0. -1.
         -6    1    1    2    0  502 -0.24712175817E+03  0.37431125512E+01  0.35699849993E+03  0.46702794692E+03  0.17200000000E+03 0.  1.
</event>
<event>
 4    1 -0.6532506E-004  0.7936782E+03  0.7818608E-02  0.9569213E-01
         -5   -1    0    0    0  501 -0.00000000000E+00  0.00000000000E+00  0.17702143980E+04  0.17702206373E+04  0.47000000000E+01 0.  1.
          5   -1    0    0  501    0  0.00000000000E+00 -0.00000000000E+00 -0.35588705519E+03  0.35591808897E+03  0.47000000000E+01 0. -1.
          6    1    1    2  502    0 -0.76584004060E+03 -0.11760166219E+03  0.72126736655E+03  0.10724512729E+04  0.17200000000E+03 0. -1.
         -6    1    1    2    0  502  0.76584004060E+03  0.11760166219E+03  0.69305997626E+03  0.10536874534E+04  0.17200000000E+03 0.  1.
</event>
<event>
 4    1 -0.6532506E-004  0.3798761E+03  0.7818608E-02  0.1050980E+00
         -5   -1    0    0    0  501 -0.00000000000E+00  0.00000000000E+00  0.17230329478E+04  0.17230393579E+04  0.47000000000E+01 0.  1.
          5   -1    0    0  501    0  0.00000000000E+00 -0.00000000000E+00 -0.86517455589E+02  0.86645023641E+02  0.47000000000E+01 0. -1.
          6    1    1    2  502    0  0.22804658531E+03  0.25043286986E+03  0.65448046123E+03  0.75673677161E+03  0.17200000000E+03 0. -1.
         -6    1    1    2    0  502 -0.22804658531E+03 -0.25043286986E+03  0.98203503094E+03  0.10529476100E+04  0.17200000000E+03 0.  1.
</event>
<event>
 4    1 -0.6532506E-004  0.2772683E+03  0.7818608E-02  0.1097190E+00
          5   -1    0    0  501    0  0.00000000000E+00  0.00000000000E+00  0.44966454620E+03  0.44968910829E+03  0.47000000000E+01 0. -1.
         -5   -1    0    0    0  501 -0.00000000000E+00 -0.00000000000E+00 -0.18745125374E+03  0.18751016646E+03  0.47000000000E+01 0.  1.
          6    1    1    2  502    0  0.19627595099E+03 -0.93645379182E+02  0.22574073638E+03  0.35754242551E+03  0.17200000000E+03 0. -1.
         -6    1    1    2    0  502 -0.19627595099E+03  0.93645379182E+02  0.36472556094E+02  0.27965684924E+03  0.17200000000E+03 0. -1.
</event>
<event>
 4    1 -0.6532506E-004  0.2537617E+03  0.7818608E-02  0.1110950E+00
          5   -1    0    0  501    0  0.00000000000E+00  0.00000000000E+00  0.25483441800E+03  0.25487775618E+03  0.47000000000E+01 0. -1.
         -5   -1    0    0    0  501 -0.00000000000E+00 -0.00000000000E+00 -0.25926792547E+03  0.25931052269E+03  0.47000000000E+01 0.  1.
          6    1    1    2  502    0  0.18176593039E+03  0.42096737405E+02  0.38985430606E+02  0.25673888009E+03  0.17200000000E+03 0. -1.
         -6    1    1    2    0  502 -0.18176593039E+03 -0.42096737405E+02 -0.43418938079E+02  0.25744939878E+03  0.17200000000E+03 0.  1.
</event>
<event>
 4    1 -0.6532506E-004  0.3875750E+03  0.7818608E-02  0.1048169E+00
          5   -1    0    0  501    0  0.00000000000E+00  0.00000000000E+00  0.35524981627E+03  0.35528090571E+03  0.47000000000E+01 0. -1.
         -5   -1    0    0    0  501 -0.00000000000E+00 -0.00000000000E+00 -0.45916720575E+03  0.45919125954E+03  0.47000000000E+01 0.  1.
          6    1    1    2  502    0 -0.13145683938E+03  0.32148013734E+03 -0.16659317134E+03  0.42186213869E+03  0.17200000000E+03 0. -1.
         -6    1    1    2    0  502  0.13145683938E+03 -0.32148013734E+03  0.62675781857E+02  0.39261002656E+03  0.17200000000E+03 0.  1.
</event>
<event>
 4    1 -0.6532506E-004  0.2046137E+03  0.7818608E-02  0.1145904E+00
          5   -1    0    0  501    0  0.00000000000E+00  0.00000000000E+00  0.42494352195E+03  0.42496951284E+03  0.47000000000E+01 0. -1.
         -5   -1    0    0    0  501 -0.00000000000E+00 -0.00000000000E+00 -0.11633211138E+03  0.11642701636E+03  0.47000000000E+01 0.  1.
          6    1    1    2  502    0 -0.59483292136E+01  0.11066795050E+03  0.26041369247E+03  0.33118283336E+03  0.17200000000E+03 0. -1.
         -6    1    1    2    0  502  0.59483292136E+01 -0.11066795050E+03  0.48197718095E+02  0.21021369584E+03  0.17200000000E+03 0.  1.
</event>
<event>
 4    1 -0.6532506E-004  0.2383068E+03  0.7818608E-02  0.1120926E+00
         -5   -1    0    0    0  501 -0.00000000000E+00  0.00000000000E+00  0.19753581950E+04  0.19753637864E+04  0.47000000000E+01 0.  1.
          5   -1    0    0  501    0  0.00000000000E+00 -0.00000000000E+00 -0.28983417804E+02  0.29362024923E+02  0.47000000000E+01 0. -1.
          6    1    1    2  502    0 -0.13485119053E+03 -0.94980488692E+02  0.10947382483E+04  0.11203758160E+04  0.17200000000E+03 0. -1.
         -6    1    1    2    0  502  0.13485119053E+03  0.94980488692E+02  0.85163652888E+03  0.88434999527E+03  0.17200000000E+03 0.  1.
</event>
<event>
 4    1 -0.6532506E-004  0.2270553E+03  0.7818608E-02  0.1128730E+00
          5   -1    0    0  501    0  0.00000000000E+00  0.00000000000E+00  0.11855179053E+04  0.11855272219E+04  0.47000000000E+01 0. -1.
         -5   -1    0    0    0  501 -0.00000000000E+00 -0.00000000000E+00 -0.43494813749E+02  0.43748015075E+02  0.47000000000E+01 0.  1.
          6    1    1    2  502    0 -0.56259684975E+02  0.13713115465E+03  0.53566012939E+03  0.58179539354E+03  0.17200000000E+03 0. -1.
         -6    1    1    2    0  502  0.56259684975E+02 -0.13713115465E+03  0.60636296222E+03  0.64747984345E+03  0.17200000000E+03 0. -1.
</event>
<event>
 4    1 -0.6532506E-004  0.8077460E+03  0.7818608E-02  0.9548872E-01
         -5   -1    0    0    0  501 -0.00000000000E+00  0.00000000000E+00  0.23624977883E+04  0.23625024634E+04  0.47000000000E+01 0.  1.
          5   -1    0    0  501    0  0.00000000000E+00 -0.00000000000E+00 -0.62061237150E+03  0.62063016819E+03  0.47000000000E+01 0. -1.
          6    1    1    2  502    0  0.57678325060E+03  0.53869352624E+03 -0.24026160672E+03  0.84272134959E+03  0.17200000000E+03 0. -1.
         -6    1    1    2    0  502 -0.57678325060E+03 -0.53869352624E+03  0.19821470235E+04  0.21404112820E+04  0.17200000000E+03 0.  1.
</event>
<event>
 4    1 -0.6532506E-004  0.1881756E+03  0.7818608E-02  0.1160117E+00
         -5   -1    0    0    0  501 -0.00000000000E+00  0.00000000000E+00  0.10386668578E+04  0.10386774915E+04  0.47000000000E+01 0.  1.
          5   -1    0    0  501    0  0.00000000000E+00 -0.00000000000E+00 -0.36609567727E+02  0.36910031823E+02  0.47000000000E+01 0. -1.
          6    1    1    2  502    0  0.17990820553E+02  0.74178068835E+02  0.35587274731E+03  0.40256113548E+03  0.17200000000E+03 0. -1.
         -6    1    1    2    0  502 -0.17990820553E+02 -0.74178068835E+02  0.64618454273E+03  0.67302638788E+03  0.17200000000E+03 0.  1.
</event>
<event>
 4    1 -0.6532506E-004  0.2196291E+03  0.7818608E-02  0.1134160E+00
          5   -1    0    0  501    0  0.00000000000E+00  0.00000000000E+00  0.12667231323E+03  0.12675947672E+03  0.47000000000E+01 0. -1.
         -5   -1    0    0    0  501 -0.00000000000E+00 -0.00000000000E+00 -0.45408567490E+03  0.45410999785E+03  0.47000000000E+01 0.  1.
          6    1    1    2  502    0  0.83396429296E+02  0.10815727858E+03 -0.28055424213E+03  0.35629712896E+03  0.17200000000E+03 0.  1.
         -6    1    1    2    0  502 -0.83396429296E+02 -0.10815727858E+03 -0.46859119541E+02  0.22457234561E+03  0.17200000000E+03 0.  1.
</event>
<event>
 4    1 -0.6532506E-004  0.3413473E+03  0.7818608E-02  0.1066224E+00
          5   -1    0    0  501    0  0.00000000000E+00  0.00000000000E+00  0.40664171669E+03  0.40666887728E+03  0.47000000000E+01 0. -1.
         -5   -1    0    0    0  501 -0.00000000000E+00 -0.00000000000E+00 -0.42323314463E+03  0.42325924055E+03  0.47000000000E+01 0.  1.
          6    1    1    2  502    0  0.29398654903E+03 -0.22491670009E+02  0.22756572463E+03  0.41024885771E+03  0.17200000000E+03 0. -1.
         -6    1    1    2    0  502 -0.29398654903E+03  0.22491670009E+02 -0.24415715257E+03  0.41967926013E+03  0.17200000000E+03 0.  1.
</event>
<event>
 4    1 -0.6532506E-004  0.1882591E+03  0.7818608E-02  0.1160041E+00
          5   -1    0    0  501    0  0.00000000000E+00  0.00000000000E+00  0.67457465389E+02  0.67620999968E+02  0.47000000000E+01 0. -1.
         -5   -1    0    0    0  501 -0.00000000000E+00 -0.00000000000E+00 -0.52467352507E+03  0.52469457583E+03  0.47000000000E+01 0.  1.
          6    1    1    2  502    0 -0.75303889243E+02 -0.13667833535E+02 -0.23256205601E+03  0.29920995188E+03  0.17200000000E+03 0. -1.
         -6    1    1    2    0  502  0.75303889243E+02  0.13667833535E+02 -0.22465400367E+03  0.29310562392E+03  0.17200000000E+03 0.  1.
</event>
<event>
 4    1 -0.6532506E-004  0.1778704E+03  0.7818608E-02  0.1169880E+00
         -5   -1    0    0    0  501 -0.00000000000E+00  0.00000000000E+00  0.88194496429E+02  0.88319642211E+02  0.47000000000E+01 0.  1.
          5   -1    0    0  501    0  0.00000000000E+00 -0.00000000000E+00 -0.38670279467E+03  0.38673135560E+03  0.47000000000E+01 0. -1.
          6    1    1    2  502    0  0.42465102658E+02  0.15830557735E+02 -0.21357578773E+03  0.27794335503E+03  0.17200000000E+03 0.  1.
         -6    1    1    2    0  502 -0.42465102658E+02 -0.15830557735E+02 -0.84932510517E+02  0.19710764279E+03  0.17200000000E+03 0.  1.
</event>
<event>
 4    1 -0.6532506E-004  0.1896861E+03  0.7818608E-02  0.1158745E+00
          5   -1    0    0  501    0  0.00000000000E+00  0.00000000000E+00  0.39044927501E+03  0.39047756192E+03  0.47000000000E+01 0. -1.
         -5   -1    0    0    0  501 -0.00000000000E+00 -0.00000000000E+00 -0.96553499041E+02  0.96667823897E+02  0.47000000000E+01 0.  1.
          6    1    1    2  502    0  0.79175941788E+02  0.11312367480E+02  0.19944978786E+03  0.27524719307E+03  0.17200000000E+03 0.  1.
         -6    1    1    2    0  502 -0.79175941788E+02 -0.11312367480E+02  0.94445988112E+02  0.21189819274E+03  0.17200000000E+03 0.  1.
</event>
<event>
 4    1 -0.6532506E-004  0.2462503E+03  0.7818608E-02  0.1115698E+00
         -5   -1    0    0    0  501 -0.00000000000E+00  0.00000000000E+00  0.19100010876E+03  0.19105792720E+03  0.47000000000E+01 0.  1.
          5   -1    0    0  501    0  0.00000000000E+00 -0.00000000000E+00 -0.32456554069E+03  0.32459956901E+03  0.47000000000E+01 0. -1.
          6    1    1    2  502    0 -0.17405457242E+03  0.27572188672E+02 -0.10519503000E+03  0.26777829282E+03  0.17200000000E+03 0. -1.
         -6    1    1    2    0  502  0.17405457242E+03 -0.27572188672E+02 -0.28370401926E+02  0.24787920339E+03  0.17200000000E+03 0.  1.
</event>
<event>
 4    1 -0.6532506E-004  0.1789923E+03  0.7818608E-02  0.1168782E+00
         -5   -1    0    0    0  501 -0.00000000000E+00  0.00000000000E+00  0.90605381330E+03  0.90606600344E+03  0.47000000000E+01 0.  1.
          5   -1    0    0  501    0  0.00000000000E+00 -0.00000000000E+00 -0.35409838423E+02  0.35720395534E+02  0.47000000000E+01 0. -1.
          6    1    1    2  502    0 -0.16546342365E+02 -0.46695356859E+02  0.39851598682E+03  0.43686751945E+03  0.17200000000E+03 0.  1.
         -6    1    1    2    0  502  0.16546342365E+02  0.46695356859E+02  0.47212798805E+03  0.50491887952E+03  0.17200000000E+03 0.  1.
</event>
<event>
 4    1 -0.6532506E-004  0.1959198E+03  0.7818608E-02  0.1153228E+00
          5   -1    0    0  501    0  0.00000000000E+00  0.00000000000E+00  0.57988921979E+03  0.57990826622E+03  0.47000000000E+01 0. -1.
         -5   -1    0    0    0  501 -0.00000000000E+00 -0.00000000000E+00 -0.86447515778E+02  0.86575186885E+02  0.47000000000E+01 0.  1.
          6    1    1    2  502    0 -0.64893084010E+02  0.67745415496E+02  0.40828139947E+03  0.45285566666E+03  0.17200000000E+03 0. -1.
         -6    1    1    2    0  502  0.64893084010E+02 -0.67745415496E+02  0.85160304548E+02  0.21362778645E+03  0.17200000000E+03 0.  1.
</event>
<event>
 4    1 -0.6532506E-004  0.2511062E+03  0.7818608E-02  0.1112608E+00
         -5   -1    0    0    0  501 -0.00000000000E+00  0.00000000000E+00  0.16424873634E+03  0.16431596815E+03  0.47000000000E+01 0.  1.
          5   -1    0    0  501    0  0.00000000000E+00 -0.00000000000E+00 -0.53729813438E+03  0.53731869054E+03  0.47000000000E+01 0. -1.
          6    1    1    2  502    0 -0.14749350920E+03 -0.10824038801E+03 -0.37405849879E+03  0.45052644469E+03  0.17200000000E+03 0. -1.
         -6    1    1    2    0  502  0.14749350920E+03  0.10824038801E+03  0.10091007448E+01  0.25110821400E+03  0.17200000000E+03 0.  1.
</event>
<event>
 4    1 -0.6532506E-004  0.2447834E+03  0.7818608E-02  0.1116647E+00
         -5   -1    0    0    0  501 -0.00000000000E+00  0.00000000000E+00  0.37686221374E+03  0.37689152040E+03  0.47000000000E+01 0.  1.
          5   -1    0    0  501    0  0.00000000000E+00 -0.00000000000E+00 -0.15993828161E+03  0.16000732460E+03  0.47000000000E+01 0. -1.
          6    1    1    2  502    0  0.16594463193E+03 -0.52889653063E+02  0.12983279682E+03  0.27708390678E+03  0.17200000000E+03 0. -1.
         -6    1    1    2    0  502 -0.16594463193E+03  0.52889653063E+02  0.87091135316E+02  0.25981493821E+03  0.17200000000E+03 0. -1.
</event>
<event>
 4    1 -0.6532506E-004  0.1804444E+03  0.7818608E-02  0.1167374E+00
         -5   -1    0    0    0  501 -0.00000000000E+00  0.00000000000E+00  0.27156566275E+03  0.27160633127E+03  0.47000000000E+01 0.  1.
          5   -1    0    0  501    0  0.00000000000E+00 -0.00000000000E+00 -0.17372871866E+03  0.17379228316E+03  0.47000000000E+01 0. -1.
          6    1    1    2  502    0 -0.52380269586E+02  0.15247929345E+02  0.17295101755E+03  0.24994448676E+03  0.17200000000E+03 0.  1.
         -6    1    1    2    0  502  0.52380269586E+02 -0.15247929345E+02 -0.75114073460E+02  0.19545412767E+03  0.17200000000E+03 0.  1.
</event>
<event>
 4    1 -0.6532506E-004  0.1745877E+03  0.7818608E-02  0.1173146E+00
         -5   -1    0    0    0  501 -0.00000000000E+00  0.00000000000E+00  0.25753098548E+03  0.25757386996E+03  0.47000000000E+01 0.  1.
          5   -1    0    0  501    0  0.00000000000E+00 -0.00000000000E+00 -0.14645062507E+03  0.14652602357E+03  0.47000000000E+01 0. -1.
          6    1    1    2  502    0 -0.23766742852E+02  0.18220719159E+02 -0.33070848266E+02  0.17769224428E+03  0.17200000000E+03 0. -1.
         -6    1    1    2    0  502  0.23766742852E+02 -0.18220719159E+02  0.14415120868E+03  0.22640764924E+03  0.17200000000E+03 0.  1.
</event>
<event>
 4    1 -0.6532506E-004  0.2112725E+03  0.7818608E-02  0.1140562E+00
         -5   -1    0    0    0  501 -0.00000000000E+00  0.00000000000E+00  0.37676933143E+02  0.37968951672E+02  0.47000000000E+01 0.  1.
          5   -1    0    0  501    0  0.00000000000E+00 -0.00000000000E+00 -0.11822940894E+04  0.11823034314E+04  0.47000000000E+01 0. -1.
          6    1    1    2  502    0  0.14833383172E+02 -0.12178691281E+03 -0.54449019842E+03  0.58404251349E+03  0.17200000000E+03 0. -1.
         -6    1    1    2    0  502 -0.14833383172E+02  0.12178691281E+03 -0.60012695786E+03  0.63622986958E+03  0.17200000000E+03 0.  1.
</event>
<event>
 4    1 -0.6532506E-004  0.2061409E+03  0.7818608E-02  0.1144659E+00
          5   -1    0    0  501    0  0.00000000000E+00  0.00000000000E+00  0.86580848141E+02  0.86708322927E+02  0.47000000000E+01 0. -1.
         -5   -1    0    0    0  501 -0.00000000000E+00 -0.00000000000E+00 -0.62308950846E+03  0.62310723439E+03  0.47000000000E+01 0.  1.
          6    1    1    2  502    0 -0.10789506683E+03 -0.35619295822E+02 -0.43207422060E+03  0.47872978995E+03  0.17200000000E+03 0.  1.
         -6    1    1    2    0  502  0.10789506683E+03  0.35619295822E+02 -0.10443443971E+03  0.23108576736E+03  0.17200000000E+03 0. -1.
</event>
<event>
 4    1 -0.6532506E-004  0.1795706E+03  0.7818608E-02  0.1168219E+00
         -5   -1    0    0    0  501 -0.00000000000E+00  0.00000000000E+00  0.19196932712E+03  0.19202685373E+03  0.47000000000E+01 0.  1.
          5   -1    0    0  501    0  0.00000000000E+00 -0.00000000000E+00 -0.17931844886E+03  0.17938003261E+03  0.47000000000E+01 0. -1.
          6    1    1    2  502    0  0.42279453003E+02 -0.29564585109E+02  0.53258331707E+02  0.18730207349E+03  0.17200000000E+03 0. -1.
         -6    1    1    2    0  502 -0.42279453003E+02  0.29564585109E+02 -0.40607453447E+02  0.18410481285E+03  0.17200000000E+03 0. -1.
</event>
<event>
 4    1 -0.6532506E-004  0.2335383E+03  0.7818608E-02  0.1124174E+00
          5   -1    0    0  501    0  0.00000000000E+00  0.00000000000E+00  0.12098461149E+03  0.12107586967E+03  0.47000000000E+01 0. -1.
         -5   -1    0    0    0  501 -0.00000000000E+00 -0.00000000000E+00 -0.52512696578E+03  0.52514799837E+03  0.47000000000E+01 0.  1.
          6    1    1    2  502    0  0.15760336583E+03  0.10830867879E+02 -0.32384052752E+03  0.39926534521E+03  0.17200000000E+03 0.  1.
         -6    1    1    2    0  502 -0.15760336583E+03 -0.10830867879E+02 -0.80301826769E+02  0.24695852284E+03  0.17200000000E+03 0. -1.
</event>
<event>
 4    1 -0.6532506E-004  0.2009695E+03  0.7818608E-02  0.1148924E+00
          5   -1    0    0  501    0  0.00000000000E+00  0.00000000000E+00  0.43715710035E+03  0.43718236514E+03  0.47000000000E+01 0. -1.
         -5   -1    0    0    0  501 -0.00000000000E+00 -0.00000000000E+00 -0.97830581322E+02  0.97943415510E+02  0.47000000000E+01 0.  1.
          6    1    1    2  502    0 -0.32539531266E+02 -0.98721438243E+02  0.23322400341E+03  0.30786714542E+03  0.17200000000E+03 0. -1.
         -6    1    1    2    0  502  0.32539531266E+02  0.98721438243E+02  0.10610251562E+03  0.22725863522E+03  0.17200000000E+03 0. -1.
</event>
<event>
 4    1 -0.6532506E-004  0.2407641E+03  0.7818608E-02  0.1119285E+00
         -5   -1    0    0    0  501 -0.00000000000E+00  0.00000000000E+00  0.13559852913E+03  0.13567995836E+03  0.47000000000E+01 0.  1.
          5   -1    0    0  501    0  0.00000000000E+00 -0.00000000000E+00 -0.60856263366E+03  0.60858078272E+03  0.47000000000E+01 0. -1.
          6    1    1    2  502    0  0.16423090295E+03  0.37570902081E+02 -0.43957544297E+03  0.50119251015E+03  0.17200000000E+03 0. -1.
         -6    1    1    2    0  502 -0.16423090295E+03 -0.37570902081E+02 -0.33388661567E+02  0.24306823093E+03  0.17200000000E+03 0.  1.
</event>
<event>
 4    1 -0.6532506E-004  0.2090889E+03  0.7818608E-02  0.1142289E+00
          5   -1    0    0  501    0  0.00000000000E+00  0.00000000000E+00  0.19170320421E+02  0.19738064369E+02  0.47000000000E+01 0. -1.
         -5   -1    0    0    0  501 -0.00000000000E+00 -0.00000000000E+00 -0.22468012046E+04  0.22468061205E+04  0.47000000000E+01 0.  1.
          6    1    1    2  502    0  0.88921063542E+02  0.78912793019E+02 -0.11050560302E+04  0.11246630671E+04  0.17200000000E+03 0. -1.
         -6    1    1    2    0  502 -0.88921063542E+02 -0.78912793019E+02 -0.11225748539E+04  0.11418811178E+04  0.17200000000E+03 0.  1.
</event>
<event>
 4    1 -0.6532506E-004  0.1918106E+03  0.7818608E-02  0.1156838E+00
          5   -1    0    0  501    0  0.00000000000E+00  0.00000000000E+00  0.50297035943E+02  0.50516154096E+02  0.47000000000E+01 0. -1.
         -5   -1    0    0    0  501 -0.00000000000E+00 -0.00000000000E+00 -0.91404017474E+03  0.91405225838E+03  0.47000000000E+01 0.  1.
          6    1    1    2  502    0 -0.84833191655E+02 -0.32612995132E+01 -0.64845113369E+03  0.67622494723E+03  0.17200000000E+03 0.  1.
         -6    1    1    2    0  502  0.84833191655E+02  0.32612995132E+01 -0.21529200512E+03  0.28834346524E+03  0.17200000000E+03 0. -1.
</event>
<event>
 4    1 -0.6532506E-004  0.2351381E+03  0.7818608E-02  0.1123075E+00
          5   -1    0    0  501    0  0.00000000000E+00  0.00000000000E+00  0.30660880600E+02  0.31019019959E+02  0.47000000000E+01 0. -1.
         -5   -1    0    0    0  501 -0.00000000000E+00 -0.00000000000E+00 -0.18150444652E+04  0.18150505504E+04  0.47000000000E+01 0.  1.
          6    1    1    2  502    0 -0.12405721958E+02  0.15984993221E+03 -0.78919411343E+03  0.82347874984E+03  0.17200000000E+03 0. -1.
         -6    1    1    2    0  502  0.12405721958E+02 -0.15984993221E+03 -0.99518947113E+03  0.10225908205E+04  0.17200000000E+03 0.  1.
</event>
<event>
 4    1 -0.6532506E-004  0.1882813E+03  0.7818608E-02  0.1160021E+00
         -5   -1    0    0    0  501 -0.00000000000E+00  0.00000000000E+00  0.59897158322E+03  0.59899002287E+03  0.47000000000E+01 0.  1.
          5   -1    0    0  501    0  0.00000000000E+00 -0.00000000000E+00 -0.72655797532E+02  0.72807656980E+02  0.47000000000E+01 0. -1.
          6    1    1    2  502    0  0.35432986160E+02 -0.67899669021E+02  0.11810515402E+03  0.22225815838E+03  0.17200000000E+03 0. -1.
         -6    1    1    2    0  502 -0.35432986160E+02  0.67899669021E+02  0.40821063166E+03  0.44953952147E+03  0.17200000000E+03 0.  1.
</event>
<event>
 4    1 -0.6532506E-004  0.2176210E+03  0.7818608E-02  0.1135669E+00
          5   -1    0    0  501    0  0.00000000000E+00  0.00000000000E+00  0.70016225898E+03  0.70017803372E+03  0.47000000000E+01 0. -1.
         -5   -1    0    0    0  501 -0.00000000000E+00 -0.00000000000E+00 -0.70673224270E+02  0.70829334521E+02  0.47000000000E+01 0.  1.
          6    1    1    2  502    0 -0.64054400276E+02 -0.11692708583E+03  0.39579211418E+03  0.45167500179E+03  0.17200000000E+03 0.  1.
         -6    1    1    2    0  502  0.64054400276E+02  0.11692708583E+03  0.23369692053E+03  0.31933236644E+03  0.17200000000E+03 0.  1.
</event>
<event>
 4    1 -0.6532506E-004  0.3137571E+03  0.7818608E-02  0.1078559E+00
         -5   -1    0    0    0  501 -0.00000000000E+00  0.00000000000E+00  0.52828552074E+03  0.52830642758E+03  0.47000000000E+01 0.  1.
          5   -1    0    0  501    0  0.00000000000E+00 -0.00000000000E+00 -0.18980197058E+03  0.18986015389E+03  0.47000000000E+01 0. -1.
          6    1    1    2  502    0 -0.23727573128E+03  0.11207037825E+03  0.21806889563E+03  0.38209630406E+03  0.17200000000E+03 0. -1.
         -6    1    1    2    0  502  0.23727573128E+03 -0.11207037825E+03  0.12041465453E+03  0.33607027741E+03  0.17200000000E+03 0.  1.
</event>
<event>
 4    1 -0.6532506E-004  0.3068626E+03  0.7818608E-02  0.1081860E+00
         -5   -1    0    0    0  501 -0.00000000000E+00  0.00000000000E+00  0.29964894995E+03  0.29968580748E+03  0.47000000000E+01 0.  1.
          5   -1    0    0  501    0  0.00000000000E+00 -0.00000000000E+00 -0.33924363479E+03  0.33927619095E+03  0.47000000000E+01 0. -1.
          6    1    1    2  502    0  0.27767311885E+02 -0.25260563145E+03 -0.10663339751E+03  0.32486198626E+03  0.17200000000E+03 0. -1.
         -6    1    1    2    0  502 -0.27767311885E+02  0.25260563145E+03  0.67038712673E+02  0.31410001217E+03  0.17200000000E+03 0.  1.
</event>
<event>
 4    1 -0.6532506E-004  0.1881018E+03  0.7818608E-02  0.1160185E+00
          5   -1    0    0  501    0  0.00000000000E+00  0.00000000000E+00  0.46891776694E+03  0.46894132059E+03  0.47000000000E+01 0. -1.
         -5   -1    0    0    0  501 -0.00000000000E+00 -0.00000000000E+00 -0.95701733208E+02  0.95817074361E+02  0.47000000000E+01 0.  1.
          6    1    1    2  502    0 -0.66557633264E+02 -0.36991470453E+02  0.31670088445E+03  0.36835002056E+03  0.17200000000E+03 0. -1.
         -6    1    1    2    0  502  0.66557633264E+02  0.36991470453E+02  0.56515149279E+02  0.19640837439E+03  0.17200000000E+03 0.  1.
</event>
<event>
 4    1 -0.6532506E-004  0.1856832E+03  0.7818608E-02  0.1162413E+00
          5   -1    0    0  501    0  0.00000000000E+00  0.00000000000E+00  0.20866132959E+03  0.20871425554E+03  0.47000000000E+01 0. -1.
         -5   -1    0    0    0  501 -0.00000000000E+00 -0.00000000000E+00 -0.23011125681E+03  0.23015925033E+03  0.47000000000E+01 0.  1.
          6    1    1    2  502    0 -0.54948847606E+02  0.43300008202E+02  0.10585833015E+03  0.21373874854E+03  0.17200000000E+03 0. -1.
         -6    1    1    2    0  502  0.54948847606E+02 -0.43300008202E+02 -0.12730825737E+03  0.22513475733E+03  0.17200000000E+03 0.  1.
</event>
<event>
 4    1 -0.6532506E-004  0.2232542E+03  0.7818608E-02  0.1131480E+00
          5   -1    0    0  501    0  0.00000000000E+00  0.00000000000E+00  0.15880016555E+03  0.15886970315E+03  0.47000000000E+01 0. -1.
         -5   -1    0    0    0  501 -0.00000000000E+00 -0.00000000000E+00 -0.51384868094E+03  0.51387017515E+03  0.47000000000E+01 0.  1.
          6    1    1    2  502    0 -0.98194613802E+02  0.10303514987E+03  0.32379617344E+02  0.22559003504E+03  0.17200000000E+03 0. -1.
         -6    1    1    2    0  502  0.98194613802E+02 -0.10303514987E+03 -0.38742813274E+03  0.44714984326E+03  0.17200000000E+03 0.  1.
</event>
<event>
 4    1 -0.6532506E-004  0.4137957E+03  0.7818608E-02  0.1039105E+00
         -5   -1    0    0    0  501 -0.00000000000E+00  0.00000000000E+00  0.99805278799E+03  0.99806385448E+03  0.47000000000E+01 0.  1.
          5   -1    0    0  501    0  0.00000000000E+00 -0.00000000000E+00 -0.19422034902E+03  0.19427720909E+03  0.47000000000E+01 0. -1.
          6    1    1    2  502    0  0.21358221649E+03  0.30987984617E+03  0.19812265280E+03  0.45878041350E+03  0.17200000000E+03 0. -1.
         -6    1    1    2    0  502 -0.21358221649E+03 -0.30987984617E+03  0.60570978617E+03  0.73356065007E+03  0.17200000000E+03 0. -1.
</event>
<event>
 4    1 -0.6532506E-004  0.2106142E+03  0.7818608E-02  0.1141081E+00
          5   -1    0    0  501    0  0.00000000000E+00  0.00000000000E+00  0.17481587043E+03  0.17487903978E+03  0.47000000000E+01 0. -1.
         -5   -1    0    0    0  501 -0.00000000000E+00 -0.00000000000E+00 -0.38379122439E+03  0.38382000198E+03  0.47000000000E+01 0.  1.
          6    1    1    2  502    0  0.11132709553E+03  0.48791556892E+02  0.58184903939E+02  0.21850359555E+03  0.17200000000E+03 0.  1.
         -6    1    1    2    0  502 -0.11132709553E+03 -0.48791556892E+02 -0.26716025789E+03  0.34019544621E+03  0.17200000000E+03 0.  1.
</event>
<event>
 4    1 -0.6532506E-004  0.1801426E+03  0.7818608E-02  0.1167665E+00
          5   -1    0    0  501    0  0.00000000000E+00  0.00000000000E+00  0.25919058163E+03  0.25923319155E+03  0.47000000000E+01 0. -1.
         -5   -1    0    0    0  501 -0.00000000000E+00 -0.00000000000E+00 -0.12610100818E+03  0.12618856630E+03  0.47000000000E+01 0.  1.
          6    1    1    2  502    0 -0.48852552863E+02  0.21926827051E+02  0.83657165506E+02  0.19861993607E+03  0.17200000000E+03 0.  1.
         -6    1    1    2    0  502  0.48852552863E+02 -0.21926827051E+02  0.49432407937E+02  0.18680182178E+03  0.17200000000E+03 0. -1.
</event>
<event>
 4    1 -0.6532506E-004  0.2012167E+03  0.7818608E-02  0.1148716E+00
          5   -1    0    0  501    0  0.00000000000E+00  0.00000000000E+00  0.16282530358E+03  0.16289312290E+03  0.47000000000E+01 0. -1.
         -5   -1    0    0    0  501 -0.00000000000E+00 -0.00000000000E+00 -0.33080307014E+03  0.33083645690E+03  0.47000000000E+01 0.  1.
          6    1    1    2  502    0 -0.91930632381E+02  0.49527081731E+02 -0.20709052199E+03  0.28874670092E+03  0.17200000000E+03 0. -1.
         -6    1    1    2    0  502  0.91930632381E+02 -0.49527081731E+02  0.39112755433E+02  0.20498287888E+03  0.17200000000E+03 0.  1.
</event>
<event>
 4    1 -0.6532506E-004  0.2853062E+03  0.7818608E-02  0.1092826E+00
          5   -1    0    0  501    0  0.00000000000E+00  0.00000000000E+00  0.56743058164E+03  0.56745004624E+03  0.47000000000E+01 0. -1.
         -5   -1    0    0    0  501 -0.00000000000E+00 -0.00000000000E+00 -0.16409420538E+03  0.16416150048E+03  0.47000000000E+01 0.  1.
          6    1    1    2  502    0  0.20924081361E+03  0.89631981716E+02  0.33156102507E+03  0.43741550449E+03  0.17200000000E+03 0. -1.
         -6    1    1    2    0  502 -0.20924081361E+03 -0.89631981716E+02  0.71775351191E+02  0.29419604223E+03  0.17200000000E+03 0. -1.
</event>
<event>
 4    1 -0.6532506E-004  0.1861199E+03  0.7818608E-02  0.1162008E+00
          5   -1    0    0  501    0  0.00000000000E+00  0.00000000000E+00  0.67879549933E+02  0.68042070068E+02  0.47000000000E+01 0. -1.
         -5   -1    0    0    0  501 -0.00000000000E+00 -0.00000000000E+00 -0.62275562828E+03  0.62277336371E+03  0.47000000000E+01 0.  1.
          6    1    1    2  502    0 -0.83496558778E+01  0.70617984853E+02 -0.13018627235E+03  0.22713230075E+03  0.17200000000E+03 0. -1.
         -6    1    1    2    0  502  0.83496558778E+01 -0.70617984853E+02 -0.42468980599E+03  0.46368313303E+03  0.17200000000E+03 0.  1.
</event>
<event>
 4    1 -0.6532506E-004  0.1751891E+03  0.7818608E-02  0.1172542E+00
         -5   -1    0    0    0  501 -0.00000000000E+00  0.00000000000E+00  0.81234601077E+03  0.81235960708E+03  0.47000000000E+01 0.  1.
          5   -1    0    0  501    0  0.00000000000E+00 -0.00000000000E+00 -0.47375378603E+02  0.47607945742E+02  0.47000000000E+01 0. -1.
          6    1    1    2  502    0 -0.26008333500E+02  0.20755360867E+02  0.18794157097E+03  0.25693044295E+03  0.17200000000E+03 0. -1.
         -6    1    1    2    0  502  0.26008333500E+02 -0.20755360867E+02  0.57702906120E+03  0.60303710987E+03  0.17200000000E+03 0.  1.
</event>
<event>
 4    1 -0.6532506E-004  0.1825791E+03  0.7818608E-02  0.1165330E+00
          5   -1    0    0  501    0  0.00000000000E+00  0.00000000000E+00  0.32815526196E+03  0.32818891808E+03  0.47000000000E+01 0. -1.
         -5   -1    0    0    0  501 -0.00000000000E+00 -0.00000000000E+00 -0.13418188471E+03  0.13426417312E+03  0.47000000000E+01 0.  1.
          6    1    1    2  502    0 -0.63766030870E+01 -0.60913510198E+02 -0.17091067595E+02  0.18337726518E+03  0.17200000000E+03 0.  1.
         -6    1    1    2    0  502  0.63766030870E+01  0.60913510198E+02  0.21106444485E+03  0.27907582602E+03  0.17200000000E+03 0. -1.
</event>
<event>
 4    1 -0.6532506E-004  0.3253095E+03  0.7818608E-02  0.1073231E+00
         -5   -1    0    0    0  501 -0.00000000000E+00  0.00000000000E+00  0.89730253133E+03  0.89731484036E+03  0.47000000000E+01 0.  1.
          5   -1    0    0  501    0  0.00000000000E+00 -0.00000000000E+00 -0.15005960403E+03  0.15013319007E+03  0.47000000000E+01 0. -1.
          6    1    1    2  502    0  0.27312232525E+03  0.40576349220E+02  0.13116489111E+03  0.35075700039E+03  0.17200000000E+03 0. -1.
         -6    1    1    2    0  502 -0.27312232525E+03 -0.40576349220E+02  0.61607803619E+03  0.69669103004E+03  0.17200000000E+03 0.  1.
</event>
<event>
 4    1 -0.6532506E-004  0.1847019E+03  0.7818608E-02  0.1163329E+00
         -5   -1    0    0    0  501 -0.00000000000E+00  0.00000000000E+00  0.36997630970E+03  0.37000616176E+03  0.47000000000E+01 0.  1.
          5   -1    0    0  501    0  0.00000000000E+00 -0.00000000000E+00 -0.99823071326E+02  0.99933655837E+02  0.47000000000E+01 0. -1.
          6    1    1    2  502    0  0.63625767312E+02  0.21967055254E+02  0.69828658903E+02  0.19746096168E+03  0.17200000000E+03 0. -1.
         -6    1    1    2    0  502 -0.63625767312E+02 -0.21967055254E+02  0.20032457947E+03  0.27247885592E+03  0.17200000000E+03 0.  1.
</event>
<event>
 4    1 -0.6532506E-004  0.1768832E+03  0.7818608E-02  0.1170854E+00
         -5   -1    0    0    0  501 -0.00000000000E+00  0.00000000000E+00  0.97510184092E+02  0.97623388600E+02  0.47000000000E+01 0.  1.
          5   -1    0    0  501    0  0.00000000000E+00 -0.00000000000E+00 -0.34778686836E+03  0.34781862486E+03  0.47000000000E+01 0. -1.
          6    1    1    2  502    0 -0.38163343288E+02  0.15723175100E+02 -0.18745441754E+03  0.25773400563E+03  0.17200000000E+03 0.  1.
         -6    1    1    2    0  502  0.38163343288E+02 -0.15723175100E+02 -0.62822266729E+02  0.18770800783E+03  0.17200000000E+03 0.  1.
</event>
<event>
 4    1 -0.6532506E-004  0.2122869E+03  0.7818608E-02  0.1139768E+00
          5   -1    0    0  501    0  0.00000000000E+00  0.00000000000E+00  0.11154814567E+03  0.11164711730E+03  0.47000000000E+01 0. -1.
         -5   -1    0    0    0  501 -0.00000000000E+00 -0.00000000000E+00 -0.56024525815E+03  0.56026497239E+03  0.47000000000E+01 0.  1.
          6    1    1    2  502    0  0.11625515422E+03 -0.44345031545E+02 -0.46786223612E+02  0.21738144683E+03  0.17200000000E+03 0. -1.
         -6    1    1    2    0  502 -0.11625515422E+03  0.44345031545E+02 -0.40191088887E+03  0.45453064286E+03  0.17200000000E+03 0.  1.
</event>
<event>
 4    1 -0.6532506E-004  0.1745239E+03  0.7818608E-02  0.1173211E+00
         -5   -1    0    0    0  501 -0.00000000000E+00  0.00000000000E+00  0.23809919270E+02  0.24269368670E+02  0.47000000000E+01 0.  1.
          5   -1    0    0  501    0  0.00000000000E+00 -0.00000000000E+00 -0.12688712116E+04  0.12688799162E+04  0.47000000000E+01 0. -1.
          6    1    1    2  502    0  0.80416903341E+01 -0.28458859574E+02 -0.65017677266E+03  0.67319269989E+03  0.17200000000E+03 0. -1.
         -6    1    1    2    0  502 -0.80416903341E+01  0.28458859574E+02 -0.59488451967E+03  0.61995658495E+03  0.17200000000E+03 0.  1.
</event>
<event>
 4    1 -0.6532506E-004  0.2045187E+03  0.7818608E-02  0.1145982E+00
         -5   -1    0    0    0  501 -0.00000000000E+00  0.00000000000E+00  0.32802224365E+02  0.33137228660E+02  0.47000000000E+01 0.  1.
          5   -1    0    0  501    0  0.00000000000E+00 -0.00000000000E+00 -0.15332998064E+04  0.15333070098E+04  0.47000000000E+01 0. -1.
          6    1    1    2  502    0 -0.10818369883E+03 -0.23242331958E+02 -0.10757968846E+04  0.10950647724E+04  0.17200000000E+03 0. -1.
         -6    1    1    2    0  502  0.10818369883E+03  0.23242331958E+02 -0.42470069742E+03  0.47137946612E+03  0.17200000000E+03 0.  1.
</event>
<event>
 4    1 -0.6532506E-004  0.1753989E+03  0.7818608E-02  0.1172332E+00
          5   -1    0    0  501    0  0.00000000000E+00  0.00000000000E+00  0.23563164568E+03  0.23567851503E+03  0.47000000000E+01 0. -1.
         -5   -1    0    0    0  501 -0.00000000000E+00 -0.00000000000E+00 -0.16787701160E+03  0.16794279092E+03  0.47000000000E+01 0.  1.
          6    1    1    2  502    0 -0.15092169935E+02 -0.30870597983E+02  0.12911756879E+03  0.21779833329E+03  0.17200000000E+03 0. -1.
         -6    1    1    2    0  502  0.15092169935E+02  0.30870597983E+02 -0.61362934707E+02  0.18582297266E+03  0.17200000000E+03 0.  1.
</event>
<event>
 4    1 -0.6532506E-004  0.1811622E+03  0.7818608E-02  0.1166683E+00
         -5   -1    0    0    0  501 -0.00000000000E+00  0.00000000000E+00  0.40326048058E+03  0.40328786889E+03  0.47000000000E+01 0.  1.
          5   -1    0    0  501    0  0.00000000000E+00 -0.00000000000E+00 -0.89818820140E+02  0.89941705851E+02  0.47000000000E+01 0. -1.
          6    1    1    2  502    0  0.38718282829E+02 -0.41672921554E+02  0.80783667045E+02  0.19835760302E+03  0.17200000000E+03 0. -1.
         -6    1    1    2    0  502 -0.38718282829E+02  0.41672921554E+02  0.23265799339E+03  0.29487197172E+03  0.17200000000E+03 0.  1.
</event>
<event>
 4    1 -0.6532506E-004  0.1844452E+03  0.7818608E-02  0.1163569E+00
         -5   -1    0    0    0  501 -0.00000000000E+00  0.00000000000E+00  0.54075841033E+03  0.54077883496E+03  0.47000000000E+01 0.  1.
          5   -1    0    0  501    0  0.00000000000E+00 -0.00000000000E+00 -0.66014142488E+02  0.66181243630E+02  0.47000000000E+01 0. -1.
          6    1    1    2  502    0 -0.66595255607E+02  0.10526121853E+01  0.17052853308E+03  0.25119716690E+03  0.17200000000E+03 0. -1.
         -6    1    1    2    0  502  0.66595255607E+02 -0.10526121853E+01  0.30421573476E+03  0.35576291169E+03  0.17200000000E+03 0.  1.
</event>
<event>
 4    1 -0.6532506E-004  0.3247654E+03  0.7818608E-02  0.1073477E+00
          5   -1    0    0  501    0  0.00000000000E+00  0.00000000000E+00  0.63303891930E+03  0.63305636665E+03  0.47000000000E+01 0. -1.
         -5   -1    0    0    0  501 -0.00000000000E+00 -0.00000000000E+00 -0.17696815523E+03  0.17703055659E+03  0.47000000000E+01 0.  1.
          6    1    1    2  502    0 -0.75615275005E+02 -0.26489789801E+03  0.32624106759E+03  0.46033227169E+03  0.17200000000E+03 0. -1.
         -6    1    1    2    0  502  0.75615275005E+02  0.26489789801E+03  0.12982969649E+03  0.34975465154E+03  0.17200000000E+03 0.  1.
</event>
<event>
 4    1 -0.6532506E-004  0.2082264E+03  0.7818608E-02  0.1142978E+00
          5   -1    0    0  501    0  0.00000000000E+00  0.00000000000E+00  0.18995936232E+03  0.19001749744E+03  0.47000000000E+01 0. -1.
         -5   -1    0    0    0  501 -0.00000000000E+00 -0.00000000000E+00 -0.22889992940E+03  0.22894817684E+03  0.47000000000E+01 0.  1.
          6    1    1    2  502    0  0.54006817927E+02 -0.10419934865E+03 -0.31594487770E+02  0.21060971559E+03  0.17200000000E+03 0. -1.
         -6    1    1    2    0  502 -0.54006817927E+02  0.10419934865E+03 -0.73460793097E+01  0.20835595869E+03  0.17200000000E+03 0.  1.
</event>
