<event>
 4    1 -0.7147820E-004  0.2212727E+03  0.7818608E-02  0.1132938E+00
          5   -1    0    0  501    0  0.00000000000E+00  0.00000000000E+00  0.13251037004E+04  0.13251120356E+04  0.47000000000E+01 0. -1.
         -5   -1    0    0    0  501 -0.00000000000E+00 -0.00000000000E+00 -0.10331113351E+03  0.10341798832E+03  0.47000000000E+01 0.  1.
          6    1    1    2  502    0 -0.49080225202E+02  0.13026406146E+03  0.11834519999E+04  0.12039602279E+04  0.17200000000E+03 0. -1.
         -6    1    1    2    0  502  0.49080225202E+02 -0.13026406146E+03  0.38340567000E+02  0.22456979603E+03  0.17200000000E+03 0.  1.
</event>
<event>
 4    1 -0.7147820E-004  0.1936683E+03  0.7818608E-02  0.1155194E+00
          5   -1    0    0  501    0  0.00000000000E+00  0.00000000000E+00  0.24282263583E+03  0.24286811745E+03  0.47000000000E+01 0. -1.
         -5   -1    0    0    0  501 -0.00000000000E+00 -0.00000000000E+00 -0.21004166479E+03  0.21009424302E+03  0.47000000000E+01 0.  1.
          6    1    1    2  502    0  0.72854067369E+02  0.51143843526E+02  0.13296166510E+03  0.23491745838E+03  0.17200000000E+03 0. -1.
         -6    1    1    2    0  502 -0.72854067369E+02 -0.51143843526E+02 -0.10018069406E+03  0.21804490209E+03  0.17200000000E+03 0.  1.
</event>
<event>
 4    1 -0.7147820E-004  0.1869794E+03  0.7818608E-02  0.1161214E+00
          5   -1    0    0  501    0  0.00000000000E+00  0.00000000000E+00  0.22322932887E+03  0.22327880166E+03  0.47000000000E+01 0. -1.
         -5   -1    0    0    0  501 -0.00000000000E+00 -0.00000000000E+00 -0.34032411941E+03  0.34035657222E+03  0.47000000000E+01 0.  1.
          6    1    1    2  502    0 -0.35117071988E+01 -0.73246030839E+02  0.14853450341E+03  0.23879659090E+03  0.17200000000E+03 0. -1.
         -6    1    1    2    0  502  0.35117071988E+01  0.73246030839E+02 -0.26562929395E+03  0.32483878297E+03  0.17200000000E+03 0.  1.
</event>
<event>
 4    1 -0.7147820E-004  0.1880739E+03  0.7818608E-02  0.1160210E+00
          5   -1    0    0  501    0  0.00000000000E+00  0.00000000000E+00  0.30613200834E+03  0.30616808542E+03  0.47000000000E+01 0. -1.
         -5   -1    0    0    0  501 -0.00000000000E+00 -0.00000000000E+00 -0.14484227037E+03  0.14491850567E+03  0.47000000000E+01 0.  1.
          6    1    1    2  502    0  0.63384275248E+02 -0.42074017800E+02  0.18219718682E+03  0.26185416592E+03  0.17200000000E+03 0. -1.
         -6    1    1    2    0  502 -0.63384275248E+02  0.42074017800E+02 -0.20907448849E+02  0.18923242518E+03  0.17200000000E+03 0.  1.
</event>
<event>
 4    1 -0.7147820E-004  0.1738114E+03  0.7818608E-02  0.1173930E+00
         -5   -1    0    0    0  501 -0.00000000000E+00  0.00000000000E+00  0.22047911416E+03  0.22052920392E+03  0.47000000000E+01 0.  1.
          5   -1    0    0  501    0  0.00000000000E+00 -0.00000000000E+00 -0.57565755351E+03  0.57567673995E+03  0.47000000000E+01 0. -1.
          6    1    1    2  502    0  0.21328532813E+02  0.13095870567E+02 -0.52510949558E+03  0.55312782472E+03  0.17200000000E+03 0. -1.
         -6    1    1    2    0  502 -0.21328532813E+02 -0.13095870567E+02  0.16993105623E+03  0.24307811915E+03  0.17200000000E+03 0.  1.
</event>
<event>
 4    1 -0.7147820E-004  0.2049099E+03  0.7818608E-02  0.1145661E+00
          5   -1    0    0  501    0  0.00000000000E+00  0.00000000000E+00  0.51486090709E+03  0.51488235904E+03  0.47000000000E+01 0. -1.
         -5   -1    0    0    0  501 -0.00000000000E+00 -0.00000000000E+00 -0.38959150628E+03  0.38961985545E+03  0.47000000000E+01 0.  1.
          6    1    1    2  502    0 -0.29998579158E+02  0.10725733416E+03  0.46478130522E+03  0.50794656428E+03  0.17200000000E+03 0. -1.
         -6    1    1    2    0  502  0.29998579158E+02 -0.10725733416E+03 -0.33951190441E+03  0.39655565021E+03  0.17200000000E+03 0.  1.
</event>
<event>
 4    1 -0.7147820E-004  0.1728530E+03  0.7818608E-02  0.1174905E+00
          5   -1    0    0  501    0  0.00000000000E+00  0.00000000000E+00  0.46557834159E+02  0.46794464647E+02  0.47000000000E+01 0. -1.
         -5   -1    0    0    0  501 -0.00000000000E+00 -0.00000000000E+00 -0.71645812262E+03  0.71647353857E+03  0.47000000000E+01 0.  1.
          6    1    1    2  502    0 -0.15745794811E+02  0.67988485496E+01 -0.21019645433E+03  0.27214096312E+03  0.17200000000E+03 0. -1.
         -6    1    1    2    0  502  0.15745794811E+02 -0.67988485496E+01 -0.45970383414E+03  0.49112704010E+03  0.17200000000E+03 0.  1.
</event>
<event>
 4    1 -0.7147820E-004  0.1820963E+03  0.7818608E-02  0.1165790E+00
          5   -1    0    0  501    0  0.00000000000E+00  0.00000000000E+00  0.50604800724E+02  0.50822591988E+02  0.47000000000E+01 0. -1.
         -5   -1    0    0    0  501 -0.00000000000E+00 -0.00000000000E+00 -0.12311991671E+04  0.12312081380E+04  0.47000000000E+01 0.  1.
          6    1    1    2  502    0 -0.56706810262E+02 -0.18957585543E+02 -0.15129299021E+03  0.23674590021E+03  0.17200000000E+03 0. -1.
         -6    1    1    2    0  502  0.56706810262E+02  0.18957585543E+02 -0.10293013761E+04  0.10452848297E+04  0.17200000000E+03 0.  1.
</event>
<event>
 4    1 -0.7147820E-004  0.1985208E+03  0.7818608E-02  0.1150993E+00
         -5   -1    0    0    0  501 -0.00000000000E+00  0.00000000000E+00  0.67422292359E+03  0.67423930522E+03  0.47000000000E+01 0.  1.
          5   -1    0    0  501    0  0.00000000000E+00 -0.00000000000E+00 -0.10828604719E+03  0.10838799757E+03  0.47000000000E+01 0. -1.
          6    1    1    2  502    0 -0.88804518075E+02  0.44048630523E+02  0.17411450728E+02  0.19928292174E+03  0.17200000000E+03 0. -1.
         -6    1    1    2    0  502  0.88804518075E+02 -0.44048630523E+02  0.54852542567E+03  0.58334438104E+03  0.17200000000E+03 0.  1.
</event>
<event>
 4    1 -0.7147820E-004  0.1870390E+03  0.7818608E-02  0.1161159E+00
          5   -1    0    0  501    0  0.00000000000E+00  0.00000000000E+00  0.24529310719E+03  0.24533813082E+03  0.47000000000E+01 0. -1.
         -5   -1    0    0    0  501 -0.00000000000E+00 -0.00000000000E+00 -0.43419423979E+03  0.43421967697E+03  0.47000000000E+01 0.  1.
          6    1    1    2  502    0  0.70685783335E+02  0.20077645585E+02  0.18400324299E+03  0.26237527561E+03  0.17200000000E+03 0. -1.
         -6    1    1    2    0  502 -0.70685783335E+02 -0.20077645585E+02 -0.37290437560E+03  0.41718253218E+03  0.17200000000E+03 0.  1.
</event>
<event>
 4    1 -0.7147820E-004  0.5495210E+03  0.7818608E-02  0.1001605E+00
          5   -1    0    0  501    0  0.00000000000E+00  0.00000000000E+00  0.14111001778E+04  0.14111080050E+04  0.47000000000E+01 0. -1.
         -5   -1    0    0    0  501 -0.00000000000E+00 -0.00000000000E+00 -0.34795572053E+03  0.34798746163E+03  0.47000000000E+01 0.  1.
          6    1    1    2  502    0 -0.43210429695E+03 -0.29270318997E+03  0.10773365218E+04  0.12093912775E+04  0.17200000000E+03 0. -1.
         -6    1    1    2    0  502  0.43210429695E+03  0.29270318997E+03 -0.14192064533E+02  0.54970418914E+03  0.17200000000E+03 0.  1.
</event>
<event>
 4    1 -0.7147820E-004  0.2001964E+03  0.7818608E-02  0.1149573E+00
          5   -1    0    0  501    0  0.00000000000E+00  0.00000000000E+00  0.11584961261E+04  0.11585056599E+04  0.47000000000E+01 0. -1.
         -5   -1    0    0    0  501 -0.00000000000E+00 -0.00000000000E+00 -0.89240173525E+02  0.89363854945E+02  0.47000000000E+01 0.  1.
          6    1    1    2  502    0  0.44569100384E+02 -0.92239898309E+02  0.10229921633E+04  0.10423970307E+04  0.17200000000E+03 0. -1.
         -6    1    1    2    0  502 -0.44569100384E+02  0.92239898309E+02  0.46263789271E+02  0.20547248416E+03  0.17200000000E+03 0.  1.
</event>
<event>
 4    1 -0.7147820E-004  0.3520622E+03  0.7818608E-02  0.1061772E+00
         -5   -1    0    0    0  501 -0.00000000000E+00  0.00000000000E+00  0.36621315952E+03  0.36624331830E+03  0.47000000000E+01 0.  1.
          5   -1    0    0  501    0  0.00000000000E+00 -0.00000000000E+00 -0.96737887639E+03  0.96739029377E+03  0.47000000000E+01 0. -1.
          6    1    1    2  502    0  0.18831721789E+03 -0.24269402948E+03 -0.83825234830E+03  0.90918357108E+03  0.17200000000E+03 0. -1.
         -6    1    1    2    0  502 -0.18831721789E+03  0.24269402948E+03  0.23708663143E+03  0.42445004099E+03  0.17200000000E+03 0.  1.
</event>
<event>
 4    1 -0.7147820E-004  0.1827115E+03  0.7818608E-02  0.1165204E+00
          5   -1    0    0  501    0  0.00000000000E+00  0.00000000000E+00  0.70991426145E+03  0.70992981950E+03  0.47000000000E+01 0. -1.
         -5   -1    0    0    0  501 -0.00000000000E+00 -0.00000000000E+00 -0.78826895517E+02  0.78966888358E+02  0.47000000000E+01 0.  1.
          6    1    1    2  502    0 -0.61628742264E+02 -0.11792695120E+01  0.56628907211E+03  0.59503512984E+03  0.17200000000E+03 0. -1.
         -6    1    1    2    0  502  0.61628742264E+02  0.11792695120E+01  0.64798293827E+02  0.19386157802E+03  0.17200000000E+03 0.  1.
</event>
<event>
 4    1 -0.7147820E-004  0.2003113E+03  0.7818608E-02  0.1149477E+00
         -5   -1    0    0    0  501 -0.00000000000E+00  0.00000000000E+00  0.12103323773E+03  0.12112445928E+03  0.47000000000E+01 0.  1.
          5   -1    0    0  501    0  0.00000000000E+00 -0.00000000000E+00 -0.39849011566E+03  0.39851783182E+03  0.47000000000E+01 0. -1.
          6    1    1    2  502    0 -0.82357392462E+02  0.61301608233E+02 -0.24541302858E+03  0.31678412501E+03  0.17200000000E+03 0. -1.
         -6    1    1    2    0  502  0.82357392462E+02 -0.61301608233E+02 -0.32043849347E+02  0.20285816608E+03  0.17200000000E+03 0.  1.
</event>
<event>
 4    1 -0.7147820E-004  0.2152734E+03  0.7818608E-02  0.1137457E+00
         -5   -1    0    0    0  501 -0.00000000000E+00  0.00000000000E+00  0.62554273940E+03  0.62556039582E+03  0.47000000000E+01 0.  1.
          5   -1    0    0  501    0  0.00000000000E+00 -0.00000000000E+00 -0.11801966330E+03  0.11811321232E+03  0.47000000000E+01 0. -1.
          6    1    1    2  502    0  0.11581150170E+03  0.57847417711E+02  0.26780659014E+02  0.21693278074E+03  0.17200000000E+03 0. -1.
         -6    1    1    2    0  502 -0.11581150170E+03 -0.57847417711E+02  0.48074241709E+03  0.52674082740E+03  0.17200000000E+03 0.  1.
</event>
<event>
 4    1 -0.7147820E-004  0.1811185E+03  0.7818608E-02  0.1166725E+00
          5   -1    0    0  501    0  0.00000000000E+00  0.00000000000E+00  0.26041062447E+03  0.26045303480E+03  0.47000000000E+01 0. -1.
         -5   -1    0    0    0  501 -0.00000000000E+00 -0.00000000000E+00 -0.26914364728E+03  0.26918468171E+03  0.47000000000E+01 0.  1.
          6    1    1    2  502    0  0.22715691605E+02 -0.51999008432E+02  0.18880752188E+03  0.26163367490E+03  0.17200000000E+03 0. -1.
         -6    1    1    2    0  502 -0.22715691605E+02  0.51999008432E+02 -0.19754054469E+03  0.26800404161E+03  0.17200000000E+03 0.  1.
</event>
<event>
 4    1 -0.7147820E-004  0.3674256E+03  0.7818608E-02  0.1055682E+00
          5   -1    0    0  501    0  0.00000000000E+00  0.00000000000E+00  0.63726661742E+03  0.63728394902E+03  0.47000000000E+01 0. -1.
         -5   -1    0    0    0  501 -0.00000000000E+00 -0.00000000000E+00 -0.36245942283E+03  0.36248989393E+03  0.47000000000E+01 0.  1.
          6    1    1    2  502    0 -0.30467705125E+03 -0.11220271583E+03  0.45966432420E+03  0.58846652066E+03  0.17200000000E+03 0. -1.
         -6    1    1    2    0  502  0.30467705125E+03  0.11220271583E+03 -0.18485712961E+03  0.41130732229E+03  0.17200000000E+03 0.  1.
</event>
<event>
 4    1 -0.7147820E-004  0.1813872E+03  0.7818608E-02  0.1166467E+00
          5   -1    0    0  501    0  0.00000000000E+00  0.00000000000E+00  0.13605540442E+03  0.13613656038E+03  0.47000000000E+01 0. -1.
         -5   -1    0    0    0  501 -0.00000000000E+00 -0.00000000000E+00 -0.25285820207E+04  0.25285863888E+04  0.47000000000E+01 0.  1.
          6    1    1    2  502    0  0.28536636794E+02  0.50029866748E+02  0.70808845276E+02  0.19471830878E+03  0.17200000000E+03 0. -1.
         -6    1    1    2    0  502 -0.28536636794E+02 -0.50029866748E+02 -0.24633354616E+04  0.24700046404E+04  0.17200000000E+03 0.  1.
</event>
<event>
 4    1 -0.7147820E-004  0.2402466E+03  0.7818608E-02  0.1119629E+00
         -5   -1    0    0    0  501 -0.00000000000E+00  0.00000000000E+00  0.93500058540E+03  0.93501239815E+03  0.47000000000E+01 0.  1.
          5   -1    0    0  501    0  0.00000000000E+00 -0.00000000000E+00 -0.38945961129E+03  0.38948797007E+03  0.47000000000E+01 0. -1.
          6    1    1    2  502    0 -0.10595316709E+03 -0.13003215077E+03 -0.33473625674E+03  0.41202766342E+03  0.17200000000E+03 0. -1.
         -6    1    1    2    0  502  0.10595316709E+03  0.13003215077E+03  0.88027723085E+03  0.91247270480E+03  0.17200000000E+03 0.  1.
</event>
<event>
 4    1 -0.7147820E-004  0.1764242E+03  0.7818608E-02  0.1171309E+00
         -5   -1    0    0    0  501 -0.00000000000E+00  0.00000000000E+00  0.16330616730E+03  0.16337378700E+03  0.47000000000E+01 0.  1.
          5   -1    0    0  501    0  0.00000000000E+00 -0.00000000000E+00 -0.66573267001E+03  0.66574926055E+03  0.47000000000E+01 0. -1.
          6    1    1    2  502    0 -0.93127265176E+01 -0.38141347875E+02 -0.60146178555E+03  0.62680281490E+03  0.17200000000E+03 0. -1.
         -6    1    1    2    0  502  0.93127265176E+01  0.38141347875E+02  0.99035282839E+02  0.20232023265E+03  0.17200000000E+03 0.  1.
</event>
<event>
 4    1 -0.7147820E-004  0.2190555E+03  0.7818608E-02  0.1134589E+00
          5   -1    0    0  501    0  0.00000000000E+00  0.00000000000E+00  0.20852083567E+04  0.20852136535E+04  0.47000000000E+01 0. -1.
         -5   -1    0    0    0  501 -0.00000000000E+00 -0.00000000000E+00 -0.27765571571E+03  0.27769549234E+03  0.47000000000E+01 0.  1.
          6    1    1    2  502    0  0.12861090041E+03  0.43133842208E+02  0.20352170529E+04  0.20469718475E+04  0.17200000000E+03 0. -1.
         -6    1    1    2    0  502 -0.12861090041E+03 -0.43133842208E+02 -0.22766441191E+03  0.31593729837E+03  0.17200000000E+03 0.  1.
</event>
<event>
 4    1 -0.7147820E-004  0.1881908E+03  0.7818608E-02  0.1160103E+00
         -5   -1    0    0    0  501 -0.00000000000E+00  0.00000000000E+00  0.69812707415E+03  0.69814289488E+03  0.47000000000E+01 0.  1.
          5   -1    0    0  501    0  0.00000000000E+00 -0.00000000000E+00 -0.31674189330E+03  0.31677676204E+03  0.47000000000E+01 0. -1.
          6    1    1    2  502    0 -0.41892209682E+02 -0.63850086738E+02 -0.27436259000E+03  0.33270200119E+03  0.17200000000E+03 0. -1.
         -6    1    1    2    0  502  0.41892209682E+02  0.63850086738E+02  0.65574777085E+03  0.68221765573E+03  0.17200000000E+03 0.  1.
</event>
<event>
 4    1 -0.7147820E-004  0.1920103E+03  0.7818608E-02  0.1156661E+00
          5   -1    0    0  501    0  0.00000000000E+00  0.00000000000E+00  0.44728314268E+03  0.44730783553E+03  0.47000000000E+01 0. -1.
         -5   -1    0    0    0  501 -0.00000000000E+00 -0.00000000000E+00 -0.23424028073E+03  0.23428742842E+03  0.47000000000E+01 0.  1.
          6    1    1    2  502    0  0.61035434651E+02 -0.59654105883E+02  0.38089929368E+03  0.42655856404E+03  0.17200000000E+03 0. -1.
         -6    1    1    2    0  502 -0.61035434651E+02  0.59654105883E+02 -0.16785643173E+03  0.25503669992E+03  0.17200000000E+03 0.  1.
</event>
<event>
 4    1 -0.7147820E-004  0.2023110E+03  0.7818608E-02  0.1147804E+00
          5   -1    0    0  501    0  0.00000000000E+00  0.00000000000E+00  0.19823668005E+04  0.19823723721E+04  0.47000000000E+01 0. -1.
         -5   -1    0    0    0  501 -0.00000000000E+00 -0.00000000000E+00 -0.37779831670E+02  0.38071060939E+02  0.47000000000E+01 0.  1.
          6    1    1    2  502    0  0.31691514025E+02 -0.10169270855E+03  0.16542288878E+04  0.16665542212E+04  0.17200000000E+03 0. -1.
         -6    1    1    2    0  502 -0.31691514025E+02  0.10169270855E+03  0.29035808105E+03  0.35388921185E+03  0.17200000000E+03 0.  1.
</event>
<event>
 4    1 -0.7147820E-004  0.5002752E+03  0.7818608E-02  0.1013707E+00
         -5   -1    0    0    0  501 -0.00000000000E+00  0.00000000000E+00  0.42711353204E+03  0.42713939089E+03  0.47000000000E+01 0.  1.
          5   -1    0    0  501    0  0.00000000000E+00 -0.00000000000E+00 -0.98100052068E+03  0.98101177953E+03  0.47000000000E+01 0. -1.
          6    1    1    2  502    0  0.25884893066E+03 -0.39203125295E+03 -0.72375119642E+03  0.87982445211E+03  0.17200000000E+03 0. -1.
         -6    1    1    2    0  502 -0.25884893066E+03  0.39203125295E+03  0.16986420779E+03  0.52832671831E+03  0.17200000000E+03 0.  1.
</event>
<event>
 4    1 -0.7147820E-004  0.2164600E+03  0.7818608E-02  0.1136550E+00
         -5   -1    0    0    0  501 -0.00000000000E+00  0.00000000000E+00  0.12897451806E+04  0.12897537442E+04  0.47000000000E+01 0.  1.
          5   -1    0    0  501    0  0.00000000000E+00 -0.00000000000E+00 -0.45568263097E+02  0.45810005475E+02  0.47000000000E+01 0. -1.
          6    1    1    2  502    0 -0.13015101333E+03  0.18210928163E+02  0.31972173542E+03  0.38610479442E+03  0.17200000000E+03 0. -1.
         -6    1    1    2    0  502  0.13015101333E+03 -0.18210928163E+02  0.92445518205E+03  0.94945895530E+03  0.17200000000E+03 0.  1.
</event>
<event>
 4    1 -0.7147820E-004  0.2389645E+03  0.7818608E-02  0.1120485E+00
          5   -1    0    0  501    0  0.00000000000E+00  0.00000000000E+00  0.10446418440E+04  0.10446524169E+04  0.47000000000E+01 0. -1.
         -5   -1    0    0    0  501 -0.00000000000E+00 -0.00000000000E+00 -0.24563972364E+03  0.24568468375E+03  0.47000000000E+01 0.  1.
          6    1    1    2  502    0 -0.16333382054E+03 -0.29019115735E+02  0.96838271127E+03  0.99743126154E+03  0.17200000000E+03 0. -1.
         -6    1    1    2    0  502  0.16333382054E+03  0.29019115735E+02 -0.16938059094E+03  0.29290583913E+03  0.17200000000E+03 0.  1.
</event>
<event>
 4    1 -0.7147820E-004  0.2060607E+03  0.7818608E-02  0.1144724E+00
          5   -1    0    0  501    0  0.00000000000E+00  0.00000000000E+00  0.39664757249E+02  0.39942245400E+02  0.47000000000E+01 0. -1.
         -5   -1    0    0    0  501 -0.00000000000E+00 -0.00000000000E+00 -0.13446700930E+04  0.13446783069E+04  0.47000000000E+01 0.  1.
          6    1    1    2  502    0 -0.13373492059E+02  0.11268607076E+03 -0.96736104247E+03  0.98906439999E+03  0.17200000000E+03 0.  1.
         -6    1    1    2    0  502  0.13373492059E+02 -0.11268607076E+03 -0.33764429326E+03  0.39555615228E+03  0.17200000000E+03 0. -1.
</event>
<event>
 4    1 -0.7147820E-004  0.1742590E+03  0.7818608E-02  0.1173478E+00
         -5   -1    0    0    0  501 -0.00000000000E+00  0.00000000000E+00  0.15046061618E+03  0.15053400620E+03  0.47000000000E+01 0.  1.
          5   -1    0    0  501    0  0.00000000000E+00 -0.00000000000E+00 -0.38054344742E+03  0.38057247059E+03  0.47000000000E+01 0. -1.
          6    1    1    2  502    0  0.27961656209E+02 -0.57963985754E+00 -0.29707636321E+03  0.34441335017E+03  0.17200000000E+03 0. -1.
         -6    1    1    2    0  502 -0.27961656209E+02  0.57963985754E+00  0.66993531975E+02  0.18669312662E+03  0.17200000000E+03 0.  1.
</event>
<event>
 4    1 -0.7147820E-004  0.2627907E+03  0.7818608E-02  0.1105478E+00
         -5   -1    0    0    0  501 -0.00000000000E+00  0.00000000000E+00  0.67957876751E+03  0.67959502003E+03  0.47000000000E+01 0.  1.
          5   -1    0    0  501    0  0.00000000000E+00 -0.00000000000E+00 -0.14416634695E+03  0.14424293949E+03  0.47000000000E+01 0. -1.
          6    1    1    2  502    0  0.14930944737E+03 -0.13107872499E+03  0.43827831575E+02  0.26642038593E+03  0.17200000000E+03 0. -1.
         -6    1    1    2    0  502 -0.14930944737E+03  0.13107872499E+03  0.49158458899E+03  0.55741757359E+03  0.17200000000E+03 0.  1.
</event>
<event>
 4    1 -0.7147820E-004  0.2392592E+03  0.7818608E-02  0.1120287E+00
          5   -1    0    0  501    0  0.00000000000E+00  0.00000000000E+00  0.68146302361E+03  0.68147923120E+03  0.47000000000E+01 0. -1.
         -5   -1    0    0    0  501 -0.00000000000E+00 -0.00000000000E+00 -0.11246850792E+04  0.11246948997E+04  0.47000000000E+01 0.  1.
          6    1    1    2  502    0 -0.15723269675E+03  0.54211087771E+02  0.64709677684E+03  0.68991245935E+03  0.17200000000E+03 0. -1.
         -6    1    1    2    0  502  0.15723269675E+03 -0.54211087771E+02 -0.10903188324E+04  0.11162616715E+04  0.17200000000E+03 0.  1.
</event>
<event>
 4    1 -0.7147820E-004  0.3159847E+03  0.7818608E-02  0.1077512E+00
         -5   -1    0    0    0  501 -0.00000000000E+00  0.00000000000E+00  0.66301786917E+03  0.66303452764E+03  0.47000000000E+01 0.  1.
          5   -1    0    0  501    0  0.00000000000E+00 -0.00000000000E+00 -0.11563728051E+04  0.11563823565E+04  0.47000000000E+01 0. -1.
          6    1    1    2  502    0  0.21689101547E+03  0.15238303518E+03 -0.10950871375E+04  0.11397640724E+04  0.17200000000E+03 0. -1.
         -6    1    1    2    0  502 -0.21689101547E+03 -0.15238303518E+03  0.60173220160E+03  0.67965281170E+03  0.17200000000E+03 0.  1.
</event>
<event>
 4    1 -0.7147820E-004  0.1871131E+03  0.7818608E-02  0.1161091E+00
         -5   -1    0    0    0  501 -0.00000000000E+00  0.00000000000E+00  0.11333533090E+04  0.11333630543E+04  0.47000000000E+01 0.  1.
          5   -1    0    0  501    0  0.00000000000E+00 -0.00000000000E+00 -0.46376290631E+02  0.46613842715E+02  0.47000000000E+01 0. -1.
          6    1    1    2  502    0 -0.29761861815E+02 -0.67390890601E+02  0.20163499727E+03  0.27507812104E+03  0.17200000000E+03 0. -1.
         -6    1    1    2    0  502  0.29761861815E+02  0.67390890601E+02  0.88534202106E+03  0.90489877601E+03  0.17200000000E+03 0.  1.
</event>
<event>
 4    1 -0.7147820E-004  0.2839664E+03  0.7818608E-02  0.1093542E+00
         -5   -1    0    0    0  501 -0.00000000000E+00  0.00000000000E+00  0.42853339686E+03  0.42855917003E+03  0.47000000000E+01 0.  1.
          5   -1    0    0  501    0  0.00000000000E+00 -0.00000000000E+00 -0.29015860962E+03  0.29019667251E+03  0.47000000000E+01 0. -1.
          6    1    1    2  502    0  0.10140963653E+03 -0.20191337482E+03 -0.14391307198E+03  0.31835184560E+03  0.17200000000E+03 0. -1.
         -6    1    1    2    0  502 -0.10140963653E+03  0.20191337482E+03  0.28228785921E+03  0.40040399695E+03  0.17200000000E+03 0.  1.
</event>
<event>
 4    1 -0.7147820E-004  0.2555079E+03  0.7818608E-02  0.1109873E+00
          5   -1    0    0  501    0  0.00000000000E+00  0.00000000000E+00  0.12878477551E+03  0.12887051022E+03  0.47000000000E+01 0. -1.
         -5   -1    0    0    0  501 -0.00000000000E+00 -0.00000000000E+00 -0.94491273098E+03  0.94492441982E+03  0.47000000000E+01 0.  1.
          6    1    1    2  502    0  0.31664192260E+01 -0.18891867790E+03 -0.42440434315E+02  0.25900865533E+03  0.17200000000E+03 0. -1.
         -6    1    1    2    0  502 -0.31664192260E+01  0.18891867790E+03 -0.77368752115E+03  0.81478627471E+03  0.17200000000E+03 0.  1.
</event>
<event>
 4    1 -0.7147820E-004  0.1756975E+03  0.7818608E-02  0.1172033E+00
         -5   -1    0    0    0  501 -0.00000000000E+00  0.00000000000E+00  0.10555759002E+03  0.10566217304E+03  0.47000000000E+01 0.  1.
          5   -1    0    0  501    0  0.00000000000E+00 -0.00000000000E+00 -0.42180403963E+03  0.42183022396E+03  0.47000000000E+01 0. -1.
          6    1    1    2  502    0 -0.22166716770E+02 -0.28182324714E+02 -0.30431122403E+03  0.35138999393E+03  0.17200000000E+03 0. -1.
         -6    1    1    2    0  502  0.22166716770E+02  0.28182324714E+02 -0.11935225570E+02  0.17610240307E+03  0.17200000000E+03 0.  1.
</event>
<event>
 4    1 -0.7147820E-004  0.1807529E+03  0.7818608E-02  0.1167076E+00
         -5   -1    0    0    0  501 -0.00000000000E+00  0.00000000000E+00  0.23211253883E+03  0.23216011863E+03  0.47000000000E+01 0.  1.
          5   -1    0    0  501    0  0.00000000000E+00 -0.00000000000E+00 -0.16972086706E+03  0.16978593203E+03  0.47000000000E+01 0. -1.
          6    1    1    2  502    0  0.38318711566E+02  0.40240505616E+02 -0.51941961300E+02  0.18806804431E+03  0.17200000000E+03 0. -1.
         -6    1    1    2    0  502 -0.38318711566E+02 -0.40240505616E+02  0.11433363308E+03  0.21387800635E+03  0.17200000000E+03 0.  1.
</event>
<event>
 4    1 -0.7147820E-004  0.1868945E+03  0.7818608E-02  0.1161292E+00
         -5   -1    0    0    0  501 -0.00000000000E+00  0.00000000000E+00  0.87779969835E+02  0.87905705755E+02  0.47000000000E+01 0.  1.
          5   -1    0    0  501    0  0.00000000000E+00 -0.00000000000E+00 -0.59034762554E+03  0.59036633456E+03  0.47000000000E+01 0. -1.
          6    1    1    2  502    0  0.71405127623E+02 -0.15712098919E+02 -0.44509344768E+03  0.48273982586E+03  0.17200000000E+03 0. -1.
         -6    1    1    2    0  502 -0.71405127623E+02  0.15712098919E+02 -0.57474208032E+02  0.19553221446E+03  0.17200000000E+03 0.  1.
</event>
<event>
 4    1 -0.7147820E-004  0.1954091E+03  0.7818608E-02  0.1153671E+00
          5   -1    0    0  501    0  0.00000000000E+00  0.00000000000E+00  0.40954186915E+03  0.40956883742E+03  0.47000000000E+01 0. -1.
         -5   -1    0    0    0  501 -0.00000000000E+00 -0.00000000000E+00 -0.15380275409E+03  0.15387455009E+03  0.47000000000E+01 0.  1.
          6    1    1    2  502    0  0.58176747850E+02  0.72223088552E+02  0.30471632248E+03  0.36198998010E+03  0.17200000000E+03 0. -1.
         -6    1    1    2    0  502 -0.58176747850E+02 -0.72223088552E+02 -0.48977207411E+02  0.20145340741E+03  0.17200000000E+03 0.  1.
</event>
<event>
 4    1 -0.7147820E-004  0.1859406E+03  0.7818608E-02  0.1162174E+00
         -5   -1    0    0    0  501 -0.00000000000E+00  0.00000000000E+00  0.32517208642E+03  0.32520605128E+03  0.47000000000E+01 0.  1.
          5   -1    0    0  501    0  0.00000000000E+00 -0.00000000000E+00 -0.58266130216E+03  0.58268025798E+03  0.47000000000E+01 0. -1.
          6    1    1    2  502    0 -0.49908776815E+02 -0.49990154960E+02 -0.53919095765E+03  0.57035146218E+03  0.17200000000E+03 0. -1.
         -6    1    1    2    0  502  0.49908776815E+02  0.49990154960E+02  0.28170174191E+03  0.33753484708E+03  0.17200000000E+03 0.  1.
</event>
<event>
 4    1 -0.7147820E-004  0.1758015E+03  0.7818608E-02  0.1171929E+00
         -5   -1    0    0    0  501 -0.00000000000E+00  0.00000000000E+00  0.24933107233E+03  0.24937536693E+03  0.47000000000E+01 0.  1.
          5   -1    0    0  501    0  0.00000000000E+00 -0.00000000000E+00 -0.21960740664E+03  0.21965769518E+03  0.47000000000E+01 0. -1.
          6    1    1    2  502    0  0.34379217765E+02  0.11842629955E+02 -0.13995161607E+03  0.22470565934E+03  0.17200000000E+03 0. -1.
         -6    1    1    2    0  502 -0.34379217765E+02 -0.11842629955E+02  0.16967528177E+03  0.24432740276E+03  0.17200000000E+03 0.  1.
</event>
<event>
 4    1 -0.7147820E-004  0.1761168E+03  0.7818608E-02  0.1171615E+00
         -5   -1    0    0    0  501 -0.00000000000E+00  0.00000000000E+00  0.11600753756E+04  0.11600848965E+04  0.47000000000E+01 0.  1.
          5   -1    0    0  501    0  0.00000000000E+00 -0.00000000000E+00 -0.11385214590E+03  0.11394911639E+03  0.47000000000E+01 0. -1.
          6    1    1    2  502    0 -0.12555794252E+02 -0.35713625398E+02 -0.34152505912E+02  0.17939761612E+03  0.17200000000E+03 0. -1.
         -6    1    1    2    0  502  0.12555794252E+02  0.35713625398E+02  0.10803757356E+04  0.10946363967E+04  0.17200000000E+03 0.  1.
</event>
<event>
 4    1 -0.7147820E-004  0.1974521E+03  0.7818608E-02  0.1151907E+00
          5   -1    0    0  501    0  0.00000000000E+00  0.00000000000E+00  0.13615884429E+03  0.13623993863E+03  0.47000000000E+01 0. -1.
         -5   -1    0    0    0  501 -0.00000000000E+00 -0.00000000000E+00 -0.49045404700E+03  0.49047656643E+03  0.47000000000E+01 0.  1.
          6    1    1    2  502    0  0.69117987452E+02  0.68015095859E+02  0.25074823769E+02  0.19903792664E+03  0.17200000000E+03 0. -1.
         -6    1    1    2    0  502 -0.69117987452E+02 -0.68015095859E+02 -0.37937002648E+03  0.42767857842E+03  0.17200000000E+03 0.  1.
</event>
<event>
 4    1 -0.7147820E-004  0.2331247E+03  0.7818608E-02  0.1124460E+00
          5   -1    0    0  501    0  0.00000000000E+00  0.00000000000E+00  0.16472194262E+03  0.16478898137E+03  0.47000000000E+01 0. -1.
         -5   -1    0    0    0  501 -0.00000000000E+00 -0.00000000000E+00 -0.38252640716E+03  0.38255527989E+03  0.47000000000E+01 0.  1.
          6    1    1    2  502    0 -0.15717974178E+03 -0.75918961713E+01 -0.72927200768E+01  0.23323870150E+03  0.17200000000E+03 0. -1.
         -6    1    1    2    0  502  0.15717974178E+03  0.75918961713E+01 -0.21051174446E+03  0.31410555976E+03  0.17200000000E+03 0.  1.
</event>
<event>
 4    1 -0.7147820E-004  0.1899431E+03  0.7818608E-02  0.1158513E+00
         -5   -1    0    0    0  501 -0.00000000000E+00  0.00000000000E+00  0.69936444372E+03  0.69938023645E+03  0.47000000000E+01 0.  1.
          5   -1    0    0  501    0  0.00000000000E+00 -0.00000000000E+00 -0.86528133651E+02  0.86655685982E+02  0.47000000000E+01 0. -1.
          6    1    1    2  502    0  0.67414765002E+02 -0.44154775939E+02  0.56500068365E+02  0.19816824292E+03  0.17200000000E+03 0. -1.
         -6    1    1    2    0  502 -0.67414765002E+02  0.44154775939E+02  0.55633624170E+03  0.58786767951E+03  0.17200000000E+03 0.  1.
</event>
<event>
 4    1 -0.7147820E-004  0.2008297E+03  0.7818608E-02  0.1149041E+00
          5   -1    0    0  501    0  0.00000000000E+00  0.00000000000E+00  0.42363792067E+03  0.42366399166E+03  0.47000000000E+01 0. -1.
         -5   -1    0    0    0  501 -0.00000000000E+00 -0.00000000000E+00 -0.52026249873E+03  0.52028372796E+03  0.47000000000E+01 0.  1.
          6    1    1    2  502    0  0.96887951804E+02  0.36895728875E+02  0.37830190880E+03  0.42830468619E+03  0.17200000000E+03 0. -1.
         -6    1    1    2    0  502 -0.96887951804E+02 -0.36895728875E+02 -0.47492648685E+03  0.51564303343E+03  0.17200000000E+03 0.  1.
</event>
<event>
 4    1 -0.7147820E-004  0.1846590E+03  0.7818608E-02  0.1163369E+00
          5   -1    0    0  501    0  0.00000000000E+00  0.00000000000E+00  0.87162093962E+02  0.87288719911E+02  0.47000000000E+01 0. -1.
         -5   -1    0    0    0  501 -0.00000000000E+00 -0.00000000000E+00 -0.51283868767E+03  0.51286022420E+03  0.47000000000E+01 0.  1.
          6    1    1    2  502    0 -0.11432436993E+02  0.66213532069E+02 -0.66470889555E+02  0.19625827779E+03  0.17200000000E+03 0. -1.
         -6    1    1    2    0  502  0.11432436993E+02 -0.66213532069E+02 -0.35920570415E+03  0.40389066632E+03  0.17200000000E+03 0.  1.
</event>
<event>
 4    1 -0.7147820E-004  0.1831127E+03  0.7818608E-02  0.1164824E+00
          5   -1    0    0  501    0  0.00000000000E+00  0.00000000000E+00  0.36778929041E+03  0.36781931996E+03  0.47000000000E+01 0. -1.
         -5   -1    0    0    0  501 -0.00000000000E+00 -0.00000000000E+00 -0.94866456853E+02  0.94982812318E+02  0.47000000000E+01 0.  1.
          6    1    1    2  502    0 -0.45022486354E+02  0.43809263874E+02  0.18269970106E+03  0.25866862323E+03  0.17200000000E+03 0. -1.
         -6    1    1    2    0  502  0.45022486354E+02 -0.43809263874E+02  0.90223132493E+02  0.20413350905E+03  0.17200000000E+03 0. -1.
</event>
<event>
 4    1 -0.7147820E-004  0.1863909E+03  0.7818608E-02  0.1161757E+00
         -5   -1    0    0    0  501 -0.00000000000E+00  0.00000000000E+00  0.33316851637E+03  0.33320166612E+03  0.47000000000E+01 0.  1.
          5   -1    0    0  501    0  0.00000000000E+00 -0.00000000000E+00 -0.17413571958E+03  0.17419913557E+03  0.47000000000E+01 0. -1.
          6    1    1    2  502    0  0.62245129501E+02 -0.35820632695E+02 -0.81224548343E+02  0.20331994769E+03  0.17200000000E+03 0. -1.
         -6    1    1    2    0  502 -0.62245129501E+02  0.35820632695E+02  0.24025734514E+03  0.30408085400E+03  0.17200000000E+03 0.  1.
</event>
<event>
 4    1 -0.7147820E-004  0.2141778E+03  0.7818608E-02  0.1138300E+00
          5   -1    0    0  501    0  0.00000000000E+00  0.00000000000E+00  0.20421848695E+04  0.20421902779E+04  0.47000000000E+01 0. -1.
         -5   -1    0    0    0  501 -0.00000000000E+00 -0.00000000000E+00 -0.61337098228E+02  0.61516905148E+02  0.47000000000E+01 0.  1.
          6    1    1    2  502    0 -0.10772609238E+03 -0.68434130607E+02  0.18281895868E+04  0.18406926160E+04  0.17200000000E+03 0. -1.
         -6    1    1    2    0  502  0.10772609238E+03  0.68434130607E+02  0.15265818445E+03  0.26301456707E+03  0.17200000000E+03 0.  1.
</event>
<event>
 4    1 -0.7147820E-004  0.4737383E+03  0.7818608E-02  0.1020870E+00
          5   -1    0    0  501    0  0.00000000000E+00  0.00000000000E+00  0.12967150850E+04  0.12967236026E+04  0.47000000000E+01 0. -1.
         -5   -1    0    0    0  501 -0.00000000000E+00 -0.00000000000E+00 -0.99492795816E+03  0.99493905940E+03  0.47000000000E+01 0.  1.
          6    1    1    2  502    0  0.42555646985E+03  0.11724195888E+03  0.11923064154E+04  0.12829741128E+04  0.17200000000E+03 0. -1.
         -6    1    1    2    0  502 -0.42555646985E+03 -0.11724195888E+03 -0.89051928859E+03  0.10086885492E+04  0.17200000000E+03 0.  1.
</event>
<event>
 4    1 -0.7147820E-004  0.2080266E+03  0.7818608E-02  0.1143138E+00
         -5   -1    0    0    0  501 -0.00000000000E+00  0.00000000000E+00  0.96688406187E+03  0.96689548509E+03  0.47000000000E+01 0.  1.
          5   -1    0    0  501    0  0.00000000000E+00 -0.00000000000E+00 -0.75288122962E+02  0.75434683397E+02  0.47000000000E+01 0. -1.
          6    1    1    2  502    0  0.11594939502E+03 -0.15709894491E+02  0.11364275665E+03  0.23704374940E+03  0.17200000000E+03 0. -1.
         -6    1    1    2    0  502 -0.11594939502E+03  0.15709894491E+02  0.77795318225E+03  0.80528641909E+03  0.17200000000E+03 0.  1.
</event>
<event>
 4    1 -0.7147820E-004  0.2681795E+03  0.7818608E-02  0.1102326E+00
         -5   -1    0    0    0  501 -0.00000000000E+00  0.00000000000E+00  0.13373230871E+03  0.13381487359E+03  0.47000000000E+01 0.  1.
          5   -1    0    0  501    0  0.00000000000E+00 -0.00000000000E+00 -0.21160813742E+04  0.21160865938E+04  0.47000000000E+01 0. -1.
          6    1    1    2  502    0  0.22630334994E+02 -0.20450948145E+03 -0.19627719458E+04  0.19810083219E+04  0.17200000000E+03 0. -1.
         -6    1    1    2    0  502 -0.22630334994E+02  0.20450948145E+03 -0.19577119689E+02  0.26889314547E+03  0.17200000000E+03 0.  1.
</event>
<event>
 4    1 -0.7147820E-004  0.1728410E+03  0.7818608E-02  0.1174917E+00
         -5   -1    0    0    0  501 -0.00000000000E+00  0.00000000000E+00  0.25144031511E+03  0.25148423820E+03  0.47000000000E+01 0.  1.
          5   -1    0    0  501    0  0.00000000000E+00 -0.00000000000E+00 -0.39162192057E+03  0.39165012278E+03  0.47000000000E+01 0. -1.
          6    1    1    2  502    0  0.16992720789E+02  0.11257668805E+01 -0.33849599065E+03  0.38007046136E+03  0.17200000000E+03 0. -1.
         -6    1    1    2    0  502 -0.16992720789E+02 -0.11257668805E+01  0.19831438519E+03  0.26306389962E+03  0.17200000000E+03 0.  1.
</event>
<event>
 4    1 -0.7147820E-004  0.2368722E+03  0.7818608E-02  0.1121894E+00
         -5   -1    0    0    0  501 -0.00000000000E+00  0.00000000000E+00  0.11354311181E+04  0.11354408456E+04  0.47000000000E+01 0.  1.
          5   -1    0    0  501    0  0.00000000000E+00 -0.00000000000E+00 -0.50642246156E+02  0.50859877071E+02  0.47000000000E+01 0. -1.
          6    1    1    2  502    0  0.47325254592E+02 -0.15583567754E+03  0.44584145969E+03  0.50485943122E+03  0.17200000000E+03 0. -1.
         -6    1    1    2    0  502 -0.47325254592E+02  0.15583567754E+03  0.63894741223E+03  0.68144129147E+03  0.17200000000E+03 0.  1.
</event>
<event>
 4    1 -0.7147820E-004  0.2160176E+03  0.7818608E-02  0.1136887E+00
         -5   -1    0    0    0  501 -0.00000000000E+00  0.00000000000E+00  0.23372922161E+02  0.23840794667E+02  0.47000000000E+01 0.  1.
          5   -1    0    0  501    0  0.00000000000E+00 -0.00000000000E+00 -0.23303551592E+04  0.23303598988E+04  0.47000000000E+01 0. -1.
          6    1    1    2  502    0 -0.11123142307E+03  0.68608943485E+02 -0.16123073126E+04  0.16267140151E+04  0.17200000000E+03 0. -1.
         -6    1    1    2    0  502  0.11123142307E+03 -0.68608943485E+02 -0.69467492444E+03  0.72748667840E+03  0.17200000000E+03 0.  1.
</event>
<event>
 4    1 -0.7147820E-004  0.2001981E+03  0.7818608E-02  0.1149572E+00
          5   -1    0    0  501    0  0.00000000000E+00  0.00000000000E+00  0.96280788532E+02  0.96395436823E+02  0.47000000000E+01 0. -1.
         -5   -1    0    0    0  501 -0.00000000000E+00 -0.00000000000E+00 -0.17719281064E+04  0.17719343397E+04  0.47000000000E+01 0.  1.
          6    1    1    2  502    0  0.14064609168E+02 -0.10147641322E+03 -0.20641466873E+02  0.20125939935E+03  0.17200000000E+03 0. -1.
         -6    1    1    2    0  502 -0.14064609168E+02  0.10147641322E+03 -0.16550058510E+04  0.16670703772E+04  0.17200000000E+03 0.  1.
</event>
<event>
 4    1 -0.7147820E-004  0.1778140E+03  0.7818608E-02  0.1169936E+00
          5   -1    0    0  501    0  0.00000000000E+00  0.00000000000E+00  0.94633014910E+02  0.94749657049E+02  0.47000000000E+01 0. -1.
         -5   -1    0    0    0  501 -0.00000000000E+00 -0.00000000000E+00 -0.11546011649E+04  0.11546107309E+04  0.47000000000E+01 0.  1.
          6    1    1    2  502    0 -0.27106173950E+02 -0.36042781348E+02 -0.33093621467E+01  0.17784481615E+03  0.17200000000E+03 0. -1.
         -6    1    1    2    0  502  0.27106173950E+02  0.36042781348E+02 -0.10566587878E+04  0.10715155718E+04  0.17200000000E+03 0.  1.
</event>
<event>
 4    1 -0.7147820E-004  0.1888896E+03  0.7818608E-02  0.1159467E+00
          5   -1    0    0  501    0  0.00000000000E+00  0.00000000000E+00  0.66808993304E+03  0.66810646504E+03  0.47000000000E+01 0. -1.
         -5   -1    0    0    0  501 -0.00000000000E+00 -0.00000000000E+00 -0.76796889672E+02  0.76940576182E+02  0.47000000000E+01 0.  1.
          6    1    1    2  502    0  0.46362275211E+02 -0.62815817051E+02  0.50151531605E+03  0.53590754768E+03  0.17200000000E+03 0. -1.
         -6    1    1    2    0  502 -0.46362275211E+02  0.62815817051E+02  0.89777727319E+02  0.20913949354E+03  0.17200000000E+03 0.  1.
</event>
<event>
 4    1 -0.7147820E-004  0.1780613E+03  0.7818608E-02  0.1169693E+00
         -5   -1    0    0    0  501 -0.00000000000E+00  0.00000000000E+00  0.74113353908E+03  0.74114844178E+03  0.47000000000E+01 0.  1.
          5   -1    0    0  501    0  0.00000000000E+00 -0.00000000000E+00 -0.58712769665E+02  0.58900588466E+02  0.47000000000E+01 0. -1.
          6    1    1    2  502    0 -0.45823862381E+02  0.46911069864E+01  0.13230716856E+03  0.22183556906E+03  0.17200000000E+03 0. -1.
         -6    1    1    2    0  502  0.45823862381E+02 -0.46911069864E+01  0.55011360085E+03  0.57821346118E+03  0.17200000000E+03 0.  1.
</event>
<event>
 4    1 -0.7147820E-004  0.1787301E+03  0.7818608E-02  0.1169038E+00
          5   -1    0    0  501    0  0.00000000000E+00  0.00000000000E+00  0.13565724730E+03  0.13573864131E+03  0.47000000000E+01 0. -1.
         -5   -1    0    0    0  501 -0.00000000000E+00 -0.00000000000E+00 -0.73467919237E+03  0.73469422598E+03  0.47000000000E+01 0.  1.
          6    1    1    2  502    0  0.44841362717E+02 -0.18700437041E+02  0.59276133318E+02  0.18830325047E+03  0.17200000000E+03 0. -1.
         -6    1    1    2    0  502 -0.44841362717E+02  0.18700437041E+02 -0.65829807838E+03  0.68212961683E+03  0.17200000000E+03 0.  1.
</event>
<event>
 4    1 -0.7147820E-004  0.2028119E+03  0.7818608E-02  0.1147388E+00
         -5   -1    0    0    0  501 -0.00000000000E+00  0.00000000000E+00  0.66033650435E+03  0.66035323046E+03  0.47000000000E+01 0.  1.
          5   -1    0    0  501    0  0.00000000000E+00 -0.00000000000E+00 -0.48485790235E+03  0.48488068169E+03  0.47000000000E+01 0. -1.
          6    1    1    2  502    0  0.10168454718E+03  0.34769763354E+02 -0.44683395521E+03  0.49070690550E+03  0.17200000000E+03 0. -1.
         -6    1    1    2    0  502 -0.10168454718E+03 -0.34769763354E+02  0.62231255720E+03  0.65452700665E+03  0.17200000000E+03 0.  1.
</event>
<event>
 4    1 -0.7147820E-004  0.1849328E+03  0.7818608E-02  0.1163113E+00
         -5   -1    0    0    0  501 -0.00000000000E+00  0.00000000000E+00  0.78974129719E+02  0.79113862027E+02  0.47000000000E+01 0.  1.
          5   -1    0    0  501    0  0.00000000000E+00 -0.00000000000E+00 -0.49298824471E+03  0.49301064839E+03  0.47000000000E+01 0. -1.
          6    1    1    2  502    0  0.62285122801E+02 -0.27141980029E+02 -0.30717660157E+03  0.35854928274E+03  0.17200000000E+03 0. -1.
         -6    1    1    2    0  502 -0.62285122801E+02  0.27141980029E+02 -0.10683751343E+03  0.21357522768E+03  0.17200000000E+03 0.  1.
</event>
<event>
 4    1 -0.7147820E-004  0.2064104E+03  0.7818608E-02  0.1144441E+00
         -5   -1    0    0    0  501 -0.00000000000E+00  0.00000000000E+00  0.59493080018E+03  0.59494936507E+03  0.47000000000E+01 0.  1.
          5   -1    0    0  501    0  0.00000000000E+00 -0.00000000000E+00 -0.43239788884E+03  0.43242343169E+03  0.47000000000E+01 0. -1.
          6    1    1    2  502    0  0.31071007135E+02  0.10979912815E+03 -0.38796137974E+03  0.43945339707E+03  0.17200000000E+03 0. -1.
         -6    1    1    2    0  502 -0.31071007135E+02 -0.10979912815E+03  0.55049429108E+03  0.58791939969E+03  0.17200000000E+03 0.  1.
</event>
<event>
 4    1 -0.7147820E-004  0.1893645E+03  0.7818608E-02  0.1159036E+00
         -5   -1    0    0    0  501 -0.00000000000E+00  0.00000000000E+00  0.12506545188E+03  0.12515373447E+03  0.47000000000E+01 0.  1.
          5   -1    0    0  501    0  0.00000000000E+00 -0.00000000000E+00 -0.42909679581E+03  0.42912253515E+03  0.47000000000E+01 0. -1.
          6    1    1    2  502    0 -0.24217061206E+02 -0.75421675482E+02 -0.31174838045E+03  0.36475464068E+03  0.17200000000E+03 0. -1.
         -6    1    1    2    0  502  0.24217061206E+02  0.75421675482E+02  0.77170365135E+01  0.18952162895E+03  0.17200000000E+03 0.  1.
</event>
<event>
 4    1 -0.7147820E-004  0.3589349E+03  0.7818608E-02  0.1059006E+00
         -5   -1    0    0    0  501 -0.00000000000E+00  0.00000000000E+00  0.32052858790E+03  0.32056304475E+03  0.47000000000E+01 0.  1.
          5   -1    0    0  501    0  0.00000000000E+00 -0.00000000000E+00 -0.57073727310E+03  0.57075662494E+03  0.47000000000E+01 0. -1.
          6    1    1    2  502    0 -0.27230871998E+03  0.15842409370E+03 -0.36750397130E+03  0.51370555901E+03  0.17200000000E+03 0. -1.
         -6    1    1    2    0  502  0.27230871998E+03 -0.15842409370E+03  0.11729528610E+03  0.37761411068E+03  0.17200000000E+03 0.  1.
</event>
<event>
 4    1 -0.7147820E-004  0.1768720E+03  0.7818608E-02  0.1170865E+00
         -5   -1    0    0    0  501 -0.00000000000E+00  0.00000000000E+00  0.23716399421E+03  0.23721056079E+03  0.47000000000E+01 0.  1.
          5   -1    0    0  501    0  0.00000000000E+00 -0.00000000000E+00 -0.17460305506E+03  0.17466630138E+03  0.47000000000E+01 0. -1.
          6    1    1    2  502    0  0.37396468378E+02  0.17355417848E+02 -0.70641710248E+02  0.19045723300E+03  0.17200000000E+03 0. -1.
         -6    1    1    2    0  502 -0.37396468378E+02 -0.17355417848E+02  0.13320264940E+03  0.22141962917E+03  0.17200000000E+03 0.  1.
</event>
<event>
 4    1 -0.7147820E-004  0.1742278E+03  0.7818608E-02  0.1173509E+00
          5   -1    0    0  501    0  0.00000000000E+00  0.00000000000E+00  0.25231078311E+03  0.25235455469E+03  0.47000000000E+01 0. -1.
         -5   -1    0    0    0  501 -0.00000000000E+00 -0.00000000000E+00 -0.13943477232E+03  0.13951396250E+03  0.47000000000E+01 0.  1.
          6    1    1    2  502    0  0.10767778252E+02  0.25600507677E+02  0.12915964814E+03  0.21688140941E+03  0.17200000000E+03 0. -1.
         -6    1    1    2    0  502 -0.10767778252E+02 -0.25600507677E+02 -0.16283637348E+02  0.17498710777E+03  0.17200000000E+03 0.  1.
</event>
<event>
 4    1 -0.7147820E-004  0.1761728E+03  0.7818608E-02  0.1171559E+00
         -5   -1    0    0    0  501 -0.00000000000E+00  0.00000000000E+00  0.16529604657E+03  0.16536285257E+03  0.47000000000E+01 0.  1.
          5   -1    0    0  501    0  0.00000000000E+00 -0.00000000000E+00 -0.22589940887E+03  0.22594829702E+03  0.47000000000E+01 0. -1.
          6    1    1    2  502    0  0.27609585566E+02 -0.26278293105E+02 -0.11080967549E+03  0.20812405456E+03  0.17200000000E+03 0. -1.
         -6    1    1    2    0  502 -0.27609585566E+02  0.26278293105E+02  0.50206313191E+02  0.18318709504E+03  0.17200000000E+03 0.  1.
</event>
<event>
 4    1 -0.7147820E-004  0.1997726E+03  0.7818608E-02  0.1149931E+00
          5   -1    0    0  501    0  0.00000000000E+00  0.00000000000E+00  0.99800549797E+02  0.99911159236E+02  0.47000000000E+01 0. -1.
         -5   -1    0    0    0  501 -0.00000000000E+00 -0.00000000000E+00 -0.72096417239E+03  0.72097949199E+03  0.47000000000E+01 0.  1.
          6    1    1    2  502    0  0.33582615175E+02  0.95902599125E+02 -0.36553047611E+02  0.20308920663E+03  0.17200000000E+03 0. -1.
         -6    1    1    2    0  502 -0.33582615175E+02 -0.95902599125E+02 -0.58461057498E+03  0.61780144459E+03  0.17200000000E+03 0.  1.
</event>
<event>
 4    1 -0.7147820E-004  0.4127272E+03  0.7818608E-02  0.1039460E+00
          5   -1    0    0  501    0  0.00000000000E+00  0.00000000000E+00  0.46034775658E+03  0.46037174868E+03  0.47000000000E+01 0. -1.
         -5   -1    0    0    0  501 -0.00000000000E+00 -0.00000000000E+00 -0.68984524464E+03  0.68986125530E+03  0.47000000000E+01 0.  1.
          6    1    1    2  502    0  0.36633583232E+03  0.80980005435E+02  0.27685421766E+03  0.49698285801E+03  0.17200000000E+03 0. -1.
         -6    1    1    2    0  502 -0.36633583232E+03 -0.80980005435E+02 -0.50635170573E+03  0.65325014597E+03  0.17200000000E+03 0.  1.
</event>
<event>
 4    1 -0.7147820E-004  0.4145489E+03  0.7818608E-02  0.1038855E+00
          5   -1    0    0  501    0  0.00000000000E+00  0.00000000000E+00  0.63269142097E+03  0.63270887790E+03  0.47000000000E+01 0. -1.
         -5   -1    0    0    0  501 -0.00000000000E+00 -0.00000000000E+00 -0.70270772076E+03  0.70272343836E+03  0.47000000000E+01 0.  1.
          6    1    1    2  502    0 -0.22675361119E+03  0.30141260506E+03  0.48798363899E+03  0.64029586177E+03  0.17200000000E+03 0. -1.
         -6    1    1    2    0  502  0.22675361119E+03 -0.30141260506E+03 -0.55799993878E+03  0.69513645448E+03  0.17200000000E+03 0.  1.
</event>
<event>
 4    1 -0.7147820E-004  0.1792780E+03  0.7818608E-02  0.1168504E+00
          5   -1    0    0  501    0  0.00000000000E+00  0.00000000000E+00  0.28251751361E+03  0.28255660582E+03  0.47000000000E+01 0. -1.
         -5   -1    0    0    0  501 -0.00000000000E+00 -0.00000000000E+00 -0.29602519022E+03  0.29606249888E+03  0.47000000000E+01 0.  1.
          6    1    1    2  502    0 -0.19159812655E+02  0.46792260828E+02  0.22027452476E+03  0.28400964835E+03  0.17200000000E+03 0. -1.
         -6    1    1    2    0  502  0.19159812655E+02 -0.46792260828E+02 -0.23378220138E+03  0.29460945636E+03  0.17200000000E+03 0.  1.
</event>
<event>
 4    1 -0.7147820E-004  0.1872560E+03  0.7818608E-02  0.1160960E+00
         -5   -1    0    0    0  501 -0.00000000000E+00  0.00000000000E+00  0.55826184942E+03  0.55828163369E+03  0.47000000000E+01 0.  1.
          5   -1    0    0  501    0  0.00000000000E+00 -0.00000000000E+00 -0.69421784401E+03  0.69423375382E+03  0.47000000000E+01 0. -1.
          6    1    1    2  502    0  0.63840754187E+02  0.37485593067E+02 -0.66523490764E+03  0.69108776138E+03  0.17200000000E+03 0. -1.
         -6    1    1    2    0  502 -0.63840754187E+02 -0.37485593067E+02  0.52927891305E+03  0.56142762613E+03  0.17200000000E+03 0.  1.
</event>
<event>
 4    1 -0.7147820E-004  0.1924243E+03  0.7818608E-02  0.1156293E+00
          5   -1    0    0  501    0  0.00000000000E+00  0.00000000000E+00  0.69976354612E+02  0.70134016032E+02  0.47000000000E+01 0. -1.
         -5   -1    0    0    0  501 -0.00000000000E+00 -0.00000000000E+00 -0.16587615464E+04  0.16587682049E+04  0.47000000000E+01 0.  1.
          6    1    1    2  502    0  0.36617983381E+02 -0.78116713237E+02 -0.80817397984E+02  0.20870685042E+03  0.17200000000E+03 0. -1.
         -6    1    1    2    0  502 -0.36617983381E+02  0.78116713237E+02 -0.15079677938E+04  0.15201953705E+04  0.17200000000E+03 0.  1.
</event>
<event>
 4    1 -0.7147820E-004  0.1802287E+03  0.7818608E-02  0.1167582E+00
          5   -1    0    0  501    0  0.00000000000E+00  0.00000000000E+00  0.27137122911E+03  0.27141192676E+03  0.47000000000E+01 0. -1.
         -5   -1    0    0    0  501 -0.00000000000E+00 -0.00000000000E+00 -0.12565973845E+03  0.12574760382E+03  0.47000000000E+01 0.  1.
          6    1    1    2  502    0  0.47429433999E+02 -0.25472477358E+02  0.11643562292E+03  0.21456852657E+03  0.17200000000E+03 0. -1.
         -6    1    1    2    0  502 -0.47429433999E+02  0.25472477358E+02  0.29275867745E+02  0.18259100401E+03  0.17200000000E+03 0.  1.
</event>
<event>
 4    1 -0.7147820E-004  0.2482110E+03  0.7818608E-02  0.1114441E+00
         -5   -1    0    0    0  501 -0.00000000000E+00  0.00000000000E+00  0.60039189839E+03  0.60041029442E+03  0.47000000000E+01 0.  1.
          5   -1    0    0  501    0  0.00000000000E+00 -0.00000000000E+00 -0.47799781716E+03  0.47802092340E+03  0.47000000000E+01 0. -1.
          6    1    1    2  502    0 -0.14956655494E+03 -0.98257554986E+02 -0.41665320771E+03  0.48498308936E+03  0.17200000000E+03 0. -1.
         -6    1    1    2    0  502  0.14956655494E+03  0.98257554986E+02  0.53904728894E+03  0.59344812846E+03  0.17200000000E+03 0.  1.
</event>
<event>
 4    1 -0.7147820E-004  0.2477418E+03  0.7818608E-02  0.1114740E+00
          5   -1    0    0  501    0  0.00000000000E+00  0.00000000000E+00  0.82826787684E+03  0.82828121179E+03  0.47000000000E+01 0. -1.
         -5   -1    0    0    0  501 -0.00000000000E+00 -0.00000000000E+00 -0.33263643902E+03  0.33266964178E+03  0.47000000000E+01 0.  1.
          6    1    1    2  502    0 -0.16403751089E+03 -0.69883350760E+02  0.75957361752E+03  0.79895435923E+03  0.17200000000E+03 0. -1.
         -6    1    1    2    0  502  0.16403751089E+03  0.69883350760E+02 -0.26394217970E+03  0.36199649435E+03  0.17200000000E+03 0.  1.
</event>
<event>
 4    1 -0.7147820E-004  0.2057965E+03  0.7818608E-02  0.1144939E+00
          5   -1    0    0  501    0  0.00000000000E+00  0.00000000000E+00  0.51538877907E+02  0.51752738438E+02  0.47000000000E+01 0. -1.
         -5   -1    0    0    0  501 -0.00000000000E+00 -0.00000000000E+00 -0.12195234466E+04  0.12195325034E+04  0.47000000000E+01 0.  1.
          6    1    1    2  502    0  0.86790642432E+02  0.72357421017E+02 -0.22012669456E+03  0.30134361392E+03  0.17200000000E+03 0. -1.
         -6    1    1    2    0  502 -0.86790642432E+02 -0.72357421017E+02 -0.94785787416E+03  0.96994162793E+03  0.17200000000E+03 0. -1.
</event>
<event>
 4    1 -0.7147820E-004  0.1882482E+03  0.7818608E-02  0.1160051E+00
         -5   -1    0    0    0  501 -0.00000000000E+00  0.00000000000E+00  0.57120550582E+02  0.57313587384E+02  0.47000000000E+01 0.  1.
          5   -1    0    0  501    0  0.00000000000E+00 -0.00000000000E+00 -0.63367016438E+03  0.63368759435E+03  0.47000000000E+01 0. -1.
          6    1    1    2  502    0  0.19791789249E+02 -0.73903105213E+02 -0.34057005805E+03  0.38913410069E+03  0.17200000000E+03 0. -1.
         -6    1    1    2    0  502 -0.19791789249E+02  0.73903105213E+02 -0.23597955575E+03  0.30186708104E+03  0.17200000000E+03 0.  1.
</event>
<event>
 4    1 -0.7147820E-004  0.1921906E+03  0.7818608E-02  0.1156500E+00
          5   -1    0    0  501    0  0.00000000000E+00  0.00000000000E+00  0.54324290676E+03  0.54326323798E+03  0.47000000000E+01 0. -1.
         -5   -1    0    0    0  501 -0.00000000000E+00 -0.00000000000E+00 -0.97192138375E+02  0.97305712894E+02  0.47000000000E+01 0.  1.
          6    1    1    2  502    0 -0.65652778495E+02 -0.55162713827E+02  0.39874025429E+03  0.44264094107E+03  0.17200000000E+03 0. -1.
         -6    1    1    2    0  502  0.65652778495E+02  0.55162713827E+02  0.47310514089E+02  0.19792800980E+03  0.17200000000E+03 0.  1.
</event>
<event>
 4    1 -0.7147820E-004  0.2211261E+03  0.7818608E-02  0.1133046E+00
         -5   -1    0    0    0  501 -0.00000000000E+00  0.00000000000E+00  0.17529772866E+03  0.17536072443E+03  0.47000000000E+01 0.  1.
          5   -1    0    0  501    0  0.00000000000E+00 -0.00000000000E+00 -0.42223635293E+03  0.42226251046E+03  0.47000000000E+01 0. -1.
          6    1    1    2  502    0 -0.13817427260E+03 -0.14852645584E+02 -0.29760841975E+03  0.37076610173E+03  0.17200000000E+03 0. -1.
         -6    1    1    2    0  502  0.13817427260E+03  0.14852645584E+02  0.50669795474E+02  0.22685713315E+03  0.17200000000E+03 0.  1.
</event>
<event>
 4    1 -0.7147820E-004  0.1982677E+03  0.7818608E-02  0.1151209E+00
         -5   -1    0    0    0  501 -0.00000000000E+00  0.00000000000E+00  0.29521381388E+04  0.29521418802E+04  0.47000000000E+01 0.  1.
          5   -1    0    0  501    0  0.00000000000E+00 -0.00000000000E+00 -0.43404784750E+02  0.43658508211E+02  0.47000000000E+01 0. -1.
          6    1    1    2  502    0 -0.64328539776E+02  0.74752429222E+02  0.20639139512E+03  0.28619485440E+03  0.17200000000E+03 0. -1.
         -6    1    1    2    0  502  0.64328539776E+02 -0.74752429222E+02  0.27023419590E+04  0.27096055340E+04  0.17200000000E+03 0.  1.
</event>
<event>
 4    1 -0.7147820E-004  0.3289275E+03  0.7818608E-02  0.1071612E+00
         -5   -1    0    0    0  501 -0.00000000000E+00  0.00000000000E+00  0.78325617987E+03  0.78327028113E+03  0.47000000000E+01 0.  1.
          5   -1    0    0  501    0  0.00000000000E+00 -0.00000000000E+00 -0.69667226941E+03  0.69668812316E+03  0.47000000000E+01 0. -1.
          6    1    1    2  502    0 -0.84268329713E+02  0.26741009141E+03 -0.61928205615E+03  0.70121578237E+03  0.17200000000E+03 0. -1.
         -6    1    1    2    0  502  0.84268329713E+02 -0.26741009141E+03  0.70586596661E+03  0.77874262192E+03  0.17200000000E+03 0.  1.
</event>
<event>
 4    1 -0.7147820E-004  0.2583035E+03  0.7818608E-02  0.1108167E+00
         -5   -1    0    0    0  501 -0.00000000000E+00  0.00000000000E+00  0.11160365255E+03  0.11170257501E+03  0.47000000000E+01 0.  1.
          5   -1    0    0  501    0  0.00000000000E+00 -0.00000000000E+00 -0.15294610844E+04  0.15294683059E+04  0.47000000000E+01 0. -1.
          6    1    1    2  502    0 -0.19189146385E+03 -0.17730225015E+02 -0.13494686405E+04  0.13739673600E+04  0.17200000000E+03 0. -1.
         -6    1    1    2    0  502  0.19189146385E+03  0.17730225015E+02 -0.68388791366E+02  0.26720352086E+03  0.17200000000E+03 0.  1.
</event>
<event>
 4    1 -0.7147820E-004  0.2176637E+03  0.7818608E-02  0.1135637E+00
         -5   -1    0    0    0  501 -0.00000000000E+00  0.00000000000E+00  0.46988808924E+02  0.47223279896E+02  0.47000000000E+01 0.  1.
          5   -1    0    0  501    0  0.00000000000E+00 -0.00000000000E+00 -0.14690343678E+04  0.14690418863E+04  0.47000000000E+01 0. -1.
          6    1    1    2  502    0 -0.27946194593E+02  0.13043203890E+03 -0.11368402156E+04  0.11574900355E+04  0.17200000000E+03 0. -1.
         -6    1    1    2    0  502  0.27946194593E+02 -0.13043203890E+03 -0.28520534328E+03  0.35877513069E+03  0.17200000000E+03 0.  1.
</event>
<event>
 4    1 -0.7147820E-004  0.2712952E+03  0.7818608E-02  0.1100541E+00
          5   -1    0    0  501    0  0.00000000000E+00  0.00000000000E+00  0.76493277101E+03  0.76494721006E+03  0.47000000000E+01 0. -1.
         -5   -1    0    0    0  501 -0.00000000000E+00 -0.00000000000E+00 -0.97018646055E+02  0.97132423434E+02  0.47000000000E+01 0.  1.
          6    1    1    2  502    0 -0.20568233392E+03 -0.41374877432E+02  0.37480284498E+03  0.46268593622E+03  0.17200000000E+03 0.  1.
         -6    1    1    2    0  502  0.20568233392E+03  0.41374877432E+02  0.29311127998E+03  0.39939369727E+03  0.17200000000E+03 0. -1.
</event>
<event>
 4    1 -0.7147820E-004  0.1869876E+03  0.7818608E-02  0.1161207E+00
         -5   -1    0    0    0  501 -0.00000000000E+00  0.00000000000E+00  0.11936039620E+03  0.11945289524E+03  0.47000000000E+01 0.  1.
          5   -1    0    0  501    0  0.00000000000E+00 -0.00000000000E+00 -0.52092036608E+03  0.52094156850E+03  0.47000000000E+01 0. -1.
          6    1    1    2  502    0  0.64285383783E+02  0.35323639553E+02 -0.41269040596E+03  0.45307586699E+03  0.17200000000E+03 0. -1.
         -6    1    1    2    0  502 -0.64285383783E+02 -0.35323639553E+02  0.11130436081E+02  0.18731859675E+03  0.17200000000E+03 0.  1.
</event>
<event>
 4    1 -0.7147820E-004  0.1812871E+03  0.7818608E-02  0.1166563E+00
         -5   -1    0    0    0  501 -0.00000000000E+00  0.00000000000E+00  0.54814378937E+03  0.54816393882E+03  0.47000000000E+01 0.  1.
          5   -1    0    0  501    0  0.00000000000E+00 -0.00000000000E+00 -0.88000949198E+02  0.88126369832E+02  0.47000000000E+01 0. -1.
          6    1    1    2  502    0  0.47425870146E+02 -0.32121684588E+02  0.50289258436E+02  0.18813299895E+03  0.17200000000E+03 0. -1.
         -6    1    1    2    0  502 -0.47425870146E+02  0.32121684588E+02  0.40985358174E+03  0.44815730971E+03  0.17200000000E+03 0.  1.
</event>
<event>
 4    1 -0.7147820E-004  0.1749888E+03  0.7818608E-02  0.1172743E+00
         -5   -1    0    0    0  501 -0.00000000000E+00  0.00000000000E+00  0.67478092843E+02  0.67641577552E+02  0.47000000000E+01 0.  1.
          5   -1    0    0  501    0  0.00000000000E+00 -0.00000000000E+00 -0.49722466205E+03  0.49724687485E+03  0.47000000000E+01 0. -1.
          6    1    1    2  502    0 -0.25116135541E+02  0.20156139742E+02 -0.29902662614E+03  0.34646502475E+03  0.17200000000E+03 0. -1.
         -6    1    1    2    0  502  0.25116135541E+02 -0.20156139742E+02 -0.13071994307E+03  0.21842342766E+03  0.17200000000E+03 0.  1.
</event>
<event>
 4    1 -0.7147820E-004  0.2363516E+03  0.7818608E-02  0.1122247E+00
         -5   -1    0    0    0  501 -0.00000000000E+00  0.00000000000E+00  0.86255513518E+02  0.86383468397E+02  0.47000000000E+01 0.  1.
          5   -1    0    0  501    0  0.00000000000E+00 -0.00000000000E+00 -0.16712676379E+04  0.16712742467E+04  0.47000000000E+01 0. -1.
          6    1    1    2  502    0  0.25658939014E+02  0.16006155565E+03 -0.14804704605E+04  0.14992180853E+04  0.17200000000E+03 0. -1.
         -6    1    1    2    0  502 -0.25658939014E+02 -0.16006155565E+03 -0.10454166386E+03  0.25843962976E+03  0.17200000000E+03 0.  1.
</event>
<event>
 4    1 -0.7147820E-004  0.2015668E+03  0.7818608E-02  0.1148424E+00
         -5   -1    0    0    0  501 -0.00000000000E+00  0.00000000000E+00  0.84003649369E+03  0.84004964183E+03  0.47000000000E+01 0.  1.
          5   -1    0    0  501    0  0.00000000000E+00 -0.00000000000E+00 -0.14748954838E+03  0.14756441604E+03  0.47000000000E+01 0. -1.
          6    1    1    2  502    0  0.57506157330E+02  0.87967053589E+02 -0.58584159896E+02  0.20990775221E+03  0.17200000000E+03 0. -1.
         -6    1    1    2    0  502 -0.57506157330E+02 -0.87967053589E+02  0.75113110521E+03  0.77770630566E+03  0.17200000000E+03 0.  1.
</event>
<event>
 4    1 -0.7147820E-004  0.1898526E+03  0.7818608E-02  0.1158594E+00
          5   -1    0    0  501    0  0.00000000000E+00  0.00000000000E+00  0.26623746417E+03  0.26627894646E+03  0.47000000000E+01 0. -1.
         -5   -1    0    0    0  501 -0.00000000000E+00 -0.00000000000E+00 -0.26551142303E+03  0.26555301874E+03  0.47000000000E+01 0.  1.
          6    1    1    2  502    0 -0.11661115650E+02 -0.79523692503E+02 -0.18582839529E+03  0.26566179963E+03  0.17200000000E+03 0.  1.
         -6    1    1    2    0  502  0.11661115650E+02  0.79523692503E+02  0.18655443642E+03  0.26617016556E+03  0.17200000000E+03 0. -1.
</event>
<event>
 4    1 -0.7147820E-004  0.2076921E+03  0.7818608E-02  0.1143407E+00
         -5   -1    0    0    0  501 -0.00000000000E+00  0.00000000000E+00  0.11079713699E+03  0.11089677888E+03  0.47000000000E+01 0.  1.
          5   -1    0    0  501    0  0.00000000000E+00 -0.00000000000E+00 -0.93681005912E+03  0.93682184905E+03  0.47000000000E+01 0. -1.
          6    1    1    2  502    0  0.74227075891E+02  0.89679186492E+02 -0.81356140117E+03  0.83965360045E+03  0.17200000000E+03 0. -1.
         -6    1    1    2    0  502 -0.74227075891E+02 -0.89679186492E+02 -0.12451520960E+02  0.20806502748E+03  0.17200000000E+03 0.  1.
</event>
<event>
 4    1 -0.7147820E-004  0.2156365E+03  0.7818608E-02  0.1137179E+00
          5   -1    0    0  501    0  0.00000000000E+00  0.00000000000E+00  0.87276690855E+02  0.87403150782E+02  0.47000000000E+01 0. -1.
         -5   -1    0    0    0  501 -0.00000000000E+00 -0.00000000000E+00 -0.67685910173E+03  0.67687541955E+03  0.47000000000E+01 0.  1.
          6    1    1    2  502    0  0.12723646178E+03  0.26944056824E+02 -0.11818104444E+03  0.24589806561E+03  0.17200000000E+03 0. -1.
         -6    1    1    2    0  502 -0.12723646178E+03 -0.26944056824E+02 -0.47140136644E+03  0.51838050473E+03  0.17200000000E+03 0.  1.
</event>
<event>
 4    1 -0.7147820E-004  0.5751591E+03  0.7818608E-02  0.9958327E-01
         -5   -1    0    0    0  501 -0.00000000000E+00  0.00000000000E+00  0.42444738896E+03  0.42447341023E+03  0.47000000000E+01 0.  1.
          5   -1    0    0  501    0  0.00000000000E+00 -0.00000000000E+00 -0.20526017312E+04  0.20526071122E+04  0.47000000000E+01 0. -1.
          6    1    1    2  502    0 -0.29880796255E+03  0.46036702047E+03 -0.17895492877E+04  0.18797059996E+04  0.17200000000E+03 0. -1.
         -6    1    1    2    0  502  0.29880796255E+03 -0.46036702047E+03  0.16139494545E+03  0.59737452276E+03  0.17200000000E+03 0.  1.
</event>
<event>
 4    1 -0.7147820E-004  0.1843659E+03  0.7818608E-02  0.1163643E+00
         -5   -1    0    0    0  501 -0.00000000000E+00  0.00000000000E+00  0.57014626052E+02  0.57208020276E+02  0.47000000000E+01 0.  1.
          5   -1    0    0  501    0  0.00000000000E+00 -0.00000000000E+00 -0.67990677040E+03  0.67992301508E+03  0.47000000000E+01 0. -1.
          6    1    1    2  502    0  0.50580774982E+02  0.42992800259E+02 -0.44169800777E+03  0.47863130459E+03  0.17200000000E+03 0. -1.
         -6    1    1    2    0  502 -0.50580774982E+02 -0.42992800259E+02 -0.18119413658E+03  0.25849973076E+03  0.17200000000E+03 0.  1.
</event>
<event>
 4    1 -0.7147820E-004  0.2055961E+03  0.7818608E-02  0.1145102E+00
         -5   -1    0    0    0  501 -0.00000000000E+00  0.00000000000E+00  0.36105143214E+03  0.36108202205E+03  0.47000000000E+01 0.  1.
          5   -1    0    0  501    0  0.00000000000E+00 -0.00000000000E+00 -0.12485957109E+03  0.12494799916E+03  0.47000000000E+01 0. -1.
          6    1    1    2  502    0 -0.11261391360E+03 -0.19629464464E+01  0.57121198212E+02  0.21338364038E+03  0.17200000000E+03 0. -1.
         -6    1    1    2    0  502  0.11261391360E+03  0.19629464464E+01  0.17907066283E+03  0.27264638084E+03  0.17200000000E+03 0.  1.
</event>
<event>
 4    1 -0.7147820E-004  0.1772389E+03  0.7818608E-02  0.1170502E+00
          5   -1    0    0  501    0  0.00000000000E+00  0.00000000000E+00  0.39913616862E+03  0.39916383992E+03  0.47000000000E+01 0. -1.
         -5   -1    0    0    0  501 -0.00000000000E+00 -0.00000000000E+00 -0.14212343877E+03  0.14220113167E+03  0.47000000000E+01 0.  1.
          6    1    1    2  502    0  0.62228461776E+01 -0.42319043550E+02  0.30937937149E+03  0.35655184864E+03  0.17200000000E+03 0.  1.
         -6    1    1    2    0  502 -0.62228461776E+01  0.42319043550E+02 -0.52366641641E+02  0.18481312296E+03  0.17200000000E+03 0.  1.
</event>
<event>
 4    1 -0.7147820E-004  0.2000327E+03  0.7818608E-02  0.1149711E+00
         -5   -1    0    0    0  501 -0.00000000000E+00  0.00000000000E+00  0.55011439671E+02  0.55211851034E+02  0.47000000000E+01 0.  1.
          5   -1    0    0  501    0  0.00000000000E+00 -0.00000000000E+00 -0.89332879557E+03  0.89334115935E+03  0.47000000000E+01 0. -1.
          6    1    1    2  502    0 -0.82567013780E+02 -0.60098135871E+02 -0.62450218068E+03  0.65575610662E+03  0.17200000000E+03 0. -1.
         -6    1    1    2    0  502  0.82567013780E+02  0.60098135871E+02 -0.21381517522E+03  0.29279690376E+03  0.17200000000E+03 0.  1.
</event>
<event>
 4    1 -0.7147820E-004  0.1986064E+03  0.7818608E-02  0.1150920E+00
          5   -1    0    0  501    0  0.00000000000E+00  0.00000000000E+00  0.16460087790E+03  0.16466796593E+03  0.47000000000E+01 0. -1.
         -5   -1    0    0    0  501 -0.00000000000E+00 -0.00000000000E+00 -0.25367175539E+03  0.25371529218E+03  0.47000000000E+01 0.  1.
          6    1    1    2  502    0 -0.68897601383E+02 -0.71509515766E+02  0.49015223610E+01  0.19866684485E+03  0.17200000000E+03 0. -1.
         -6    1    1    2    0  502  0.68897601383E+02  0.71509515766E+02 -0.93972399854E+02  0.21971641326E+03  0.17200000000E+03 0. -1.
</event>
<event>
 4    1 -0.7147820E-004  0.1919023E+03  0.7818608E-02  0.1156757E+00
         -5   -1    0    0    0  501 -0.00000000000E+00  0.00000000000E+00  0.26075432116E+03  0.26079667560E+03  0.47000000000E+01 0.  1.
          5   -1    0    0  501    0  0.00000000000E+00 -0.00000000000E+00 -0.78506894522E+03  0.78508301392E+03  0.47000000000E+01 0. -1.
          6    1    1    2  502    0 -0.72389028192E+02  0.44747360984E+02 -0.73573704353E+03  0.76035221769E+03  0.17200000000E+03 0. -1.
         -6    1    1    2    0  502  0.72389028192E+02 -0.44747360984E+02  0.21142241947E+03  0.28552747184E+03  0.17200000000E+03 0.  1.
</event>
<event>
 4    1 -0.7147820E-004  0.1841952E+03  0.7818608E-02  0.1163804E+00
          5   -1    0    0  501    0  0.00000000000E+00  0.00000000000E+00  0.21889383554E+03  0.21894428797E+03  0.47000000000E+01 0. -1.
         -5   -1    0    0    0  501 -0.00000000000E+00 -0.00000000000E+00 -0.27025089847E+03  0.27029176481E+03  0.47000000000E+01 0.  1.
          6    1    1    2  502    0 -0.33740406625E+02  0.56616878648E+02  0.13410900681E+03  0.22784449016E+03  0.17200000000E+03 0. -1.
         -6    1    1    2    0  502  0.33740406625E+02 -0.56616878648E+02 -0.18546606974E+03  0.26139156263E+03  0.17200000000E+03 0.  1.
</event>
<event>
 4    1 -0.7147820E-004  0.2683923E+03  0.7818608E-02  0.1102203E+00
         -5   -1    0    0    0  501 -0.00000000000E+00  0.00000000000E+00  0.75141127832E+03  0.75142597719E+03  0.47000000000E+01 0.  1.
          5   -1    0    0  501    0  0.00000000000E+00 -0.00000000000E+00 -0.26355687810E+03  0.26359878223E+03  0.47000000000E+01 0. -1.
          6    1    1    2  502    0 -0.17764446335E+03 -0.10436894883E+03 -0.16091223238E+03  0.31293318674E+03  0.17200000000E+03 0. -1.
         -6    1    1    2    0  502  0.17764446335E+03  0.10436894883E+03  0.64876663260E+03  0.70209157267E+03  0.17200000000E+03 0.  1.
</event>
<event>
 4    1 -0.7147820E-004  0.2007154E+03  0.7818608E-02  0.1149137E+00
          5   -1    0    0  501    0  0.00000000000E+00  0.00000000000E+00  0.96287443853E+02  0.96402084229E+02  0.47000000000E+01 0. -1.
         -5   -1    0    0    0  501 -0.00000000000E+00 -0.00000000000E+00 -0.19459424163E+04  0.19459480922E+04  0.47000000000E+01 0.  1.
          6    1    1    2  502    0 -0.17052082514E+02  0.10203861223E+03 -0.19989444889E+02  0.20170827899E+03  0.17200000000E+03 0. -1.
         -6    1    1    2    0  502  0.17052082514E+02 -0.10203861223E+03 -0.18296655275E+04  0.18406418974E+04  0.17200000000E+03 0.  1.
</event>
<event>
 4    1 -0.7147820E-004  0.1746449E+03  0.7818608E-02  0.1173089E+00
          5   -1    0    0  501    0  0.00000000000E+00  0.00000000000E+00  0.50521617684E+03  0.50523803829E+03  0.47000000000E+01 0. -1.
         -5   -1    0    0    0  501 -0.00000000000E+00 -0.00000000000E+00 -0.47077311922E+03  0.47079658004E+03  0.47000000000E+01 0.  1.
          6    1    1    2  502    0  0.19581460056E+02  0.23095710332E+02  0.47287712097E+03  0.50409683291E+03  0.17200000000E+03 0. -1.
         -6    1    1    2    0  502 -0.19581460056E+02 -0.23095710332E+02 -0.43843406335E+03  0.47193778543E+03  0.17200000000E+03 0.  1.
</event>
<event>
 4    1 -0.7147820E-004  0.3464488E+03  0.7818608E-02  0.1064082E+00
          5   -1    0    0  501    0  0.00000000000E+00  0.00000000000E+00  0.11221585779E+04  0.11221684204E+04  0.47000000000E+01 0. -1.
         -5   -1    0    0    0  501 -0.00000000000E+00 -0.00000000000E+00 -0.30631822019E+03  0.30635427534E+03  0.47000000000E+01 0.  1.
          6    1    1    2  502    0 -0.21617093270E+03 -0.20907631953E+03  0.98415333025E+03  0.10433525564E+04  0.17200000000E+03 0. -1.
         -6    1    1    2    0  502  0.21617093270E+03  0.20907631953E+03 -0.16831297258E+03  0.38517013938E+03  0.17200000000E+03 0.  1.
</event>
<event>
 4    1 -0.7147820E-004  0.1812934E+03  0.7818608E-02  0.1166557E+00
          5   -1    0    0  501    0  0.00000000000E+00  0.00000000000E+00  0.12901776195E+03  0.12910334194E+03  0.47000000000E+01 0. -1.
         -5   -1    0    0    0  501 -0.00000000000E+00 -0.00000000000E+00 -0.38875384036E+03  0.38878225062E+03  0.47000000000E+01 0.  1.
          6    1    1    2  502    0 -0.15399070267E+00  0.57299860166E+02  0.22245355341E+02  0.18265309612E+03  0.17200000000E+03 0. -1.
         -6    1    1    2    0  502  0.15399070267E+00 -0.57299860166E+02 -0.28198143375E+03  0.33523249644E+03  0.17200000000E+03 0.  1.
</event>
<event>
 4    1 -0.7147820E-004  0.1720293E+03  0.7818608E-02  0.1175748E+00
         -5   -1    0    0    0  501 -0.00000000000E+00  0.00000000000E+00  0.52906774925E+03  0.52908862519E+03  0.47000000000E+01 0.  1.
          5   -1    0    0  501    0  0.00000000000E+00 -0.00000000000E+00 -0.11469320266E+04  0.11469416566E+04  0.47000000000E+01 0. -1.
          6    1    1    2  502    0  0.30281674546E+01  0.95366266790E+00 -0.11262575920E+04  0.11393200792E+04  0.17200000000E+03 0. -1.
         -6    1    1    2    0  502 -0.30281674546E+01 -0.95366266790E+00  0.50839331462E+03  0.53671020264E+03  0.17200000000E+03 0.  1.
</event>
<event>
 4    1 -0.7147820E-004  0.1897570E+03  0.7818608E-02  0.1158681E+00
         -5   -1    0    0    0  501 -0.00000000000E+00  0.00000000000E+00  0.69992409196E+03  0.69993987206E+03  0.47000000000E+01 0.  1.
          5   -1    0    0  501    0  0.00000000000E+00 -0.00000000000E+00 -0.80970523753E+02  0.81106816710E+02  0.47000000000E+01 0. -1.
          6    1    1    2  502    0  0.68190706510E+02 -0.42115755097E+02  0.73441571090E+02  0.20347327502E+03  0.17200000000E+03 0. -1.
         -6    1    1    2    0  502 -0.68190706510E+02  0.42115755097E+02  0.54551199712E+03  0.57757341376E+03  0.17200000000E+03 0.  1.
</event>
<event>
 4    1 -0.7147820E-004  0.1752214E+03  0.7818608E-02  0.1172510E+00
         -5   -1    0    0    0  501 -0.00000000000E+00  0.00000000000E+00  0.11221957904E+03  0.11231795903E+03  0.47000000000E+01 0.  1.
          5   -1    0    0  501    0  0.00000000000E+00 -0.00000000000E+00 -0.51096672999E+03  0.51098834542E+03  0.47000000000E+01 0. -1.
          6    1    1    2  502    0 -0.21974567273E+02  0.25212387017E+02 -0.41187122995E+03  0.44759407517E+03  0.17200000000E+03 0. -1.
         -6    1    1    2    0  502  0.21974567273E+02 -0.25212387017E+02  0.13124079005E+02  0.17571222927E+03  0.17200000000E+03 0.  1.
</event>
<event>
 4    1 -0.7147820E-004  0.2031390E+03  0.7818608E-02  0.1147117E+00
         -5   -1    0    0    0  501 -0.00000000000E+00  0.00000000000E+00  0.87204621337E+02  0.87331185625E+02  0.47000000000E+01 0.  1.
          5   -1    0    0  501    0  0.00000000000E+00 -0.00000000000E+00 -0.48086290048E+03  0.48088586905E+03  0.47000000000E+01 0. -1.
          6    1    1    2  502    0  0.10806214467E+03 -0.20084566244E+01 -0.23379162900E+03  0.30971597763E+03  0.17200000000E+03 0. -1.
         -6    1    1    2    0  502 -0.10806214467E+03  0.20084566244E+01 -0.15986665014E+03  0.25850107705E+03  0.17200000000E+03 0. -1.
</event>
<event>
 4    1 -0.7147820E-004  0.1762569E+03  0.7818608E-02  0.1171476E+00
          5   -1    0    0  501    0  0.00000000000E+00  0.00000000000E+00  0.31104169697E+03  0.31107720465E+03  0.47000000000E+01 0. -1.
         -5   -1    0    0    0  501 -0.00000000000E+00 -0.00000000000E+00 -0.67173197871E+03  0.67174842108E+03  0.47000000000E+01 0.  1.
          6    1    1    2  502    0 -0.20211156587E+02  0.32772131940E+02  0.27306927905E+03  0.32501282228E+03  0.17200000000E+03 0. -1.
         -6    1    1    2    0  502  0.20211156587E+02 -0.32772131940E+02 -0.63375956080E+03  0.65781280345E+03  0.17200000000E+03 0.  1.
</event>
<event>
 4    1 -0.7147820E-004  0.5859677E+03  0.7818608E-02  0.9934954E-01
          5   -1    0    0  501    0  0.00000000000E+00  0.00000000000E+00  0.87741368173E+03  0.87742626977E+03  0.47000000000E+01 0. -1.
         -5   -1    0    0    0  501 -0.00000000000E+00 -0.00000000000E+00 -0.41508206398E+03  0.41510867232E+03  0.47000000000E+01 0.  1.
          6    1    1    2  502    0 -0.22657178934E+03 -0.51228838008E+03  0.38585005303E+03  0.70159705210E+03  0.17200000000E+03 0. -1.
         -6    1    1    2    0  502  0.22657178934E+03  0.51228838008E+03  0.76481564717E+02  0.59093789000E+03  0.17200000000E+03 0.  1.
</event>
<event>
 4    1 -0.7147820E-004  0.1863786E+03  0.7818608E-02  0.1161769E+00
         -5   -1    0    0    0  501 -0.00000000000E+00  0.00000000000E+00  0.38024702134E+03  0.38027606714E+03  0.47000000000E+01 0.  1.
          5   -1    0    0  501    0  0.00000000000E+00 -0.00000000000E+00 -0.13153106981E+03  0.13161501558E+03  0.47000000000E+01 0. -1.
          6    1    1    2  502    0  0.23746071428E+02 -0.67742978059E+02 -0.17191754625E+02  0.18716982506E+03  0.17200000000E+03 0. -1.
         -6    1    1    2    0  502 -0.23746071428E+02  0.67742978059E+02  0.26590770615E+03  0.32472125766E+03  0.17200000000E+03 0.  1.
</event>
<event>
 4    1 -0.7147820E-004  0.1989199E+03  0.7818608E-02  0.1150653E+00
          5   -1    0    0  501    0  0.00000000000E+00  0.00000000000E+00  0.24958183330E+04  0.24958227584E+04  0.47000000000E+01 0. -1.
         -5   -1    0    0    0  501 -0.00000000000E+00 -0.00000000000E+00 -0.30768403598E+02  0.31125305781E+02  0.47000000000E+01 0.  1.
          6    1    1    2  502    0 -0.87058022258E+02  0.49051363649E+02  0.21149424080E+04  0.21242764709E+04  0.17200000000E+03 0. -1.
         -6    1    1    2    0  502  0.87058022258E+02 -0.49051363649E+02  0.35010752135E+03  0.40267159327E+03  0.17200000000E+03 0.  1.
</event>
<event>
 4    1 -0.7147820E-004  0.2377819E+03  0.7818608E-02  0.1121279E+00
         -5   -1    0    0    0  501 -0.00000000000E+00  0.00000000000E+00  0.13370772732E+04  0.13370855337E+04  0.47000000000E+01 0.  1.
          5   -1    0    0  501    0  0.00000000000E+00 -0.00000000000E+00 -0.97906067165E+02  0.98018814458E+02  0.47000000000E+01 0. -1.
          6    1    1    2  502    0  0.15436048105E+03  0.55938219308E+02  0.78616945380E+02  0.25044134361E+03  0.17200000000E+03 0. -1.
         -6    1    1    2    0  502 -0.15436048105E+03 -0.55938219308E+02  0.11605542606E+04  0.11846630046E+04  0.17200000000E+03 0.  1.
</event>
<event>
 4    1 -0.7147820E-004  0.2072328E+03  0.7818608E-02  0.1143776E+00
          5   -1    0    0  501    0  0.00000000000E+00  0.00000000000E+00  0.74682274873E+02  0.74830021917E+02  0.47000000000E+01 0. -1.
         -5   -1    0    0    0  501 -0.00000000000E+00 -0.00000000000E+00 -0.16903008658E+04  0.16903074001E+04  0.47000000000E+01 0.  1.
          6    1    1    2  502    0 -0.11503465803E+03 -0.11334377917E+02 -0.90717137009E+02  0.22621900808E+03  0.17200000000E+03 0. -1.
         -6    1    1    2    0  502  0.11503465803E+03  0.11334377917E+02 -0.15249014539E+04  0.15389184139E+04  0.17200000000E+03 0.  1.
</event>
<event>
 4    1 -0.7147820E-004  0.2211016E+03  0.7818608E-02  0.1133064E+00
          5   -1    0    0  501    0  0.00000000000E+00  0.00000000000E+00  0.80333384425E+03  0.80334759309E+03  0.47000000000E+01 0. -1.
         -5   -1    0    0    0  501 -0.00000000000E+00 -0.00000000000E+00 -0.24839455234E+03  0.24843901391E+03  0.47000000000E+01 0.  1.
          6    1    1    2  502    0  0.82291373550E+02  0.11193766001E+03  0.73443708094E+03  0.76699656828E+03  0.17200000000E+03 0. -1.
         -6    1    1    2    0  502 -0.82291373550E+02 -0.11193766001E+03 -0.17949778902E+03  0.28479003872E+03  0.17200000000E+03 0.  1.
</event>
<event>
 4    1 -0.7147820E-004  0.2176525E+03  0.7818608E-02  0.1135645E+00
          5   -1    0    0  501    0  0.00000000000E+00  0.00000000000E+00  0.34482797862E+02  0.34801628530E+02  0.47000000000E+01 0. -1.
         -5   -1    0    0    0  501 -0.00000000000E+00 -0.00000000000E+00 -0.15022707412E+04  0.15022780934E+04  0.47000000000E+01 0.  1.
          6    1    1    2  502    0  0.11899260681E+03  0.60244192283E+02 -0.50343615162E+03  0.54847111313E+03  0.17200000000E+03 0. -1.
         -6    1    1    2    0  502 -0.11899260681E+03 -0.60244192283E+02 -0.96435179176E+03  0.98860860883E+03  0.17200000000E+03 0.  1.
</event>
<event>
 4    1 -0.7147820E-004  0.2055791E+03  0.7818608E-02  0.1145115E+00
          5   -1    0    0  501    0  0.00000000000E+00  0.00000000000E+00  0.16713683987E+04  0.16713750071E+04  0.47000000000E+01 0. -1.
         -5   -1    0    0    0  501 -0.00000000000E+00 -0.00000000000E+00 -0.41356481249E+03  0.41359151845E+03  0.47000000000E+01 0.  1.
          6    1    1    2  502    0 -0.57792246790E+02 -0.96637544805E+02  0.16390141357E+04  0.16518565604E+04  0.17200000000E+03 0. -1.
         -6    1    1    2    0  502  0.57792246790E+02  0.96637544805E+02 -0.38121054951E+03  0.43310996515E+03  0.17200000000E+03 0.  1.
</event>
<event>
 4    1 -0.7147820E-004  0.1918741E+03  0.7818608E-02  0.1156782E+00
          5   -1    0    0  501    0  0.00000000000E+00  0.00000000000E+00  0.23558132433E+03  0.23562820369E+03  0.47000000000E+01 0. -1.
         -5   -1    0    0    0  501 -0.00000000000E+00 -0.00000000000E+00 -0.46624460150E+03  0.46626829018E+03  0.47000000000E+01 0.  1.
          6    1    1    2  502    0  0.78599776128E+02  0.32461576706E+02  0.17083551355E+03  0.25690553023E+03  0.17200000000E+03 0. -1.
         -6    1    1    2    0  502 -0.78599776128E+02 -0.32461576706E+02 -0.40149879072E+03  0.44499096364E+03  0.17200000000E+03 0.  1.
</event>
<event>
 4    1 -0.7147820E-004  0.2261683E+03  0.7818608E-02  0.1129366E+00
          5   -1    0    0  501    0  0.00000000000E+00  0.00000000000E+00  0.63814050728E+03  0.63815781515E+03  0.47000000000E+01 0. -1.
         -5   -1    0    0    0  501 -0.00000000000E+00 -0.00000000000E+00 -0.10316230545E+03  0.10326931425E+03  0.47000000000E+01 0.  1.
          6    1    1    2  502    0 -0.12070211513E+03 -0.83660633451E+02  0.44276032941E+03  0.49718086396E+03  0.17200000000E+03 0. -1.
         -6    1    1    2    0  502  0.12070211513E+03  0.83660633451E+02  0.92217872420E+02  0.24424626544E+03  0.17200000000E+03 0.  1.
</event>
<event>
 4    1 -0.7147820E-004  0.2109801E+03  0.7818608E-02  0.1140792E+00
          5   -1    0    0  501    0  0.00000000000E+00  0.00000000000E+00  0.11941401352E+03  0.11950647106E+03  0.47000000000E+01 0. -1.
         -5   -1    0    0    0  501 -0.00000000000E+00 -0.00000000000E+00 -0.45455973034E+03  0.45458402793E+03  0.47000000000E+01 0.  1.
          6    1    1    2  502    0 -0.11776339746E+03  0.32563659751E+02 -0.45633478289E+02  0.21585880584E+03  0.17200000000E+03 0. -1.
         -6    1    1    2    0  502  0.11776339746E+03 -0.32563659751E+02 -0.28951223853E+03  0.35823169315E+03  0.17200000000E+03 0. -1.
</event>
<event>
 4    1 -0.7147820E-004  0.1775070E+03  0.7818608E-02  0.1170238E+00
          5   -1    0    0  501    0  0.00000000000E+00  0.00000000000E+00  0.18838239093E+03  0.18844101256E+03  0.47000000000E+01 0. -1.
         -5   -1    0    0    0  501 -0.00000000000E+00 -0.00000000000E+00 -0.19300560710E+03  0.19306282493E+03  0.47000000000E+01 0.  1.
          6    1    1    2  502    0 -0.38473250998E+02 -0.21083882075E+02  0.67494877764E+02  0.18990597581E+03  0.17200000000E+03 0. -1.
         -6    1    1    2    0  502  0.38473250998E+02  0.21083882075E+02 -0.72118093929E+02  0.19159786167E+03  0.17200000000E+03 0.  1.
</event>
<event>
 4    1 -0.7147820E-004  0.2492438E+03  0.7818608E-02  0.1113784E+00
         -5   -1    0    0    0  501 -0.00000000000E+00  0.00000000000E+00  0.72082828493E+03  0.72084360742E+03  0.47000000000E+01 0.  1.
          5   -1    0    0  501    0  0.00000000000E+00 -0.00000000000E+00 -0.92076510279E+02  0.92196386834E+02  0.47000000000E+01 0. -1.
          6    1    1    2  502    0  0.15409536854E+03  0.93771365858E+02  0.21089960623E+03  0.32649823210E+03  0.17200000000E+03 0. -1.
         -6    1    1    2    0  502 -0.15409536854E+03 -0.93771365858E+02  0.41785216842E+03  0.48654176215E+03  0.17200000000E+03 0.  1.
</event>
<event>
 4    1 -0.7147820E-004  0.2089009E+03  0.7818608E-02  0.1142439E+00
         -5   -1    0    0    0  501 -0.00000000000E+00  0.00000000000E+00  0.52337348716E+02  0.52547959719E+02  0.47000000000E+01 0.  1.
          5   -1    0    0  501    0  0.00000000000E+00 -0.00000000000E+00 -0.12531367632E+04  0.12531455770E+04  0.47000000000E+01 0. -1.
          6    1    1    2  502    0  0.87154157843E+02 -0.80372514277E+02 -0.97886445930E+03  0.10009071975E+04  0.17200000000E+03 0.  1.
         -6    1    1    2    0  502 -0.87154157843E+02  0.80372514277E+02 -0.22193495514E+03  0.30478633925E+03  0.17200000000E+03 0.  1.
</event>
<event>
 4    1 -0.7147820E-004  0.3364362E+03  0.7818608E-02  0.1068324E+00
          5   -1    0    0  501    0  0.00000000000E+00  0.00000000000E+00  0.11863275052E+04  0.11863368154E+04  0.47000000000E+01 0. -1.
         -5   -1    0    0    0  501 -0.00000000000E+00 -0.00000000000E+00 -0.39586162097E+03  0.39588952116E+03  0.47000000000E+01 0.  1.
          6    1    1    2  502    0  0.17136917637E+03  0.23289036491E+03  0.10844522093E+04  0.11354408444E+04  0.17200000000E+03 0. -1.
         -6    1    1    2    0  502 -0.17136917637E+03 -0.23289036491E+03 -0.29398632513E+03  0.44678549220E+03  0.17200000000E+03 0.  1.
</event>
<event>
 4    1 -0.7147820E-004  0.1764687E+03  0.7818608E-02  0.1171265E+00
         -5   -1    0    0    0  501 -0.00000000000E+00  0.00000000000E+00  0.30316004463E+03  0.30319647534E+03  0.47000000000E+01 0.  1.
          5   -1    0    0  501    0  0.00000000000E+00 -0.00000000000E+00 -0.19549727037E+03  0.19555375916E+03  0.47000000000E+01 0. -1.
          6    1    1    2  502    0 -0.31376193743E+02 -0.23932105948E+02 -0.11799615518E+03  0.21228354592E+03  0.17200000000E+03 0. -1.
         -6    1    1    2    0  502  0.31376193743E+02  0.23932105948E+02  0.22565892944E+03  0.28646668858E+03  0.17200000000E+03 0.  1.
</event>
<event>
 4    1 -0.7147820E-004  0.2008704E+03  0.7818608E-02  0.1149007E+00
         -5   -1    0    0    0  501 -0.00000000000E+00  0.00000000000E+00  0.11151866542E+04  0.11151965583E+04  0.47000000000E+01 0.  1.
          5   -1    0    0  501    0  0.00000000000E+00 -0.00000000000E+00 -0.23867820493E+03  0.23872447614E+03  0.47000000000E+01 0. -1.
          6    1    1    2  502    0 -0.96508690629E+02 -0.38091746409E+02 -0.18529635905E+03  0.27328309349E+03  0.17200000000E+03 0. -1.
         -6    1    1    2    0  502  0.96508690629E+02  0.38091746409E+02  0.10618048083E+04  0.10806379410E+04  0.17200000000E+03 0.  1.
</event>
<event>
 4    1 -0.7147820E-004  0.2205492E+03  0.7818608E-02  0.1133474E+00
          5   -1    0    0  501    0  0.00000000000E+00  0.00000000000E+00  0.50583249050E+02  0.50801132709E+02  0.47000000000E+01 0. -1.
         -5   -1    0    0    0  501 -0.00000000000E+00 -0.00000000000E+00 -0.10836763077E+04  0.10836864998E+04  0.47000000000E+01 0.  1.
          6    1    1    2  502    0 -0.41165164576E+02 -0.13177023466E+03 -0.32441990981E+03  0.39228846962E+03  0.17200000000E+03 0. -1.
         -6    1    1    2    0  502  0.41165164576E+02  0.13177023466E+03 -0.70867314883E+03  0.74219916289E+03  0.17200000000E+03 0.  1.
</event>
<event>
 4    1 -0.7147820E-004  0.2483409E+03  0.7818608E-02  0.1114358E+00
          5   -1    0    0  501    0  0.00000000000E+00  0.00000000000E+00  0.26221294148E+03  0.26225506035E+03  0.47000000000E+01 0. -1.
         -5   -1    0    0    0  501 -0.00000000000E+00 -0.00000000000E+00 -0.31395862575E+03  0.31399380358E+03  0.47000000000E+01 0.  1.
          6    1    1    2  502    0  0.79610099102E+02 -0.16047256886E+03  0.11849171465E+03  0.27516086146E+03  0.17200000000E+03 0. -1.
         -6    1    1    2    0  502 -0.79610099102E+02  0.16047256886E+03 -0.17023739893E+03  0.30108800247E+03  0.17200000000E+03 0.  1.
</event>
<event>
 4    1 -0.7147820E-004  0.1803157E+03  0.7818608E-02  0.1167498E+00
          5   -1    0    0  501    0  0.00000000000E+00  0.00000000000E+00  0.56767575478E+03  0.56769521098E+03  0.47000000000E+01 0. -1.
         -5   -1    0    0    0  501 -0.00000000000E+00 -0.00000000000E+00 -0.44072253369E+03  0.44074759409E+03  0.47000000000E+01 0.  1.
          6    1    1    2  502    0  0.43716149595E+01 -0.53950372405E+02  0.53379765057E+03  0.56343028447E+03  0.17200000000E+03 0. -1.
         -6    1    1    2    0  502 -0.43716149595E+01  0.53950372405E+02 -0.40684442948E+03  0.44501252061E+03  0.17200000000E+03 0.  1.
</event>
<event>
 4    1 -0.7147820E-004  0.1852163E+03  0.7818608E-02  0.1162848E+00
         -5   -1    0    0    0  501 -0.00000000000E+00  0.00000000000E+00  0.48482449714E+03  0.48484727805E+03  0.47000000000E+01 0.  1.
          5   -1    0    0  501    0  0.00000000000E+00 -0.00000000000E+00 -0.21011966074E+03  0.21017221945E+03  0.47000000000E+01 0. -1.
          6    1    1    2  502    0  0.67564952974E+02 -0.12492875213E+02 -0.14567858048E+03  0.23564240622E+03  0.17200000000E+03 0. -1.
         -6    1    1    2    0  502 -0.67564952974E+02  0.12492875213E+02  0.42038341688E+03  0.45937709128E+03  0.17200000000E+03 0.  1.
</event>
<event>
 4    1 -0.7147820E-004  0.2607810E+03  0.7818608E-02  0.1106675E+00
          5   -1    0    0  501    0  0.00000000000E+00  0.00000000000E+00  0.77357049818E+02  0.77499697784E+02  0.47000000000E+01 0. -1.
         -5   -1    0    0    0  501 -0.00000000000E+00 -0.00000000000E+00 -0.95857990594E+03  0.95859142812E+03  0.47000000000E+01 0.  1.
          6    1    1    2  502    0 -0.18848699174E+03  0.53808830816E+02 -0.29058215340E+03  0.39044170398E+03  0.17200000000E+03 0. -1.
         -6    1    1    2    0  502  0.18848699174E+03 -0.53808830816E+02 -0.59064070272E+03  0.64564942193E+03  0.17200000000E+03 0.  1.
</event>
<event>
 4    1 -0.7147820E-004  0.2107652E+03  0.7818608E-02  0.1140961E+00
         -5   -1    0    0    0  501 -0.00000000000E+00  0.00000000000E+00  0.97480403697E+03  0.97481536739E+03  0.47000000000E+01 0.  1.
          5   -1    0    0  501    0  0.00000000000E+00 -0.00000000000E+00 -0.31335673615E+03  0.31339198154E+03  0.47000000000E+01 0. -1.
          6    1    1    2  502    0  0.12121523088E+03 -0.12035710745E+02 -0.26471123700E+03  0.33836966401E+03  0.17200000000E+03 0. -1.
         -6    1    1    2    0  502 -0.12121523088E+03  0.12035710745E+02  0.92615853781E+03  0.94983768492E+03  0.17200000000E+03 0.  1.
</event>
<event>
 4    1 -0.7147820E-004  0.1769870E+03  0.7818608E-02  0.1170751E+00
         -5   -1    0    0    0  501 -0.00000000000E+00  0.00000000000E+00  0.69193845314E+02  0.69353285642E+02  0.47000000000E+01 0.  1.
          5   -1    0    0  501    0  0.00000000000E+00 -0.00000000000E+00 -0.10267642732E+04  0.10267750302E+04  0.47000000000E+01 0. -1.
          6    1    1    2  502    0 -0.11032275732E+02 -0.40232822611E+02 -0.88879936535E+03  0.90624980164E+03  0.17200000000E+03 0. -1.
         -6    1    1    2    0  502  0.11032275732E+02  0.40232822611E+02 -0.68771062516E+02  0.18987851422E+03  0.17200000000E+03 0.  1.
</event>
<event>
 4    1 -0.7147820E-004  0.2415609E+03  0.7818608E-02  0.1118757E+00
         -5   -1    0    0    0  501 -0.00000000000E+00  0.00000000000E+00  0.11643561516E+04  0.11643656375E+04  0.47000000000E+01 0.  1.
          5   -1    0    0  501    0  0.00000000000E+00 -0.00000000000E+00 -0.71655113428E+02  0.71809089121E+02  0.47000000000E+01 0. -1.
          6    1    1    2  502    0  0.11153443437E+03 -0.12778003021E+03  0.20699041326E+03  0.31811428347E+03  0.17200000000E+03 0. -1.
         -6    1    1    2    0  502 -0.11153443437E+03  0.12778003021E+03  0.88571062489E+03  0.91806044312E+03  0.17200000000E+03 0.  1.
</event>
<event>
 4    1 -0.7147820E-004  0.1772814E+03  0.7818608E-02  0.1170460E+00
          5   -1    0    0  501    0  0.00000000000E+00  0.00000000000E+00  0.14068570730E+04  0.14068649238E+04  0.47000000000E+01 0. -1.
         -5   -1    0    0    0  501 -0.00000000000E+00 -0.00000000000E+00 -0.44643723361E+02  0.44890444813E+02  0.47000000000E+01 0.  1.
          6    1    1    2  502    0 -0.41333909695E+02  0.11670263777E+02  0.11949283424E+04  0.12080076285E+04  0.17200000000E+03 0. -1.
         -6    1    1    2    0  502  0.41333909695E+02 -0.11670263777E+02  0.16728500724E+03  0.24374774008E+03  0.17200000000E+03 0.  1.
</event>
<event>
 4    1 -0.7147820E-004  0.2770989E+03  0.7818608E-02  0.1097284E+00
         -5   -1    0    0    0  501 -0.00000000000E+00  0.00000000000E+00  0.64482102681E+02  0.64653163621E+02  0.47000000000E+01 0.  1.
          5   -1    0    0  501    0  0.00000000000E+00 -0.00000000000E+00 -0.12832029503E+04  0.12832115576E+04  0.47000000000E+01 0. -1.
          6    1    1    2  502    0 -0.10299608984E+03  0.19128934074E+03 -0.79192446954E+03  0.83900427404E+03  0.17200000000E+03 0. -1.
         -6    1    1    2    0  502  0.10299608984E+03 -0.19128934074E+03 -0.42679637808E+03  0.50886044722E+03  0.17200000000E+03 0.  1.
</event>
<event>
 4    1 -0.7147820E-004  0.1792374E+03  0.7818608E-02  0.1168543E+00
          5   -1    0    0  501    0  0.00000000000E+00  0.00000000000E+00  0.68573440939E+03  0.68575051602E+03  0.47000000000E+01 0. -1.
         -5   -1    0    0    0  501 -0.00000000000E+00 -0.00000000000E+00 -0.15802232264E+03  0.15809220238E+03  0.47000000000E+01 0.  1.
          6    1    1    2  502    0  0.11687481494E+02  0.49045525337E+02  0.61777428854E+03  0.64325044295E+03  0.17200000000E+03 0. -1.
         -6    1    1    2    0  502 -0.11687481494E+02 -0.49045525337E+02 -0.90062201791E+02  0.20059227545E+03  0.17200000000E+03 0.  1.
</event>
<event>
 4    1 -0.7147820E-004  0.1864121E+03  0.7818608E-02  0.1161738E+00
         -5   -1    0    0    0  501 -0.00000000000E+00  0.00000000000E+00  0.21599191396E+03  0.21604304408E+03  0.47000000000E+01 0.  1.
          5   -1    0    0  501    0  0.00000000000E+00 -0.00000000000E+00 -0.93591648782E+03  0.93592828901E+03  0.47000000000E+01 0. -1.
          6    1    1    2  502    0  0.68777157472E+02 -0.20861080348E+02 -0.88411926322E+03  0.90355760948E+03  0.17200000000E+03 0. -1.
         -6    1    1    2    0  502 -0.68777157472E+02  0.20861080348E+02  0.16419468936E+03  0.24841372361E+03  0.17200000000E+03 0.  1.
</event>
<event>
 4    1 -0.7147820E-004  0.1738160E+03  0.7818608E-02  0.1173926E+00
          5   -1    0    0  501    0  0.00000000000E+00  0.00000000000E+00  0.14699052096E+04  0.14699127237E+04  0.47000000000E+01 0. -1.
         -5   -1    0    0    0  501 -0.00000000000E+00 -0.00000000000E+00 -0.26335761920E+02  0.26751866400E+02  0.47000000000E+01 0.  1.
          6    1    1    2  502    0 -0.12676967877E+01  0.25027939518E+02  0.10774510122E+04  0.10913810923E+04  0.17200000000E+03 0. -1.
         -6    1    1    2    0  502  0.12676967877E+01 -0.25027939518E+02  0.36611843545E+03  0.40528349780E+03  0.17200000000E+03 0.  1.
</event>
<event>
 4    1 -0.7147820E-004  0.1733506E+03  0.7818608E-02  0.1174398E+00
          5   -1    0    0  501    0  0.00000000000E+00  0.00000000000E+00  0.58620859239E+02  0.58808971576E+02  0.47000000000E+01 0. -1.
         -5   -1    0    0    0  501 -0.00000000000E+00 -0.00000000000E+00 -0.66233834810E+03  0.66235502366E+03  0.47000000000E+01 0.  1.
          6    1    1    2  502    0 -0.18585062494E+02  0.11000461038E+02 -0.12986862346E+03  0.21660164831E+03  0.17200000000E+03 0. -1.
         -6    1    1    2    0  502  0.18585062494E+02 -0.11000461038E+02 -0.47384886541E+03  0.50456234693E+03  0.17200000000E+03 0.  1.
</event>
<event>
 4    1 -0.7147820E-004  0.2806363E+03  0.7818608E-02  0.1095342E+00
          5   -1    0    0  501    0  0.00000000000E+00  0.00000000000E+00  0.29303716035E+03  0.29307484939E+03  0.47000000000E+01 0. -1.
         -5   -1    0    0    0  501 -0.00000000000E+00 -0.00000000000E+00 -0.28542649119E+03  0.28546518504E+03  0.47000000000E+01 0.  1.
          6    1    1    2  502    0  0.22172673059E+03  0.31586845769E+01  0.73853825470E+02  0.29019150209E+03  0.17200000000E+03 0. -1.
         -6    1    1    2    0  502 -0.22172673059E+03 -0.31586845769E+01 -0.66243156314E+02  0.28834853234E+03  0.17200000000E+03 0.  1.
</event>
<event>
 4    1 -0.7147820E-004  0.1749949E+03  0.7818608E-02  0.1172737E+00
         -5   -1    0    0    0  501 -0.00000000000E+00  0.00000000000E+00  0.34238487291E+02  0.34559571930E+02  0.47000000000E+01 0.  1.
          5   -1    0    0  501    0  0.00000000000E+00 -0.00000000000E+00 -0.14503227790E+04  0.14503303945E+04  0.47000000000E+01 0. -1.
          6    1    1    2  502    0  0.21307204714E+02 -0.24191409322E+02 -0.11695055539E+04  0.11825254593E+04  0.17200000000E+03 0. -1.
         -6    1    1    2    0  502 -0.21307204714E+02  0.24191409322E+02 -0.24657873782E+03  0.30236450718E+03  0.17200000000E+03 0.  1.
</event>
<event>
 4    1 -0.7147820E-004  0.1761896E+03  0.7818608E-02  0.1171543E+00
          5   -1    0    0  501    0  0.00000000000E+00  0.00000000000E+00  0.38169626889E+02  0.38457904478E+02  0.47000000000E+01 0. -1.
         -5   -1    0    0    0  501 -0.00000000000E+00 -0.00000000000E+00 -0.21490553752E+04  0.21490605147E+04  0.47000000000E+01 0.  1.
          6    1    1    2  502    0 -0.28872019442E+02 -0.25003742851E+02 -0.19210968091E+03  0.26067011751E+03  0.17200000000E+03 0. -1.
         -6    1    1    2    0  502  0.28872019442E+02  0.25003742851E+02 -0.19187760674E+04  0.19268483017E+04  0.17200000000E+03 0.  1.
</event>
<event>
 4    1 -0.7147820E-004  0.1741576E+03  0.7818608E-02  0.1173580E+00
         -5   -1    0    0    0  501 -0.00000000000E+00  0.00000000000E+00  0.33086770684E+02  0.33418922698E+02  0.47000000000E+01 0.  1.
          5   -1    0    0  501    0  0.00000000000E+00 -0.00000000000E+00 -0.31064469249E+04  0.31064504804E+04  0.47000000000E+01 0. -1.
          6    1    1    2  502    0  0.78211838553E+01  0.26185875292E+02 -0.28561793085E+04  0.28614840753E+04  0.17200000000E+03 0. -1.
         -6    1    1    2    0  502 -0.78211838553E+01 -0.26185875292E+02 -0.21718084571E+03  0.27838532778E+03  0.17200000000E+03 0.  1.
</event>
<event>
 4    1 -0.7147820E-004  0.1760410E+03  0.7818608E-02  0.1171691E+00
          5   -1    0    0  501    0  0.00000000000E+00  0.00000000000E+00  0.14930286450E+03  0.14937682333E+03  0.47000000000E+01 0. -1.
         -5   -1    0    0    0  501 -0.00000000000E+00 -0.00000000000E+00 -0.47042364170E+03  0.47044711995E+03  0.47000000000E+01 0.  1.
          6    1    1    2  502    0  0.29927035576E+02 -0.22601067222E+02  0.71139831522E+02  0.18987182868E+03  0.17200000000E+03 0. -1.
         -6    1    1    2    0  502 -0.29927035576E+02  0.22601067222E+02 -0.39226060872E+03  0.42995211460E+03  0.17200000000E+03 0.  1.
</event>
<event>
 4    1 -0.7147820E-004  0.1804529E+03  0.7818608E-02  0.1167365E+00
         -5   -1    0    0    0  501 -0.00000000000E+00  0.00000000000E+00  0.11732602305E+03  0.11742012470E+03  0.47000000000E+01 0.  1.
          5   -1    0    0  501    0  0.00000000000E+00 -0.00000000000E+00 -0.34986669269E+03  0.34989826043E+03  0.47000000000E+01 0. -1.
          6    1    1    2  502    0 -0.44139117086E+02  0.32109010108E+02 -0.22265050605E+03  0.28659465807E+03  0.17200000000E+03 0. -1.
         -6    1    1    2    0  502  0.44139117086E+02 -0.32109010108E+02 -0.98901635881E+01  0.18072372706E+03  0.17200000000E+03 0.  1.
</event>
<event>
 4    1 -0.7147820E-004  0.2256737E+03  0.7818608E-02  0.1129722E+00
         -5   -1    0    0    0  501 -0.00000000000E+00  0.00000000000E+00  0.32272038966E+03  0.32275461252E+03  0.47000000000E+01 0.  1.
          5   -1    0    0  501    0  0.00000000000E+00 -0.00000000000E+00 -0.35222586415E+03  0.35225722047E+03  0.47000000000E+01 0. -1.
          6    1    1    2  502    0  0.10040467285E+03  0.10612983541E+03 -0.26551978054E+03  0.34846720671E+03  0.17200000000E+03 0. -1.
         -6    1    1    2    0  502 -0.10040467285E+03 -0.10612983541E+03  0.23601430605E+03  0.32654462628E+03  0.17200000000E+03 0.  1.
</event>
<event>
 4    1 -0.7147820E-004  0.1890690E+03  0.7818608E-02  0.1159304E+00
         -5   -1    0    0    0  501 -0.00000000000E+00  0.00000000000E+00  0.36214749552E+03  0.36217799286E+03  0.47000000000E+01 0.  1.
          5   -1    0    0  501    0  0.00000000000E+00 -0.00000000000E+00 -0.42586287453E+03  0.42588880932E+03  0.47000000000E+01 0. -1.
          6    1    1    2  502    0 -0.51981234259E+02  0.58830670224E+02 -0.37722708167E+03  0.42195659448E+03  0.17200000000E+03 0. -1.
         -6    1    1    2    0  502  0.51981234259E+02 -0.58830670224E+02  0.31351170266E+03  0.36611020770E+03  0.17200000000E+03 0.  1.
</event>
<event>
 4    1 -0.7147820E-004  0.1858840E+03  0.7818608E-02  0.1162227E+00
          5   -1    0    0  501    0  0.00000000000E+00  0.00000000000E+00  0.61001739065E+02  0.61182531567E+02  0.47000000000E+01 0. -1.
         -5   -1    0    0    0  501 -0.00000000000E+00 -0.00000000000E+00 -0.12138669403E+04  0.12138760393E+04  0.47000000000E+01 0.  1.
          6    1    1    2  502    0  0.67236800651E+02  0.21167987686E+02 -0.11049789020E+03  0.21624674519E+03  0.17200000000E+03 0. -1.
         -6    1    1    2    0  502 -0.67236800651E+02 -0.21167987686E+02 -0.10423673111E+04  0.10588118257E+04  0.17200000000E+03 0.  1.
</event>
<event>
 4    1 -0.7147820E-004  0.3404013E+03  0.7818608E-02  0.1066625E+00
         -5   -1    0    0    0  501 -0.00000000000E+00  0.00000000000E+00  0.36708295756E+03  0.36711304489E+03  0.47000000000E+01 0.  1.
          5   -1    0    0  501    0  0.00000000000E+00 -0.00000000000E+00 -0.35157527321E+03  0.35160668755E+03  0.47000000000E+01 0. -1.
          6    1    1    2  502    0 -0.23772424320E+03 -0.17255792758E+03 -0.10719174670E+03  0.35687970625E+03  0.17200000000E+03 0.  1.
         -6    1    1    2    0  502  0.23772424320E+03  0.17255792758E+03  0.12269943104E+03  0.36184002619E+03  0.17200000000E+03 0. -1.
</event>
<event>
 4    1 -0.7147820E-004  0.3063124E+03  0.7818608E-02  0.1082127E+00
          5   -1    0    0  501    0  0.00000000000E+00  0.00000000000E+00  0.15297026718E+03  0.15304245373E+03  0.47000000000E+01 0. -1.
         -5   -1    0    0    0  501 -0.00000000000E+00 -0.00000000000E+00 -0.66566537296E+03  0.66568196517E+03  0.47000000000E+01 0.  1.
          6    1    1    2  502    0  0.17584922628E+03  0.18253866110E+03 -0.14136823022E+03  0.33736077083E+03  0.17200000000E+03 0. -1.
         -6    1    1    2    0  502 -0.17584922628E+03 -0.18253866110E+03 -0.37132687555E+03  0.48136364807E+03  0.17200000000E+03 0.  1.
</event>
<event>
 4    1 -0.7147820E-004  0.1929876E+03  0.7818608E-02  0.1155794E+00
          5   -1    0    0  501    0  0.00000000000E+00  0.00000000000E+00  0.85788287159E+03  0.85789574621E+03  0.47000000000E+01 0. -1.
         -5   -1    0    0    0  501 -0.00000000000E+00 -0.00000000000E+00 -0.15930549263E+03  0.15937480974E+03  0.47000000000E+01 0.  1.
          6    1    1    2  502    0  0.31945103614E+02 -0.81484450315E+02  0.78314066998E+03  0.80656897676E+03  0.17200000000E+03 0. -1.
         -6    1    1    2    0  502 -0.31945103614E+02  0.81484450315E+02 -0.84563291020E+02  0.21070157920E+03  0.17200000000E+03 0.  1.
</event>
<event>
 4    1 -0.7147820E-004  0.2171582E+03  0.7818608E-02  0.1136020E+00
         -5   -1    0    0    0  501 -0.00000000000E+00  0.00000000000E+00  0.14776155771E+03  0.14783628762E+03  0.47000000000E+01 0.  1.
          5   -1    0    0  501    0  0.00000000000E+00 -0.00000000000E+00 -0.37212969125E+03  0.37215937058E+03  0.47000000000E+01 0. -1.
          6    1    1    2  502    0 -0.83409997543E+02  0.10303621235E+03 -0.21043419428E+03  0.30239087101E+03  0.17200000000E+03 0. -1.
         -6    1    1    2    0  502  0.83409997543E+02 -0.10303621235E+03 -0.13933939253E+02  0.21760478719E+03  0.17200000000E+03 0.  1.
</event>
<event>
 4    1 -0.7147820E-004  0.1972273E+03  0.7818608E-02  0.1152100E+00
          5   -1    0    0  501    0  0.00000000000E+00  0.00000000000E+00  0.68887239210E+02  0.69047387540E+02  0.47000000000E+01 0. -1.
         -5   -1    0    0    0  501 -0.00000000000E+00 -0.00000000000E+00 -0.56909494266E+03  0.56911435034E+03  0.47000000000E+01 0.  1.
          6    1    1    2  502    0  0.64283820683E+02 -0.71987537981E+02 -0.28074504329E+03  0.34309822873E+03  0.17200000000E+03 0.  1.
         -6    1    1    2    0  502 -0.64283820683E+02  0.71987537981E+02 -0.21946266016E+03  0.29506350915E+03  0.17200000000E+03 0. -1.
</event>
<event>
 4    1 -0.7147820E-004  0.1798490E+03  0.7818608E-02  0.1167949E+00
         -5   -1    0    0    0  501 -0.00000000000E+00  0.00000000000E+00  0.77086302704E+02  0.77229450759E+02  0.47000000000E+01 0.  1.
          5   -1    0    0  501    0  0.00000000000E+00 -0.00000000000E+00 -0.77483712662E+03  0.77485138110E+03  0.47000000000E+01 0. -1.
          6    1    1    2  502    0 -0.20708425284E+02 -0.48299319959E+02 -0.63753780708E+03  0.66241989602E+03  0.17200000000E+03 0. -1.
         -6    1    1    2    0  502  0.20708425284E+02  0.48299319959E+02 -0.60213016836E+02  0.18966093584E+03  0.17200000000E+03 0.  1.
</event>
<event>
 4    1 -0.7147820E-004  0.3037394E+03  0.7818608E-02  0.1083386E+00
          5   -1    0    0  501    0  0.00000000000E+00  0.00000000000E+00  0.52424795971E+03  0.52426902756E+03  0.47000000000E+01 0. -1.
         -5   -1    0    0    0  501 -0.00000000000E+00 -0.00000000000E+00 -0.38665628733E+03  0.38668485169E+03  0.47000000000E+01 0.  1.
          6    1    1    2  502    0 -0.23838767923E+03  0.76452236442E+02  0.40502159077E+03  0.50626091994E+03  0.17200000000E+03 0. -1.
         -6    1    1    2    0  502  0.23838767923E+03 -0.76452236442E+02 -0.26742991839E+03  0.40469295931E+03  0.17200000000E+03 0.  1.
</event>
<event>
 4    1 -0.7147820E-004  0.1792828E+03  0.7818608E-02  0.1168499E+00
          5   -1    0    0  501    0  0.00000000000E+00  0.00000000000E+00  0.23486901969E+03  0.23491604119E+03  0.47000000000E+01 0. -1.
         -5   -1    0    0    0  501 -0.00000000000E+00 -0.00000000000E+00 -0.13687409526E+03  0.13695476608E+03  0.47000000000E+01 0.  1.
          6    1    1    2  502    0 -0.42129712796E+02  0.27989661224E+02  0.43425656587E+02  0.18446712847E+03  0.17200000000E+03 0.  1.
         -6    1    1    2    0  502  0.42129712796E+02 -0.27989661224E+02  0.54569267844E+02  0.18740367880E+03  0.17200000000E+03 0. -1.
</event>
<event>
 4    1 -0.7147820E-004  0.2436450E+03  0.7818608E-02  0.1117388E+00
          5   -1    0    0  501    0  0.00000000000E+00  0.00000000000E+00  0.14748730820E+04  0.14748805708E+04  0.47000000000E+01 0. -1.
         -5   -1    0    0    0  501 -0.00000000000E+00 -0.00000000000E+00 -0.64122545735E+02  0.64294563312E+02  0.47000000000E+01 0.  1.
          6    1    1    2  502    0  0.17062910928E+03  0.25779517350E+02  0.11755291958E+04  0.12005131264E+04  0.17200000000E+03 0. -1.
         -6    1    1    2    0  502 -0.17062910928E+03 -0.25779517350E+02  0.23522134050E+03  0.33866200772E+03  0.17200000000E+03 0.  1.
</event>
<event>
 4    1 -0.7147820E-004  0.2358290E+03  0.7818608E-02  0.1122603E+00
         -5   -1    0    0    0  501 -0.00000000000E+00  0.00000000000E+00  0.94920420069E+02  0.95036709466E+02  0.47000000000E+01 0.  1.
          5   -1    0    0  501    0  0.00000000000E+00 -0.00000000000E+00 -0.65143830141E+03  0.65145525598E+03  0.47000000000E+01 0. -1.
          6    1    1    2  502    0 -0.70164242426E+02  0.14528693360E+03 -0.39705733541E+03  0.46181147841E+03  0.17200000000E+03 0. -1.
         -6    1    1    2    0  502  0.70164242426E+02 -0.14528693360E+03 -0.15946054594E+03  0.28468048704E+03  0.17200000000E+03 0.  1.
</event>
<event>
 4    1 -0.7147820E-004  0.1732798E+03  0.7818608E-02  0.1174470E+00
         -5   -1    0    0    0  501 -0.00000000000E+00  0.00000000000E+00  0.54322923463E+03  0.54324956636E+03  0.47000000000E+01 0.  1.
          5   -1    0    0  501    0  0.00000000000E+00 -0.00000000000E+00 -0.16181301194E+03  0.16188125535E+03  0.47000000000E+01 0. -1.
          6    1    1    2  502    0 -0.20701469631E+02 -0.36499224440E+01 -0.95399553422E+02  0.19780532746E+03  0.17200000000E+03 0. -1.
         -6    1    1    2    0  502  0.20701469631E+02  0.36499224440E+01  0.47681577611E+03  0.50732549426E+03  0.17200000000E+03 0.  1.
</event>
<event>
 4    1 -0.7147820E-004  0.1930435E+03  0.7818608E-02  0.1155745E+00
          5   -1    0    0  501    0  0.00000000000E+00  0.00000000000E+00  0.28839674492E+03  0.28843504031E+03  0.47000000000E+01 0. -1.
         -5   -1    0    0    0  501 -0.00000000000E+00 -0.00000000000E+00 -0.16094381689E+03  0.16101242870E+03  0.47000000000E+01 0.  1.
          6    1    1    2  502    0 -0.79709289270E+02  0.36444891743E+02 -0.36154130255E+02  0.19639990342E+03  0.17200000000E+03 0.  1.
         -6    1    1    2    0  502  0.79709289270E+02 -0.36444891743E+02  0.16360705828E+03  0.25304756559E+03  0.17200000000E+03 0.  1.
</event>
<event>
 4    1 -0.7147820E-004  0.1962654E+03  0.7818608E-02  0.1152929E+00
         -5   -1    0    0    0  501 -0.00000000000E+00  0.00000000000E+00  0.82418157840E+03  0.82419497946E+03  0.47000000000E+01 0.  1.
          5   -1    0    0  501    0  0.00000000000E+00 -0.00000000000E+00 -0.12214163378E+03  0.12223202814E+03  0.47000000000E+01 0. -1.
          6    1    1    2  502    0  0.54541947093E+02  0.77209422063E+02 -0.20847940491E+02  0.19736959105E+03  0.17200000000E+03 0. -1.
         -6    1    1    2    0  502 -0.54541947093E+02 -0.77209422063E+02  0.72288788511E+03  0.74905741655E+03  0.17200000000E+03 0.  1.
</event>
<event>
 4    1 -0.7147820E-004  0.1852677E+03  0.7818608E-02  0.1162800E+00
         -5   -1    0    0    0  501 -0.00000000000E+00  0.00000000000E+00  0.20772658120E+03  0.20777974526E+03  0.47000000000E+01 0.  1.
          5   -1    0    0  501    0  0.00000000000E+00 -0.00000000000E+00 -0.38420400331E+03  0.38423274998E+03  0.47000000000E+01 0. -1.
          6    1    1    2  502    0  0.44183188850E+02 -0.52801075035E+02 -0.31172921481E+03  0.36262819949E+03  0.17200000000E+03 0. -1.
         -6    1    1    2    0  502 -0.44183188850E+02  0.52801075035E+02  0.13525179271E+03  0.22938429574E+03  0.17200000000E+03 0.  1.
</event>
<event>
 4    1 -0.7147820E-004  0.2591708E+03  0.7818608E-02  0.1107642E+00
         -5   -1    0    0    0  501 -0.00000000000E+00  0.00000000000E+00  0.12594151199E+04  0.12594238898E+04  0.47000000000E+01 0.  1.
          5   -1    0    0  501    0  0.00000000000E+00 -0.00000000000E+00 -0.16011306401E+03  0.16018203166E+03  0.47000000000E+01 0. -1.
          6    1    1    2  502    0 -0.66161381233E+02 -0.18223114914E+03 -0.30041027039E+02  0.26090608155E+03  0.17200000000E+03 0. -1.
         -6    1    1    2    0  502  0.66161381233E+02  0.18223114914E+03  0.11293430829E+04  0.11586998399E+04  0.17200000000E+03 0.  1.
</event>
<event>
 4    1 -0.7147820E-004  0.1782030E+03  0.7818608E-02  0.1169554E+00
         -5   -1    0    0    0  501 -0.00000000000E+00  0.00000000000E+00  0.31082444344E+03  0.31085997594E+03  0.47000000000E+01 0.  1.
          5   -1    0    0  501    0  0.00000000000E+00 -0.00000000000E+00 -0.53866863712E+03  0.53868914098E+03  0.47000000000E+01 0. -1.
          6    1    1    2  502    0 -0.91902623544E+01 -0.45693061057E+02 -0.49630398127E+03  0.52732718361E+03  0.17200000000E+03 0. -1.
         -6    1    1    2    0  502  0.91902623544E+01  0.45693061057E+02  0.26845978759E+03  0.32222193331E+03  0.17200000000E+03 0.  1.
</event>
<event>
 4    1 -0.7147820E-004  0.1990996E+03  0.7818608E-02  0.1150501E+00
          5   -1    0    0  501    0  0.00000000000E+00  0.00000000000E+00  0.10277773163E+03  0.10288514042E+03  0.47000000000E+01 0. -1.
         -5   -1    0    0    0  501 -0.00000000000E+00 -0.00000000000E+00 -0.53521023308E+03  0.53523086943E+03  0.47000000000E+01 0.  1.
          6    1    1    2  502    0 -0.86246083616E+02  0.51169045294E+02 -0.47417881148E+02  0.20466830138E+03  0.17200000000E+03 0. -1.
         -6    1    1    2    0  502  0.86246083616E+02 -0.51169045294E+02 -0.38501462030E+03  0.43344770848E+03  0.17200000000E+03 0.  1.
</event>
<event>
 4    1 -0.7147820E-004  0.1723960E+03  0.7818608E-02  0.1175372E+00
         -5   -1    0    0    0  501 -0.00000000000E+00  0.00000000000E+00  0.96748054217E+02  0.96862149443E+02  0.47000000000E+01 0.  1.
          5   -1    0    0  501    0  0.00000000000E+00 -0.00000000000E+00 -0.59279289020E+03  0.59281152205E+03  0.47000000000E+01 0. -1.
          6    1    1    2  502    0 -0.59907284674E+01 -0.10024800643E+02 -0.48747903981E+03  0.51706498596E+03  0.17200000000E+03 0. -1.
         -6    1    1    2    0  502  0.59907284674E+01  0.10024800643E+02 -0.85657961738E+01  0.17260868553E+03  0.17200000000E+03 0.  1.
</event>
<event>
 4    1 -0.7147820E-004  0.1762098E+03  0.7818608E-02  0.1171522E+00
          5   -1    0    0  501    0  0.00000000000E+00  0.00000000000E+00  0.14619003813E+04  0.14619079365E+04  0.47000000000E+01 0. -1.
         -5   -1    0    0    0  501 -0.00000000000E+00 -0.00000000000E+00 -0.30933339022E+02  0.31288359865E+02  0.47000000000E+01 0.  1.
          6    1    1    2  502    0  0.38286754415E+02  0.28773469014E-01  0.11361483604E+04  0.11497316962E+04  0.17200000000E+03 0. -1.
         -6    1    1    2    0  502 -0.38286754415E+02 -0.28773469014E-01  0.29481868182E+03  0.34346460013E+03  0.17200000000E+03 0.  1.
</event>
<event>
 4    1 -0.7147820E-004  0.2941782E+03  0.7818608E-02  0.1088188E+00
          5   -1    0    0  501    0  0.00000000000E+00  0.00000000000E+00  0.67785233998E+03  0.67786863389E+03  0.47000000000E+01 0. -1.
         -5   -1    0    0    0  501 -0.00000000000E+00 -0.00000000000E+00 -0.52295546139E+03  0.52297658131E+03  0.47000000000E+01 0.  1.
          6    1    1    2  502    0  0.20824947418E+03  0.11657173618E+03  0.59946590248E+03  0.66775757683E+03  0.17200000000E+03 0. -1.
         -6    1    1    2    0  502 -0.20824947418E+03 -0.11657173618E+03 -0.44456902390E+03  0.53308763837E+03  0.17200000000E+03 0.  1.
</event>
<event>
 4    1 -0.7147820E-004  0.2189793E+03  0.7818608E-02  0.1134646E+00
          5   -1    0    0  501    0  0.00000000000E+00  0.00000000000E+00  0.15934212182E+03  0.15941142301E+03  0.47000000000E+01 0. -1.
         -5   -1    0    0    0  501 -0.00000000000E+00 -0.00000000000E+00 -0.14818134589E+04  0.14818209125E+04  0.47000000000E+01 0.  1.
          6    1    1    2  502    0 -0.13082789442E+03 -0.35383425817E+02  0.71353189379E+02  0.23031109920E+03  0.17200000000E+03 0. -1.
         -6    1    1    2    0  502  0.13082789442E+03  0.35383425817E+02 -0.13938245264E+04  0.14109212364E+04  0.17200000000E+03 0.  1.
</event>
<event>
 4    1 -0.7147820E-004  0.2601385E+03  0.7818608E-02  0.1107060E+00
          5   -1    0    0  501    0  0.00000000000E+00  0.00000000000E+00  0.15686348913E+03  0.15693388488E+03  0.47000000000E+01 0. -1.
         -5   -1    0    0    0  501 -0.00000000000E+00 -0.00000000000E+00 -0.10220118258E+04  0.10220226329E+04  0.47000000000E+01 0.  1.
          6    1    1    2  502    0  0.41090615447E+02 -0.19078681338E+03  0.15588392238E+02  0.26060515116E+03  0.17200000000E+03 0. -1.
         -6    1    1    2    0  502 -0.41090615447E+02  0.19078681338E+03 -0.88073672894E+03  0.91835136661E+03  0.17200000000E+03 0.  1.
</event>
<event>
 4    1 -0.7147820E-004  0.2017492E+03  0.7818608E-02  0.1148272E+00
         -5   -1    0    0    0  501 -0.00000000000E+00  0.00000000000E+00  0.45420130917E+03  0.45422562593E+03  0.47000000000E+01 0.  1.
          5   -1    0    0  501    0  0.00000000000E+00 -0.00000000000E+00 -0.30425568076E+03  0.30429198030E+03  0.47000000000E+01 0. -1.
          6    1    1    2  502    0 -0.32211972953E+01  0.10539625971E+03 -0.24358520232E+03  0.31628546989E+03  0.17200000000E+03 0. -1.
         -6    1    1    2    0  502  0.32211972953E+01 -0.10539625971E+03  0.39353083074E+03  0.44223213634E+03  0.17200000000E+03 0.  1.
</event>
<event>
 4    1 -0.7147820E-004  0.1883808E+03  0.7818608E-02  0.1159930E+00
          5   -1    0    0  501    0  0.00000000000E+00  0.00000000000E+00  0.97882308375E+02  0.97995083003E+02  0.47000000000E+01 0. -1.
         -5   -1    0    0    0  501 -0.00000000000E+00 -0.00000000000E+00 -0.98140054116E+03  0.98141179542E+03  0.47000000000E+01 0.  1.
          6    1    1    2  502    0 -0.37814480058E+02  0.66883306481E+02 -0.13098879405E+02  0.18883562225E+03  0.17200000000E+03 0. -1.
         -6    1    1    2    0  502  0.37814480058E+02 -0.66883306481E+02 -0.87041935338E+03  0.89057125618E+03  0.17200000000E+03 0.  1.
</event>
<event>
 4    1 -0.7147820E-004  0.2245892E+03  0.7818608E-02  0.1130507E+00
         -5   -1    0    0    0  501 -0.00000000000E+00  0.00000000000E+00  0.47384200621E+03  0.47386531510E+03  0.47000000000E+01 0.  1.
          5   -1    0    0  501    0  0.00000000000E+00 -0.00000000000E+00 -0.18421477861E+03  0.18427472604E+03  0.47000000000E+01 0. -1.
          6    1    1    2  502    0 -0.10821055442E+03 -0.95638915674E+02 -0.69037595066E+02  0.23496066865E+03  0.17200000000E+03 0. -1.
         -6    1    1    2    0  502  0.10821055442E+03  0.95638915674E+02  0.35866482267E+03  0.42317937249E+03  0.17200000000E+03 0.  1.
</event>
<event>
 4    1 -0.7147820E-004  0.1918649E+03  0.7818608E-02  0.1156790E+00
         -5   -1    0    0    0  501 -0.00000000000E+00  0.00000000000E+00  0.46284497521E+03  0.46286883788E+03  0.47000000000E+01 0.  1.
          5   -1    0    0  501    0  0.00000000000E+00 -0.00000000000E+00 -0.11270052013E+03  0.11279848066E+03  0.47000000000E+01 0. -1.
          6    1    1    2  502    0 -0.75009733775E+02 -0.40020760931E+02  0.18802409683E+02  0.19278395181E+03  0.17200000000E+03 0. -1.
         -6    1    1    2    0  502  0.75009733775E+02  0.40020760931E+02  0.33134204540E+03  0.38288336673E+03  0.17200000000E+03 0.  1.
</event>
<event>
 4    1 -0.7147820E-004  0.2676174E+03  0.7818608E-02  0.1102651E+00
          5   -1    0    0  501    0  0.00000000000E+00  0.00000000000E+00  0.14098091300E+03  0.14105923518E+03  0.47000000000E+01 0. -1.
         -5   -1    0    0    0  501 -0.00000000000E+00 -0.00000000000E+00 -0.81336930847E+03  0.81338288767E+03  0.47000000000E+01 0.  1.
          6    1    1    2  502    0  0.19504963377E+03 -0.63171970617E+02 -0.43696356708E+02  0.27116126031E+03  0.17200000000E+03 0. -1.
         -6    1    1    2    0  502 -0.19504963377E+03  0.63171970617E+02 -0.62869203876E+03  0.68328086254E+03  0.17200000000E+03 0.  1.
</event>
<event>
 4    1 -0.7147820E-004  0.3507028E+03  0.7818608E-02  0.1062327E+00
         -5   -1    0    0    0  501 -0.00000000000E+00  0.00000000000E+00  0.32112989923E+03  0.32116429156E+03  0.47000000000E+01 0.  1.
          5   -1    0    0  501    0  0.00000000000E+00 -0.00000000000E+00 -0.39138811671E+03  0.39141633576E+03  0.47000000000E+01 0. -1.
          6    1    1    2  502    0 -0.27752847659E+03  0.12800946178E+03 -0.87502007990E+02  0.36145411746E+03  0.17200000000E+03 0. -1.
         -6    1    1    2    0  502  0.27752847659E+03 -0.12800946178E+03  0.17243790504E+02  0.35112650987E+03  0.17200000000E+03 0.  1.
</event>
<event>
 4    1 -0.7147820E-004  0.4639797E+03  0.7818608E-02  0.1023633E+00
         -5   -1    0    0    0  501 -0.00000000000E+00  0.00000000000E+00  0.68096814341E+03  0.68098436277E+03  0.47000000000E+01 0.  1.
          5   -1    0    0  501    0  0.00000000000E+00 -0.00000000000E+00 -0.57695458452E+03  0.57697372782E+03  0.47000000000E+01 0. -1.
          6    1    1    2  502    0  0.25996085252E+03 -0.34367650649E+03 -0.37090637112E+03  0.59401070874E+03  0.17200000000E+03 0. -1.
         -6    1    1    2    0  502 -0.25996085252E+03  0.34367650649E+03  0.47491993000E+03  0.66394738186E+03  0.17200000000E+03 0.  1.
</event>
<event>
 4    1 -0.7147820E-004  0.2025259E+03  0.7818608E-02  0.1147625E+00
          5   -1    0    0  501    0  0.00000000000E+00  0.00000000000E+00  0.72640145391E+02  0.72792037493E+02  0.47000000000E+01 0. -1.
         -5   -1    0    0    0  501 -0.00000000000E+00 -0.00000000000E+00 -0.57658429214E+03  0.57660344774E+03  0.47000000000E+01 0.  1.
          6    1    1    2  502    0  0.67298418993E+02  0.83088285621E+02 -0.20382971747E+03  0.28733829214E+03  0.17200000000E+03 0.  1.
         -6    1    1    2    0  502 -0.67298418993E+02 -0.83088285621E+02 -0.30011442928E+03  0.36205719309E+03  0.17200000000E+03 0. -1.
</event>
<event>
 4    1 -0.7147820E-004  0.2852445E+03  0.7818608E-02  0.1092859E+00
          5   -1    0    0  501    0  0.00000000000E+00  0.00000000000E+00  0.65376863468E+03  0.65378552882E+03  0.47000000000E+01 0. -1.
         -5   -1    0    0    0  501 -0.00000000000E+00 -0.00000000000E+00 -0.42313020360E+03  0.42315630588E+03  0.47000000000E+01 0.  1.
          6    1    1    2  502    0 -0.12742619227E+03  0.18852846689E+03  0.56772983762E+03  0.63535941468E+03  0.17200000000E+03 0. -1.
         -6    1    1    2    0  502  0.12742619227E+03 -0.18852846689E+03 -0.33709140654E+03  0.44158242001E+03  0.17200000000E+03 0.  1.
</event>
<event>
 4    1 -0.7147820E-004  0.3622481E+03  0.7818608E-02  0.1057697E+00
          5   -1    0    0  501    0  0.00000000000E+00  0.00000000000E+00  0.77233566782E+03  0.77234996847E+03  0.47000000000E+01 0. -1.
         -5   -1    0    0    0  501 -0.00000000000E+00 -0.00000000000E+00 -0.28440046316E+03  0.28443929659E+03  0.47000000000E+01 0.  1.
          6    1    1    2  502    0  0.88517716086E+02  0.30627489189E+03  0.57926374322E+03  0.68320581063E+03  0.17200000000E+03 0. -1.
         -6    1    1    2    0  502 -0.88517716086E+02 -0.30627489189E+03 -0.91328538554E+02  0.37358345443E+03  0.17200000000E+03 0.  1.
</event>
<event>
 4    1 -0.7147820E-004  0.1914484E+03  0.7818608E-02  0.1157161E+00
          5   -1    0    0  501    0  0.00000000000E+00  0.00000000000E+00  0.40308776785E+02  0.40581861538E+02  0.47000000000E+01 0. -1.
         -5   -1    0    0    0  501 -0.00000000000E+00 -0.00000000000E+00 -0.15853949122E+04  0.15854018789E+04  0.47000000000E+01 0.  1.
          6    1    1    2  502    0 -0.25112290397E+02 -0.80236178797E+02 -0.24036384107E+03  0.30729016843E+03  0.17200000000E+03 0. -1.
         -6    1    1    2    0  502  0.25112290397E+02  0.80236178797E+02 -0.13047222943E+04  0.13186935720E+04  0.17200000000E+03 0.  1.
</event>
<event>
 4    1 -0.7147820E-004  0.1789002E+03  0.7818608E-02  0.1168872E+00
         -5   -1    0    0    0  501 -0.00000000000E+00  0.00000000000E+00  0.11024673226E+03  0.11034687115E+03  0.47000000000E+01 0.  1.
          5   -1    0    0  501    0  0.00000000000E+00 -0.00000000000E+00 -0.72253768699E+03  0.72255297322E+03  0.47000000000E+01 0. -1.
          6    1    1    2  502    0  0.21994002787E+02 -0.44017490609E+02 -0.62831082265E+03  0.65328383227E+03  0.17200000000E+03 0. -1.
         -6    1    1    2    0  502 -0.21994002787E+02  0.44017490609E+02  0.16019867926E+02  0.17961601211E+03  0.17200000000E+03 0.  1.
</event>
<event>
 4    1 -0.7147820E-004  0.1758887E+03  0.7818608E-02  0.1171842E+00
         -5   -1    0    0    0  501 -0.00000000000E+00  0.00000000000E+00  0.13034926812E+03  0.13043397448E+03  0.47000000000E+01 0.  1.
          5   -1    0    0  501    0  0.00000000000E+00 -0.00000000000E+00 -0.49825198258E+03  0.49827414959E+03  0.47000000000E+01 0. -1.
          6    1    1    2  502    0 -0.84692738230E+01  0.35792399497E+02 -0.41148488086E+03  0.44750042641E+03  0.17200000000E+03 0. -1.
         -6    1    1    2    0  502  0.84692738230E+01 -0.35792399497E+02  0.43582166405E+02  0.18120769765E+03  0.17200000000E+03 0.  1.
</event>
<event>
 4    1 -0.7147820E-004  0.2048519E+03  0.7818608E-02  0.1145709E+00
          5   -1    0    0  501    0  0.00000000000E+00  0.00000000000E+00  0.79578863095E+03  0.79580251014E+03  0.47000000000E+01 0. -1.
         -5   -1    0    0    0  501 -0.00000000000E+00 -0.00000000000E+00 -0.61465548476E+03  0.61467345392E+03  0.47000000000E+01 0.  1.
          6    1    1    2  502    0 -0.45847950673E+02 -0.10138172580E+03  0.76487559484E+03  0.79183266193E+03  0.17200000000E+03 0. -1.
         -6    1    1    2    0  502  0.45847950673E+02  0.10138172580E+03 -0.58374244866E+03  0.61864330213E+03  0.17200000000E+03 0.  1.
</event>
<event>
 4    1 -0.7147820E-004  0.7983369E+03  0.7818608E-02  0.9562427E-01
         -5   -1    0    0    0  501 -0.00000000000E+00  0.00000000000E+00  0.19458693349E+04  0.19458750110E+04  0.47000000000E+01 0.  1.
          5   -1    0    0  501    0  0.00000000000E+00 -0.00000000000E+00 -0.41675650513E+03  0.41678300657E+03  0.47000000000E+01 0. -1.
          6    1    1    2  502    0  0.61194515572E+03  0.48299167521E+03  0.21791830259E+03  0.82754469277E+03  0.17200000000E+03 0. -1.
         -6    1    1    2    0  502 -0.61194515572E+03 -0.48299167521E+03  0.13111945272E+04  0.15351133248E+04  0.17200000000E+03 0.  1.
</event>
<event>
 4    1 -0.7147820E-004  0.1888765E+03  0.7818608E-02  0.1159479E+00
          5   -1    0    0  501    0  0.00000000000E+00  0.00000000000E+00  0.59490951087E+03  0.59492807643E+03  0.47000000000E+01 0. -1.
         -5   -1    0    0    0  501 -0.00000000000E+00 -0.00000000000E+00 -0.80762157030E+02  0.80898801030E+02  0.47000000000E+01 0.  1.
          6    1    1    2  502    0 -0.17539229488E+02  0.76044014201E+02  0.42881513120E+03  0.46856881396E+03  0.17200000000E+03 0. -1.
         -6    1    1    2    0  502  0.17539229488E+02 -0.76044014201E+02  0.85332222643E+02  0.20725806351E+03  0.17200000000E+03 0.  1.
</event>
<event>
 4    1 -0.7147820E-004  0.1808477E+03  0.7818608E-02  0.1166985E+00
          5   -1    0    0  501    0  0.00000000000E+00  0.00000000000E+00  0.28754076926E+03  0.28757917864E+03  0.47000000000E+01 0. -1.
         -5   -1    0    0    0  501 -0.00000000000E+00 -0.00000000000E+00 -0.56690916966E+03  0.56692865217E+03  0.47000000000E+01 0.  1.
          6    1    1    2  502    0  0.50672841486E+02  0.23540226043E+02  0.24231821065E+03  0.30236400963E+03  0.17200000000E+03 0. -1.
         -6    1    1    2    0  502 -0.50672841486E+02 -0.23540226043E+02 -0.52168661106E+03  0.55214382118E+03  0.17200000000E+03 0.  1.
</event>
<event>
 4    1 -0.7147820E-004  0.1721987E+03  0.7818608E-02  0.1175574E+00
         -5   -1    0    0    0  501 -0.00000000000E+00  0.00000000000E+00  0.26633823695E+03  0.26637970355E+03  0.47000000000E+01 0.  1.
          5   -1    0    0  501    0  0.00000000000E+00 -0.00000000000E+00 -0.12757335447E+03  0.12765990275E+03  0.47000000000E+01 0. -1.
          6    1    1    2  502    0  0.60041539225E+01  0.56872596055E+01 -0.10902511657E+01  0.17220215862E+03  0.17200000000E+03 0. -1.
         -6    1    1    2    0  502 -0.60041539225E+01 -0.56872596055E+01  0.13985513364E+03  0.22183744768E+03  0.17200000000E+03 0.  1.
</event>
<event>
 4    1 -0.7147820E-004  0.1874064E+03  0.7818608E-02  0.1160822E+00
         -5   -1    0    0    0  501 -0.00000000000E+00  0.00000000000E+00  0.36097041819E+03  0.36100101497E+03  0.47000000000E+01 0.  1.
          5   -1    0    0  501    0  0.00000000000E+00 -0.00000000000E+00 -0.10151014133E+03  0.10161888994E+03  0.47000000000E+01 0. -1.
          6    1    1    2  502    0 -0.31621851477E+02 -0.67358778960E+02  0.17733288357E+03  0.25800794211E+03  0.17200000000E+03 0.  1.
         -6    1    1    2    0  502  0.31621851477E+02  0.67358778960E+02  0.82127393288E+02  0.20461196280E+03  0.17200000000E+03 0.  1.
</event>
<event>
 4    1 -0.7147820E-004  0.2473507E+03  0.7818608E-02  0.1114991E+00
         -5   -1    0    0    0  501 -0.00000000000E+00  0.00000000000E+00  0.35491462907E+03  0.35494574787E+03  0.47000000000E+01 0.  1.
          5   -1    0    0  501    0  0.00000000000E+00 -0.00000000000E+00 -0.34694909469E+03  0.34698092787E+03  0.47000000000E+01 0. -1.
          6    1    1    2  502    0  0.16961224572E+03 -0.53198367069E+02 -0.24498511092E+03  0.34813802540E+03  0.17200000000E+03 0. -1.
         -6    1    1    2    0  502 -0.16961224572E+03  0.53198367069E+02  0.25295064529E+03  0.35378865034E+03  0.17200000000E+03 0.  1.
</event>
<event>
 4    1 -0.7147820E-004  0.2172830E+03  0.7818608E-02  0.1135925E+00
         -5   -1    0    0    0  501 -0.00000000000E+00  0.00000000000E+00  0.16671085690E+03  0.16677709617E+03  0.47000000000E+01 0.  1.
          5   -1    0    0  501    0  0.00000000000E+00 -0.00000000000E+00 -0.42902177732E+03  0.42904752116E+03  0.47000000000E+01 0. -1.
          6    1    1    2  502    0 -0.57609562342E+02 -0.11962033482E+03 -0.30490634375E+03  0.37440588221E+03  0.17200000000E+03 0. -1.
         -6    1    1    2    0  502  0.57609562342E+02  0.11962033482E+03  0.42595423330E+02  0.22141873512E+03  0.17200000000E+03 0.  1.
</event>
<event>
 4    1 -0.7147820E-004  0.2840251E+03  0.7818608E-02  0.1093511E+00
          5   -1    0    0  501    0  0.00000000000E+00  0.00000000000E+00  0.52663135060E+03  0.52665232310E+03  0.47000000000E+01 0. -1.
         -5   -1    0    0    0  501 -0.00000000000E+00 -0.00000000000E+00 -0.33002742777E+03  0.33006089299E+03  0.47000000000E+01 0.  1.
          6    1    1    2  502    0 -0.22995456305E+02 -0.22484984662E+03  0.41188536217E+03  0.50031969390E+03  0.17200000000E+03 0. -1.
         -6    1    1    2    0  502  0.22995456305E+02  0.22484984662E+03 -0.21528143934E+03  0.35639352219E+03  0.17200000000E+03 0.  1.
</event>
<event>
 4    1 -0.7147820E-004  0.1857906E+03  0.7818608E-02  0.1162314E+00
         -5   -1    0    0    0  501 -0.00000000000E+00  0.00000000000E+00  0.88907784865E+03  0.88909027155E+03  0.47000000000E+01 0.  1.
          5   -1    0    0  501    0  0.00000000000E+00 -0.00000000000E+00 -0.54119785631E+03  0.54121826436E+03  0.47000000000E+01 0. -1.
          6    1    1    2  502    0 -0.24194600844E+02  0.65945090116E+02 -0.51508623437E+03  0.54756913944E+03  0.17200000000E+03 0. -1.
         -6    1    1    2    0  502  0.24194600844E+02 -0.65945090116E+02  0.86296622672E+03  0.88273939647E+03  0.17200000000E+03 0.  1.
</event>
<event>
 4    1 -0.7147820E-004  0.6155230E+03  0.7818608E-02  0.9873714E-01
         -5   -1    0    0    0  501 -0.00000000000E+00  0.00000000000E+00  0.11157583786E+04  0.11157682777E+04  0.47000000000E+01 0.  1.
          5   -1    0    0  501    0  0.00000000000E+00 -0.00000000000E+00 -0.61616860845E+03  0.61618653348E+03  0.47000000000E+01 0. -1.
          6    1    1    2  502    0  0.48343165225E+03  0.33996831772E+03 -0.33043188912E+03  0.69860851183E+03  0.17200000000E+03 0. -1.
         -6    1    1    2    0  502 -0.48343165225E+03 -0.33996831772E+03  0.83002165929E+03  0.10333462993E+04  0.17200000000E+03 0.  1.
</event>
<event>
 4    1 -0.7147820E-004  0.1728439E+03  0.7818608E-02  0.1174914E+00
         -5   -1    0    0    0  501 -0.00000000000E+00  0.00000000000E+00  0.16259605017E+03  0.16266396506E+03  0.47000000000E+01 0.  1.
          5   -1    0    0  501    0  0.00000000000E+00 -0.00000000000E+00 -0.21425021367E+03  0.21430175934E+03  0.47000000000E+01 0. -1.
          6    1    1    2  502    0 -0.16946496463E+02  0.19608630040E+01 -0.97094804287E+02  0.19824840414E+03  0.17200000000E+03 0. -1.
         -6    1    1    2    0  502  0.16946496463E+02 -0.19608630040E+01  0.45440640786E+02  0.17871732026E+03  0.17200000000E+03 0.  1.
</event>
<event>
 4    1 -0.7147820E-004  0.1820347E+03  0.7818608E-02  0.1165848E+00
          5   -1    0    0  501    0  0.00000000000E+00  0.00000000000E+00  0.40096423752E+03  0.40099178267E+03  0.47000000000E+01 0. -1.
         -5   -1    0    0    0  501 -0.00000000000E+00 -0.00000000000E+00 -0.10020564450E+03  0.10031580727E+03  0.47000000000E+01 0.  1.
          6    1    1    2  502    0 -0.14169280580E+02  0.57895237590E+02  0.25552858036E+03  0.31373791997E+03  0.17200000000E+03 0. -1.
         -6    1    1    2    0  502  0.14169280580E+02 -0.57895237590E+02  0.45230012665E+02  0.18756966997E+03  0.17200000000E+03 0.  1.
</event>
<event>
 4    1 -0.7147820E-004  0.1772448E+03  0.7818608E-02  0.1170496E+00
         -5   -1    0    0    0  501 -0.00000000000E+00  0.00000000000E+00  0.92103692769E+02  0.92223533990E+02  0.47000000000E+01 0.  1.
          5   -1    0    0  501    0  0.00000000000E+00 -0.00000000000E+00 -0.79976342559E+03  0.79977723581E+03  0.47000000000E+01 0. -1.
          6    1    1    2  502    0 -0.29488210080E+02  0.31018926398E+02 -0.69168954415E+03  0.71403792183E+03  0.17200000000E+03 0. -1.
         -6    1    1    2    0  502  0.29488210080E+02 -0.31018926398E+02 -0.15970188671E+02  0.17796284796E+03  0.17200000000E+03 0.  1.
</event>
<event>
 4    1 -0.7147820E-004  0.1807709E+03  0.7818608E-02  0.1167059E+00
          5   -1    0    0  501    0  0.00000000000E+00  0.00000000000E+00  0.35189924585E+02  0.35502405444E+02  0.47000000000E+01 0. -1.
         -5   -1    0    0    0  501 -0.00000000000E+00 -0.00000000000E+00 -0.93365595135E+03  0.93366778111E+03  0.47000000000E+01 0.  1.
          6    1    1    2  502    0 -0.40658231782E+02  0.37960626523E+02 -0.40046815437E+03  0.43937779148E+03  0.17200000000E+03 0. -1.
         -6    1    1    2    0  502  0.40658231782E+02 -0.37960626523E+02 -0.49799787239E+03  0.52979239508E+03  0.17200000000E+03 0.  1.
</event>
<event>
 4    1 -0.7147820E-004  0.2205576E+03  0.7818608E-02  0.1133468E+00
         -5   -1    0    0    0  501 -0.00000000000E+00  0.00000000000E+00  0.12003876078E+03  0.12013073749E+03  0.47000000000E+01 0.  1.
          5   -1    0    0  501    0  0.00000000000E+00 -0.00000000000E+00 -0.64989427455E+03  0.64991126940E+03  0.47000000000E+01 0. -1.
          6    1    1    2  502    0 -0.13559519121E+03 -0.25992622347E+02 -0.50126061428E+03  0.54763845348E+03  0.17200000000E+03 0. -1.
         -6    1    1    2    0  502  0.13559519121E+03  0.25992622347E+02 -0.28594899487E+02  0.22240355341E+03  0.17200000000E+03 0.  1.
</event>
<event>
 4    1 -0.7147820E-004  0.1857208E+03  0.7818608E-02  0.1162378E+00
          5   -1    0    0  501    0  0.00000000000E+00  0.00000000000E+00  0.78568632839E+02  0.78709085030E+02  0.47000000000E+01 0. -1.
         -5   -1    0    0    0  501 -0.00000000000E+00 -0.00000000000E+00 -0.13993289072E+04  0.13993368002E+04  0.47000000000E+01 0.  1.
          6    1    1    2  502    0  0.57511809416E+02 -0.40007711411E+02 -0.48022462500E+02  0.19182904394E+03  0.17200000000E+03 0. -1.
         -6    1    1    2    0  502 -0.57511809416E+02  0.40007711411E+02 -0.12727378118E+04  0.12862168413E+04  0.17200000000E+03 0.  1.
</event>
<event>
 4    1 -0.7147820E-004  0.1887627E+03  0.7818608E-02  0.1159582E+00
          5   -1    0    0  501    0  0.00000000000E+00  0.00000000000E+00  0.35047769584E+03  0.35050920855E+03  0.47000000000E+01 0. -1.
         -5   -1    0    0    0  501 -0.00000000000E+00 -0.00000000000E+00 -0.28302746863E+03  0.28306649042E+03  0.47000000000E+01 0.  1.
          6    1    1    2  502    0  0.36698718819E+02  0.68560611747E+02  0.28732859438E+03  0.34378637930E+03  0.17200000000E+03 0. -1.
         -6    1    1    2    0  502 -0.36698718819E+02 -0.68560611747E+02 -0.21987836717E+03  0.28978931967E+03  0.17200000000E+03 0.  1.
</event>
<event>
 4    1 -0.7147820E-004  0.2145507E+03  0.7818608E-02  0.1138012E+00
         -5   -1    0    0    0  501 -0.00000000000E+00  0.00000000000E+00  0.15309391723E+03  0.15316604550E+03  0.47000000000E+01 0.  1.
          5   -1    0    0  501    0  0.00000000000E+00 -0.00000000000E+00 -0.12565305683E+04  0.12565393583E+04  0.47000000000E+01 0. -1.
          6    1    1    2  502    0 -0.28277098944E+02 -0.12509358438E+03 -0.11665093257E+04  0.11860758855E+04  0.17200000000E+03 0. -1.
         -6    1    1    2    0  502  0.28277098944E+02  0.12509358438E+03  0.63072674666E+02  0.22362951833E+03  0.17200000000E+03 0.  1.
</event>
<event>
 4    1 -0.7147820E-004  0.2245108E+03  0.7818608E-02  0.1130564E+00
          5   -1    0    0  501    0  0.00000000000E+00  0.00000000000E+00  0.11450001516E+03  0.11459643743E+03  0.47000000000E+01 0. -1.
         -5   -1    0    0    0  501 -0.00000000000E+00 -0.00000000000E+00 -0.93397856927E+03  0.93399039495E+03  0.47000000000E+01 0.  1.
          6    1    1    2  502    0  0.94161347971E+02  0.10933764696E+03 -0.28439651947E+02  0.22630487025E+03  0.17200000000E+03 0. -1.
         -6    1    1    2    0  502 -0.94161347971E+02 -0.10933764696E+03 -0.79103890217E+03  0.82228196213E+03  0.17200000000E+03 0.  1.
</event>
<event>
 4    1 -0.7147820E-004  0.2335314E+03  0.7818608E-02  0.1124179E+00
         -5   -1    0    0    0  501 -0.00000000000E+00  0.00000000000E+00  0.10814211888E+03  0.10824420482E+03  0.47000000000E+01 0.  1.
          5   -1    0    0  501    0  0.00000000000E+00 -0.00000000000E+00 -0.51072352592E+03  0.51074515164E+03  0.47000000000E+01 0. -1.
          6    1    1    2  502    0  0.15709640287E+03  0.16542376165E+02 -0.23691047940E+03  0.33266124700E+03  0.17200000000E+03 0. -1.
         -6    1    1    2    0  502 -0.15709640287E+03 -0.16542376165E+02 -0.16567092763E+03  0.28632810946E+03  0.17200000000E+03 0.  1.
</event>
<event>
 4    1 -0.7147820E-004  0.2213901E+03  0.7818608E-02  0.1132851E+00
          5   -1    0    0  501    0  0.00000000000E+00  0.00000000000E+00  0.56575633980E+03  0.56577586201E+03  0.47000000000E+01 0. -1.
         -5   -1    0    0    0  501 -0.00000000000E+00 -0.00000000000E+00 -0.23337732784E+03  0.23342464983E+03  0.47000000000E+01 0.  1.
          6    1    1    2  502    0  0.13465510171E+03 -0.36021890108E+02  0.48307470749E+03  0.53138944852E+03  0.17200000000E+03 0. -1.
         -6    1    1    2    0  502 -0.13465510171E+03  0.36021890108E+02 -0.15069569553E+03  0.26781106332E+03  0.17200000000E+03 0.  1.
</event>
<event>
 4    1 -0.7147820E-004  0.1977366E+03  0.7818608E-02  0.1151663E+00
          5   -1    0    0  501    0  0.00000000000E+00  0.00000000000E+00  0.26170227867E+03  0.26174447971E+03  0.47000000000E+01 0. -1.
         -5   -1    0    0    0  501 -0.00000000000E+00 -0.00000000000E+00 -0.43731130938E+03  0.43733656526E+03  0.47000000000E+01 0.  1.
          6    1    1    2  502    0 -0.81736254972E+02  0.53244233703E+02  0.19582445511E+03  0.27829297695E+03  0.17200000000E+03 0. -1.
         -6    1    1    2    0  502  0.81736254972E+02 -0.53244233703E+02 -0.37143348582E+03  0.42078806802E+03  0.17200000000E+03 0.  1.
</event>
<event>
 4    1 -0.7147820E-004  0.3026357E+03  0.7818608E-02  0.1083930E+00
         -5   -1    0    0    0  501 -0.00000000000E+00  0.00000000000E+00  0.75345555651E+02  0.75492004585E+02  0.47000000000E+01 0.  1.
          5   -1    0    0  501    0  0.00000000000E+00 -0.00000000000E+00 -0.14024050123E+04  0.14024128881E+04  0.47000000000E+01 0. -1.
          6    1    1    2  502    0  0.22358400850E+03  0.10961101333E+03 -0.93418571201E+03  0.98198336423E+03  0.17200000000E+03 0. -1.
         -6    1    1    2    0  502 -0.22358400850E+03 -0.10961101333E+03 -0.39287374467E+03  0.49592152842E+03  0.17200000000E+03 0.  1.
</event>
<event>
 4    1 -0.7147820E-004  0.1862764E+03  0.7818608E-02  0.1161863E+00
          5   -1    0    0  501    0  0.00000000000E+00  0.00000000000E+00  0.59346971101E+03  0.59348832161E+03  0.47000000000E+01 0. -1.
         -5   -1    0    0    0  501 -0.00000000000E+00 -0.00000000000E+00 -0.13127628313E+03  0.13136039171E+03  0.47000000000E+01 0.  1.
          6    1    1    2  502    0 -0.33776494161E+02  0.63040071488E+02  0.50105603394E+03  0.53456155054E+03  0.17200000000E+03 0. -1.
         -6    1    1    2    0  502  0.33776494161E+02 -0.63040071488E+02 -0.38862606053E+02  0.19028716278E+03  0.17200000000E+03 0.  1.
</event>
<event>
 4    1 -0.7147820E-004  0.2072078E+03  0.7818608E-02  0.1143796E+00
         -5   -1    0    0    0  501 -0.00000000000E+00  0.00000000000E+00  0.53459671303E+03  0.53461737306E+03  0.47000000000E+01 0.  1.
          5   -1    0    0  501    0  0.00000000000E+00 -0.00000000000E+00 -0.28736529052E+03  0.28740372335E+03  0.47000000000E+01 0. -1.
          6    1    1    2  502    0 -0.96594603603E+02 -0.63407958294E+02 -0.22527475709E+03  0.30607809919E+03  0.17200000000E+03 0. -1.
         -6    1    1    2    0  502  0.96594603603E+02  0.63407958294E+02  0.47250617960E+03  0.51594299722E+03  0.17200000000E+03 0.  1.
</event>
<event>
 4    1 -0.7147820E-004  0.2990982E+03  0.7818608E-02  0.1085692E+00
         -5   -1    0    0    0  501 -0.00000000000E+00  0.00000000000E+00  0.90846285838E+02  0.90967783586E+02  0.47000000000E+01 0.  1.
          5   -1    0    0  501    0  0.00000000000E+00 -0.00000000000E+00 -0.14078217044E+04  0.14078295498E+04  0.47000000000E+01 0. -1.
          6    1    1    2  502    0  0.11485743574E+03  0.21606365066E+03 -0.10696705349E+04  0.11107001327E+04  0.17200000000E+03 0. -1.
         -6    1    1    2    0  502 -0.11485743574E+03 -0.21606365066E+03 -0.24730488369E+03  0.38809720068E+03  0.17200000000E+03 0. -1.
</event>
<event>
 4    1 -0.7147820E-004  0.2183627E+03  0.7818608E-02  0.1135110E+00
         -5   -1    0    0    0  501 -0.00000000000E+00  0.00000000000E+00  0.59243529515E+03  0.59245393824E+03  0.47000000000E+01 0.  1.
          5   -1    0    0  501    0  0.00000000000E+00 -0.00000000000E+00 -0.28391710345E+03  0.28395600298E+03  0.47000000000E+01 0. -1.
          6    1    1    2  502    0 -0.12348156063E+03  0.53390947337E+02 -0.21668110333E+03  0.30762475455E+03  0.17200000000E+03 0. -1.
         -6    1    1    2    0  502  0.12348156063E+03 -0.53390947337E+02  0.52519929503E+03  0.56878518667E+03  0.17200000000E+03 0.  1.
</event>
<event>
 4    1 -0.7147820E-004  0.1989966E+03  0.7818608E-02  0.1150588E+00
         -5   -1    0    0    0  501 -0.00000000000E+00  0.00000000000E+00  0.11554717318E+03  0.11564272234E+03  0.47000000000E+01 0.  1.
          5   -1    0    0  501    0  0.00000000000E+00 -0.00000000000E+00 -0.80086931723E+03  0.80088310838E+03  0.47000000000E+01 0. -1.
          6    1    1    2  502    0  0.46949054367E+02 -0.88382395023E+02 -0.68934045939E+03  0.71748862737E+03  0.17200000000E+03 0. -1.
         -6    1    1    2    0  502 -0.46949054367E+02  0.88382395023E+02  0.40183153378E+01  0.19903720334E+03  0.17200000000E+03 0.  1.
</event>
<event>
 4    1 -0.7147820E-004  0.2503576E+03  0.7818608E-02  0.1113079E+00
          5   -1    0    0  501    0  0.00000000000E+00  0.00000000000E+00  0.42815356370E+03  0.42817935974E+03  0.47000000000E+01 0. -1.
         -5   -1    0    0    0  501 -0.00000000000E+00 -0.00000000000E+00 -0.37231368320E+03  0.37234334787E+03  0.47000000000E+01 0.  1.
          6    1    1    2  502    0 -0.13557859681E+03  0.12129864505E+03  0.33972720246E+03  0.42201124309E+03  0.17200000000E+03 0. -1.
         -6    1    1    2    0  502  0.13557859681E+03 -0.12129864505E+03 -0.28388732196E+03  0.37851146452E+03  0.17200000000E+03 0.  1.
</event>
<event>
 4    1 -0.7147820E-004  0.1774483E+03  0.7818608E-02  0.1170296E+00
         -5   -1    0    0    0  501 -0.00000000000E+00  0.00000000000E+00  0.57860388239E+03  0.57862297113E+03  0.47000000000E+01 0.  1.
          5   -1    0    0  501    0  0.00000000000E+00 -0.00000000000E+00 -0.56439506707E+03  0.56441463636E+03  0.47000000000E+01 0. -1.
          6    1    1    2  502    0  0.39424925353E+02  0.18697353949E+02 -0.53616436640E+03  0.56476556515E+03  0.17200000000E+03 0. -1.
         -6    1    1    2    0  502 -0.39424925353E+02 -0.18697353949E+02  0.55037318172E+03  0.57827204233E+03  0.17200000000E+03 0.  1.
</event>
<event>
 4    1 -0.7147820E-004  0.1772886E+03  0.7818608E-02  0.1170453E+00
          5   -1    0    0  501    0  0.00000000000E+00  0.00000000000E+00  0.17328983599E+03  0.17335356142E+03  0.47000000000E+01 0. -1.
         -5   -1    0    0    0  501 -0.00000000000E+00 -0.00000000000E+00 -0.21304515174E+03  0.21309698891E+03  0.47000000000E+01 0.  1.
          6    1    1    2  502    0 -0.13619122416E+02  0.40764981237E+02  0.54745077491E+02  0.18554861277E+03  0.17200000000E+03 0. -1.
         -6    1    1    2    0  502  0.13619122416E+02 -0.40764981237E+02 -0.94500393246E+02  0.20090193756E+03  0.17200000000E+03 0.  1.
</event>
<event>
 4    1 -0.7147820E-004  0.1897688E+03  0.7818608E-02  0.1158670E+00
          5   -1    0    0  501    0  0.00000000000E+00  0.00000000000E+00  0.15653953062E+03  0.15661007199E+03  0.47000000000E+01 0. -1.
         -5   -1    0    0    0  501 -0.00000000000E+00 -0.00000000000E+00 -0.71708502680E+03  0.71710042927E+03  0.47000000000E+01 0.  1.
          6    1    1    2  502    0 -0.30969544475E+02 -0.73953143525E+02  0.79779791078E+02  0.20585673462E+03  0.17200000000E+03 0. -1.
         -6    1    1    2    0  502  0.30969544475E+02  0.73953143525E+02 -0.64032528725E+03  0.66785376664E+03  0.17200000000E+03 0.  1.
</event>
<event>
 4    1 -0.7147820E-004  0.1769511E+03  0.7818608E-02  0.1170787E+00
         -5   -1    0    0    0  501 -0.00000000000E+00  0.00000000000E+00  0.48773387960E+03  0.48775652462E+03  0.47000000000E+01 0.  1.
          5   -1    0    0  501    0  0.00000000000E+00 -0.00000000000E+00 -0.23657539363E+03  0.23662207604E+03  0.47000000000E+01 0. -1.
          6    1    1    2  502    0 -0.11642038717E+02  0.39901915943E+02 -0.18359845909E+03  0.25499038049E+03  0.17200000000E+03 0. -1.
         -6    1    1    2    0  502  0.11642038717E+02 -0.39901915943E+02  0.43475694506E+03  0.46938822018E+03  0.17200000000E+03 0.  1.
</event>
<event>
 4    1 -0.7147820E-004  0.1859372E+03  0.7818608E-02  0.1162178E+00
         -5   -1    0    0    0  501 -0.00000000000E+00  0.00000000000E+00  0.66952920689E+03  0.66954570335E+03  0.47000000000E+01 0.  1.
          5   -1    0    0  501    0  0.00000000000E+00 -0.00000000000E+00 -0.21224352693E+03  0.21229555983E+03  0.47000000000E+01 0. -1.
          6    1    1    2  502    0  0.29879273019E+02  0.63999119966E+02 -0.15492242342E+03  0.24201986611E+03  0.17200000000E+03 0. -1.
         -6    1    1    2    0  502 -0.29879273019E+02 -0.63999119966E+02  0.61220810338E+03  0.63982139707E+03  0.17200000000E+03 0.  1.
</event>
<event>
 4    1 -0.7147820E-004  0.2346113E+03  0.7818608E-02  0.1123436E+00
          5   -1    0    0  501    0  0.00000000000E+00  0.00000000000E+00  0.91630453475E+02  0.91750912824E+02  0.47000000000E+01 0. -1.
         -5   -1    0    0    0  501 -0.00000000000E+00 -0.00000000000E+00 -0.78636485123E+03  0.78637889674E+03  0.47000000000E+01 0.  1.
          6    1    1    2  502    0 -0.13012074596E+03  0.92341982656E+02 -0.13374046672E+03  0.27005362936E+03  0.17200000000E+03 0. -1.
         -6    1    1    2    0  502  0.13012074596E+03 -0.92341982656E+02 -0.56099393103E+03  0.60807618021E+03  0.17200000000E+03 0.  1.
</event>
<event>
 4    1 -0.7147820E-004  0.1810265E+03  0.7818608E-02  0.1166813E+00
         -5   -1    0    0    0  501 -0.00000000000E+00  0.00000000000E+00  0.25640293851E+03  0.25644601162E+03  0.47000000000E+01 0.  1.
          5   -1    0    0  501    0  0.00000000000E+00 -0.00000000000E+00 -0.50074075997E+03  0.50076281681E+03  0.47000000000E+01 0. -1.
          6    1    1    2  502    0  0.48711899262E+02 -0.28525923203E+02 -0.44891337155E+03  0.48403904035E+03  0.17200000000E+03 0. -1.
         -6    1    1    2    0  502 -0.48711899262E+02  0.28525923203E+02  0.20457555008E+03  0.27316978807E+03  0.17200000000E+03 0.  1.
</event>
<event>
 4    1 -0.7147820E-004  0.1930422E+03  0.7818608E-02  0.1155746E+00
         -5   -1    0    0    0  501 -0.00000000000E+00  0.00000000000E+00  0.11858596778E+02  0.12756030634E+02  0.47000000000E+01 0.  1.
          5   -1    0    0  501    0  0.00000000000E+00 -0.00000000000E+00 -0.30782806496E+04  0.30782842376E+04  0.47000000000E+01 0. -1.
          6    1    1    2  502    0 -0.62264427267E+01  0.87421463406E+02 -0.13337570467E+04  0.13476546815E+04  0.17200000000E+03 0. -1.
         -6    1    1    2    0  502  0.62264427267E+01 -0.87421463406E+02 -0.17326650061E+04  0.17433855868E+04  0.17200000000E+03 0. -1.
</event>
<event>
 4    1 -0.7147820E-004  0.2075880E+03  0.7818608E-02  0.1143490E+00
         -5   -1    0    0    0  501 -0.00000000000E+00  0.00000000000E+00  0.45288300420E+02  0.45531529240E+02  0.47000000000E+01 0.  1.
          5   -1    0    0  501    0  0.00000000000E+00 -0.00000000000E+00 -0.10839591128E+04  0.10839693023E+04  0.47000000000E+01 0. -1.
          6    1    1    2  502    0 -0.66797524861E+01 -0.11603523378E+03 -0.71878981011E+03  0.74816548015E+03  0.17200000000E+03 0. -1.
         -6    1    1    2    0  502  0.66797524861E+01  0.11603523378E+03 -0.31988100228E+03  0.38133535136E+03  0.17200000000E+03 0.  1.
</event>
<event>
 4    1 -0.7147820E-004  0.2249493E+03  0.7818608E-02  0.1130246E+00
          5   -1    0    0  501    0  0.00000000000E+00  0.00000000000E+00  0.16312119333E+03  0.16318888968E+03  0.47000000000E+01 0. -1.
         -5   -1    0    0    0  501 -0.00000000000E+00 -0.00000000000E+00 -0.15893436844E+04  0.15893506338E+04  0.47000000000E+01 0.  1.
          6    1    1    2  502    0  0.48237424784E+02 -0.13671622257E+03  0.73028587143E+02  0.23650655213E+03  0.17200000000E+03 0. -1.
         -6    1    1    2    0  502 -0.48237424784E+02  0.13671622257E+03 -0.14992510782E+04  0.15160329713E+04  0.17200000000E+03 0.  1.
</event>
<event>
 4    1 -0.7147820E-004  0.1783440E+03  0.7818608E-02  0.1169415E+00
         -5   -1    0    0    0  501 -0.00000000000E+00  0.00000000000E+00  0.10077575861E+03  0.10088529885E+03  0.47000000000E+01 0.  1.
          5   -1    0    0  501    0  0.00000000000E+00 -0.00000000000E+00 -0.37416239908E+03  0.37419191718E+03  0.47000000000E+01 0. -1.
          6    1    1    2  502    0  0.46955599072E+02  0.42154347909E+01 -0.23087588970E+03  0.29173665286E+03  0.17200000000E+03 0. -1.
         -6    1    1    2    0  502 -0.46955599072E+02 -0.42154347909E+01 -0.42510750759E+02  0.18334056317E+03  0.17200000000E+03 0. -1.
</event>
<event>
 4    1 -0.7147820E-004  0.1961195E+03  0.7818608E-02  0.1153055E+00
          5   -1    0    0  501    0  0.00000000000E+00  0.00000000000E+00  0.41489679495E+02  0.41755041666E+02  0.47000000000E+01 0. -1.
         -5   -1    0    0    0  501 -0.00000000000E+00 -0.00000000000E+00 -0.16378478567E+04  0.16378546003E+04  0.47000000000E+01 0.  1.
          6    1    1    2  502    0  0.89580807364E+02 -0.29225849764E+02 -0.24372870944E+03  0.31283630727E+03  0.17200000000E+03 0. -1.
         -6    1    1    2    0  502 -0.89580807364E+02  0.29225849764E+02 -0.13526294677E+04  0.13667733347E+04  0.17200000000E+03 0.  1.
</event>
<event>
 4    1 -0.7147820E-004  0.1992287E+03  0.7818608E-02  0.1150391E+00
          5   -1    0    0  501    0  0.00000000000E+00  0.00000000000E+00  0.16785265163E+03  0.16791844049E+03  0.47000000000E+01 0. -1.
         -5   -1    0    0    0  501 -0.00000000000E+00 -0.00000000000E+00 -0.40723627076E+03  0.40726339170E+03  0.47000000000E+01 0.  1.
          6    1    1    2  502    0  0.75926046095E+02 -0.65903717118E+02  0.66590165562E+02  0.21006264436E+03  0.17200000000E+03 0. -1.
         -6    1    1    2    0  502 -0.75926046095E+02  0.65903717118E+02 -0.30597378469E+03  0.36511918783E+03  0.17200000000E+03 0.  1.
</event>
<event>
 4    1 -0.7147820E-004  0.1889960E+03  0.7818608E-02  0.1159370E+00
         -5   -1    0    0    0  501 -0.00000000000E+00  0.00000000000E+00  0.17330573638E+04  0.17330637370E+04  0.47000000000E+01 0.  1.
          5   -1    0    0  501    0  0.00000000000E+00 -0.00000000000E+00 -0.21847167597E+03  0.21852222587E+03  0.47000000000E+01 0. -1.
          6    1    1    2  502    0  0.39437527367E+01  0.78230011291E+02 -0.17133892059E+03  0.25510098698E+03  0.17200000000E+03 0. -1.
         -6    1    1    2    0  502 -0.39437527367E+01 -0.78230011291E+02  0.16859246085E+04  0.16964849758E+04  0.17200000000E+03 0.  1.
</event>
<event>
 4    1 -0.7147820E-004  0.2020214E+03  0.7818608E-02  0.1148045E+00
         -5   -1    0    0    0  501 -0.00000000000E+00  0.00000000000E+00  0.19145433177E+03  0.19151201308E+03  0.47000000000E+01 0.  1.
          5   -1    0    0  501    0  0.00000000000E+00 -0.00000000000E+00 -0.29115706537E+03  0.29119499775E+03  0.47000000000E+01 0. -1.
          6    1    1    2  502    0 -0.95595358844E+02  0.45718361518E+02 -0.17483179892E+03  0.26716811024E+03  0.17200000000E+03 0. -1.
         -6    1    1    2    0  502  0.95595358844E+02 -0.45718361518E+02  0.75129065326E+02  0.21553890059E+03  0.17200000000E+03 0.  1.
</event>
<event>
 4    1 -0.7147820E-004  0.8948830E+03  0.7818608E-02  0.9432001E-01
         -5   -1    0    0    0  501 -0.00000000000E+00  0.00000000000E+00  0.63169033390E+03  0.63170781850E+03  0.47000000000E+01 0.  1.
          5   -1    0    0  501    0  0.00000000000E+00 -0.00000000000E+00 -0.13981941622E+04  0.13982020617E+04  0.47000000000E+01 0. -1.
          6    1    1    2  502    0  0.59947509599E+03  0.64176413087E+03 -0.69332408426E+03  0.11320396973E+04  0.17200000000E+03 0. -1.
         -6    1    1    2    0  502 -0.59947509599E+03 -0.64176413087E+03 -0.73179744051E+02  0.89787018289E+03  0.17200000000E+03 0.  1.
</event>
<event>
 4    1 -0.7147820E-004  0.2030332E+03  0.7818608E-02  0.1147205E+00
         -5   -1    0    0    0  501 -0.00000000000E+00  0.00000000000E+00  0.29496873737E+03  0.29500617963E+03  0.47000000000E+01 0.  1.
          5   -1    0    0  501    0  0.00000000000E+00 -0.00000000000E+00 -0.20214510857E+03  0.20219974016E+03  0.47000000000E+01 0. -1.
          6    1    1    2  502    0  0.10117823885E+03 -0.37436062124E+02 -0.91763115902E+02  0.22280701112E+03  0.17200000000E+03 0. -1.
         -6    1    1    2    0  502 -0.10117823885E+03  0.37436062124E+02  0.18458674469E+03  0.27439890867E+03  0.17200000000E+03 0. -1.
</event>
<event>
 4    1 -0.7147820E-004  0.2267548E+03  0.7818608E-02  0.1128945E+00
          5   -1    0    0  501    0  0.00000000000E+00  0.00000000000E+00  0.58340519735E+03  0.58342412900E+03  0.47000000000E+01 0. -1.
         -5   -1    0    0    0  501 -0.00000000000E+00 -0.00000000000E+00 -0.52988863332E+03  0.52990947692E+03  0.47000000000E+01 0.  1.
          6    1    1    2  502    0 -0.74497152073E+02  0.12760842690E+03  0.53503095684E+03  0.58109883932E+03  0.17200000000E+03 0. -1.
         -6    1    1    2    0  502  0.74497152073E+02 -0.12760842690E+03 -0.48151439281E+03  0.53223476659E+03  0.17200000000E+03 0.  1.
</event>
<event>
 4    1 -0.7147820E-004  0.2054655E+03  0.7818608E-02  0.1145208E+00
         -5   -1    0    0    0  501 -0.00000000000E+00  0.00000000000E+00  0.55581585057E+03  0.55583572191E+03  0.47000000000E+01 0.  1.
          5   -1    0    0  501    0  0.00000000000E+00 -0.00000000000E+00 -0.12415299204E+03  0.12424192301E+03  0.47000000000E+01 0. -1.
          6    1    1    2  502    0 -0.94320755454E+02 -0.61119991206E+02  0.38707880485E+01  0.20550192514E+03  0.17200000000E+03 0. -1.
         -6    1    1    2    0  502  0.94320755454E+02  0.61119991206E+02  0.42779207049E+03  0.47457571978E+03  0.17200000000E+03 0.  1.
</event>
<event>
 4    1 -0.7147820E-004  0.1908786E+03  0.7818608E-02  0.1157671E+00
          5   -1    0    0  501    0  0.00000000000E+00  0.00000000000E+00  0.12105143755E+03  0.12114264539E+03  0.47000000000E+01 0. -1.
         -5   -1    0    0    0  501 -0.00000000000E+00 -0.00000000000E+00 -0.10623899181E+04  0.10624003144E+04  0.47000000000E+01 0.  1.
          6    1    1    2  502    0 -0.31978336410E+02 -0.76341503490E+02  0.30356539800E+02  0.19327741374E+03  0.17200000000E+03 0. -1.
         -6    1    1    2    0  502  0.31978336410E+02  0.76341503490E+02 -0.97169502038E+03  0.99026554609E+03  0.17200000000E+03 0.  1.
</event>
<event>
 4    1 -0.7147820E-004  0.2139404E+03  0.7818608E-02  0.1138483E+00
          5   -1    0    0  501    0  0.00000000000E+00  0.00000000000E+00  0.15144745953E+04  0.15144818882E+04  0.47000000000E+01 0. -1.
         -5   -1    0    0    0  501 -0.00000000000E+00 -0.00000000000E+00 -0.30639162048E+02  0.30997552339E+02  0.47000000000E+01 0.  1.
          6    1    1    2  502    0  0.55534016092E+02  0.11446601141E+03  0.63377786688E+03  0.66891320757E+03  0.17200000000E+03 0. -1.
         -6    1    1    2    0  502 -0.55534016092E+02 -0.11446601141E+03  0.85005756633E+03  0.87656623297E+03  0.17200000000E+03 0.  1.
</event>
<event>
 4    1 -0.7147820E-004  0.2251937E+03  0.7818608E-02  0.1130069E+00
          5   -1    0    0  501    0  0.00000000000E+00  0.00000000000E+00  0.26910486429E+03  0.26914590464E+03  0.47000000000E+01 0. -1.
         -5   -1    0    0    0  501 -0.00000000000E+00 -0.00000000000E+00 -0.51792940574E+03  0.51795073060E+03  0.47000000000E+01 0.  1.
          6    1    1    2  502    0 -0.13387929300E+03  0.56608537089E+02  0.18949422029E+03  0.29431318538E+03  0.17200000000E+03 0. -1.
         -6    1    1    2    0  502  0.13387929300E+03 -0.56608537089E+02 -0.43831876174E+03  0.49278344987E+03  0.17200000000E+03 0.  1.
</event>
<event>
 4    1 -0.7147820E-004  0.3395168E+03  0.7818608E-02  0.1067002E+00
         -5   -1    0    0    0  501 -0.00000000000E+00  0.00000000000E+00  0.82860538640E+03  0.82861871591E+03  0.47000000000E+01 0.  1.
          5   -1    0    0  501    0  0.00000000000E+00 -0.00000000000E+00 -0.17904618173E+03  0.17910785910E+03  0.47000000000E+01 0. -1.
          6    1    1    2  502    0 -0.21054722701E+03 -0.20336553384E+03  0.86724613615E+02  0.35041808424E+03  0.17200000000E+03 0. -1.
         -6    1    1    2    0  502  0.21054722701E+03  0.20336553384E+03  0.56283459106E+03  0.65730849077E+03  0.17200000000E+03 0.  1.
</event>
<event>
 4    1 -0.7147820E-004  0.1931705E+03  0.7818608E-02  0.1155632E+00
         -5   -1    0    0    0  501 -0.00000000000E+00  0.00000000000E+00  0.63776627615E+02  0.63949575682E+02  0.47000000000E+01 0.  1.
          5   -1    0    0  501    0  0.00000000000E+00 -0.00000000000E+00 -0.65535670547E+03  0.65537355868E+03  0.47000000000E+01 0. -1.
          6    1    1    2  502    0  0.64811972389E+02 -0.59415986850E+02 -0.41435826992E+03  0.45717351970E+03  0.17200000000E+03 0. -1.
         -6    1    1    2    0  502 -0.64811972389E+02  0.59415986850E+02 -0.17722180794E+03  0.26214961466E+03  0.17200000000E+03 0.  1.
</event>
<event>
 4    1 -0.7147820E-004  0.2236629E+03  0.7818608E-02  0.1131181E+00
         -5   -1    0    0    0  501 -0.00000000000E+00  0.00000000000E+00  0.10576316147E+04  0.10576420578E+04  0.47000000000E+01 0.  1.
          5   -1    0    0  501    0  0.00000000000E+00 -0.00000000000E+00 -0.12475058635E+03  0.12483909161E+03  0.47000000000E+01 0. -1.
          6    1    1    2  502    0  0.86943625775E+02  0.11349843695E+03  0.51510014369E+00  0.22366348513E+03  0.17200000000E+03 0. -1.
         -6    1    1    2    0  502 -0.86943625775E+02 -0.11349843695E+03  0.93236592825E+03  0.95881766432E+03  0.17200000000E+03 0.  1.
</event>
<event>
 4    1 -0.7147820E-004  0.1779268E+03  0.7818608E-02  0.1169825E+00
          5   -1    0    0  501    0  0.00000000000E+00  0.00000000000E+00  0.39725291850E+03  0.39728072097E+03  0.47000000000E+01 0. -1.
         -5   -1    0    0    0  501 -0.00000000000E+00 -0.00000000000E+00 -0.15634619876E+03  0.15641682732E+03  0.47000000000E+01 0.  1.
          6    1    1    2  502    0 -0.29452834667E+02  0.34734277412E+02  0.31434784812E+03  0.36120978547E+03  0.17200000000E+03 0. -1.
         -6    1    1    2    0  502  0.29452834667E+02 -0.34734277412E+02 -0.73441128386E+02  0.19248776282E+03  0.17200000000E+03 0.  1.
</event>
<event>
 4    1 -0.7147820E-004  0.1776164E+03  0.7818608E-02  0.1170130E+00
         -5   -1    0    0    0  501 -0.00000000000E+00  0.00000000000E+00  0.49611915062E+02  0.49834045753E+02  0.47000000000E+01 0.  1.
          5   -1    0    0  501    0  0.00000000000E+00 -0.00000000000E+00 -0.86084094518E+03  0.86085377556E+03  0.47000000000E+01 0. -1.
          6    1    1    2  502    0 -0.35569763860E+02  0.26427098323E+02 -0.63920362977E+03  0.66342209787E+03  0.17200000000E+03 0. -1.
         -6    1    1    2    0  502  0.35569763860E+02 -0.26427098323E+02 -0.17202540035E+03  0.24726572345E+03  0.17200000000E+03 0.  1.
</event>
<event>
 4    1 -0.7147820E-004  0.1900820E+03  0.7818608E-02  0.1158387E+00
          5   -1    0    0  501    0  0.00000000000E+00  0.00000000000E+00  0.38943396960E+03  0.38946233024E+03  0.47000000000E+01 0. -1.
         -5   -1    0    0    0  501 -0.00000000000E+00 -0.00000000000E+00 -0.11264287202E+03  0.11274088264E+03  0.47000000000E+01 0.  1.
          6    1    1    2  502    0  0.77371535701E+02  0.23681837095E+02  0.24402000457E+03  0.30931690315E+03  0.17200000000E+03 0. -1.
         -6    1    1    2    0  502 -0.77371535701E+02 -0.23681837095E+02  0.32771093010E+02  0.19288630973E+03  0.17200000000E+03 0.  1.
</event>
<event>
 4    1 -0.7147820E-004  0.3009288E+03  0.7818608E-02  0.1084777E+00
         -5   -1    0    0    0  501 -0.00000000000E+00  0.00000000000E+00  0.22363645671E+03  0.22368583945E+03  0.47000000000E+01 0.  1.
          5   -1    0    0  501    0  0.00000000000E+00 -0.00000000000E+00 -0.58366679276E+03  0.58368571592E+03  0.47000000000E+01 0. -1.
          6    1    1    2  502    0 -0.27324259720E+02  0.24541295257E+03 -0.40345791442E+03  0.50332536313E+03  0.17200000000E+03 0. -1.
         -6    1    1    2    0  502  0.27324259720E+02 -0.24541295257E+03  0.43427578376E+02  0.30404619225E+03  0.17200000000E+03 0.  1.
</event>
<event>
 4    1 -0.7147820E-004  0.3017889E+03  0.7818608E-02  0.1084350E+00
          5   -1    0    0  501    0  0.00000000000E+00  0.00000000000E+00  0.55986019899E+03  0.55987992678E+03  0.47000000000E+01 0. -1.
         -5   -1    0    0    0  501 -0.00000000000E+00 -0.00000000000E+00 -0.27646150019E+03  0.27650144862E+03  0.47000000000E+01 0.  1.
          6    1    1    2  502    0 -0.20748157799E+03  0.13580834275E+03  0.41001633495E+03  0.50910696920E+03  0.17200000000E+03 0. -1.
         -6    1    1    2    0  502  0.20748157799E+03 -0.13580834275E+03 -0.12661763615E+03  0.32727440620E+03  0.17200000000E+03 0.  1.
</event>
<event>
 4    1 -0.7147820E-004  0.1764751E+03  0.7818608E-02  0.1171259E+00
         -5   -1    0    0    0  501 -0.00000000000E+00  0.00000000000E+00  0.21403779600E+04  0.21403831203E+04  0.47000000000E+01 0.  1.
          5   -1    0    0  501    0  0.00000000000E+00 -0.00000000000E+00 -0.14165751861E+02  0.14925097178E+02  0.47000000000E+01 0. -1.
          6    1    1    2  502    0 -0.23698010893E+01 -0.39418925298E+02  0.10665709312E+04  0.10810721618E+04  0.17200000000E+03 0.  1.
         -6    1    1    2    0  502  0.23698010893E+01  0.39418925298E+02  0.10596412769E+04  0.10742360557E+04  0.17200000000E+03 0.  1.
</event>
<event>
 4    1 -0.7147820E-004  0.1863922E+03  0.7818608E-02  0.1161756E+00
         -5   -1    0    0    0  501 -0.00000000000E+00  0.00000000000E+00  0.53688730136E+02  0.53894060375E+02  0.47000000000E+01 0.  1.
          5   -1    0    0  501    0  0.00000000000E+00 -0.00000000000E+00 -0.11178716675E+04  0.11178815478E+04  0.47000000000E+01 0. -1.
          6    1    1    2  502    0 -0.28522888341E+02 -0.65912726401E+02 -0.91284845855E+03  0.93168361096E+03  0.17200000000E+03 0. -1.
         -6    1    1    2    0  502  0.28522888341E+02  0.65912726401E+02 -0.15133447879E+03  0.24009199722E+03  0.17200000000E+03 0.  1.
</event>
<event>
 4    1 -0.7147820E-004  0.1744297E+03  0.7818608E-02  0.1173306E+00
         -5   -1    0    0    0  501 -0.00000000000E+00  0.00000000000E+00  0.88951875751E+02  0.89075957473E+02  0.47000000000E+01 0.  1.
          5   -1    0    0  501    0  0.00000000000E+00 -0.00000000000E+00 -0.59536305872E+03  0.59538161014E+03  0.47000000000E+01 0. -1.
          6    1    1    2  502    0  0.21393729040E+02 -0.19596866005E+02 -0.47657654735E+03  0.50749476281E+03  0.17200000000E+03 0. -1.
         -6    1    1    2    0  502 -0.21393729040E+02  0.19596866005E+02 -0.29834635623E+02  0.17696280480E+03  0.17200000000E+03 0.  1.
</event>
<event>
 4    1 -0.7147820E-004  0.1914836E+03  0.7818608E-02  0.1157130E+00
          5   -1    0    0  501    0  0.00000000000E+00  0.00000000000E+00  0.48647997184E+02  0.48874509001E+02  0.47000000000E+01 0. -1.
         -5   -1    0    0    0  501 -0.00000000000E+00 -0.00000000000E+00 -0.93390298217E+03  0.93391480881E+03  0.47000000000E+01 0.  1.
          6    1    1    2  502    0  0.59308760642E+01  0.83945209498E+02 -0.22561558565E+03  0.29591952619E+03  0.17200000000E+03 0. -1.
         -6    1    1    2    0  502 -0.59308760642E+01 -0.83945209498E+02 -0.65963939933E+03  0.68686979162E+03  0.17200000000E+03 0.  1.
</event>
<event>
 4    1 -0.7147820E-004  0.1773727E+03  0.7818608E-02  0.1170370E+00
         -5   -1    0    0    0  501 -0.00000000000E+00  0.00000000000E+00  0.13957506783E+03  0.13965417846E+03  0.47000000000E+01 0.  1.
          5   -1    0    0  501    0  0.00000000000E+00 -0.00000000000E+00 -0.31228581402E+03  0.31232118026E+03  0.47000000000E+01 0. -1.
          6    1    1    2  502    0  0.25642014288E+02  0.34922335653E+02 -0.20564468112E+03  0.27157101705E+03  0.17200000000E+03 0. -1.
         -6    1    1    2    0  502 -0.25642014288E+02 -0.34922335653E+02  0.32933934936E+02  0.18040434167E+03  0.17200000000E+03 0.  1.
</event>
<event>
 4    1 -0.7147820E-004  0.2012789E+03  0.7818608E-02  0.1148664E+00
         -5   -1    0    0    0  501 -0.00000000000E+00  0.00000000000E+00  0.48751042105E+03  0.48753307645E+03  0.47000000000E+01 0.  1.
          5   -1    0    0  501    0  0.00000000000E+00 -0.00000000000E+00 -0.19459182389E+03  0.19464857545E+03  0.47000000000E+01 0. -1.
          6    1    1    2  502    0  0.55467123087E+02 -0.88614922580E+02 -0.11174953135E+03  0.23021981671E+03  0.17200000000E+03 0. -1.
         -6    1    1    2    0  502 -0.55467123087E+02  0.88614922580E+02  0.40466812850E+03  0.45196183520E+03  0.17200000000E+03 0.  1.
</event>
<event>
 4    1 -0.7147820E-004  0.1722601E+03  0.7818608E-02  0.1175511E+00
          5   -1    0    0  501    0  0.00000000000E+00  0.00000000000E+00  0.23491462395E+03  0.23496163632E+03  0.47000000000E+01 0. -1.
         -5   -1    0    0    0  501 -0.00000000000E+00 -0.00000000000E+00 -0.69797559925E+03  0.69799142340E+03  0.47000000000E+01 0.  1.
          6    1    1    2  502    0 -0.50481587633E+01  0.80042759144E+01  0.19063903698E+03  0.25693733625E+03  0.17200000000E+03 0. -1.
         -6    1    1    2    0  502  0.50481587633E+01 -0.80042759144E+01 -0.65370001228E+03  0.67601572348E+03  0.17200000000E+03 0.  1.
</event>
<event>
 4    1 -0.7147820E-004  0.2301928E+03  0.7818608E-02  0.1126504E+00
         -5   -1    0    0    0  501 -0.00000000000E+00  0.00000000000E+00  0.84013215270E+02  0.84144579980E+02  0.47000000000E+01 0.  1.
          5   -1    0    0  501    0  0.00000000000E+00 -0.00000000000E+00 -0.67459893030E+03  0.67461530279E+03  0.47000000000E+01 0. -1.
          6    1    1    2  502    0  0.14641498639E+03 -0.44355356550E+02 -0.39273466230E+03  0.45522440715E+03  0.17200000000E+03 0.  1.
         -6    1    1    2    0  502 -0.14641498639E+03  0.44355356550E+02 -0.19785105273E+03  0.30353547562E+03  0.17200000000E+03 0.  1.
</event>
<event>
 4    1 -0.7147820E-004  0.1780504E+03  0.7818608E-02  0.1169703E+00
          5   -1    0    0  501    0  0.00000000000E+00  0.00000000000E+00  0.22045427506E+03  0.22050437046E+03  0.47000000000E+01 0. -1.
         -5   -1    0    0    0  501 -0.00000000000E+00 -0.00000000000E+00 -0.27007314620E+03  0.27011403943E+03  0.47000000000E+01 0.  1.
          6    1    1    2  502    0  0.29167352309E+02 -0.35598030684E+02  0.14296136593E+03  0.22834164398E+03  0.17200000000E+03 0. -1.
         -6    1    1    2    0  502 -0.29167352309E+02  0.35598030684E+02 -0.19258023707E+03  0.26227676591E+03  0.17200000000E+03 0.  1.
</event>
<event>
 4    1 -0.7147820E-004  0.1811607E+03  0.7818608E-02  0.1166684E+00
         -5   -1    0    0    0  501 -0.00000000000E+00  0.00000000000E+00  0.90320466846E+03  0.90321689706E+03  0.47000000000E+01 0.  1.
          5   -1    0    0  501    0  0.00000000000E+00 -0.00000000000E+00 -0.54408113025E+02  0.54610738531E+02  0.47000000000E+01 0. -1.
          6    1    1    2  502    0  0.55010644335E+02  0.14458290183E+02  0.14780896521E+03  0.23380911732E+03  0.17200000000E+03 0. -1.
         -6    1    1    2    0  502 -0.55010644335E+02 -0.14458290183E+02  0.70098759022E+03  0.72401851827E+03  0.17200000000E+03 0.  1.
</event>
<event>
 4    1 -0.7147820E-004  0.1858841E+03  0.7818608E-02  0.1162227E+00
          5   -1    0    0  501    0  0.00000000000E+00  0.00000000000E+00  0.20392741207E+03  0.20398156631E+03  0.47000000000E+01 0. -1.
         -5   -1    0    0    0  501 -0.00000000000E+00 -0.00000000000E+00 -0.25992256521E+03  0.25996505516E+03  0.47000000000E+01 0.  1.
          6    1    1    2  502    0  0.70490326801E+02 -0.91414239773E-02  0.10892563047E+03  0.21544762526E+03  0.17200000000E+03 0. -1.
         -6    1    1    2    0  502 -0.70490326801E+02  0.91414239773E-02 -0.16492078361E+03  0.24849899622E+03  0.17200000000E+03 0.  1.
</event>
<event>
 4    1 -0.7147820E-004  0.1836803E+03  0.7818608E-02  0.1164288E+00
          5   -1    0    0  501    0  0.00000000000E+00  0.00000000000E+00  0.31319538018E+03  0.31323064372E+03  0.47000000000E+01 0. -1.
         -5   -1    0    0    0  501 -0.00000000000E+00 -0.00000000000E+00 -0.36200893135E+03  0.36203944036E+03  0.47000000000E+01 0.  1.
          6    1    1    2  502    0  0.45271386778E+02 -0.45879609777E+02  0.25858043103E+03  0.31717861903E+03  0.17200000000E+03 0. -1.
         -6    1    1    2    0  502 -0.45271386778E+02  0.45879609777E+02 -0.30739398220E+03  0.35809146505E+03  0.17200000000E+03 0.  1.
</event>
<event>
 4    1 -0.7147820E-004  0.2605171E+03  0.7818608E-02  0.1106833E+00
         -5   -1    0    0    0  501 -0.00000000000E+00  0.00000000000E+00  0.48577538728E+03  0.48579812360E+03  0.47000000000E+01 0.  1.
          5   -1    0    0  501    0  0.00000000000E+00 -0.00000000000E+00 -0.14676960441E+03  0.14684483913E+03  0.47000000000E+01 0. -1.
          6    1    1    2  502    0  0.18218031746E+03  0.71382703264E+02  0.99845541420E+02  0.27899514429E+03  0.17200000000E+03 0. -1.
         -6    1    1    2    0  502 -0.18218031746E+03 -0.71382703264E+02  0.23916024145E+03  0.35364781844E+03  0.17200000000E+03 0. -1.
</event>
<event>
 4    1 -0.7147820E-004  0.3218182E+03  0.7818608E-02  0.1074816E+00
          5   -1    0    0  501    0  0.00000000000E+00  0.00000000000E+00  0.82876536832E+03  0.82877869527E+03  0.47000000000E+01 0. -1.
         -5   -1    0    0    0  501 -0.00000000000E+00 -0.00000000000E+00 -0.23860322345E+03  0.23864950920E+03  0.47000000000E+01 0.  1.
          6    1    1    2  502    0 -0.58090821580E+02  0.26572239112E+03  0.66343943472E+03  0.73737291531E+03  0.17200000000E+03 0. -1.
         -6    1    1    2    0  502  0.58090821580E+02 -0.26572239112E+03 -0.73277289845E+02  0.33005528916E+03  0.17200000000E+03 0.  1.
</event>
<event>
 4    1 -0.7147820E-004  0.2509844E+03  0.7818608E-02  0.1112684E+00
          5   -1    0    0  501    0  0.00000000000E+00  0.00000000000E+00  0.25248919477E+03  0.25253293542E+03  0.47000000000E+01 0. -1.
         -5   -1    0    0    0  501 -0.00000000000E+00 -0.00000000000E+00 -0.29249683701E+03  0.29253459566E+03  0.47000000000E+01 0.  1.
          6    1    1    2  502    0 -0.12860332163E+03  0.12988596032E+03  0.84591895234E+02  0.26485650032E+03  0.17200000000E+03 0. -1.
         -6    1    1    2    0  502  0.12860332163E+03 -0.12988596032E+03 -0.12459953747E+03  0.28021103076E+03  0.17200000000E+03 0.  1.
</event>
<event>
 4    1 -0.7147820E-004  0.2171731E+03  0.7818608E-02  0.1136008E+00
         -5   -1    0    0    0  501 -0.00000000000E+00  0.00000000000E+00  0.15611532345E+03  0.15618605640E+03  0.47000000000E+01 0.  1.
          5   -1    0    0  501    0  0.00000000000E+00 -0.00000000000E+00 -0.97680542162E+03  0.97681672882E+03  0.47000000000E+01 0. -1.
          6    1    1    2  502    0  0.37638036685E+02 -0.12713595023E+03 -0.88119236739E+03  0.90755945259E+03  0.17200000000E+03 0. -1.
         -6    1    1    2    0  502 -0.37638036685E+02  0.12713595023E+03  0.60502269223E+02  0.22544333263E+03  0.17200000000E+03 0.  1.
</event>
<event>
 4    1 -0.7147820E-004  0.2504371E+03  0.7818608E-02  0.1113029E+00
          5   -1    0    0  501    0  0.00000000000E+00  0.00000000000E+00  0.59423035118E+03  0.59424893795E+03  0.47000000000E+01 0. -1.
         -5   -1    0    0    0  501 -0.00000000000E+00 -0.00000000000E+00 -0.18681373217E+03  0.18687284588E+03  0.47000000000E+01 0.  1.
          6    1    1    2  502    0  0.11267044913E+03 -0.14296886579E+03  0.46135233593E+03  0.52494257263E+03  0.17200000000E+03 0. -1.
         -6    1    1    2    0  502 -0.11267044913E+03  0.14296886579E+03 -0.53935716915E+02  0.25617921120E+03  0.17200000000E+03 0.  1.
</event>
<event>
 4    1 -0.7147820E-004  0.1840736E+03  0.7818608E-02  0.1163918E+00
         -5   -1    0    0    0  501 -0.00000000000E+00  0.00000000000E+00  0.72459679674E+02  0.72611949282E+02  0.47000000000E+01 0.  1.
          5   -1    0    0  501    0  0.00000000000E+00 -0.00000000000E+00 -0.60381578841E+03  0.60383408014E+03  0.47000000000E+01 0. -1.
          6    1    1    2  502    0  0.64949168702E+02  0.89835810076E+01 -0.42667699420E+03  0.46468952712E+03  0.17200000000E+03 0. -1.
         -6    1    1    2    0  502 -0.64949168702E+02 -0.89835810076E+01 -0.10467911454E+03  0.21175650229E+03  0.17200000000E+03 0.  1.
</event>
<event>
 4    1 -0.7147820E-004  0.1860904E+03  0.7818608E-02  0.1162036E+00
         -5   -1    0    0    0  501 -0.00000000000E+00  0.00000000000E+00  0.35198740667E+03  0.35201878423E+03  0.47000000000E+01 0.  1.
          5   -1    0    0  501    0  0.00000000000E+00 -0.00000000000E+00 -0.12523507851E+04  0.12523596045E+04  0.47000000000E+01 0. -1.
          6    1    1    2  502    0 -0.64752314160E+02 -0.29202186821E+02 -0.12202193744E+04  0.12343277326E+04  0.17200000000E+03 0. -1.
         -6    1    1    2    0  502  0.64752314160E+02  0.29202186821E+02  0.31985599597E+03  0.37005065607E+03  0.17200000000E+03 0.  1.
</event>
<event>
 4    1 -0.7147820E-004  0.2428416E+03  0.7818608E-02  0.1117914E+00
          5   -1    0    0  501    0  0.00000000000E+00  0.00000000000E+00  0.16548126408E+03  0.16554799534E+03  0.47000000000E+01 0. -1.
         -5   -1    0    0    0  501 -0.00000000000E+00 -0.00000000000E+00 -0.49542043657E+03  0.49544273026E+03  0.47000000000E+01 0.  1.
          6    1    1    2  502    0  0.40031820542E+02  0.16668987516E+03  0.10204081762E+02  0.24305592859E+03  0.17200000000E+03 0. -1.
         -6    1    1    2    0  502 -0.40031820542E+02 -0.16668987516E+03 -0.34014325426E+03  0.41793479701E+03  0.17200000000E+03 0.  1.
</event>
<event>
 4    1 -0.7147820E-004  0.2100975E+03  0.7818608E-02  0.1141489E+00
          5   -1    0    0  501    0  0.00000000000E+00  0.00000000000E+00  0.16780241199E+03  0.16786822054E+03  0.47000000000E+01 0. -1.
         -5   -1    0    0    0  501 -0.00000000000E+00 -0.00000000000E+00 -0.54253209551E+03  0.54255245337E+03  0.47000000000E+01 0.  1.
          6    1    1    2  502    0 -0.98745870354E+02  0.69326717459E+02  0.67621054576E+02  0.22071145799E+03  0.17200000000E+03 0. -1.
         -6    1    1    2    0  502  0.98745870354E+02 -0.69326717459E+02 -0.44235073810E+03  0.48970921593E+03  0.17200000000E+03 0.  1.
</event>
<event>
 4    1 -0.7147820E-004  0.1860305E+03  0.7818608E-02  0.1162091E+00
          5   -1    0    0  501    0  0.00000000000E+00  0.00000000000E+00  0.30473391672E+02  0.30833708826E+02  0.47000000000E+01 0. -1.
         -5   -1    0    0    0  501 -0.00000000000E+00 -0.00000000000E+00 -0.11289907639E+04  0.11290005470E+04  0.47000000000E+01 0.  1.
          6    1    1    2  502    0  0.67291970613E+02  0.22251742996E+02 -0.55979218954E+03  0.58989375725E+03  0.17200000000E+03 0. -1.
         -6    1    1    2    0  502 -0.67291970613E+02 -0.22251742996E+02 -0.53872518272E+03  0.56994049853E+03  0.17200000000E+03 0. -1.
</event>
<event>
 4    1 -0.7147820E-004  0.2022367E+03  0.7818608E-02  0.1147866E+00
          5   -1    0    0  501    0  0.00000000000E+00  0.00000000000E+00  0.31909525701E+03  0.31912986862E+03  0.47000000000E+01 0. -1.
         -5   -1    0    0    0  501 -0.00000000000E+00 -0.00000000000E+00 -0.14676923812E+03  0.14684447303E+03  0.47000000000E+01 0.  1.
          6    1    1    2  502    0  0.98968859258E+02 -0.38997788575E+02  0.16925002066E+03  0.26371430016E+03  0.17200000000E+03 0. -1.
         -6    1    1    2    0  502 -0.98968859258E+02  0.38997788575E+02  0.30759982303E+01  0.20226004149E+03  0.17200000000E+03 0.  1.
</event>
<event>
 4    1 -0.7147820E-004  0.1748342E+03  0.7818608E-02  0.1172898E+00
         -5   -1    0    0    0  501 -0.00000000000E+00  0.00000000000E+00  0.85467692314E+03  0.85468984605E+03  0.47000000000E+01 0.  1.
          5   -1    0    0  501    0  0.00000000000E+00 -0.00000000000E+00 -0.66566118767E+02  0.66731837736E+02  0.47000000000E+01 0. -1.
          6    1    1    2  502    0 -0.28061995867E+02 -0.13982364052E+02  0.80399565425E+02  0.19243459210E+03  0.17200000000E+03 0. -1.
         -6    1    1    2    0  502  0.28061995867E+02  0.13982364052E+02  0.70771123894E+03  0.72898709168E+03  0.17200000000E+03 0.  1.
</event>
<event>
 4    1 -0.7147820E-004  0.1883199E+03  0.7818608E-02  0.1159985E+00
          5   -1    0    0  501    0  0.00000000000E+00  0.00000000000E+00  0.69368749770E+02  0.69527789010E+02  0.47000000000E+01 0. -1.
         -5   -1    0    0    0  501 -0.00000000000E+00 -0.00000000000E+00 -0.69500579152E+03  0.69502168330E+03  0.47000000000E+01 0.  1.
          6    1    1    2  502    0 -0.45472889525E+02  0.61746338685E+02 -0.11587420422E+03  0.22111360254E+03  0.17200000000E+03 0. -1.
         -6    1    1    2    0  502  0.45472889525E+02 -0.61746338685E+02 -0.50976283753E+03  0.54343586977E+03  0.17200000000E+03 0.  1.
</event>
<event>
 4    1 -0.7147820E-004  0.2022640E+03  0.7818608E-02  0.1147843E+00
          5   -1    0    0  501    0  0.00000000000E+00  0.00000000000E+00  0.49079973865E+03  0.49082224222E+03  0.47000000000E+01 0. -1.
         -5   -1    0    0    0  501 -0.00000000000E+00 -0.00000000000E+00 -0.46965165842E+03  0.46967517526E+03  0.47000000000E+01 0.  1.
          6    1    1    2  502    0 -0.87021282975E+02 -0.61270148201E+02  0.44612913990E+03  0.48983869204E+03  0.17200000000E+03 0. -1.
         -6    1    1    2    0  502  0.87021282975E+02  0.61270148201E+02 -0.42498105967E+03  0.47065872544E+03  0.17200000000E+03 0.  1.
</event>
<event>
 4    1 -0.7147820E-004  0.1806316E+03  0.7818608E-02  0.1167193E+00
          5   -1    0    0  501    0  0.00000000000E+00  0.00000000000E+00  0.83090273719E+03  0.83091602986E+03  0.47000000000E+01 0. -1.
         -5   -1    0    0    0  501 -0.00000000000E+00 -0.00000000000E+00 -0.17268863361E+03  0.17275258082E+03  0.47000000000E+01 0.  1.
          6    1    1    2  502    0  0.51260900325E+02  0.20398183639E+02  0.77022778272E+03  0.79112489726E+03  0.17200000000E+03 0. -1.
         -6    1    1    2    0  502 -0.51260900325E+02 -0.20398183639E+02 -0.11201367914E+03  0.21254371341E+03  0.17200000000E+03 0.  1.
</event>
<event>
 4    1 -0.7147820E-004  0.1949174E+03  0.7818608E-02  0.1154099E+00
         -5   -1    0    0    0  501 -0.00000000000E+00  0.00000000000E+00  0.31174790217E+03  0.31178332942E+03  0.47000000000E+01 0.  1.
          5   -1    0    0  501    0  0.00000000000E+00 -0.00000000000E+00 -0.31194430533E+03  0.31197971028E+03  0.47000000000E+01 0. -1.
          6    1    1    2  502    0 -0.71991292878E+02  0.56798374711E+02 -0.24356745434E+03  0.31195818059E+03  0.17200000000E+03 0. -1.
         -6    1    1    2    0  502  0.71991292878E+02 -0.56798374711E+02  0.24337105118E+03  0.31180485912E+03  0.17200000000E+03 0.  1.
</event>
<event>
 4    1 -0.7147820E-004  0.2367748E+03  0.7818608E-02  0.1121960E+00
         -5   -1    0    0    0  501 -0.00000000000E+00  0.00000000000E+00  0.17825550416E+04  0.17825612378E+04  0.47000000000E+01 0.  1.
          5   -1    0    0  501    0  0.00000000000E+00 -0.00000000000E+00 -0.54162798418E+03  0.54164837602E+03  0.47000000000E+01 0. -1.
          6    1    1    2  502    0 -0.57061305307E+02 -0.15238875271E+03 -0.50739805424E+03  0.55992420019E+03  0.17200000000E+03 0. -1.
         -6    1    1    2    0  502  0.57061305307E+02  0.15238875271E+03  0.17483251117E+04  0.17642854136E+04  0.17200000000E+03 0.  1.
</event>
<event>
 4    1 -0.7147820E-004  0.1875483E+03  0.7818608E-02  0.1160691E+00
          5   -1    0    0  501    0  0.00000000000E+00  0.00000000000E+00  0.42816402767E+03  0.42818982308E+03  0.47000000000E+01 0. -1.
         -5   -1    0    0    0  501 -0.00000000000E+00 -0.00000000000E+00 -0.13413119656E+03  0.13421351605E+03  0.47000000000E+01 0.  1.
          6    1    1    2  502    0  0.74598373573E+02 -0.50427320967E+01  0.32214259235E+03  0.37276023969E+03  0.17200000000E+03 0. -1.
         -6    1    1    2    0  502 -0.74598373573E+02  0.50427320967E+01 -0.28109761250E+02  0.18964309944E+03  0.17200000000E+03 0.  1.
</event>
<event>
 4    1 -0.7147820E-004  0.1749218E+03  0.7818608E-02  0.1172810E+00
         -5   -1    0    0    0  501 -0.00000000000E+00  0.00000000000E+00  0.42999423236E+03  0.43001991798E+03  0.47000000000E+01 0.  1.
          5   -1    0    0  501    0  0.00000000000E+00 -0.00000000000E+00 -0.77298175564E+02  0.77440931978E+02  0.47000000000E+01 0. -1.
          6    1    1    2  502    0  0.27740615699E+02  0.15623230090E+02  0.10430735163E+03  0.20366062624E+03  0.17200000000E+03 0. -1.
         -6    1    1    2    0  502 -0.27740615699E+02 -0.15623230090E+02  0.24838870516E+03  0.30380022372E+03  0.17200000000E+03 0.  1.
</event>
<event>
 4    1 -0.7147820E-004  0.2060007E+03  0.7818608E-02  0.1144773E+00
          5   -1    0    0  501    0  0.00000000000E+00  0.00000000000E+00  0.24658034963E+03  0.24662513826E+03  0.47000000000E+01 0. -1.
         -5   -1    0    0    0  501 -0.00000000000E+00 -0.00000000000E+00 -0.26973560642E+03  0.26977655082E+03  0.47000000000E+01 0.  1.
          6    1    1    2  502    0  0.76131645270E+02 -0.84001609487E+02  0.14381183183E+03  0.25123323981E+03  0.17200000000E+03 0. -1.
         -6    1    1    2    0  502 -0.76131645270E+02  0.84001609487E+02 -0.16696708862E+03  0.26516844928E+03  0.17200000000E+03 0.  1.
</event>
<event>
 4    1 -0.7147820E-004  0.1763592E+03  0.7818608E-02  0.1171374E+00
          5   -1    0    0  501    0  0.00000000000E+00  0.00000000000E+00  0.93754788977E+02  0.93872522370E+02  0.47000000000E+01 0. -1.
         -5   -1    0    0    0  501 -0.00000000000E+00 -0.00000000000E+00 -0.40258729498E+03  0.40261472909E+03  0.47000000000E+01 0.  1.
          6    1    1    2  502    0 -0.12094301432E+02 -0.37044679440E+02 -0.50048737779E+02  0.18332336609E+03  0.17200000000E+03 0. -1.
         -6    1    1    2    0  502  0.12094301432E+02  0.37044679440E+02 -0.25878376822E+03  0.31316388537E+03  0.17200000000E+03 0.  1.
</event>
<event>
 4    1 -0.7147820E-004  0.2053750E+03  0.7818608E-02  0.1145282E+00
          5   -1    0    0  501    0  0.00000000000E+00  0.00000000000E+00  0.28085701841E+02  0.28476247082E+02  0.47000000000E+01 0. -1.
         -5   -1    0    0    0  501 -0.00000000000E+00 -0.00000000000E+00 -0.26797384901E+04  0.26797426118E+04  0.47000000000E+01 0.  1.
          6    1    1    2  502    0 -0.10199690325E+03  0.46813648366E+02 -0.42401977474E+03  0.47113867950E+03  0.17200000000E+03 0. -1.
         -6    1    1    2    0  502  0.10199690325E+03 -0.46813648366E+02 -0.22276330135E+04  0.22370801794E+04  0.17200000000E+03 0.  1.
</event>
<event>
 4    1 -0.7147820E-004  0.5401810E+03  0.7818608E-02  0.1003793E+00
          5   -1    0    0  501    0  0.00000000000E+00  0.00000000000E+00  0.13771545400E+04  0.13771625602E+04  0.47000000000E+01 0. -1.
         -5   -1    0    0    0  501 -0.00000000000E+00 -0.00000000000E+00 -0.35278719230E+03  0.35281849874E+03  0.47000000000E+01 0.  1.
          6    1    1    2  502    0 -0.51203952952E+03 -0.52002993566E+01  0.10588721137E+04  0.11886991529E+04  0.17200000000E+03 0. -1.
         -6    1    1    2    0  502  0.51203952952E+03  0.52002993566E+01 -0.34504765971E+02  0.54128190602E+03  0.17200000000E+03 0.  1.
</event>
<event>
 4    1 -0.7147820E-004  0.1842079E+03  0.7818608E-02  0.1163792E+00
         -5   -1    0    0    0  501 -0.00000000000E+00  0.00000000000E+00  0.17203004362E+03  0.17209423555E+03  0.47000000000E+01 0.  1.
          5   -1    0    0  501    0  0.00000000000E+00 -0.00000000000E+00 -0.26592714097E+03  0.26596867166E+03  0.47000000000E+01 0. -1.
          6    1    1    2  502    0 -0.26914688621E+02  0.60201027811E+02 -0.15834033345E+03  0.24290785374E+03  0.17200000000E+03 0. -1.
         -6    1    1    2    0  502  0.26914688621E+02 -0.60201027811E+02  0.64443236102E+02  0.19515505346E+03  0.17200000000E+03 0.  1.
</event>
<event>
 4    1 -0.7147820E-004  0.2001964E+03  0.7818608E-02  0.1149573E+00
          5   -1    0    0  501    0  0.00000000000E+00  0.00000000000E+00  0.65836393503E+03  0.65838071125E+03  0.47000000000E+01 0. -1.
         -5   -1    0    0    0  501 -0.00000000000E+00 -0.00000000000E+00 -0.20736287031E+03  0.20741612758E+03  0.47000000000E+01 0.  1.
          6    1    1    2  502    0 -0.10345100160E+02  0.10191946701E+03  0.58936513214E+03  0.62243863781E+03  0.17200000000E+03 0. -1.
         -6    1    1    2    0  502  0.10345100160E+02 -0.10191946701E+03 -0.13836406742E+03  0.24335820103E+03  0.17200000000E+03 0.  1.
</event>
<event>
 4    1 -0.7147820E-004  0.1809463E+03  0.7818608E-02  0.1166890E+00
         -5   -1    0    0    0  501 -0.00000000000E+00  0.00000000000E+00  0.38940719524E+03  0.38943555783E+03  0.47000000000E+01 0.  1.
          5   -1    0    0  501    0  0.00000000000E+00 -0.00000000000E+00 -0.14471573916E+03  0.14479204108E+03  0.47000000000E+01 0. -1.
          6    1    1    2  502    0 -0.56191329725E+02 -0.29154628979E+00 -0.50616090152E+02  0.18789236046E+03  0.17200000000E+03 0. -1.
         -6    1    1    2    0  502  0.56191329725E+02  0.29154628979E+00  0.29530754623E+03  0.34633523845E+03  0.17200000000E+03 0.  1.
</event>
<event>
 4    1 -0.7147820E-004  0.2582795E+03  0.7818608E-02  0.1108181E+00
         -5   -1    0    0    0  501 -0.00000000000E+00  0.00000000000E+00  0.27791878908E+03  0.27795852806E+03  0.47000000000E+01 0.  1.
          5   -1    0    0  501    0  0.00000000000E+00 -0.00000000000E+00 -0.29474841233E+03  0.29478588258E+03  0.47000000000E+01 0. -1.
          6    1    1    2  502    0 -0.72663964805E+02  0.17844952882E+03 -0.13187778649E+03  0.29000006325E+03  0.17200000000E+03 0. -1.
         -6    1    1    2    0  502  0.72663964805E+02 -0.17844952882E+03  0.11504816324E+03  0.28274434739E+03  0.17200000000E+03 0.  1.
</event>
<event>
 4    1 -0.7147820E-004  0.1808122E+03  0.7818608E-02  0.1167019E+00
         -5   -1    0    0    0  501 -0.00000000000E+00  0.00000000000E+00  0.24938067446E+03  0.24942496025E+03  0.47000000000E+01 0.  1.
          5   -1    0    0  501    0  0.00000000000E+00 -0.00000000000E+00 -0.24124806393E+03  0.24129384233E+03  0.47000000000E+01 0. -1.
          6    1    1    2  502    0  0.41570445898E+02  0.37161220466E+02 -0.16176250887E+03  0.24261114475E+03  0.17200000000E+03 0. -1.
         -6    1    1    2    0  502 -0.41570445898E+02 -0.37161220466E+02  0.16989511941E+03  0.24810765784E+03  0.17200000000E+03 0.  1.
</event>
<event>
 4    1 -0.7147820E-004  0.1993930E+03  0.7818608E-02  0.1150252E+00
         -5   -1    0    0    0  501 -0.00000000000E+00  0.00000000000E+00  0.10178402421E+03  0.10189248051E+03  0.47000000000E+01 0.  1.
          5   -1    0    0  501    0  0.00000000000E+00 -0.00000000000E+00 -0.11524296644E+04  0.11524392484E+04  0.47000000000E+01 0. -1.
          6    1    1    2  502    0  0.68895740983E+02 -0.73667929863E+02 -0.10353252611E+04  0.10543509773E+04  0.17200000000E+03 0. -1.
         -6    1    1    2    0  502 -0.68895740983E+02  0.73667929863E+02 -0.15320379048E+02  0.19998075165E+03  0.17200000000E+03 0.  1.
</event>
<event>
 4    1 -0.7147820E-004  0.1909564E+03  0.7818608E-02  0.1157602E+00
          5   -1    0    0  501    0  0.00000000000E+00  0.00000000000E+00  0.18589126587E+04  0.18589186003E+04  0.47000000000E+01 0. -1.
         -5   -1    0    0    0  501 -0.00000000000E+00 -0.00000000000E+00 -0.38316703488E+02  0.38603882786E+02  0.47000000000E+01 0.  1.
          6    1    1    2  502    0 -0.50081199554E+02  0.66122783914E+02  0.15744635285E+04  0.15860011828E+04  0.17200000000E+03 0. -1.
         -6    1    1    2    0  502  0.50081199554E+02 -0.66122783914E+02  0.24613242666E+03  0.31152130032E+03  0.17200000000E+03 0.  1.
</event>
<event>
 4    1 -0.7147820E-004  0.2293472E+03  0.7818608E-02  0.1127100E+00
         -5   -1    0    0    0  501 -0.00000000000E+00  0.00000000000E+00  0.72165191846E+03  0.72166722346E+03  0.47000000000E+01 0.  1.
          5   -1    0    0  501    0  0.00000000000E+00 -0.00000000000E+00 -0.23819343389E+03  0.23823979926E+03  0.47000000000E+01 0. -1.
          6    1    1    2  502    0 -0.65277286170E+01  0.15157027053E+03 -0.15811754709E+03  0.27857012914E+03  0.17200000000E+03 0. -1.
         -6    1    1    2    0  502  0.65277286170E+01 -0.15157027053E+03  0.64157603165E+03  0.68133689357E+03  0.17200000000E+03 0.  1.
</event>
<event>
 4    1 -0.7147820E-004  0.2597562E+03  0.7818608E-02  0.1107290E+00
          5   -1    0    0  501    0  0.00000000000E+00  0.00000000000E+00  0.14983533418E+03  0.14990903031E+03  0.47000000000E+01 0. -1.
         -5   -1    0    0    0  501 -0.00000000000E+00 -0.00000000000E+00 -0.95514102679E+03  0.95515259046E+03  0.47000000000E+01 0.  1.
          6    1    1    2  502    0  0.14870392076E+03 -0.12560426052E+03 -0.90199350596E+00  0.25975777159E+03  0.17200000000E+03 0. -1.
         -6    1    1    2    0  502 -0.14870392076E+03  0.12560426052E+03 -0.80440369910E+03  0.84530384918E+03  0.17200000000E+03 0.  1.
</event>
<event>
 4    1 -0.7147820E-004  0.1962884E+03  0.7818608E-02  0.1152909E+00
          5   -1    0    0  501    0  0.00000000000E+00  0.00000000000E+00  0.34437225052E+03  0.34440432188E+03  0.47000000000E+01 0. -1.
         -5   -1    0    0    0  501 -0.00000000000E+00 -0.00000000000E+00 -0.24895117110E+03  0.24899553328E+03  0.47000000000E+01 0.  1.
          6    1    1    2  502    0 -0.92036458970E+02 -0.21781760463E+02  0.26788992620E+03  0.33210565702E+03  0.17200000000E+03 0. -1.
         -6    1    1    2    0  502  0.92036458970E+02  0.21781760463E+02 -0.17246884678E+03  0.26129419813E+03  0.17200000000E+03 0.  1.
</event>
<event>
 4    1 -0.7147820E-004  0.2436258E+03  0.7818608E-02  0.1117401E+00
          5   -1    0    0  501    0  0.00000000000E+00  0.00000000000E+00  0.43425516147E+03  0.43428059508E+03  0.47000000000E+01 0. -1.
         -5   -1    0    0    0  501 -0.00000000000E+00 -0.00000000000E+00 -0.33165745425E+03  0.33169075501E+03  0.47000000000E+01 0.  1.
          6    1    1    2  502    0  0.36756696997E+02  0.16857779007E+03  0.34496563196E+03  0.42232074696E+03  0.17200000000E+03 0. -1.
         -6    1    1    2    0  502 -0.36756696997E+02 -0.16857779007E+03 -0.24236792475E+03  0.34365060312E+03  0.17200000000E+03 0.  1.
</event>
<event>
 4    1 -0.7147820E-004  0.2154546E+03  0.7818608E-02  0.1137318E+00
         -5   -1    0    0    0  501 -0.00000000000E+00  0.00000000000E+00  0.76465190340E+02  0.76609498978E+02  0.47000000000E+01 0.  1.
          5   -1    0    0  501    0  0.00000000000E+00 -0.00000000000E+00 -0.11724474536E+04  0.11724568740E+04  0.47000000000E+01 0. -1.
          6    1    1    2  502    0  0.88701197616E+02  0.94703664810E+02 -0.98192396280E+03  0.10052837188E+04  0.17200000000E+03 0. -1.
         -6    1    1    2    0  502 -0.88701197616E+02 -0.94703664810E+02 -0.11405830048E+03  0.24378265421E+03  0.17200000000E+03 0.  1.
</event>
<event>
 4    1 -0.7147820E-004  0.2534512E+03  0.7818608E-02  0.1111143E+00
          5   -1    0    0  501    0  0.00000000000E+00  0.00000000000E+00  0.61269727198E+03  0.61271529856E+03  0.47000000000E+01 0. -1.
         -5   -1    0    0    0  501 -0.00000000000E+00 -0.00000000000E+00 -0.16422840328E+03  0.16429564341E+03  0.47000000000E+01 0.  1.
          6    1    1    2  502    0  0.20961078578E+01 -0.18614267844E+03  0.45792230975E+03  0.52338354213E+03  0.17200000000E+03 0. -1.
         -6    1    1    2    0  502 -0.20961078578E+01  0.18614267844E+03 -0.94534410463E+01  0.25362739984E+03  0.17200000000E+03 0.  1.
</event>
<event>
 4    1 -0.7147820E-004  0.2188215E+03  0.7818608E-02  0.1134765E+00
         -5   -1    0    0    0  501 -0.00000000000E+00  0.00000000000E+00  0.87523116777E+02  0.87649221162E+02  0.47000000000E+01 0.  1.
          5   -1    0    0  501    0  0.00000000000E+00 -0.00000000000E+00 -0.10798269613E+04  0.10798371898E+04  0.47000000000E+01 0. -1.
          6    1    1    2  502    0  0.13497262548E+03 -0.90131005802E+01 -0.90634612494E+03  0.93238733572E+03  0.17200000000E+03 0. -1.
         -6    1    1    2    0  502 -0.13497262548E+03  0.90131005802E+01 -0.85957719630E+02  0.23509907523E+03  0.17200000000E+03 0.  1.
</event>
<event>
 4    1 -0.7147820E-004  0.2096042E+03  0.7818608E-02  0.1141880E+00
         -5   -1    0    0    0  501 -0.00000000000E+00  0.00000000000E+00  0.59373100772E+02  0.59558837256E+02  0.47000000000E+01 0.  1.
          5   -1    0    0  501    0  0.00000000000E+00 -0.00000000000E+00 -0.91622628294E+03  0.91623833775E+03  0.47000000000E+01 0. -1.
          6    1    1    2  502    0  0.84451842551E+02  0.84957764872E+02 -0.64321778852E+03  0.67650798886E+03  0.17200000000E+03 0. -1.
         -6    1    1    2    0  502 -0.84451842551E+02 -0.84957764872E+02 -0.21363539366E+03  0.29928918615E+03  0.17200000000E+03 0.  1.
</event>
<event>
 4    1 -0.7147820E-004  0.2457251E+03  0.7818608E-02  0.1116037E+00
         -5   -1    0    0    0  501 -0.00000000000E+00  0.00000000000E+00  0.40584075482E+03  0.40586796902E+03  0.47000000000E+01 0.  1.
          5   -1    0    0  501    0  0.00000000000E+00 -0.00000000000E+00 -0.19508068286E+03  0.19513729225E+03  0.47000000000E+01 0. -1.
          6    1    1    2  502    0  0.16083605843E+03 -0.70203889731E+02 -0.41093286837E+02  0.24913747620E+03  0.17200000000E+03 0. -1.
         -6    1    1    2    0  502 -0.16083605843E+03  0.70203889731E+02  0.25185335880E+03  0.35186778506E+03  0.17200000000E+03 0.  1.
</event>
<event>
 4    1 -0.7147820E-004  0.3999653E+03  0.7818608E-02  0.1043792E+00
         -5   -1    0    0    0  501 -0.00000000000E+00  0.00000000000E+00  0.17547567914E+04  0.17547630857E+04  0.47000000000E+01 0.  1.
          5   -1    0    0  501    0  0.00000000000E+00 -0.00000000000E+00 -0.12765463266E+04  0.12765549788E+04  0.47000000000E+01 0. -1.
          6    1    1    2  502    0  0.34738838075E+03  0.98537231413E+02 -0.12214313692E+04  0.12852497277E+04  0.17200000000E+03 0. -1.
         -6    1    1    2    0  502 -0.34738838075E+03 -0.98537231413E+02  0.16996418340E+04  0.17460683368E+04  0.17200000000E+03 0.  1.
</event>
<event>
 4    1 -0.7147820E-004  0.1723500E+03  0.7818608E-02  0.1175419E+00
         -5   -1    0    0    0  501 -0.00000000000E+00  0.00000000000E+00  0.25543541518E+03  0.25547865141E+03  0.47000000000E+01 0.  1.
          5   -1    0    0  501    0  0.00000000000E+00 -0.00000000000E+00 -0.37772827882E+03  0.37775751828E+03  0.47000000000E+01 0. -1.
          6    1    1    2  502    0  0.16035875731E+01  0.10860370163E+02 -0.32456945622E+03  0.36749129384E+03  0.17200000000E+03 0. -1.
         -6    1    1    2    0  502 -0.16035875731E+01 -0.10860370163E+02  0.20227659259E+03  0.26574487585E+03  0.17200000000E+03 0.  1.
</event>
<event>
 4    1 -0.7147820E-004  0.2928430E+03  0.7818608E-02  0.1088874E+00
          5   -1    0    0  501    0  0.00000000000E+00  0.00000000000E+00  0.78614321304E+03  0.78615726252E+03  0.47000000000E+01 0. -1.
         -5   -1    0    0    0  501 -0.00000000000E+00 -0.00000000000E+00 -0.14397140100E+03  0.14404809720E+03  0.47000000000E+01 0.  1.
          6    1    1    2  502    0  0.21262723364E+03 -0.10470271109E+03  0.55016596247E+03  0.62324921537E+03  0.17200000000E+03 0. -1.
         -6    1    1    2    0  502 -0.21262723364E+03  0.10470271109E+03  0.92005849570E+02  0.30695614435E+03  0.17200000000E+03 0.  1.
</event>
<event>
 4    1 -0.7147820E-004  0.3544446E+03  0.7818608E-02  0.1060805E+00
          5   -1    0    0  501    0  0.00000000000E+00  0.00000000000E+00  0.16603288921E+03  0.16609939886E+03  0.47000000000E+01 0. -1.
         -5   -1    0    0    0  501 -0.00000000000E+00 -0.00000000000E+00 -0.12152164142E+04  0.12152255031E+04  0.47000000000E+01 0.  1.
          6    1    1    2  502    0 -0.25662825954E+03  0.17374959631E+03 -0.10023946519E+03  0.36834621784E+03  0.17200000000E+03 0. -1.
         -6    1    1    2    0  502  0.25662825954E+03 -0.17374959631E+03 -0.94894405981E+03  0.10129786841E+04  0.17200000000E+03 0.  1.
</event>
<event>
 4    1 -0.7147820E-004  0.1803483E+03  0.7818608E-02  0.1167466E+00
          5   -1    0    0  501    0  0.00000000000E+00  0.00000000000E+00  0.57989033172E+02  0.58179188446E+02  0.47000000000E+01 0. -1.
         -5   -1    0    0    0  501 -0.00000000000E+00 -0.00000000000E+00 -0.77215890468E+03  0.77217320860E+03  0.47000000000E+01 0.  1.
          6    1    1    2  502    0  0.54205818507E+02 -0.18010232313E+01 -0.13937208356E+03  0.22792562848E+03  0.17200000000E+03 0. -1.
         -6    1    1    2    0  502 -0.54205818507E+02  0.18010232313E+01 -0.57479778796E+03  0.60242676856E+03  0.17200000000E+03 0.  1.
</event>
<event>
 4    1 -0.7147820E-004  0.1723047E+03  0.7818608E-02  0.1175465E+00
         -5   -1    0    0    0  501 -0.00000000000E+00  0.00000000000E+00  0.62987447719E+02  0.63162556710E+02  0.47000000000E+01 0.  1.
          5   -1    0    0  501    0  0.00000000000E+00 -0.00000000000E+00 -0.12943193364E+04  0.12943278698E+04  0.47000000000E+01 0. -1.
          6    1    1    2  502    0 -0.52667820357E+00  0.10229770544E+02 -0.11571286146E+04  0.11698869844E+04  0.17200000000E+03 0. -1.
         -6    1    1    2    0  502  0.52667820357E+00 -0.10229770544E+02 -0.74203274043E+02  0.18760344206E+03  0.17200000000E+03 0.  1.
</event>
<event>
 4    1 -0.7147820E-004  0.1968422E+03  0.7818608E-02  0.1152431E+00
          5   -1    0    0  501    0  0.00000000000E+00  0.00000000000E+00  0.13325113831E+04  0.13325196720E+04  0.47000000000E+01 0. -1.
         -5   -1    0    0    0  501 -0.00000000000E+00 -0.00000000000E+00 -0.48839122218E+02  0.49064751696E+02  0.47000000000E+01 0.  1.
          6    1    1    2  502    0 -0.57900713550E+02 -0.76225765125E+02  0.10820446544E+04  0.10998033888E+04  0.17200000000E+03 0. -1.
         -6    1    1    2    0  502  0.57900713550E+02  0.76225765125E+02  0.20162760651E+03  0.28178103485E+03  0.17200000000E+03 0.  1.
</event>
<event>
 4    1 -0.7147820E-004  0.1821826E+03  0.7818608E-02  0.1165707E+00
         -5   -1    0    0    0  501 -0.00000000000E+00  0.00000000000E+00  0.36510463043E+03  0.36513488078E+03  0.47000000000E+01 0.  1.
          5   -1    0    0  501    0  0.00000000000E+00 -0.00000000000E+00 -0.16522365763E+03  0.16529049290E+03  0.47000000000E+01 0. -1.
          6    1    1    2  502    0  0.48085005430E+02  0.35976803993E+02 -0.77975552125E+02  0.19816832467E+03  0.17200000000E+03 0. -1.
         -6    1    1    2    0  502 -0.48085005430E+02 -0.35976803993E+02  0.27785652492E+03  0.33225704901E+03  0.17200000000E+03 0.  1.
</event>
<event>
 4    1 -0.7147820E-004  0.1747698E+03  0.7818608E-02  0.1172963E+00
         -5   -1    0    0    0  501 -0.00000000000E+00  0.00000000000E+00  0.11156765148E+03  0.11166660583E+03  0.47000000000E+01 0.  1.
          5   -1    0    0  501    0  0.00000000000E+00 -0.00000000000E+00 -0.11107353881E+04  0.11107453319E+04  0.47000000000E+01 0. -1.
          6    1    1    2  502    0 -0.10474304936E+02  0.29167896597E+02 -0.10301906038E+04  0.10449101193E+04  0.17200000000E+03 0. -1.
         -6    1    1    2    0  502  0.10474304936E+02 -0.29167896597E+02  0.31022867196E+02  0.17750181843E+03  0.17200000000E+03 0.  1.
</event>
<event>
 4    1 -0.7147820E-004  0.2357092E+03  0.7818608E-02  0.1122685E+00
         -5   -1    0    0    0  501 -0.00000000000E+00  0.00000000000E+00  0.69784005174E+02  0.69942100184E+02  0.47000000000E+01 0.  1.
          5   -1    0    0  501    0  0.00000000000E+00 -0.00000000000E+00 -0.11361338249E+04  0.11361435464E+04  0.47000000000E+01 0. -1.
          6    1    1    2  502    0 -0.12893427983E+03  0.96699374608E+02 -0.86354992418E+03  0.89514093255E+03  0.17200000000E+03 0. -1.
         -6    1    1    2    0  502  0.12893427983E+03 -0.96699374608E+02 -0.20279989551E+03  0.31094471403E+03  0.17200000000E+03 0.  1.
</event>
<event>
 4    1 -0.7147820E-004  0.2276404E+03  0.7818608E-02  0.1128312E+00
         -5   -1    0    0    0  501 -0.00000000000E+00  0.00000000000E+00  0.11864543514E+03  0.11873849114E+03  0.47000000000E+01 0.  1.
          5   -1    0    0  501    0  0.00000000000E+00 -0.00000000000E+00 -0.44904258168E+03  0.44906717778E+03  0.47000000000E+01 0. -1.
          6    1    1    2  502    0 -0.99319620485E+02  0.11122839358E+03 -0.11773359615E+03  0.25628371430E+03  0.17200000000E+03 0. -1.
         -6    1    1    2    0  502  0.99319620485E+02 -0.11122839358E+03 -0.21266355039E+03  0.31152195463E+03  0.17200000000E+03 0. -1.
</event>
<event>
 4    1 -0.7147820E-004  0.2312830E+03  0.7818608E-02  0.1125740E+00
          5   -1    0    0  501    0  0.00000000000E+00  0.00000000000E+00  0.59997772053E+03  0.59999612926E+03  0.47000000000E+01 0. -1.
         -5   -1    0    0    0  501 -0.00000000000E+00 -0.00000000000E+00 -0.23670548540E+03  0.23675214216E+03  0.47000000000E+01 0.  1.
          6    1    1    2  502    0 -0.94430086678E+02 -0.12243685677E+03  0.51197077513E+03  0.56178812710E+03  0.17200000000E+03 0. -1.
         -6    1    1    2    0  502  0.94430086678E+02  0.12243685677E+03 -0.14869854000E+03  0.27496014432E+03  0.17200000000E+03 0.  1.
</event>
<event>
 4    1 -0.7147820E-004  0.1943137E+03  0.7818608E-02  0.1154627E+00
         -5   -1    0    0    0  501 -0.00000000000E+00  0.00000000000E+00  0.37674527250E+03  0.37677458825E+03  0.47000000000E+01 0.  1.
          5   -1    0    0  501    0  0.00000000000E+00 -0.00000000000E+00 -0.11403589357E+03  0.11413270794E+03  0.47000000000E+01 0. -1.
          6    1    1    2  502    0 -0.20795024263E+02 -0.87985118831E+02  0.45699702156E+02  0.19961532243E+03  0.17200000000E+03 0. -1.
         -6    1    1    2    0  502  0.20795024263E+02  0.87985118831E+02  0.21700967678E+03  0.29129197377E+03  0.17200000000E+03 0.  1.
</event>
<event>
 4    1 -0.7147820E-004  0.1796349E+03  0.7818608E-02  0.1168157E+00
         -5   -1    0    0    0  501 -0.00000000000E+00  0.00000000000E+00  0.28441863525E+03  0.28445746620E+03  0.47000000000E+01 0.  1.
          5   -1    0    0  501    0  0.00000000000E+00 -0.00000000000E+00 -0.46932099402E+03  0.46934452743E+03  0.47000000000E+01 0. -1.
          6    1    1    2  502    0  0.51367150072E+02 -0.67902478343E+01 -0.42065813485E+03  0.45740786830E+03  0.17200000000E+03 0. -1.
         -6    1    1    2    0  502 -0.51367150072E+02  0.67902478343E+01  0.23575577608E+03  0.29639412532E+03  0.17200000000E+03 0.  1.
</event>
<event>
 4    1 -0.7147820E-004  0.2084961E+03  0.7818608E-02  0.1142762E+00
          5   -1    0    0  501    0  0.00000000000E+00  0.00000000000E+00  0.35708097279E+03  0.35711190281E+03  0.47000000000E+01 0. -1.
         -5   -1    0    0    0  501 -0.00000000000E+00 -0.00000000000E+00 -0.22956071667E+03  0.22960882527E+03  0.47000000000E+01 0.  1.
          6    1    1    2  502    0 -0.10239500750E+03 -0.58325721054E+02  0.26484314246E+03  0.33706455970E+03  0.17200000000E+03 0. -1.
         -6    1    1    2    0  502  0.10239500750E+03  0.58325721054E+02 -0.13732288634E+03  0.24965616838E+03  0.17200000000E+03 0.  1.
</event>
<event>
 4    1 -0.7147820E-004  0.2144509E+03  0.7818608E-02  0.1138089E+00
         -5   -1    0    0    0  501 -0.00000000000E+00  0.00000000000E+00  0.47375605291E+03  0.47377936602E+03  0.47000000000E+01 0.  1.
          5   -1    0    0  501    0  0.00000000000E+00 -0.00000000000E+00 -0.15754436057E+03  0.15761445222E+03  0.47000000000E+01 0. -1.
          6    1    1    2  502    0  0.29436040949E+02  0.12465434096E+03 -0.37543940496E+02  0.21771250009E+03  0.17200000000E+03 0. -1.
         -6    1    1    2    0  502 -0.29436040949E+02 -0.12465434096E+03  0.35375563283E+03  0.41368131815E+03  0.17200000000E+03 0.  1.
</event>
<event>
 4    1 -0.7147820E-004  0.2277862E+03  0.7818608E-02  0.1128208E+00
         -5   -1    0    0    0  501 -0.00000000000E+00  0.00000000000E+00  0.16206075495E+04  0.16206143648E+04  0.47000000000E+01 0.  1.
          5   -1    0    0  501    0  0.00000000000E+00 -0.00000000000E+00 -0.13660978362E+03  0.13669061043E+03  0.47000000000E+01 0. -1.
          6    1    1    2  502    0 -0.14788082292E+03 -0.20828643865E+02 -0.26867287942E+02  0.22936525752E+03  0.17200000000E+03 0. -1.
         -6    1    1    2    0  502  0.14788082292E+03  0.20828643865E+02  0.15108650538E+04  0.15279397177E+04  0.17200000000E+03 0.  1.
</event>
<event>
 4    1 -0.7147820E-004  0.1882105E+03  0.7818608E-02  0.1160085E+00
         -5   -1    0    0    0  501 -0.00000000000E+00  0.00000000000E+00  0.14227196418E+04  0.14227274051E+04  0.47000000000E+01 0.  1.
          5   -1    0    0  501    0  0.00000000000E+00 -0.00000000000E+00 -0.85354260332E+02  0.85483564250E+02  0.47000000000E+01 0. -1.
          6    1    1    2  502    0 -0.76275877875E+02 -0.46008781044E+01  0.33914128657E+02  0.19124159000E+03  0.17200000000E+03 0. -1.
         -6    1    1    2    0  502  0.76275877875E+02  0.46008781044E+01  0.13034512528E+04  0.13169693793E+04  0.17200000000E+03 0.  1.
</event>
<event>
 4    1 -0.7147820E-004  0.2185575E+03  0.7818608E-02  0.1134963E+00
          5   -1    0    0  501    0  0.00000000000E+00  0.00000000000E+00  0.68198327079E+02  0.68360089354E+02  0.47000000000E+01 0. -1.
         -5   -1    0    0    0  501 -0.00000000000E+00 -0.00000000000E+00 -0.76456374371E+03  0.76457818972E+03  0.47000000000E+01 0.  1.
          6    1    1    2  502    0  0.55704906181E+02 -0.12280204564E+03 -0.22663003457E+03  0.31484687001E+03  0.17200000000E+03 0. -1.
         -6    1    1    2    0  502 -0.55704906181E+02  0.12280204564E+03 -0.46973538206E+03  0.51809140907E+03  0.17200000000E+03 0.  1.
</event>
<event>
 4    1 -0.7147820E-004  0.2088191E+03  0.7818608E-02  0.1142505E+00
          5   -1    0    0  501    0  0.00000000000E+00  0.00000000000E+00  0.18114321391E+03  0.18120417750E+03  0.47000000000E+01 0. -1.
         -5   -1    0    0    0  501 -0.00000000000E+00 -0.00000000000E+00 -0.49143678003E+03  0.49145925443E+03  0.47000000000E+01 0.  1.
          6    1    1    2  502    0 -0.11560952709E+03 -0.25609752293E+02  0.85117041183E+02  0.22550018374E+03  0.17200000000E+03 0. -1.
         -6    1    1    2    0  502  0.11560952709E+03  0.25609752293E+02 -0.39541060731E+03  0.44716324820E+03  0.17200000000E+03 0.  1.
</event>
<event>
 4    1 -0.7147820E-004  0.1945243E+03  0.7818608E-02  0.1154443E+00
         -5   -1    0    0    0  501 -0.00000000000E+00  0.00000000000E+00  0.28166669886E+03  0.28170590914E+03  0.47000000000E+01 0.  1.
          5   -1    0    0  501    0  0.00000000000E+00 -0.00000000000E+00 -0.33356745241E+03  0.33360056251E+03  0.47000000000E+01 0. -1.
          6    1    1    2  502    0  0.88629475992E+02  0.20012874679E+02 -0.26373107873E+03  0.32770990381E+03  0.17200000000E+03 0.  1.
         -6    1    1    2    0  502 -0.88629475992E+02 -0.20012874679E+02  0.21183032518E+03  0.28759656784E+03  0.17200000000E+03 0.  1.
</event>
<event>
 4    1 -0.7147820E-004  0.1920478E+03  0.7818608E-02  0.1156627E+00
         -5   -1    0    0    0  501 -0.00000000000E+00  0.00000000000E+00  0.64534227162E+03  0.64535938634E+03  0.47000000000E+01 0.  1.
          5   -1    0    0  501    0  0.00000000000E+00 -0.00000000000E+00 -0.26168302111E+03  0.26172522526E+03  0.47000000000E+01 0. -1.
          6    1    1    2  502    0  0.41694124409E+02  0.74565167519E+02 -0.20914757507E+03  0.28394554473E+03  0.17200000000E+03 0. -1.
         -6    1    1    2    0  502 -0.41694124409E+02 -0.74565167519E+02  0.59280682557E+03  0.62313906687E+03  0.17200000000E+03 0.  1.
</event>
<event>
 4    1 -0.7147820E-004  0.1833405E+03  0.7818608E-02  0.1164609E+00
          5   -1    0    0  501    0  0.00000000000E+00  0.00000000000E+00  0.31691099907E+03  0.31694584921E+03  0.47000000000E+01 0. -1.
         -5   -1    0    0    0  501 -0.00000000000E+00 -0.00000000000E+00 -0.15456230889E+03  0.15463375223E+03  0.47000000000E+01 0.  1.
          6    1    1    2  502    0  0.19008241170E+02 -0.60567549379E+02  0.21332417818E+03  0.28128445792E+03  0.17200000000E+03 0. -1.
         -6    1    1    2    0  502 -0.19008241170E+02  0.60567549379E+02 -0.50975488001E+02  0.19029514352E+03  0.17200000000E+03 0.  1.
</event>
<event>
 4    1 -0.7147820E-004  0.1933266E+03  0.7818608E-02  0.1155495E+00
          5   -1    0    0  501    0  0.00000000000E+00  0.00000000000E+00  0.21672492727E+03  0.21677588450E+03  0.47000000000E+01 0. -1.
         -5   -1    0    0    0  501 -0.00000000000E+00 -0.00000000000E+00 -0.51046241844E+03  0.51048405523E+03  0.47000000000E+01 0.  1.
          6    1    1    2  502    0  0.48026076794E+01  0.88136962277E+02  0.14904670820E+03  0.24411085675E+03  0.17200000000E+03 0. -1.
         -6    1    1    2    0  502 -0.48026076794E+01 -0.88136962277E+02 -0.44278419938E+03  0.48314908297E+03  0.17200000000E+03 0.  1.
</event>
<event>
 4    1 -0.7147820E-004  0.1856865E+03  0.7818608E-02  0.1162410E+00
          5   -1    0    0  501    0  0.00000000000E+00  0.00000000000E+00  0.87395638131E+03  0.87396901915E+03  0.47000000000E+01 0. -1.
         -5   -1    0    0    0  501 -0.00000000000E+00 -0.00000000000E+00 -0.14488898539E+03  0.14496519612E+03  0.47000000000E+01 0.  1.
          6    1    1    2  502    0  0.25086703626E+02 -0.65315571047E+02  0.79916765909E+03  0.82045622300E+03  0.17200000000E+03 0. -1.
         -6    1    1    2    0  502 -0.25086703626E+02  0.65315571047E+02 -0.70100263168E+02  0.19847799227E+03  0.17200000000E+03 0.  1.
</event>
<event>
 4    1 -0.7147820E-004  0.1861163E+03  0.7818608E-02  0.1162012E+00
         -5   -1    0    0    0  501 -0.00000000000E+00  0.00000000000E+00  0.15394625824E+03  0.15401798735E+03  0.47000000000E+01 0.  1.
          5   -1    0    0  501    0  0.00000000000E+00 -0.00000000000E+00 -0.96622495139E+03  0.96623638241E+03  0.47000000000E+01 0. -1.
          6    1    1    2  502    0 -0.62204226734E+02  0.34436841366E+02 -0.89675409571E+03  0.91586416572E+03  0.17200000000E+03 0. -1.
         -6    1    1    2    0  502  0.62204226734E+02 -0.34436841366E+02  0.84475402565E+02  0.20439020403E+03  0.17200000000E+03 0.  1.
</event>
<event>
 4    1 -0.7147820E-004  0.1933876E+03  0.7818608E-02  0.1155441E+00
          5   -1    0    0  501    0  0.00000000000E+00  0.00000000000E+00  0.35974906837E+03  0.35977976901E+03  0.47000000000E+01 0. -1.
         -5   -1    0    0    0  501 -0.00000000000E+00 -0.00000000000E+00 -0.49803912275E+03  0.49806129923E+03  0.47000000000E+01 0.  1.
          6    1    1    2  502    0  0.62753877572E+02 -0.62263152798E+02  0.31239951191E+03  0.36741285278E+03  0.17200000000E+03 0. -1.
         -6    1    1    2    0  502 -0.62753877572E+02  0.62263152798E+02 -0.45068956630E+03  0.49042821546E+03  0.17200000000E+03 0.  1.
</event>
<event>
 4    1 -0.7147820E-004  0.1772347E+03  0.7818608E-02  0.1170506E+00
          5   -1    0    0  501    0  0.00000000000E+00  0.00000000000E+00  0.67648634487E+03  0.67650267168E+03  0.47000000000E+01 0. -1.
         -5   -1    0    0    0  501 -0.00000000000E+00 -0.00000000000E+00 -0.47700243108E+02  0.47931233998E+02  0.47000000000E+01 0.  1.
          6    1    1    2  502    0  0.42092257044E+02  0.75082629131E+01  0.37632607055E+03  0.41597288793E+03  0.17200000000E+03 0. -1.
         -6    1    1    2    0  502 -0.42092257044E+02 -0.75082629131E+01  0.25246003121E+03  0.30846101776E+03  0.17200000000E+03 0.  1.
</event>
<event>
 4    1 -0.7147820E-004  0.1734049E+03  0.7818608E-02  0.1174343E+00
         -5   -1    0    0    0  501 -0.00000000000E+00  0.00000000000E+00  0.51763319650E+02  0.51976256706E+02  0.47000000000E+01 0.  1.
          5   -1    0    0  501    0  0.00000000000E+00 -0.00000000000E+00 -0.15791500740E+04  0.15791570683E+04  0.47000000000E+01 0. -1.
          6    1    1    2  502    0 -0.22016323001E+02 -0.73152494029E+00 -0.14125431571E+04  0.14231470142E+04  0.17200000000E+03 0. -1.
         -6    1    1    2    0  502  0.22016323001E+02  0.73152494029E+00 -0.11484359730E+03  0.20798631073E+03  0.17200000000E+03 0.  1.
</event>
<event>
 4    1 -0.7147820E-004  0.2172540E+03  0.7818608E-02  0.1135947E+00
          5   -1    0    0  501    0  0.00000000000E+00  0.00000000000E+00  0.16786568974E+04  0.16786634771E+04  0.47000000000E+01 0. -1.
         -5   -1    0    0    0  501 -0.00000000000E+00 -0.00000000000E+00 -0.63675585226E+02  0.63848806989E+02  0.47000000000E+01 0.  1.
          6    1    1    2  502    0 -0.77590994698E+02  0.10767988876E+03  0.14589402649E+04  0.14750274633E+04  0.17200000000E+03 0. -1.
         -6    1    1    2    0  502  0.77590994698E+02 -0.10767988876E+03  0.15604104728E+03  0.26748482076E+03  0.17200000000E+03 0.  1.
</event>
<event>
 4    1 -0.7147820E-004  0.2035016E+03  0.7818608E-02  0.1146818E+00
         -5   -1    0    0    0  501 -0.00000000000E+00  0.00000000000E+00  0.10153057549E+04  0.10153166334E+04  0.47000000000E+01 0.  1.
          5   -1    0    0  501    0  0.00000000000E+00 -0.00000000000E+00 -0.42410504839E+02  0.42670140856E+02  0.47000000000E+01 0. -1.
          6    1    1    2  502    0 -0.45102143599E+02 -0.98968147594E+02  0.37877663607E+03  0.42998213640E+03  0.17200000000E+03 0. -1.
         -6    1    1    2    0  502  0.45102143599E+02  0.98968147594E+02  0.59411861403E+03  0.62800463783E+03  0.17200000000E+03 0.  1.
</event>
<event>
 4    1 -0.7147820E-004  0.2708634E+03  0.7818608E-02  0.1100786E+00
         -5   -1    0    0    0  501 -0.00000000000E+00  0.00000000000E+00  0.24484037603E+03  0.24488548290E+03  0.47000000000E+01 0.  1.
          5   -1    0    0  501    0  0.00000000000E+00 -0.00000000000E+00 -0.17497181729E+04  0.17497244854E+04  0.47000000000E+01 0. -1.
          6    1    1    2  502    0 -0.13946192172E+03 -0.15599159773E+03 -0.16603496514E+04  0.16822984192E+04  0.17200000000E+03 0. -1.
         -6    1    1    2    0  502  0.13946192172E+03  0.15599159773E+03  0.15547185450E+03  0.31231154912E+03  0.17200000000E+03 0.  1.
</event>
<event>
 4    1 -0.7147820E-004  0.2761693E+03  0.7818608E-02  0.1097800E+00
          5   -1    0    0  501    0  0.00000000000E+00  0.00000000000E+00  0.83416398197E+03  0.83417722267E+03  0.47000000000E+01 0. -1.
         -5   -1    0    0    0  501 -0.00000000000E+00 -0.00000000000E+00 -0.70654098847E+03  0.70655662080E+03  0.47000000000E+01 0.  1.
          6    1    1    2  502    0 -0.21007656652E+03 -0.50530320080E+02  0.78260826813E+03  0.82990672873E+03  0.17200000000E+03 0. -1.
         -6    1    1    2    0  502  0.21007656652E+03  0.50530320080E+02 -0.65498527463E+03  0.71082711473E+03  0.17200000000E+03 0.  1.
</event>
<event>
 4    1 -0.7147820E-004  0.3028276E+03  0.7818608E-02  0.1083836E+00
         -5   -1    0    0    0  501 -0.00000000000E+00  0.00000000000E+00  0.47071147827E+03  0.47073494216E+03  0.47000000000E+01 0.  1.
          5   -1    0    0  501    0  0.00000000000E+00 -0.00000000000E+00 -0.21115299418E+03  0.21120529574E+03  0.47000000000E+01 0. -1.
          6    1    1    2  502    0  0.89863823095E+02 -0.23247587767E+03  0.34804604496E+02  0.30482109653E+03  0.17200000000E+03 0. -1.
         -6    1    1    2    0  502 -0.89863823095E+02  0.23247587767E+03  0.22475387959E+03  0.37711914137E+03  0.17200000000E+03 0.  1.
</event>
<event>
 4    1 -0.7147820E-004  0.1814797E+03  0.7818608E-02  0.1166379E+00
         -5   -1    0    0    0  501 -0.00000000000E+00  0.00000000000E+00  0.85065883501E+02  0.85195625097E+02  0.47000000000E+01 0.  1.
          5   -1    0    0  501    0  0.00000000000E+00 -0.00000000000E+00 -0.29280972624E+04  0.29281010345E+04  0.47000000000E+01 0. -1.
          6    1    1    2  502    0  0.23464667250E+02  0.52917871424E+02 -0.28251113796E+04  0.28309343332E+04  0.17200000000E+03 0. -1.
         -6    1    1    2    0  502 -0.23464667250E+02 -0.52917871424E+02 -0.17919999361E+02  0.18236232643E+03  0.17200000000E+03 0.  1.
</event>
<event>
 4    1 -0.7147820E-004  0.1931747E+03  0.7818608E-02  0.1155629E+00
          5   -1    0    0  501    0  0.00000000000E+00  0.00000000000E+00  0.17816718028E+03  0.17822916184E+03  0.47000000000E+01 0. -1.
         -5   -1    0    0    0  501 -0.00000000000E+00 -0.00000000000E+00 -0.40020201840E+03  0.40022961601E+03  0.47000000000E+01 0.  1.
          6    1    1    2  502    0 -0.48952201646E+02 -0.73049038766E+02  0.88705541636E+02  0.21256799672E+03  0.17200000000E+03 0. -1.
         -6    1    1    2    0  502  0.48952201646E+02  0.73049038766E+02 -0.31074037975E+03  0.36589078113E+03  0.17200000000E+03 0.  1.
</event>
<event>
 4    1 -0.7147820E-004  0.2029318E+03  0.7818608E-02  0.1147289E+00
         -5   -1    0    0    0  501 -0.00000000000E+00  0.00000000000E+00  0.42742040360E+03  0.42744624389E+03  0.47000000000E+01 0.  1.
          5   -1    0    0  501    0  0.00000000000E+00 -0.00000000000E+00 -0.12733535199E+03  0.12742206193E+03  0.47000000000E+01 0. -1.
          6    1    1    2  502    0  0.20992210980E+02 -0.10562509189E+03  0.13061435221E+02  0.20335174956E+03  0.17200000000E+03 0. -1.
         -6    1    1    2    0  502 -0.20992210980E+02  0.10562509189E+03  0.28702361639E+03  0.35151655626E+03  0.17200000000E+03 0.  1.
</event>
<event>
 4    1 -0.7147820E-004  0.1802379E+03  0.7818608E-02  0.1167573E+00
         -5   -1    0    0    0  501 -0.00000000000E+00  0.00000000000E+00  0.13959836432E+03  0.13967746175E+03  0.47000000000E+01 0.  1.
          5   -1    0    0  501    0  0.00000000000E+00 -0.00000000000E+00 -0.77687414261E+03  0.77688835971E+03  0.47000000000E+01 0. -1.
          6    1    1    2  502    0 -0.13509873063E+02 -0.52145963201E+02 -0.70222191133E+03  0.72498367630E+03  0.17200000000E+03 0. -1.
         -6    1    1    2    0  502  0.13509873063E+02  0.52145963201E+02  0.64946133037E+02  0.19158214516E+03  0.17200000000E+03 0.  1.
</event>
<event>
 4    1 -0.7147820E-004  0.3047682E+03  0.7818608E-02  0.1082881E+00
         -5   -1    0    0    0  501 -0.00000000000E+00  0.00000000000E+00  0.73740662863E+03  0.73742160664E+03  0.47000000000E+01 0.  1.
          5   -1    0    0  501    0  0.00000000000E+00 -0.00000000000E+00 -0.17673122024E+03  0.17679370523E+03  0.47000000000E+01 0. -1.
          6    1    1    2  502    0  0.22874031266E+03  0.10477378137E+03  0.35252382840E+02  0.30680027117E+03  0.17200000000E+03 0. -1.
         -6    1    1    2    0  502 -0.22874031266E+03 -0.10477378137E+03  0.52542302554E+03  0.60741504070E+03  0.17200000000E+03 0. -1.
</event>
<event>
 4    1 -0.7147820E-004  0.1854375E+03  0.7818608E-02  0.1162642E+00
          5   -1    0    0  501    0  0.00000000000E+00  0.00000000000E+00  0.22629477739E+03  0.22634358015E+03  0.47000000000E+01 0. -1.
         -5   -1    0    0    0  501 -0.00000000000E+00 -0.00000000000E+00 -0.45799633160E+03  0.45802044688E+03  0.47000000000E+01 0.  1.
          6    1    1    2  502    0  0.30261312009E+01  0.69238025132E+02  0.16388034759E+03  0.24747490766E+03  0.17200000000E+03 0. -1.
         -6    1    1    2    0  502 -0.30261312009E+01 -0.69238025132E+02 -0.39558190180E+03  0.43688911937E+03  0.17200000000E+03 0.  1.
</event>
<event>
 4    1 -0.7147820E-004  0.1743121E+03  0.7818608E-02  0.1173424E+00
         -5   -1    0    0    0  501 -0.00000000000E+00  0.00000000000E+00  0.58354352239E+03  0.58356244955E+03  0.47000000000E+01 0.  1.
          5   -1    0    0  501    0  0.00000000000E+00 -0.00000000000E+00 -0.29553920333E+03  0.29557657334E+03  0.47000000000E+01 0. -1.
          6    1    1    2  502    0  0.18105718459E+02 -0.21745965509E+02 -0.25497617679E+03  0.30886494587E+03  0.17200000000E+03 0. -1.
         -6    1    1    2    0  502 -0.18105718459E+02  0.21745965509E+02  0.54298049584E+03  0.57027407702E+03  0.17200000000E+03 0.  1.
</event>
<event>
 4    1 -0.7147820E-004  0.2117996E+03  0.7818608E-02  0.1140149E+00
         -5   -1    0    0    0  501 -0.00000000000E+00  0.00000000000E+00  0.81948422393E+02  0.82083091637E+02  0.47000000000E+01 0.  1.
          5   -1    0    0  501    0  0.00000000000E+00 -0.00000000000E+00 -0.63425055150E+03  0.63426796551E+03  0.47000000000E+01 0. -1.
          6    1    1    2  502    0 -0.18073806097E+02 -0.12226368152E+03 -0.40912439057E+03  0.46069712094E+03  0.17200000000E+03 0. -1.
         -6    1    1    2    0  502  0.18073806097E+02  0.12226368152E+03 -0.14317773853E+03  0.25565393620E+03  0.17200000000E+03 0.  1.
</event>
<event>
 4    1 -0.7147820E-004  0.2955380E+03  0.7818608E-02  0.1087493E+00
          5   -1    0    0  501    0  0.00000000000E+00  0.00000000000E+00  0.20766938197E+03  0.20772256066E+03  0.47000000000E+01 0. -1.
         -5   -1    0    0    0  501 -0.00000000000E+00 -0.00000000000E+00 -0.46501419427E+03  0.46503794563E+03  0.47000000000E+01 0.  1.
          6    1    1    2  502    0 -0.38509262930E+02 -0.23722511333E+03 -0.24565522980E+02  0.29655721647E+03  0.17200000000E+03 0. -1.
         -6    1    1    2    0  502  0.38509262930E+02  0.23722511333E+03 -0.23277928932E+03  0.37620328981E+03  0.17200000000E+03 0.  1.
</event>
<event>
 4    1 -0.7147820E-004  0.1924470E+03  0.7818608E-02  0.1156273E+00
         -5   -1    0    0    0  501 -0.00000000000E+00  0.00000000000E+00  0.58758807357E+03  0.58760687045E+03  0.47000000000E+01 0.  1.
          5   -1    0    0  501    0  0.00000000000E+00 -0.00000000000E+00 -0.19474655203E+03  0.19480325851E+03  0.47000000000E+01 0. -1.
          6    1    1    2  502    0 -0.48411625665E+02  0.71471283742E+02 -0.12532744799E+03  0.22965800469E+03  0.17200000000E+03 0. -1.
         -6    1    1    2    0  502  0.48411625665E+02 -0.71471283742E+02  0.51816896954E+03  0.55275212427E+03  0.17200000000E+03 0.  1.
</event>
<event>
 4    1 -0.7147820E-004  0.1764447E+03  0.7818608E-02  0.1171289E+00
         -5   -1    0    0    0  501 -0.00000000000E+00  0.00000000000E+00  0.13753524114E+03  0.13761552440E+03  0.47000000000E+01 0.  1.
          5   -1    0    0  501    0  0.00000000000E+00 -0.00000000000E+00 -0.39481927306E+03  0.39484724689E+03  0.47000000000E+01 0. -1.
          6    1    1    2  502    0 -0.37896677476E+02 -0.10610231643E+02 -0.30260619887E+03  0.35029023220E+03  0.17200000000E+03 0. -1.
         -6    1    1    2    0  502  0.37896677476E+02  0.10610231643E+02  0.45322166956E+02  0.18217253909E+03  0.17200000000E+03 0.  1.
</event>
<event>
 4    1 -0.7147820E-004  0.1839834E+03  0.7818608E-02  0.1164003E+00
         -5   -1    0    0    0  501 -0.00000000000E+00  0.00000000000E+00  0.93964424647E+03  0.93965600084E+03  0.47000000000E+01 0.  1.
          5   -1    0    0  501    0  0.00000000000E+00 -0.00000000000E+00 -0.36455199479E+02  0.36756925457E+02  0.47000000000E+01 0. -1.
          6    1    1    2  502    0 -0.38620699947E+02  0.52671843724E+02  0.51376910558E+03  0.54571840305E+03  0.17200000000E+03 0.  1.
         -6    1    1    2    0  502  0.38620699947E+02 -0.52671843724E+02  0.38941994141E+03  0.43069452325E+03  0.17200000000E+03 0.  1.
</event>
<event>
 4    1 -0.7147820E-004  0.2341956E+03  0.7818608E-02  0.1123721E+00
          5   -1    0    0  501    0  0.00000000000E+00  0.00000000000E+00  0.18524351372E+03  0.18530312834E+03  0.47000000000E+01 0. -1.
         -5   -1    0    0    0  501 -0.00000000000E+00 -0.00000000000E+00 -0.48755185464E+03  0.48757450811E+03  0.47000000000E+01 0.  1.
          6    1    1    2  502    0  0.63243454559E+02 -0.14582121609E+03  0.59731444307E+02  0.24169279477E+03  0.17200000000E+03 0. -1.
         -6    1    1    2    0  502 -0.63243454559E+02  0.14582121609E+03 -0.36203978523E+03  0.43118484168E+03  0.17200000000E+03 0.  1.
</event>
<event>
 4    1 -0.7147820E-004  0.1760249E+03  0.7818608E-02  0.1171707E+00
          5   -1    0    0  501    0  0.00000000000E+00  0.00000000000E+00  0.87515107953E+02  0.87641223862E+02  0.47000000000E+01 0. -1.
         -5   -1    0    0    0  501 -0.00000000000E+00 -0.00000000000E+00 -0.64834473609E+03  0.64836177155E+03  0.47000000000E+01 0.  1.
          6    1    1    2  502    0 -0.12060184145E+02 -0.35430259086E+02 -0.32341658966E+02  0.17897132230E+03  0.17200000000E+03 0. -1.
         -6    1    1    2    0  502  0.12060184145E+02  0.35430259086E+02 -0.52848796917E+03  0.55703167312E+03  0.17200000000E+03 0.  1.
</event>
<event>
 4    1 -0.7147820E-004  0.1817030E+03  0.7818608E-02  0.1166165E+00
          5   -1    0    0  501    0  0.00000000000E+00  0.00000000000E+00  0.69915388197E+03  0.69916967946E+03  0.47000000000E+01 0. -1.
         -5   -1    0    0    0  501 -0.00000000000E+00 -0.00000000000E+00 -0.19968648619E+03  0.19974179024E+03  0.47000000000E+01 0.  1.
          6    1    1    2  502    0  0.46480718714E+02 -0.35658671508E+02  0.64247918102E+03  0.66767918652E+03  0.17200000000E+03 0. -1.
         -6    1    1    2    0  502 -0.46480718714E+02  0.35658671508E+02 -0.14301178524E+03  0.23123228318E+03  0.17200000000E+03 0.  1.
</event>
<event>
 4    1 -0.7147820E-004  0.1749525E+03  0.7818608E-02  0.1172779E+00
         -5   -1    0    0    0  501 -0.00000000000E+00  0.00000000000E+00  0.29425135908E+03  0.29428889262E+03  0.47000000000E+01 0.  1.
          5   -1    0    0  501    0  0.00000000000E+00 -0.00000000000E+00 -0.24139934308E+04  0.24139980062E+04  0.47000000000E+01 0. -1.
          6    1    1    2  502    0 -0.31365199939E+02  0.63731836425E+01 -0.23845199606E+04  0.23909294920E+04  0.17200000000E+03 0. -1.
         -6    1    1    2    0  502  0.31365199939E+02 -0.63731836425E+01  0.26477788887E+03  0.31735740683E+03  0.17200000000E+03 0.  1.
</event>
<event>
 4    1 -0.7147820E-004  0.5906459E+03  0.7818608E-02  0.9925005E-01
         -5   -1    0    0    0  501 -0.00000000000E+00  0.00000000000E+00  0.50183559944E+03  0.50185760815E+03  0.47000000000E+01 0.  1.
          5   -1    0    0  501    0  0.00000000000E+00 -0.00000000000E+00 -0.70174021173E+03  0.70175595099E+03  0.47000000000E+01 0. -1.
          6    1    1    2  502    0  0.34245899248E+03  0.44944454086E+03 -0.41535583794E+02  0.59210451912E+03  0.17200000000E+03 0. -1.
         -6    1    1    2    0  502 -0.34245899248E+03 -0.44944454086E+03 -0.15836902850E+03  0.61150904002E+03  0.17200000000E+03 0.  1.
</event>
<event>
 4    1 -0.7147820E-004  0.1750435E+03  0.7818608E-02  0.1172688E+00
          5   -1    0    0  501    0  0.00000000000E+00  0.00000000000E+00  0.63062828514E+03  0.63064579918E+03  0.47000000000E+01 0. -1.
         -5   -1    0    0    0  501 -0.00000000000E+00 -0.00000000000E+00 -0.27773319943E+03  0.27777296497E+03  0.47000000000E+01 0.  1.
          6    1    1    2  502    0 -0.20280318027E+01 -0.32436214041E+02  0.58902504583E+03  0.61448411331E+03  0.17200000000E+03 0. -1.
         -6    1    1    2    0  502  0.20280318027E+01  0.32436214041E+02 -0.23612996012E+03  0.29393465083E+03  0.17200000000E+03 0.  1.
</event>
<event>
 4    1 -0.7147820E-004  0.2171783E+03  0.7818608E-02  0.1136004E+00
         -5   -1    0    0    0  501 -0.00000000000E+00  0.00000000000E+00  0.12477241308E+03  0.12486090287E+03  0.47000000000E+01 0.  1.
          5   -1    0    0  501    0  0.00000000000E+00 -0.00000000000E+00 -0.96796869578E+03  0.96798010620E+03  0.47000000000E+01 0. -1.
          6    1    1    2  502    0  0.87185818039E+02 -0.99905228132E+02 -0.84824292301E+03  0.87560406458E+03  0.17200000000E+03 0. -1.
         -6    1    1    2    0  502 -0.87185818039E+02  0.99905228132E+02  0.50466403135E+01  0.21723694450E+03  0.17200000000E+03 0.  1.
</event>
<event>
 4    1 -0.7147820E-004  0.1949549E+03  0.7818608E-02  0.1154067E+00
         -5   -1    0    0    0  501 -0.00000000000E+00  0.00000000000E+00  0.23750908531E+03  0.23755558424E+03  0.47000000000E+01 0.  1.
          5   -1    0    0  501    0  0.00000000000E+00 -0.00000000000E+00 -0.19774989916E+03  0.19780574465E+03  0.47000000000E+01 0. -1.
          6    1    1    2  502    0 -0.57343471178E+02  0.71659947912E+02 -0.75292856972E+02  0.20898908137E+03  0.17200000000E+03 0. -1.
         -6    1    1    2    0  502  0.57343471178E+02 -0.71659947912E+02  0.11505204312E+03  0.22637224752E+03  0.17200000000E+03 0.  1.
</event>
<event>
 4    1 -0.7147820E-004  0.2781930E+03  0.7818608E-02  0.1096680E+00
         -5   -1    0    0    0  501 -0.00000000000E+00  0.00000000000E+00  0.25457124158E+04  0.25457167544E+04  0.47000000000E+01 0.  1.
          5   -1    0    0  501    0  0.00000000000E+00 -0.00000000000E+00 -0.45581120605E+02  0.45822795153E+02  0.47000000000E+01 0. -1.
          6    1    1    2  502    0 -0.11503917063E+03  0.18593906429E+03  0.50023040884E+03  0.57238257166E+03  0.17200000000E+03 0. -1.
         -6    1    1    2    0  502  0.11503917063E+03 -0.18593906429E+03  0.19999008863E+04  0.20191569779E+04  0.17200000000E+03 0.  1.
</event>
<event>
 4    1 -0.7147820E-004  0.2504390E+03  0.7818608E-02  0.1113028E+00
          5   -1    0    0  501    0  0.00000000000E+00  0.00000000000E+00  0.18870800771E+03  0.18876652821E+03  0.47000000000E+01 0. -1.
         -5   -1    0    0    0  501 -0.00000000000E+00 -0.00000000000E+00 -0.61179375082E+03  0.61181180402E+03  0.47000000000E+01 0.  1.
          6    1    1    2  502    0 -0.61200684538E+02 -0.17143560820E+03  0.59025117444E+02  0.25730071130E+03  0.17200000000E+03 0. -1.
         -6    1    1    2    0  502  0.61200684538E+02  0.17143560820E+03 -0.48211086056E+03  0.54327762094E+03  0.17200000000E+03 0.  1.
</event>
<event>
 4    1 -0.7147820E-004  0.1885483E+03  0.7818608E-02  0.1159777E+00
          5   -1    0    0  501    0  0.00000000000E+00  0.00000000000E+00  0.19371620120E+03  0.19377320921E+03  0.47000000000E+01 0. -1.
         -5   -1    0    0    0  501 -0.00000000000E+00 -0.00000000000E+00 -0.11105969294E+04  0.11106068744E+04  0.47000000000E+01 0.  1.
          6    1    1    2  502    0  0.45336456416E+02 -0.62538671196E+02  0.13744527948E+03  0.23332741915E+03  0.17200000000E+03 0. -1.
         -6    1    1    2    0  502 -0.45336456416E+02  0.62538671196E+02 -0.10543260077E+04  0.10710526645E+04  0.17200000000E+03 0.  1.
</event>
<event>
 4    1 -0.7147820E-004  0.2122478E+03  0.7818608E-02  0.1139798E+00
          5   -1    0    0  501    0  0.00000000000E+00  0.00000000000E+00  0.96112638324E+02  0.96227486955E+02  0.47000000000E+01 0. -1.
         -5   -1    0    0    0  501 -0.00000000000E+00 -0.00000000000E+00 -0.49144734389E+03  0.49146981781E+03  0.47000000000E+01 0.  1.
          6    1    1    2  502    0  0.79495931047E+02  0.95632172661E+02 -0.13391054921E+03  0.25096045643E+03  0.17200000000E+03 0. -1.
         -6    1    1    2    0  502 -0.79495931047E+02 -0.95632172661E+02 -0.26142415636E+03  0.33673684834E+03  0.17200000000E+03 0.  1.
</event>
<event>
 4    1 -0.7147820E-004  0.2100690E+03  0.7818608E-02  0.1141511E+00
         -5   -1    0    0    0  501 -0.00000000000E+00  0.00000000000E+00  0.17199274784E+03  0.17205695368E+03  0.47000000000E+01 0.  1.
          5   -1    0    0  501    0  0.00000000000E+00 -0.00000000000E+00 -0.10748087504E+04  0.10748190266E+04  0.47000000000E+01 0. -1.
          6    1    1    2  502    0 -0.55899147954E+02 -0.10686571640E+03 -0.99538874445E+03  0.10173139873E+04  0.17200000000E+03 0. -1.
         -6    1    1    2    0  502  0.55899147954E+02  0.10686571640E+03  0.92572741922E+02  0.22956199300E+03  0.17200000000E+03 0.  1.
</event>
<event>
 4    1 -0.7147820E-004  0.1864421E+03  0.7818608E-02  0.1161710E+00
         -5   -1    0    0    0  501 -0.00000000000E+00  0.00000000000E+00  0.53819380740E+03  0.53821432935E+03  0.47000000000E+01 0.  1.
          5   -1    0    0  501    0  0.00000000000E+00 -0.00000000000E+00 -0.16753214801E+03  0.16759806269E+03  0.47000000000E+01 0. -1.
          6    1    1    2  502    0  0.41976086942E+02 -0.58434983909E+02 -0.91336562564E+02  0.20761263661E+03  0.17200000000E+03 0. -1.
         -6    1    1    2    0  502 -0.41976086942E+02  0.58434983909E+02  0.46199822196E+03  0.49819975543E+03  0.17200000000E+03 0.  1.
</event>
<event>
 4    1 -0.7147820E-004  0.1863047E+03  0.7818608E-02  0.1161837E+00
          5   -1    0    0  501    0  0.00000000000E+00  0.00000000000E+00  0.34971371985E+03  0.34974530140E+03  0.47000000000E+01 0. -1.
         -5   -1    0    0    0  501 -0.00000000000E+00 -0.00000000000E+00 -0.42854459281E+03  0.42857036532E+03  0.47000000000E+01 0.  1.
          6    1    1    2  502    0 -0.14802149810E+02 -0.70045301824E+02  0.30172180300E+03  0.35460611156E+03  0.17200000000E+03 0. -1.
         -6    1    1    2    0  502  0.14802149810E+02  0.70045301824E+02 -0.38055267597E+03  0.42370955516E+03  0.17200000000E+03 0.  1.
</event>
<event>
 4    1 -0.7147820E-004  0.2126926E+03  0.7818608E-02  0.1139451E+00
          5   -1    0    0  501    0  0.00000000000E+00  0.00000000000E+00  0.21181934468E+04  0.21181986612E+04  0.47000000000E+01 0. -1.
         -5   -1    0    0    0  501 -0.00000000000E+00 -0.00000000000E+00 -0.20331264697E+03  0.20336696491E+03  0.47000000000E+01 0.  1.
          6    1    1    2  502    0 -0.90640661304E+02  0.86246315685E+02  0.20555752819E+04  0.20665497565E+04  0.17200000000E+03 0. -1.
         -6    1    1    2    0  502  0.90640661304E+02 -0.86246315685E+02 -0.14069448207E+03  0.25501586958E+03  0.17200000000E+03 0.  1.
</event>
<event>
 4    1 -0.7147820E-004  0.2525909E+03  0.7818608E-02  0.1111678E+00
         -5   -1    0    0    0  501 -0.00000000000E+00  0.00000000000E+00  0.12794364550E+03  0.12802994346E+03  0.47000000000E+01 0.  1.
          5   -1    0    0  501    0  0.00000000000E+00 -0.00000000000E+00 -0.15182036620E+04  0.15182109371E+04  0.47000000000E+01 0. -1.
          6    1    1    2  502    0 -0.18185949190E+03  0.33841735752E+02 -0.13697208603E+04  0.13928163458E+04  0.17200000000E+03 0. -1.
         -6    1    1    2    0  502  0.18185949190E+03 -0.33841735752E+02 -0.20539156211E+02  0.25342453474E+03  0.17200000000E+03 0.  1.
</event>
<event>
 4    1 -0.7147820E-004  0.1978316E+03  0.7818608E-02  0.1151581E+00
         -5   -1    0    0    0  501 -0.00000000000E+00  0.00000000000E+00  0.44758086059E+03  0.44760553701E+03  0.47000000000E+01 0.  1.
          5   -1    0    0  501    0  0.00000000000E+00 -0.00000000000E+00 -0.20687728841E+03  0.20693067066E+03  0.47000000000E+01 0. -1.
          6    1    1    2  502    0 -0.88446497945E+02 -0.41600055384E+02 -0.12833775405E+03  0.23581333025E+03  0.17200000000E+03 0. -1.
         -6    1    1    2    0  502  0.88446497945E+02  0.41600055384E+02  0.36904132623E+03  0.41872287742E+03  0.17200000000E+03 0.  1.
</event>
<event>
 4    1 -0.7147820E-004  0.1740309E+03  0.7818608E-02  0.1173708E+00
          5   -1    0    0  501    0  0.00000000000E+00  0.00000000000E+00  0.14703410804E+03  0.14710920749E+03  0.47000000000E+01 0. -1.
         -5   -1    0    0    0  501 -0.00000000000E+00 -0.00000000000E+00 -0.35668781297E+03  0.35671877708E+03  0.47000000000E+01 0.  1.
          6    1    1    2  502    0  0.21710693344E+02  0.15212051918E+02  0.58975632724E+02  0.18375224076E+03  0.17200000000E+03 0. -1.
         -6    1    1    2    0  502 -0.21710693344E+02 -0.15212051918E+02 -0.26862933765E+03  0.32007574381E+03  0.17200000000E+03 0.  1.
</event>
<event>
 4    1 -0.7147820E-004  0.2071860E+03  0.7818608E-02  0.1143814E+00
         -5   -1    0    0    0  501 -0.00000000000E+00  0.00000000000E+00  0.16403950952E+04  0.16404018283E+04  0.47000000000E+01 0.  1.
          5   -1    0    0  501    0  0.00000000000E+00 -0.00000000000E+00 -0.11545899476E+03  0.11555461683E+03  0.47000000000E+01 0. -1.
          6    1    1    2  502    0  0.99787082982E+02  0.58177040397E+02 -0.96853933138E+01  0.20741223880E+03  0.17200000000E+03 0. -1.
         -6    1    1    2    0  502 -0.99787082982E+02 -0.58177040397E+02  0.15346214937E+04  0.15485442063E+04  0.17200000000E+03 0.  1.
</event>
<event>
 4    1 -0.7147820E-004  0.2517369E+03  0.7818608E-02  0.1112212E+00
          5   -1    0    0  501    0  0.00000000000E+00  0.00000000000E+00  0.21463400238E+03  0.21468545591E+03  0.47000000000E+01 0. -1.
         -5   -1    0    0    0  501 -0.00000000000E+00 -0.00000000000E+00 -0.29981834940E+03  0.29985518611E+03  0.47000000000E+01 0.  1.
          6    1    1    2  502    0 -0.18366661068E+03  0.73505571405E+01 -0.10487338460E+02  0.25195523181E+03  0.17200000000E+03 0. -1.
         -6    1    1    2    0  502  0.18366661068E+03 -0.73505571405E+01 -0.74697008563E+02  0.26258541021E+03  0.17200000000E+03 0.  1.
</event>
<event>
 4    1 -0.7147820E-004  0.1777801E+03  0.7818608E-02  0.1169969E+00
         -5   -1    0    0    0  501 -0.00000000000E+00  0.00000000000E+00  0.81125543456E+03  0.81126904915E+03  0.47000000000E+01 0.  1.
          5   -1    0    0  501    0  0.00000000000E+00 -0.00000000000E+00 -0.58064301442E+02  0.58254211023E+02  0.47000000000E+01 0. -1.
          6    1    1    2  502    0  0.13463276690E+02  0.42900969541E+02  0.12673290485E+03  0.21832769449E+03  0.17200000000E+03 0. -1.
         -6    1    1    2    0  502 -0.13463276690E+02 -0.42900969541E+02  0.62645822826E+03  0.65119556568E+03  0.17200000000E+03 0.  1.
</event>
<event>
 4    1 -0.7147820E-004  0.1846162E+03  0.7818608E-02  0.1163409E+00
         -5   -1    0    0    0  501 -0.00000000000E+00  0.00000000000E+00  0.97370281884E+02  0.97483648856E+02  0.47000000000E+01 0.  1.
          5   -1    0    0  501    0  0.00000000000E+00 -0.00000000000E+00 -0.65467472140E+03  0.65469159216E+03  0.47000000000E+01 0. -1.
          6    1    1    2  502    0 -0.56942584549E+02  0.35449847104E+02 -0.53531325253E+03  0.56625385467E+03  0.17200000000E+03 0. -1.
         -6    1    1    2    0  502  0.56942584549E+02 -0.35449847104E+02 -0.21991186987E+02  0.18592138634E+03  0.17200000000E+03 0.  1.
</event>
<event>
 4    1 -0.7147820E-004  0.3775157E+03  0.7818608E-02  0.1051856E+00
         -5   -1    0    0    0  501 -0.00000000000E+00  0.00000000000E+00  0.11870604104E+04  0.11870697148E+04  0.47000000000E+01 0.  1.
          5   -1    0    0  501    0  0.00000000000E+00 -0.00000000000E+00 -0.12268723037E+03  0.12277722304E+03  0.47000000000E+01 0. -1.
          6    1    1    2  502    0 -0.14461313468E+03 -0.30334986388E+03  0.43536998581E+03  0.57625092033E+03  0.17200000000E+03 0. -1.
         -6    1    1    2    0  502  0.14461313468E+03  0.30334986388E+03  0.62900319418E+03  0.73359601752E+03  0.17200000000E+03 0.  1.
</event>
<event>
 4    1 -0.7147820E-004  0.1957552E+03  0.7818608E-02  0.1153371E+00
          5   -1    0    0  501    0  0.00000000000E+00  0.00000000000E+00  0.12067941460E+04  0.12068032983E+04  0.47000000000E+01 0. -1.
         -5   -1    0    0    0  501 -0.00000000000E+00 -0.00000000000E+00 -0.71284334262E+02  0.71439109116E+02  0.47000000000E+01 0.  1.
          6    1    1    2  502    0  0.92036613555E+02 -0.16289706267E+02  0.10439287307E+04  0.10621239511E+04  0.17200000000E+03 0. -1.
         -6    1    1    2    0  502 -0.92036613555E+02  0.16289706267E+02  0.91581081088E+02  0.21611845636E+03  0.17200000000E+03 0.  1.
</event>
<event>
 4    1 -0.7147820E-004  0.3266155E+03  0.7818608E-02  0.1072644E+00
          5   -1    0    0  501    0  0.00000000000E+00  0.00000000000E+00  0.16931292996E+03  0.16937815163E+03  0.47000000000E+01 0. -1.
         -5   -1    0    0    0  501 -0.00000000000E+00 -0.00000000000E+00 -0.22372300722E+04  0.22372350091E+04  0.47000000000E+01 0.  1.
          6    1    1    2  502    0  0.64009562921E+02  0.27017853299E+03 -0.14028100261E+02  0.32691658176E+03  0.17200000000E+03 0. -1.
         -6    1    1    2    0  502 -0.64009562921E+02 -0.27017853299E+03 -0.20538890420E+04  0.20796965790E+04  0.17200000000E+03 0.  1.
</event>
<event>
 4    1 -0.7147820E-004  0.3566586E+03  0.7818608E-02  0.1059915E+00
         -5   -1    0    0    0  501 -0.00000000000E+00  0.00000000000E+00  0.15312731739E+04  0.15312803868E+04  0.47000000000E+01 0.  1.
          5   -1    0    0  501    0  0.00000000000E+00 -0.00000000000E+00 -0.13007943326E+03  0.13016431522E+03  0.47000000000E+01 0. -1.
          6    1    1    2  502    0  0.29945686800E+03  0.89145521468E+02  0.20104120182E+03  0.40941776295E+03  0.17200000000E+03 0. -1.
         -6    1    1    2    0  502 -0.29945686800E+03 -0.89145521468E+02  0.12001525388E+04  0.12520269391E+04  0.17200000000E+03 0.  1.
</event>
<event>
 4    1 -0.7147820E-004  0.2075660E+03  0.7818608E-02  0.1143508E+00
         -5   -1    0    0    0  501 -0.00000000000E+00  0.00000000000E+00  0.20289023370E+03  0.20294466470E+03  0.47000000000E+01 0.  1.
          5   -1    0    0  501    0  0.00000000000E+00 -0.00000000000E+00 -0.41948712590E+03  0.41951345485E+03  0.47000000000E+01 0. -1.
          6    1    1    2  502    0  0.24049150331E+02 -0.11367177825E+03 -0.32703232424E+03  0.38734193667E+03  0.17200000000E+03 0. -1.
         -6    1    1    2    0  502 -0.24049150331E+02  0.11367177825E+03  0.11043543204E+03  0.23511618288E+03  0.17200000000E+03 0.  1.
</event>
<event>
 4    1 -0.7147820E-004  0.4412144E+03  0.7818608E-02  0.1030375E+00
         -5   -1    0    0    0  501 -0.00000000000E+00  0.00000000000E+00  0.46718544815E+03  0.46720908913E+03  0.47000000000E+01 0.  1.
          5   -1    0    0  501    0  0.00000000000E+00 -0.00000000000E+00 -0.50921086732E+03  0.50923255728E+03  0.47000000000E+01 0. -1.
          6    1    1    2  502    0 -0.30593603404E+03  0.26737488676E+03 -0.22916676705E+03  0.49717963969E+03  0.17200000000E+03 0. -1.
         -6    1    1    2    0  502  0.30593603404E+03 -0.26737488676E+03  0.18714134789E+03  0.47926200672E+03  0.17200000000E+03 0.  1.
</event>
<event>
 4    1 -0.7147820E-004  0.2025119E+03  0.7818608E-02  0.1147637E+00
          5   -1    0    0  501    0  0.00000000000E+00  0.00000000000E+00  0.20116670924E+03  0.20122160646E+03  0.47000000000E+01 0. -1.
         -5   -1    0    0    0  501 -0.00000000000E+00 -0.00000000000E+00 -0.11439979484E+04  0.11440076031E+04  0.47000000000E+01 0.  1.
          6    1    1    2  502    0  0.46083180914E+02 -0.96454275502E+02  0.13834155398E+03  0.24525389372E+03  0.17200000000E+03 0. -1.
         -6    1    1    2    0  502 -0.46083180914E+02  0.96454275502E+02 -0.10811727931E+04  0.10999753158E+04  0.17200000000E+03 0.  1.
</event>
<event>
 4    1 -0.7147820E-004  0.2182454E+03  0.7818608E-02  0.1135198E+00
          5   -1    0    0  501    0  0.00000000000E+00  0.00000000000E+00  0.21148811270E+03  0.21154033141E+03  0.47000000000E+01 0. -1.
         -5   -1    0    0    0  501 -0.00000000000E+00 -0.00000000000E+00 -0.11596676977E+04  0.11596772219E+04  0.47000000000E+01 0.  1.
          6    1    1    2  502    0  0.97262695229E+02 -0.92666154982E+02  0.14136541913E+03  0.26002928660E+03  0.17200000000E+03 0. -1.
         -6    1    1    2    0  502 -0.97262695229E+02  0.92666154982E+02 -0.10895450041E+04  0.11111882667E+04  0.17200000000E+03 0.  1.
</event>
<event>
 4    1 -0.7147820E-004  0.2599084E+03  0.7818608E-02  0.1107198E+00
          5   -1    0    0  501    0  0.00000000000E+00  0.00000000000E+00  0.10480748628E+04  0.10480854011E+04  0.47000000000E+01 0. -1.
         -5   -1    0    0    0  501 -0.00000000000E+00 -0.00000000000E+00 -0.14921232736E+03  0.14928633104E+03  0.47000000000E+01 0.  1.
          6    1    1    2  502    0 -0.19421421538E+03  0.15786670114E+02  0.90070685325E+03  0.93745678082E+03  0.17200000000E+03 0. -1.
         -6    1    1    2    0  502  0.19421421538E+03 -0.15786670114E+02 -0.18443178382E+01  0.25991495132E+03  0.17200000000E+03 0.  1.
</event>
<event>
 4    1 -0.7147820E-004  0.1803848E+03  0.7818608E-02  0.1167431E+00
         -5   -1    0    0    0  501 -0.00000000000E+00  0.00000000000E+00  0.38561129804E+02  0.38846502182E+02  0.47000000000E+01 0.  1.
          5   -1    0    0  501    0  0.00000000000E+00 -0.00000000000E+00 -0.17728595703E+04  0.17728658004E+04  0.47000000000E+01 0. -1.
          6    1    1    2  502    0 -0.45391448203E+02 -0.29904899112E+02 -0.15240453842E+04  0.15346833613E+04  0.17200000000E+03 0. -1.
         -6    1    1    2    0  502  0.45391448203E+02  0.29904899112E+02 -0.21025305636E+03  0.27702894121E+03  0.17200000000E+03 0.  1.
</event>
<event>
 4    1 -0.7147820E-004  0.2107670E+03  0.7818608E-02  0.1140960E+00
          5   -1    0    0  501    0  0.00000000000E+00  0.00000000000E+00  0.13622568328E+03  0.13630673786E+03  0.47000000000E+01 0. -1.
         -5   -1    0    0    0  501 -0.00000000000E+00 -0.00000000000E+00 -0.62902025153E+03  0.62903781034E+03  0.47000000000E+01 0.  1.
          6    1    1    2  502    0 -0.19243300959E+02  0.12028481171E+03  0.19224750952E+02  0.21164198924E+03  0.17200000000E+03 0. -1.
         -6    1    1    2    0  502  0.19243300959E+02 -0.12028481171E+03 -0.51201931920E+03  0.55370255896E+03  0.17200000000E+03 0.  1.
</event>
<event>
 4    1 -0.7147820E-004  0.1780826E+03  0.7818608E-02  0.1169672E+00
          5   -1    0    0  501    0  0.00000000000E+00  0.00000000000E+00  0.13308599199E+04  0.13308682191E+04  0.47000000000E+01 0. -1.
         -5   -1    0    0    0  501 -0.00000000000E+00 -0.00000000000E+00 -0.84607952263E+02  0.84738394994E+02  0.47000000000E+01 0.  1.
          6    1    1    2  502    0  0.46007069180E+02 -0.35739863388E+01  0.12231336428E+04  0.12360296647E+04  0.17200000000E+03 0. -1.
         -6    1    1    2    0  502 -0.46007069180E+02  0.35739863388E+01  0.23118324836E+02  0.17957694935E+03  0.17200000000E+03 0.  1.
</event>
<event>
 4    1 -0.7147820E-004  0.1858265E+03  0.7818608E-02  0.1162280E+00
         -5   -1    0    0    0  501 -0.00000000000E+00  0.00000000000E+00  0.11279954742E+03  0.11289742202E+03  0.47000000000E+01 0.  1.
          5   -1    0    0  501    0  0.00000000000E+00 -0.00000000000E+00 -0.36459445292E+03  0.36462474560E+03  0.47000000000E+01 0. -1.
          6    1    1    2  502    0  0.57750436966E+02  0.40154293673E+02 -0.22169249691E+03  0.28927330235E+03  0.17200000000E+03 0. -1.
         -6    1    1    2    0  502 -0.57750436966E+02 -0.40154293673E+02 -0.30102408594E+02  0.18824886526E+03  0.17200000000E+03 0.  1.
</event>
<event>
 4    1 -0.7147820E-004  0.2004885E+03  0.7818608E-02  0.1149328E+00
         -5   -1    0    0    0  501 -0.00000000000E+00  0.00000000000E+00  0.35243213109E+03  0.35246346907E+03  0.47000000000E+01 0.  1.
          5   -1    0    0  501    0  0.00000000000E+00 -0.00000000000E+00 -0.18622126874E+03  0.18628057046E+03  0.47000000000E+01 0. -1.
          6    1    1    2  502    0  0.18540286250E+02 -0.10133064873E+03 -0.84636295825E+02  0.21762110458E+03  0.17200000000E+03 0.  1.
         -6    1    1    2    0  502 -0.18540286250E+02  0.10133064873E+03  0.25084715818E+03  0.32112293495E+03  0.17200000000E+03 0.  1.
</event>
<event>
 4    1 -0.7147820E-004  0.1756252E+03  0.7818608E-02  0.1172105E+00
         -5   -1    0    0    0  501 -0.00000000000E+00  0.00000000000E+00  0.10982854455E+04  0.10982955021E+04  0.47000000000E+01 0.  1.
          5   -1    0    0  501    0  0.00000000000E+00 -0.00000000000E+00 -0.12608567427E+03  0.12617324303E+03  0.47000000000E+01 0. -1.
          6    1    1    2  502    0 -0.34195208983E+02 -0.95334999559E+01 -0.53694701492E+02  0.18364999566E+03  0.17200000000E+03 0. -1.
         -6    1    1    2    0  502  0.34195208983E+02  0.95334999559E+01  0.10258944728E+04  0.10408187495E+04  0.17200000000E+03 0.  1.
</event>
<event>
 4    1 -0.7147820E-004  0.2379206E+03  0.7818608E-02  0.1121186E+00
          5   -1    0    0  501    0  0.00000000000E+00  0.00000000000E+00  0.57526608387E+03  0.57528528336E+03  0.47000000000E+01 0. -1.
         -5   -1    0    0    0  501 -0.00000000000E+00 -0.00000000000E+00 -0.34071292318E+03  0.34074533896E+03  0.47000000000E+01 0.  1.
          6    1    1    2  502    0 -0.11265869365E+03 -0.11970903226E+03  0.50354084946E+03  0.55691976149E+03  0.17200000000E+03 0. -1.
         -6    1    1    2    0  502  0.11265869365E+03  0.11970903226E+03 -0.26898768877E+03  0.35911086084E+03  0.17200000000E+03 0.  1.
</event>
<event>
 4    1 -0.7147820E-004  0.1772177E+03  0.7818608E-02  0.1170523E+00
         -5   -1    0    0    0  501 -0.00000000000E+00  0.00000000000E+00  0.85091963901E+03  0.85093261898E+03  0.47000000000E+01 0.  1.
          5   -1    0    0  501    0  0.00000000000E+00 -0.00000000000E+00 -0.33563721848E+03  0.33567012442E+03  0.47000000000E+01 0. -1.
          6    1    1    2  502    0 -0.32498004474E+02 -0.27676642505E+02 -0.30209239782E+03  0.35023696786E+03  0.17200000000E+03 0. -1.
         -6    1    1    2    0  502  0.32498004474E+02  0.27676642505E+02  0.81737481835E+03  0.83636577554E+03  0.17200000000E+03 0.  1.
</event>
<event>
 4    1 -0.7147820E-004  0.1774981E+03  0.7818608E-02  0.1170247E+00
         -5   -1    0    0    0  501 -0.00000000000E+00  0.00000000000E+00  0.30759806613E+03  0.30763397128E+03  0.47000000000E+01 0.  1.
          5   -1    0    0  501    0  0.00000000000E+00 -0.00000000000E+00 -0.13799972053E+03  0.13807973373E+03  0.47000000000E+01 0. -1.
          6    1    1    2  502    0 -0.13261519525E+02 -0.41781735002E+02 -0.28451421457E+02  0.17976391368E+03  0.17200000000E+03 0. -1.
         -6    1    1    2    0  502  0.13261519525E+02  0.41781735002E+02  0.19804976705E+03  0.26594979133E+03  0.17200000000E+03 0.  1.
</event>
<event>
 4    1 -0.7147820E-004  0.2436040E+03  0.7818608E-02  0.1117415E+00
         -5   -1    0    0    0  501 -0.00000000000E+00  0.00000000000E+00  0.49194946267E+03  0.49197191365E+03  0.47000000000E+01 0.  1.
          5   -1    0    0  501    0  0.00000000000E+00 -0.00000000000E+00 -0.12509445707E+04  0.12509534000E+04  0.47000000000E+01 0. -1.
          6    1    1    2  502    0 -0.14417094185E+03  0.94729347589E+02 -0.12078798536E+04  0.12321999231E+04  0.17200000000E+03 0. -1.
         -6    1    1    2    0  502  0.14417094185E+03 -0.94729347589E+02  0.44888474555E+03  0.51072539056E+03  0.17200000000E+03 0.  1.
</event>
<event>
 4    1 -0.7147820E-004  0.2186715E+03  0.7818608E-02  0.1134877E+00
         -5   -1    0    0    0  501 -0.00000000000E+00  0.00000000000E+00  0.11788088777E+04  0.11788182473E+04  0.47000000000E+01 0.  1.
          5   -1    0    0  501    0  0.00000000000E+00 -0.00000000000E+00 -0.18668988225E+03  0.18674903516E+03  0.47000000000E+01 0. -1.
          6    1    1    2  502    0 -0.11989311368E+03 -0.62119708579E+02 -0.10802693796E+03  0.24389964376E+03  0.17200000000E+03 0. -1.
         -6    1    1    2    0  502  0.11989311368E+03  0.62119708579E+02  0.11001459334E+04  0.11216676387E+04  0.17200000000E+03 0.  1.
</event>
<event>
 4    1 -0.7147820E-004  0.1985088E+03  0.7818608E-02  0.1151003E+00
          5   -1    0    0  501    0  0.00000000000E+00  0.00000000000E+00  0.39273223729E+02  0.39553458788E+02  0.47000000000E+01 0. -1.
         -5   -1    0    0    0  501 -0.00000000000E+00 -0.00000000000E+00 -0.15255284642E+04  0.15255357043E+04  0.47000000000E+01 0.  1.
          6    1    1    2  502    0  0.64643303790E+02 -0.75119938547E+02 -0.28366168901E+03  0.34622206126E+03  0.17200000000E+03 0. -1.
         -6    1    1    2    0  502 -0.64643303790E+02  0.75119938547E+02 -0.12025935515E+04  0.12188671019E+04  0.17200000000E+03 0.  1.
</event>
<event>
 4    1 -0.7147820E-004  0.2550303E+03  0.7818608E-02  0.1110166E+00
          5   -1    0    0  501    0  0.00000000000E+00  0.00000000000E+00  0.51648612914E+02  0.51862020940E+02  0.47000000000E+01 0. -1.
         -5   -1    0    0    0  501 -0.00000000000E+00 -0.00000000000E+00 -0.14135006593E+04  0.14135084732E+04  0.47000000000E+01 0.  1.
          6    1    1    2  502    0  0.18766457062E+03  0.15442522810E+02 -0.43673897714E+03  0.50574835316E+03  0.17200000000E+03 0.  1.
         -6    1    1    2    0  502 -0.18766457062E+03 -0.15442522810E+02 -0.92511306923E+03  0.95962214096E+03  0.17200000000E+03 0. -1.
</event>
<event>
 4    1 -0.7147820E-004  0.2019762E+03  0.7818608E-02  0.1148082E+00
          5   -1    0    0  501    0  0.00000000000E+00  0.00000000000E+00  0.58315397011E+03  0.58317290991E+03  0.47000000000E+01 0. -1.
         -5   -1    0    0    0  501 -0.00000000000E+00 -0.00000000000E+00 -0.25833884504E+03  0.25838159543E+03  0.47000000000E+01 0.  1.
          6    1    1    2  502    0  0.53686929679E+02 -0.91258323718E+02  0.52173753798E+03  0.55946798532E+03  0.17200000000E+03 0. -1.
         -6    1    1    2    0  502 -0.53686929679E+02  0.91258323718E+02 -0.19692241291E+03  0.28208652001E+03  0.17200000000E+03 0.  1.
</event>
<event>
 4    1 -0.7147820E-004  0.2051036E+03  0.7818608E-02  0.1145503E+00
         -5   -1    0    0    0  501 -0.00000000000E+00  0.00000000000E+00  0.16013488668E+04  0.16013557641E+04  0.47000000000E+01 0.  1.
          5   -1    0    0  501    0  0.00000000000E+00 -0.00000000000E+00 -0.72392472331E+02  0.72544883005E+02  0.47000000000E+01 0. -1.
          6    1    1    2  502    0 -0.94425241610E+01 -0.11132971764E+03  0.96209364069E+02  0.22654736597E+03  0.17200000000E+03 0. -1.
         -6    1    1    2    0  502  0.94425241610E+01  0.11132971764E+03  0.14327470304E+04  0.14473532812E+04  0.17200000000E+03 0.  1.
</event>
<event>
 4    1 -0.7147820E-004  0.2029669E+03  0.7818608E-02  0.1147260E+00
         -5   -1    0    0    0  501 -0.00000000000E+00  0.00000000000E+00  0.10698036651E+04  0.10698139894E+04  0.47000000000E+01 0.  1.
          5   -1    0    0  501    0  0.00000000000E+00 -0.00000000000E+00 -0.32852585551E+03  0.32855947367E+03  0.47000000000E+01 0. -1.
          6    1    1    2  502    0 -0.43314136724E+02 -0.98668476046E+02 -0.28629788068E+03  0.35094452423E+03  0.17200000000E+03 0. -1.
         -6    1    1    2    0  502  0.43314136724E+02  0.98668476046E+02  0.10275756903E+04  0.10474289388E+04  0.17200000000E+03 0.  1.
</event>
<event>
 4    1 -0.7147820E-004  0.2093627E+03  0.7818608E-02  0.1142072E+00
         -5   -1    0    0    0  501 -0.00000000000E+00  0.00000000000E+00  0.72386891794E+03  0.72388417607E+03  0.47000000000E+01 0.  1.
          5   -1    0    0  501    0  0.00000000000E+00 -0.00000000000E+00 -0.82929536181E+02  0.83062614763E+02  0.47000000000E+01 0. -1.
          6    1    1    2  502    0 -0.11661871824E+03  0.25471509346E+02  0.11060600708E+03  0.23678347078E+03  0.17200000000E+03 0. -1.
         -6    1    1    2    0  502  0.11661871824E+03 -0.25471509346E+02  0.53033337468E+03  0.57016332005E+03  0.17200000000E+03 0.  1.
</event>
<event>
 4    1 -0.7147820E-004  0.2107705E+03  0.7818608E-02  0.1140957E+00
          5   -1    0    0  501    0  0.00000000000E+00  0.00000000000E+00  0.34234666279E+03  0.34237892389E+03  0.47000000000E+01 0. -1.
         -5   -1    0    0    0  501 -0.00000000000E+00 -0.00000000000E+00 -0.13251975859E+03  0.13260307846E+03  0.47000000000E+01 0.  1.
          6    1    1    2  502    0 -0.10581777422E+03  0.60355581068E+02  0.13964626322E+03  0.25283448407E+03  0.17200000000E+03 0. -1.
         -6    1    1    2    0  502  0.10581777422E+03 -0.60355581068E+02  0.70180640983E+02  0.22214751827E+03  0.17200000000E+03 0.  1.
</event>
<event>
 4    1 -0.7147820E-004  0.1896707E+03  0.7818608E-02  0.1158759E+00
          5   -1    0    0  501    0  0.00000000000E+00  0.00000000000E+00  0.32776961307E+03  0.32780330879E+03  0.47000000000E+01 0. -1.
         -5   -1    0    0    0  501 -0.00000000000E+00 -0.00000000000E+00 -0.35620096797E+03  0.35623197439E+03  0.47000000000E+01 0.  1.
          6    1    1    2  502    0 -0.65503657731E+02  0.45828577812E+02  0.27028181327E+03  0.33019274114E+03  0.17200000000E+03 0. -1.
         -6    1    1    2    0  502  0.65503657731E+02 -0.45828577812E+02 -0.29871316816E+03  0.35384254204E+03  0.17200000000E+03 0.  1.
</event>
<event>
 4    1 -0.7147820E-004  0.1844341E+03  0.7818608E-02  0.1163579E+00
          5   -1    0    0  501    0  0.00000000000E+00  0.00000000000E+00  0.12640757115E+04  0.12640844491E+04  0.47000000000E+01 0. -1.
         -5   -1    0    0    0  501 -0.00000000000E+00 -0.00000000000E+00 -0.63025717415E+02  0.63200720373E+02  0.47000000000E+01 0.  1.
          6    1    1    2  502    0 -0.23251277681E+02 -0.62380502502E+02  0.11031824561E+04  0.11184933976E+04  0.17200000000E+03 0. -1.
         -6    1    1    2    0  502  0.23251277681E+02  0.62380502502E+02  0.97867537986E+02  0.20879177186E+03  0.17200000000E+03 0.  1.
</event>
<event>
 4    1 -0.7147820E-004  0.2004841E+03  0.7818608E-02  0.1149331E+00
         -5   -1    0    0    0  501 -0.00000000000E+00  0.00000000000E+00  0.87846329085E+03  0.87847586385E+03  0.47000000000E+01 0.  1.
          5   -1    0    0  501    0  0.00000000000E+00 -0.00000000000E+00 -0.73885932432E+02  0.74035268699E+02  0.47000000000E+01 0. -1.
          6    1    1    2  502    0  0.36306083721E+02 -0.96393757806E+02  0.10813677778E+03  0.22778817127E+03  0.17200000000E+03 0. -1.
         -6    1    1    2    0  502 -0.36306083721E+02  0.96393757806E+02  0.69644058063E+03  0.72472296128E+03  0.17200000000E+03 0.  1.
</event>
<event>
 4    1 -0.7147820E-004  0.3102470E+03  0.7818608E-02  0.1080228E+00
          5   -1    0    0  501    0  0.00000000000E+00  0.00000000000E+00  0.19699938919E+03  0.19705544737E+03  0.47000000000E+01 0. -1.
         -5   -1    0    0    0  501 -0.00000000000E+00 -0.00000000000E+00 -0.56112150907E+03  0.56114119251E+03  0.47000000000E+01 0.  1.
          6    1    1    2  502    0 -0.90287025673E+02 -0.24190380462E+03 -0.45650791370E+02  0.31358761526E+03  0.17200000000E+03 0. -1.
         -6    1    1    2    0  502  0.90287025673E+02  0.24190380462E+03 -0.31847132851E+03  0.44460902462E+03  0.17200000000E+03 0.  1.
</event>
<event>
 4    1 -0.7147820E-004  0.3613268E+03  0.7818608E-02  0.1058060E+00
          5   -1    0    0  501    0  0.00000000000E+00  0.00000000000E+00  0.50056856703E+03  0.50059063145E+03  0.47000000000E+01 0. -1.
         -5   -1    0    0    0  501 -0.00000000000E+00 -0.00000000000E+00 -0.57835343489E+03  0.57837253189E+03  0.47000000000E+01 0.  1.
          6    1    1    2  502    0 -0.29500610447E+03 -0.11808666720E+03  0.36085902174E+03  0.51066260507E+03  0.17200000000E+03 0. -1.
         -6    1    1    2    0  502  0.29500610447E+03  0.11808666720E+03 -0.43864388960E+03  0.56830055827E+03  0.17200000000E+03 0.  1.
</event>
<event>
 4    1 -0.7147820E-004  0.5037800E+03  0.7818608E-02  0.1012797E+00
          5   -1    0    0  501    0  0.00000000000E+00  0.00000000000E+00  0.65979621019E+03  0.65981295000E+03  0.47000000000E+01 0. -1.
         -5   -1    0    0    0  501 -0.00000000000E+00 -0.00000000000E+00 -0.93699392930E+03  0.93700571692E+03  0.47000000000E+01 0.  1.
          6    1    1    2  502    0 -0.28004012945E+03 -0.38182168744E+03  0.47440808959E+03  0.69199516658E+03  0.17200000000E+03 0. -1.
         -6    1    1    2    0  502  0.28004012945E+03  0.38182168744E+03 -0.75160580869E+03  0.90482350034E+03  0.17200000000E+03 0.  1.
</event>
<event>
 4    1 -0.7147820E-004  0.2581124E+03  0.7818608E-02  0.1108283E+00
          5   -1    0    0  501    0  0.00000000000E+00  0.00000000000E+00  0.10582854793E+04  0.10582959160E+04  0.47000000000E+01 0. -1.
         -5   -1    0    0    0  501 -0.00000000000E+00 -0.00000000000E+00 -0.24685938795E+03  0.24690412597E+03  0.47000000000E+01 0.  1.
          6    1    1    2  502    0  0.19228903344E+03 -0.79338441631E+01  0.96900190725E+03  0.10027894667E+04  0.17200000000E+03 0. -1.
         -6    1    1    2    0  502 -0.19228903344E+03  0.79338441631E+01 -0.15757581588E+03  0.30241057523E+03  0.17200000000E+03 0.  1.
</event>
<event>
 4    1 -0.7147820E-004  0.2145475E+03  0.7818608E-02  0.1138015E+00
         -5   -1    0    0    0  501 -0.00000000000E+00  0.00000000000E+00  0.95630108735E+03  0.95631263699E+03  0.47000000000E+01 0.  1.
          5   -1    0    0  501    0  0.00000000000E+00 -0.00000000000E+00 -0.43927155906E+03  0.43929670224E+03  0.47000000000E+01 0. -1.
          6    1    1    2  502    0 -0.15509200289E+02 -0.12730315592E+03 -0.39995175761E+03  0.45386345658E+03  0.17200000000E+03 0. -1.
         -6    1    1    2    0  502  0.15509200289E+02  0.12730315592E+03  0.91698128590E+03  0.94174588265E+03  0.17200000000E+03 0.  1.
</event>
<event>
 4    1 -0.7147820E-004  0.2632730E+03  0.7818608E-02  0.1105193E+00
         -5   -1    0    0    0  501 -0.00000000000E+00  0.00000000000E+00  0.17169048751E+04  0.17169113082E+04  0.47000000000E+01 0.  1.
          5   -1    0    0  501    0  0.00000000000E+00 -0.00000000000E+00 -0.57780792761E+02  0.57971631097E+02  0.47000000000E+01 0. -1.
          6    1    1    2  502    0  0.19559037736E+03  0.38380701218E+02  0.34143428252E+03  0.43114967613E+03  0.17200000000E+03 0. -1.
         -6    1    1    2    0  502 -0.19559037736E+03 -0.38380701218E+02  0.13176897998E+04  0.13437332632E+04  0.17200000000E+03 0.  1.
</event>
<event>
 4    1 -0.7147820E-004  0.1723108E+03  0.7818608E-02  0.1175459E+00
          5   -1    0    0  501    0  0.00000000000E+00  0.00000000000E+00  0.20745556543E+03  0.20750879892E+03  0.47000000000E+01 0. -1.
         -5   -1    0    0    0  501 -0.00000000000E+00 -0.00000000000E+00 -0.30262415127E+03  0.30266064649E+03  0.47000000000E+01 0.  1.
          6    1    1    2  502    0  0.61859286941E+01 -0.82910804321E+01  0.13763655072E+03  0.22053305381E+03  0.17200000000E+03 0. -1.
         -6    1    1    2    0  502 -0.61859286941E+01  0.82910804321E+01 -0.23280513656E+03  0.28963639160E+03  0.17200000000E+03 0.  1.
</event>
<event>
 4    1 -0.7147820E-004  0.1889666E+03  0.7818608E-02  0.1159397E+00
          5   -1    0    0  501    0  0.00000000000E+00  0.00000000000E+00  0.41348534782E+03  0.41351205891E+03  0.47000000000E+01 0. -1.
         -5   -1    0    0    0  501 -0.00000000000E+00 -0.00000000000E+00 -0.24457898953E+03  0.24462414459E+03  0.47000000000E+01 0.  1.
          6    1    1    2  502    0 -0.19952438322E+02  0.75672226893E+02  0.34914097414E+03  0.39699849564E+03  0.17200000000E+03 0. -1.
         -6    1    1    2    0  502  0.19952438322E+02 -0.75672226893E+02 -0.18023461585E+03  0.26113770786E+03  0.17200000000E+03 0.  1.
</event>
<event>
 4    1 -0.7147820E-004  0.1835908E+03  0.7818608E-02  0.1164372E+00
         -5   -1    0    0    0  501 -0.00000000000E+00  0.00000000000E+00  0.28346202073E+03  0.28350098271E+03  0.47000000000E+01 0.  1.
          5   -1    0    0  501    0  0.00000000000E+00 -0.00000000000E+00 -0.29527948182E+03  0.29531688469E+03  0.47000000000E+01 0. -1.
          6    1    1    2  502    0  0.64190273217E+02 -0.10935692670E+01 -0.22960023306E+03  0.29397594134E+03  0.17200000000E+03 0. -1.
         -6    1    1    2    0  502 -0.64190273217E+02  0.10935692670E+01  0.21778277197E+03  0.28484192605E+03  0.17200000000E+03 0.  1.
</event>
<event>
 4    1 -0.7147820E-004  0.1765297E+03  0.7818608E-02  0.1171204E+00
         -5   -1    0    0    0  501 -0.00000000000E+00  0.00000000000E+00  0.12944253758E+03  0.12952783691E+03  0.47000000000E+01 0.  1.
          5   -1    0    0  501    0  0.00000000000E+00 -0.00000000000E+00 -0.48294026247E+03  0.48296313226E+03  0.47000000000E+01 0. -1.
          6    1    1    2  502    0  0.32167172682E+02  0.23324207506E+02 -0.39367874565E+03  0.43144605738E+03  0.17200000000E+03 0. -1.
         -6    1    1    2    0  502 -0.32167172682E+02 -0.23324207506E+02  0.40181020755E+02  0.18104491178E+03  0.17200000000E+03 0.  1.
</event>
<event>
 4    1 -0.7147820E-004  0.1778005E+03  0.7818608E-02  0.1169949E+00
          5   -1    0    0  501    0  0.00000000000E+00  0.00000000000E+00  0.17729137978E+04  0.17729200276E+04  0.47000000000E+01 0. -1.
         -5   -1    0    0    0  501 -0.00000000000E+00 -0.00000000000E+00 -0.23440930131E+02  0.23907471749E+02  0.47000000000E+01 0.  1.
          6    1    1    2  502    0 -0.21443083133E+01 -0.44993591271E+02  0.13212508418E+04  0.13331604586E+04  0.17200000000E+03 0. -1.
         -6    1    1    2    0  502  0.21443083133E+01  0.44993591271E+02  0.42822202583E+03  0.46366704080E+03  0.17200000000E+03 0.  1.
</event>
<event>
 4    1 -0.7147820E-004  0.1726229E+03  0.7818608E-02  0.1175140E+00
          5   -1    0    0  501    0  0.00000000000E+00  0.00000000000E+00  0.66287887337E+03  0.66289553533E+03  0.47000000000E+01 0. -1.
         -5   -1    0    0    0  501 -0.00000000000E+00 -0.00000000000E+00 -0.11380278665E+04  0.11380375718E+04  0.47000000000E+01 0.  1.
          6    1    1    2  502    0  0.14203278785E+02 -0.35961674055E+01  0.64492870965E+03  0.66763141484E+03  0.17200000000E+03 0. -1.
         -6    1    1    2    0  502 -0.14203278785E+02  0.35961674055E+01 -0.11200777028E+04  0.11333016923E+04  0.17200000000E+03 0.  1.
</event>
<event>
 4    1 -0.7147820E-004  0.4271492E+03  0.7818608E-02  0.1034764E+00
          5   -1    0    0  501    0  0.00000000000E+00  0.00000000000E+00  0.58762385303E+03  0.58764264877E+03  0.47000000000E+01 0. -1.
         -5   -1    0    0    0  501 -0.00000000000E+00 -0.00000000000E+00 -0.31171726886E+03  0.31175269960E+03  0.47000000000E+01 0.  1.
          6    1    1    2  502    0 -0.38856475693E+02 -0.38905351203E+03  0.16654252851E+03  0.45846796478E+03  0.17200000000E+03 0.  1.
         -6    1    1    2    0  502  0.38856475693E+02  0.38905351203E+03  0.10936405566E+03  0.44092738359E+03  0.17200000000E+03 0.  1.
</event>
<event>
 4    1 -0.7147820E-004  0.1769703E+03  0.7818608E-02  0.1170768E+00
         -5   -1    0    0    0  501 -0.00000000000E+00  0.00000000000E+00  0.28914283876E+03  0.28918103535E+03  0.47000000000E+01 0.  1.
          5   -1    0    0  501    0  0.00000000000E+00 -0.00000000000E+00 -0.22299621013E+03  0.22304573462E+03  0.47000000000E+01 0. -1.
          6    1    1    2  502    0  0.75853107919E+01 -0.40950381785E+02 -0.15062337229E+03  0.23239163278E+03  0.17200000000E+03 0. -1.
         -6    1    1    2    0  502 -0.75853107919E+01  0.40950381785E+02  0.21677000092E+03  0.27983513719E+03  0.17200000000E+03 0.  1.
</event>
<event>
 4    1 -0.7147820E-004  0.2256684E+03  0.7818608E-02  0.1129726E+00
         -5   -1    0    0    0  501 -0.00000000000E+00  0.00000000000E+00  0.87560179662E+02  0.87686230746E+02  0.47000000000E+01 0.  1.
          5   -1    0    0  501    0  0.00000000000E+00 -0.00000000000E+00 -0.16369203679E+04  0.16369271153E+04  0.47000000000E+01 0. -1.
          6    1    1    2  502    0 -0.12573623094E+03 -0.74381777516E+02 -0.14672007201E+04  0.14844541763E+04  0.17200000000E+03 0. -1.
         -6    1    1    2    0  502  0.12573623094E+03  0.74381777516E+02 -0.82159468154E+02  0.24015916973E+03  0.17200000000E+03 0.  1.
</event>
<event>
 4    1 -0.7147820E-004  0.2451308E+03  0.7818608E-02  0.1116421E+00
          5   -1    0    0  501    0  0.00000000000E+00  0.00000000000E+00  0.81158876661E+03  0.81160237561E+03  0.47000000000E+01 0. -1.
         -5   -1    0    0    0  501 -0.00000000000E+00 -0.00000000000E+00 -0.16468545827E+03  0.16475251186E+03  0.47000000000E+01 0.  1.
          6    1    1    2  502    0  0.14965841625E+03  0.90041429778E+02  0.68567637583E+03  0.72817662212E+03  0.17200000000E+03 0. -1.
         -6    1    1    2    0  502 -0.14965841625E+03 -0.90041429778E+02 -0.38773067487E+02  0.24817826535E+03  0.17200000000E+03 0.  1.
</event>
<event>
 4    1 -0.7147820E-004  0.3707003E+03  0.7818608E-02  0.1054426E+00
          5   -1    0    0  501    0  0.00000000000E+00  0.00000000000E+00  0.80310495952E+03  0.80311871227E+03  0.47000000000E+01 0. -1.
         -5   -1    0    0    0  501 -0.00000000000E+00 -0.00000000000E+00 -0.52110839373E+03  0.52112958850E+03  0.47000000000E+01 0.  1.
          6    1    1    2  502    0  0.20104046681E+03 -0.25964873585E+03  0.68364192309E+03  0.77767924900E+03  0.17200000000E+03 0. -1.
         -6    1    1    2    0  502 -0.20104046681E+03  0.25964873585E+03 -0.40164535730E+03  0.54656905178E+03  0.17200000000E+03 0.  1.
</event>
<event>
 4    1 -0.7147820E-004  0.1949291E+03  0.7818608E-02  0.1154089E+00
         -5   -1    0    0    0  501 -0.00000000000E+00  0.00000000000E+00  0.68255535414E+02  0.68417162428E+02  0.47000000000E+01 0.  1.
          5   -1    0    0  501    0  0.00000000000E+00 -0.00000000000E+00 -0.69464291373E+03  0.69465881380E+03  0.47000000000E+01 0. -1.
          6    1    1    2  502    0 -0.67579017223E+02  0.62019534044E+02 -0.48370954805E+03  0.52150960974E+03  0.17200000000E+03 0. -1.
         -6    1    1    2    0  502  0.67579017223E+02 -0.62019534044E+02 -0.14267783026E+03  0.24156636649E+03  0.17200000000E+03 0.  1.
</event>
<event>
 4    1 -0.7147820E-004  0.2095909E+03  0.7818608E-02  0.1141890E+00
          5   -1    0    0  501    0  0.00000000000E+00  0.00000000000E+00  0.37223041999E+03  0.37226009129E+03  0.47000000000E+01 0. -1.
         -5   -1    0    0    0  501 -0.00000000000E+00 -0.00000000000E+00 -0.14747679868E+03  0.14755167281E+03  0.47000000000E+01 0.  1.
          6    1    1    2  502    0 -0.28283951671E+02  0.11638028987E+03  0.22866136394E+03  0.31018441797E+03  0.17200000000E+03 0. -1.
         -6    1    1    2    0  502  0.28283951671E+02 -0.11638028987E+03 -0.39077426376E+01  0.20962734613E+03  0.17200000000E+03 0.  1.
</event>
<event>
 4    1 -0.7147820E-004  0.1983972E+03  0.7818608E-02  0.1151098E+00
          5   -1    0    0  501    0  0.00000000000E+00  0.00000000000E+00  0.62428333125E+03  0.62430102328E+03  0.47000000000E+01 0. -1.
         -5   -1    0    0    0  501 -0.00000000000E+00 -0.00000000000E+00 -0.81698515380E+02  0.81833595884E+02  0.47000000000E+01 0.  1.
          6    1    1    2  502    0  0.74768961067E+02 -0.64707406407E+02  0.44027408264E+03  0.48291066858E+03  0.17200000000E+03 0. -1.
         -6    1    1    2    0  502 -0.74768961067E+02  0.64707406407E+02  0.10231073323E+03  0.22322395059E+03  0.17200000000E+03 0.  1.
</event>
<event>
 4    1 -0.7147820E-004  0.1841583E+03  0.7818608E-02  0.1163838E+00
         -5   -1    0    0    0  501 -0.00000000000E+00  0.00000000000E+00  0.10168206306E+04  0.10168314928E+04  0.47000000000E+01 0.  1.
          5   -1    0    0  501    0  0.00000000000E+00 -0.00000000000E+00 -0.16012066437E+03  0.16018962875E+03  0.47000000000E+01 0. -1.
          6    1    1    2  502    0 -0.34945056429E+02  0.55759437985E+02 -0.95311782536E+02  0.20736105657E+03  0.17200000000E+03 0. -1.
         -6    1    1    2    0  502  0.34945056429E+02 -0.55759437985E+02  0.95201174875E+03  0.96966006500E+03  0.17200000000E+03 0.  1.
</event>
<event>
 4    1 -0.7147820E-004  0.1738946E+03  0.7818608E-02  0.1173846E+00
          5   -1    0    0  501    0  0.00000000000E+00  0.00000000000E+00  0.77847996389E+03  0.77849415167E+03  0.47000000000E+01 0. -1.
         -5   -1    0    0    0  501 -0.00000000000E+00 -0.00000000000E+00 -0.64117971334E+02  0.64290001151E+02  0.47000000000E+01 0.  1.
          6    1    1    2  502    0 -0.15402283801E+02 -0.20447854763E+02  0.62206492925E+03  0.64591340079E+03  0.17200000000E+03 0. -1.
         -6    1    1    2    0  502  0.15402283801E+02  0.20447854763E+02  0.92297063304E+02  0.19687075203E+03  0.17200000000E+03 0.  1.
</event>
<event>
 4    1 -0.7147820E-004  0.1785049E+03  0.7818608E-02  0.1169258E+00
          5   -1    0    0  501    0  0.00000000000E+00  0.00000000000E+00  0.41469677846E+03  0.41472341152E+03  0.47000000000E+01 0. -1.
         -5   -1    0    0    0  501 -0.00000000000E+00 -0.00000000000E+00 -0.79449866349E+02  0.79588763421E+02  0.47000000000E+01 0.  1.
          6    1    1    2  502    0 -0.47676373390E+02 -0.26413564738E+01  0.21325537960E+03  0.27810406374E+03  0.17200000000E+03 0. -1.
         -6    1    1    2    0  502  0.47676373390E+02  0.26413564738E+01  0.12199153251E+03  0.21620811120E+03  0.17200000000E+03 0.  1.
</event>
<event>
 4    1 -0.7147820E-004  0.1734671E+03  0.7818608E-02  0.1174280E+00
         -5   -1    0    0    0  501 -0.00000000000E+00  0.00000000000E+00  0.54692551212E+03  0.54694570645E+03  0.47000000000E+01 0.  1.
          5   -1    0    0  501    0  0.00000000000E+00 -0.00000000000E+00 -0.85071362995E+02  0.85201096248E+02  0.47000000000E+01 0. -1.
          6    1    1    2  502    0 -0.23718948407E+01  0.22387773837E+02  0.42889066067E+02  0.17869054337E+03  0.17200000000E+03 0. -1.
         -6    1    1    2    0  502  0.23718948407E+01 -0.22387773837E+02  0.41896508306E+03  0.45345625933E+03  0.17200000000E+03 0.  1.
</event>
<event>
 4    1 -0.7147820E-004  0.1769051E+03  0.7818608E-02  0.1170832E+00
          5   -1    0    0  501    0  0.00000000000E+00  0.00000000000E+00  0.37776423376E+02  0.38067678719E+02  0.47000000000E+01 0. -1.
         -5   -1    0    0    0  501 -0.00000000000E+00 -0.00000000000E+00 -0.17728424482E+04  0.17728486783E+04  0.47000000000E+01 0.  1.
          6    1    1    2  502    0  0.15540368810E+02  0.38339597062E+02 -0.20550864673E+03  0.27116274015E+03  0.17200000000E+03 0. -1.
         -6    1    1    2    0  502 -0.15540368810E+02 -0.38339597062E+02 -0.15295573780E+04  0.15397536168E+04  0.17200000000E+03 0.  1.
</event>
<event>
 4    1 -0.7147820E-004  0.2209141E+03  0.7818608E-02  0.1133203E+00
          5   -1    0    0  501    0  0.00000000000E+00  0.00000000000E+00  0.72669744546E+02  0.72821574910E+02  0.47000000000E+01 0. -1.
         -5   -1    0    0    0  501 -0.00000000000E+00 -0.00000000000E+00 -0.10711209207E+04  0.10711312323E+04  0.47000000000E+01 0.  1.
          6    1    1    2  502    0 -0.41015993355E+02 -0.13242623086E+03 -0.14954031938E+03  0.26676829919E+03  0.17200000000E+03 0. -1.
         -6    1    1    2    0  502  0.41015993355E+02  0.13242623086E+03 -0.84891085681E+03  0.87718450803E+03  0.17200000000E+03 0.  1.
</event>
<event>
 4    1 -0.7147820E-004  0.1904543E+03  0.7818608E-02  0.1158052E+00
         -5   -1    0    0    0  501 -0.00000000000E+00  0.00000000000E+00  0.32695547812E+03  0.32698925773E+03  0.47000000000E+01 0.  1.
          5   -1    0    0  501    0  0.00000000000E+00 -0.00000000000E+00 -0.18930677058E+03  0.18936510605E+03  0.47000000000E+01 0. -1.
          6    1    1    2  502    0 -0.26235635973E+02  0.77463125185E+02 -0.97331393162E+02  0.21388371713E+03  0.17200000000E+03 0. -1.
         -6    1    1    2    0  502  0.26235635973E+02 -0.77463125185E+02  0.23498010070E+03  0.30247064665E+03  0.17200000000E+03 0.  1.
</event>
<event>
 4    1 -0.7147820E-004  0.2020144E+03  0.7818608E-02  0.1148051E+00
          5   -1    0    0  501    0  0.00000000000E+00  0.00000000000E+00  0.16470208682E+03  0.16476913365E+03  0.47000000000E+01 0. -1.
         -5   -1    0    0    0  501 -0.00000000000E+00 -0.00000000000E+00 -0.32340355465E+03  0.32343770522E+03  0.47000000000E+01 0.  1.
          6    1    1    2  502    0 -0.57792184025E+02 -0.88802406345E+02  0.38779459092E+02  0.20570282048E+03  0.17200000000E+03 0.  1.
         -6    1    1    2    0  502  0.57792184025E+02  0.88802406345E+02 -0.19748092692E+03  0.28250401838E+03  0.17200000000E+03 0.  1.
</event>
<event>
 4    1 -0.7147820E-004  0.1761981E+03  0.7818608E-02  0.1171534E+00
         -5   -1    0    0    0  501 -0.00000000000E+00  0.00000000000E+00  0.21172416044E+03  0.21177632095E+03  0.47000000000E+01 0.  1.
          5   -1    0    0  501    0  0.00000000000E+00 -0.00000000000E+00 -0.19544418275E+03  0.19550068688E+03  0.47000000000E+01 0. -1.
          6    1    1    2  502    0 -0.27506669299E+02 -0.26554891505E+02 -0.93708802055E+02  0.19956732874E+03  0.17200000000E+03 0. -1.
         -6    1    1    2    0  502  0.27506669299E+02  0.26554891505E+02  0.10998877974E+03  0.20770967909E+03  0.17200000000E+03 0.  1.
</event>
<event>
 4    1 -0.7147820E-004  0.2754005E+03  0.7818608E-02  0.1098228E+00
         -5   -1    0    0    0  501 -0.00000000000E+00  0.00000000000E+00  0.42510795770E+03  0.42513393854E+03  0.47000000000E+01 0.  1.
          5   -1    0    0  501    0  0.00000000000E+00 -0.00000000000E+00 -0.24654733077E+03  0.24659212540E+03  0.47000000000E+01 0. -1.
          6    1    1    2  502    0 -0.14940801326E+03 -0.15472122582E+03 -0.87331295162E+02  0.28891550194E+03  0.17200000000E+03 0. -1.
         -6    1    1    2    0  502  0.14940801326E+03  0.15472122582E+03  0.26589192210E+03  0.38281056200E+03  0.17200000000E+03 0.  1.
</event>
<event>
 4    1 -0.7147820E-004  0.2028199E+03  0.7818608E-02  0.1147381E+00
         -5   -1    0    0    0  501 -0.00000000000E+00  0.00000000000E+00  0.17863043917E+03  0.17869226004E+03  0.47000000000E+01 0.  1.
          5   -1    0    0  501    0  0.00000000000E+00 -0.00000000000E+00 -0.50280834107E+03  0.50283030721E+03  0.47000000000E+01 0. -1.
          6    1    1    2  502    0 -0.10332259038E+03  0.29603395156E+02 -0.41299384036E+03  0.46010849901E+03  0.17200000000E+03 0. -1.
         -6    1    1    2    0  502  0.10332259038E+03 -0.29603395156E+02  0.88815938456E+02  0.22141406823E+03  0.17200000000E+03 0.  1.
</event>
<event>
 4    1 -0.7147820E-004  0.1750251E+03  0.7818608E-02  0.1172706E+00
         -5   -1    0    0    0  501 -0.00000000000E+00  0.00000000000E+00  0.11181354120E+03  0.11191227812E+03  0.47000000000E+01 0.  1.
          5   -1    0    0  501    0  0.00000000000E+00 -0.00000000000E+00 -0.84594129521E+03  0.84595435157E+03  0.47000000000E+01 0. -1.
          6    1    1    2  502    0  0.30116098906E+02 -0.11950611501E+02 -0.76093130486E+03  0.78080102923E+03  0.17200000000E+03 0. -1.
         -6    1    1    2    0  502 -0.30116098906E+02  0.11950611501E+02  0.26803550849E+02  0.17706560046E+03  0.17200000000E+03 0.  1.
</event>
<event>
 4    1 -0.7147820E-004  0.2154000E+03  0.7818608E-02  0.1137360E+00
          5   -1    0    0  501    0  0.00000000000E+00  0.00000000000E+00  0.19068203400E+03  0.19073994886E+03  0.47000000000E+01 0. -1.
         -5   -1    0    0    0  501 -0.00000000000E+00 -0.00000000000E+00 -0.24454215565E+03  0.24458731752E+03  0.47000000000E+01 0.  1.
          6    1    1    2  502    0 -0.12753177412E+03 -0.23426900842E+02 -0.43024186837E+02  0.21965485141E+03  0.17200000000E+03 0.  1.
         -6    1    1    2    0  502  0.12753177412E+03  0.23426900842E+02 -0.10835934812E+02  0.21567241497E+03  0.17200000000E+03 0.  1.
</event>
<event>
 4    1 -0.7147820E-004  0.1761023E+03  0.7818608E-02  0.1171629E+00
          5   -1    0    0  501    0  0.00000000000E+00  0.00000000000E+00  0.48773290985E+02  0.48999223601E+02  0.47000000000E+01 0. -1.
         -5   -1    0    0    0  501 -0.00000000000E+00 -0.00000000000E+00 -0.14840879820E+04  0.14840954242E+04  0.47000000000E+01 0.  1.
          6    1    1    2  502    0  0.47277142398E+01  0.37492284030E+02 -0.13759939295E+03  0.22348515741E+03  0.17200000000E+03 0. -1.
         -6    1    1    2    0  502 -0.47277142398E+01 -0.37492284030E+02 -0.12977152980E+04  0.13096094904E+04  0.17200000000E+03 0.  1.
</event>
<event>
 4    1 -0.7147820E-004  0.2040849E+03  0.7818608E-02  0.1146338E+00
         -5   -1    0    0    0  501 -0.00000000000E+00  0.00000000000E+00  0.30864875683E+03  0.30868453977E+03  0.47000000000E+01 0.  1.
          5   -1    0    0  501    0  0.00000000000E+00 -0.00000000000E+00 -0.17688677758E+03  0.17694920763E+03  0.47000000000E+01 0. -1.
          6    1    1    2  502    0  0.10861643333E+03 -0.16404515261E+02 -0.52439203796E+02  0.21071428002E+03  0.17200000000E+03 0. -1.
         -6    1    1    2    0  502 -0.10861643333E+03  0.16404515261E+02  0.18420118305E+03  0.27491946738E+03  0.17200000000E+03 0.  1.
</event>
<event>
 4    1 -0.7147820E-004  0.2115581E+03  0.7818608E-02  0.1140338E+00
         -5   -1    0    0    0  501 -0.00000000000E+00  0.00000000000E+00  0.23689215099E+03  0.23693877100E+03  0.47000000000E+01 0.  1.
          5   -1    0    0  501    0  0.00000000000E+00 -0.00000000000E+00 -0.26676001256E+03  0.26680141361E+03  0.47000000000E+01 0. -1.
          6    1    1    2  502    0 -0.82671654901E+02 -0.91313939051E+02 -0.15103611574E+03  0.25993988968E+03  0.17200000000E+03 0. -1.
         -6    1    1    2    0  502  0.82671654901E+02  0.91313939051E+02  0.12116825416E+03  0.24380029493E+03  0.17200000000E+03 0.  1.
</event>
<event>
 4    1 -0.7147820E-004  0.1738635E+03  0.7818608E-02  0.1173878E+00
         -5   -1    0    0    0  501 -0.00000000000E+00  0.00000000000E+00  0.19728338617E+03  0.19733936368E+03  0.47000000000E+01 0.  1.
          5   -1    0    0  501    0  0.00000000000E+00 -0.00000000000E+00 -0.73778010856E+03  0.73779507899E+03  0.47000000000E+01 0. -1.
          6    1    1    2  502    0  0.24971463701E+02  0.45778639479E+01 -0.68645278496E+03  0.70812848892E+03  0.17200000000E+03 0. -1.
         -6    1    1    2    0  502 -0.24971463701E+02 -0.45778639479E+01  0.14595606257E+03  0.22700595375E+03  0.17200000000E+03 0.  1.
</event>
<event>
 4    1 -0.7147820E-004  0.3308450E+03  0.7818608E-02  0.1070764E+00
          5   -1    0    0  501    0  0.00000000000E+00  0.00000000000E+00  0.24954836594E+03  0.24959262197E+03  0.47000000000E+01 0. -1.
         -5   -1    0    0    0  501 -0.00000000000E+00 -0.00000000000E+00 -0.66843362205E+03  0.66845014555E+03  0.47000000000E+01 0.  1.
          6    1    1    2  502    0 -0.19502597745E+03 -0.20454654005E+03  0.59745076270E+02  0.33619621215E+03  0.17200000000E+03 0. -1.
         -6    1    1    2    0  502  0.19502597745E+03  0.20454654005E+03 -0.47863033238E+03  0.58184655537E+03  0.17200000000E+03 0.  1.
</event>
<event>
 4    1 -0.7147820E-004  0.1966853E+03  0.7818608E-02  0.1152566E+00
          5   -1    0    0  501    0  0.00000000000E+00  0.00000000000E+00  0.24161548718E+03  0.24166119598E+03  0.47000000000E+01 0. -1.
         -5   -1    0    0    0  501 -0.00000000000E+00 -0.00000000000E+00 -0.35766465226E+03  0.35769553181E+03  0.47000000000E+01 0.  1.
          6    1    1    2  502    0  0.88224690456E+02  0.36297475431E+02  0.16472018768E+03  0.25654988396E+03  0.17200000000E+03 0. -1.
         -6    1    1    2    0  502 -0.88224690456E+02 -0.36297475431E+02 -0.28076935277E+03  0.34280684384E+03  0.17200000000E+03 0.  1.
</event>
<event>
 4    1 -0.7147820E-004  0.1778054E+03  0.7818608E-02  0.1169944E+00
          5   -1    0    0  501    0  0.00000000000E+00  0.00000000000E+00  0.79569806565E+02  0.79708494634E+02  0.47000000000E+01 0. -1.
         -5   -1    0    0    0  501 -0.00000000000E+00 -0.00000000000E+00 -0.62582828181E+03  0.62584593018E+03  0.47000000000E+01 0.  1.
          6    1    1    2  502    0 -0.22640377869E+01  0.45007117692E+02 -0.59755935653E+02  0.18757808602E+03  0.17200000000E+03 0. -1.
         -6    1    1    2    0  502  0.22640377869E+01 -0.45007117692E+02 -0.48650253960E+03  0.51797633879E+03  0.17200000000E+03 0.  1.
</event>
<event>
 4    1 -0.7147820E-004  0.1769731E+03  0.7818608E-02  0.1170765E+00
         -5   -1    0    0    0  501 -0.00000000000E+00  0.00000000000E+00  0.30103082297E+03  0.30106751133E+03  0.47000000000E+01 0.  1.
          5   -1    0    0  501    0  0.00000000000E+00 -0.00000000000E+00 -0.15330724701E+03  0.15337927496E+03  0.47000000000E+01 0. -1.
          6    1    1    2  502    0 -0.35560889682E+02 -0.21699901928E+02 -0.55020384111E+02  0.18532864130E+03  0.17200000000E+03 0. -1.
         -6    1    1    2    0  502  0.35560889682E+02  0.21699901928E+02  0.20274396006E+03  0.26911814499E+03  0.17200000000E+03 0.  1.
</event>
<event>
 4    1 -0.7147820E-004  0.2018700E+03  0.7818608E-02  0.1148171E+00
         -5   -1    0    0    0  501 -0.00000000000E+00  0.00000000000E+00  0.11378939532E+03  0.11388641924E+03  0.47000000000E+01 0.  1.
          5   -1    0    0  501    0  0.00000000000E+00 -0.00000000000E+00 -0.10388790022E+04  0.10388896338E+04  0.47000000000E+01 0. -1.
          6    1    1    2  502    0 -0.19908508444E+02  0.10378415886E+03 -0.92918871405E+03  0.95086443127E+03  0.17200000000E+03 0. -1.
         -6    1    1    2    0  502  0.19908508444E+02 -0.10378415886E+03  0.40991071402E+01  0.20191162180E+03  0.17200000000E+03 0.  1.
</event>
<event>
 4    1 -0.7147820E-004  0.5502208E+03  0.7818608E-02  0.1001443E+00
          5   -1    0    0  501    0  0.00000000000E+00  0.00000000000E+00  0.59641545248E+03  0.59643397117E+03  0.47000000000E+01 0. -1.
         -5   -1    0    0    0  501 -0.00000000000E+00 -0.00000000000E+00 -0.72684850470E+03  0.72686370028E+03  0.47000000000E+01 0.  1.
          6    1    1    2  502    0 -0.30207072736E+03  0.42651169394E+03  0.29819248706E+03  0.62582881744E+03  0.17200000000E+03 0. -1.
         -6    1    1    2    0  502  0.30207072736E+03 -0.42651169394E+03 -0.42862553928E+03  0.69746885401E+03  0.17200000000E+03 0.  1.
</event>
<event>
 4    1 -0.7147820E-004  0.1972186E+03  0.7818608E-02  0.1152107E+00
          5   -1    0    0  501    0  0.00000000000E+00  0.00000000000E+00  0.75640559144E+02  0.75786438019E+02  0.47000000000E+01 0. -1.
         -5   -1    0    0    0  501 -0.00000000000E+00 -0.00000000000E+00 -0.64235430707E+03  0.64237150141E+03  0.47000000000E+01 0.  1.
          6    1    1    2  502    0  0.90696890903E+02  0.32943319533E+02 -0.12258974175E+03  0.23221419660E+03  0.17200000000E+03 0. -1.
         -6    1    1    2    0  502 -0.90696890903E+02 -0.32943319533E+02 -0.44412400618E+03  0.48594374282E+03  0.17200000000E+03 0.  1.
</event>
<event>
 4    1 -0.7147820E-004  0.1752491E+03  0.7818608E-02  0.1172482E+00
          5   -1    0    0  501    0  0.00000000000E+00  0.00000000000E+00  0.58168455137E+03  0.58170353901E+03  0.47000000000E+01 0. -1.
         -5   -1    0    0    0  501 -0.00000000000E+00 -0.00000000000E+00 -0.98687567228E+02  0.98799422697E+02  0.47000000000E+01 0.  1.
          6    1    1    2  502    0 -0.10044415386E+02 -0.32052334783E+02  0.47362008272E+03  0.50500319326E+03  0.17200000000E+03 0. -1.
         -6    1    1    2    0  502  0.10044415386E+02  0.32052334783E+02  0.93769014177E+01  0.17549976845E+03  0.17200000000E+03 0.  1.
</event>
<event>
 4    1 -0.7147820E-004  0.1981904E+03  0.7818608E-02  0.1151275E+00
         -5   -1    0    0    0  501 -0.00000000000E+00  0.00000000000E+00  0.45895548347E+03  0.45897954835E+03  0.47000000000E+01 0.  1.
          5   -1    0    0  501    0  0.00000000000E+00 -0.00000000000E+00 -0.90191140819E+02  0.90313519930E+02  0.47000000000E+01 0. -1.
          6    1    1    2  502    0 -0.57265689954E+02  0.80100492136E+02  0.12175427407E+03  0.23260170107E+03  0.17200000000E+03 0. -1.
         -6    1    1    2    0  502  0.57265689954E+02 -0.80100492136E+02  0.24701006858E+03  0.31669136722E+03  0.17200000000E+03 0.  1.
</event>
<event>
 4    1 -0.7147820E-004  0.1903684E+03  0.7818608E-02  0.1158129E+00
         -5   -1    0    0    0  501 -0.00000000000E+00  0.00000000000E+00  0.72527076759E+03  0.72528599623E+03  0.47000000000E+01 0.  1.
          5   -1    0    0  501    0  0.00000000000E+00 -0.00000000000E+00 -0.31537970973E+03  0.31541472907E+03  0.47000000000E+01 0. -1.
          6    1    1    2  502    0 -0.79324676225E+02 -0.19071767950E+02 -0.27241215431E+03  0.33233795812E+03  0.17200000000E+03 0. -1.
         -6    1    1    2    0  502  0.79324676225E+02  0.19071767950E+02  0.68230321216E+03  0.70836276718E+03  0.17200000000E+03 0.  1.
</event>
<event>
 4    1 -0.7147820E-004  0.1810700E+03  0.7818608E-02  0.1166772E+00
         -5   -1    0    0    0  501 -0.00000000000E+00  0.00000000000E+00  0.66518088123E+02  0.66683926456E+02  0.47000000000E+01 0.  1.
          5   -1    0    0  501    0  0.00000000000E+00 -0.00000000000E+00 -0.51705375118E+03  0.51707511215E+03  0.47000000000E+01 0. -1.
          6    1    1    2  502    0  0.52868181370E+02 -0.20181285216E+02 -0.28937422577E+03  0.34135578421E+03  0.17200000000E+03 0. -1.
         -6    1    1    2    0  502 -0.52868181370E+02  0.20181285216E+02 -0.16116143729E+03  0.24240325440E+03  0.17200000000E+03 0.  1.
</event>
<event>
 4    1 -0.7147820E-004  0.2034497E+03  0.7818608E-02  0.1146861E+00
         -5   -1    0    0    0  501 -0.00000000000E+00  0.00000000000E+00  0.15905820792E+03  0.15912763276E+03  0.47000000000E+01 0.  1.
          5   -1    0    0  501    0  0.00000000000E+00 -0.00000000000E+00 -0.38720876318E+03  0.38723728680E+03  0.47000000000E+01 0. -1.
          6    1    1    2  502    0  0.47256711719E+02 -0.97849716259E+02 -0.27058395727E+03  0.33853720874E+03  0.17200000000E+03 0. -1.
         -6    1    1    2    0  502 -0.47256711719E+02  0.97849716259E+02  0.42433402003E+02  0.20782771081E+03  0.17200000000E+03 0.  1.
</event>
<event>
 4    1 -0.7147820E-004  0.2072292E+03  0.7818608E-02  0.1143779E+00
         -5   -1    0    0    0  501 -0.00000000000E+00  0.00000000000E+00  0.13970426886E+03  0.13978330636E+03  0.47000000000E+01 0.  1.
          5   -1    0    0  501    0  0.00000000000E+00 -0.00000000000E+00 -0.36699971446E+03  0.36702980862E+03  0.47000000000E+01 0. -1.
          6    1    1    2  502    0 -0.10258608373E+03 -0.53254489760E+02 -0.21591572141E+03  0.29927168929E+03  0.17200000000E+03 0. -1.
         -6    1    1    2    0  502  0.10258608373E+03  0.53254489760E+02 -0.11379724193E+02  0.20754142569E+03  0.17200000000E+03 0.  1.
</event>
<event>
 4    1 -0.7147820E-004  0.2319061E+03  0.7818608E-02  0.1125305E+00
          5   -1    0    0  501    0  0.00000000000E+00  0.00000000000E+00  0.39121960143E+03  0.39124783264E+03  0.47000000000E+01 0. -1.
         -5   -1    0    0    0  501 -0.00000000000E+00 -0.00000000000E+00 -0.29273459238E+03  0.29277232037E+03  0.47000000000E+01 0.  1.
          6    1    1    2  502    0 -0.99940177022E+02 -0.11919891319E+03  0.29834488412E+03  0.37787575970E+03  0.17200000000E+03 0. -1.
         -6    1    1    2    0  502  0.99940177022E+02  0.11919891319E+03 -0.19985987507E+03  0.30614439331E+03  0.17200000000E+03 0.  1.
</event>
<event>
 4    1 -0.7147820E-004  0.1723966E+03  0.7818608E-02  0.1175371E+00
          5   -1    0    0  501    0  0.00000000000E+00  0.00000000000E+00  0.22584512093E+03  0.22589402083E+03  0.47000000000E+01 0. -1.
         -5   -1    0    0    0  501 -0.00000000000E+00 -0.00000000000E+00 -0.10627874395E+04  0.10627978320E+04  0.47000000000E+01 0.  1.
          6    1    1    2  502    0 -0.11086948572E+02 -0.36952130497E+01  0.18467141141E+03  0.25263433104E+03  0.17200000000E+03 0. -1.
         -6    1    1    2    0  502  0.11086948572E+02  0.36952130497E+01 -0.10216137300E+04  0.10360575218E+04  0.17200000000E+03 0.  1.
</event>
<event>
 4    1 -0.7147820E-004  0.1953643E+03  0.7818608E-02  0.1153710E+00
          5   -1    0    0  501    0  0.00000000000E+00  0.00000000000E+00  0.18615123540E+04  0.18615182873E+04  0.47000000000E+01 0. -1.
         -5   -1    0    0    0  501 -0.00000000000E+00 -0.00000000000E+00 -0.20712419143E+02  0.21238980831E+02  0.47000000000E+01 0.  1.
          6    1    1    2  502    0 -0.15171387193E+02 -0.91394866864E+02  0.10625391151E+04  0.10803502042E+04  0.17200000000E+03 0. -1.
         -6    1    1    2    0  502  0.15171387193E+02  0.91394866864E+02  0.77826081977E+03  0.80240706394E+03  0.17200000000E+03 0.  1.
</event>
<event>
 4    1 -0.7147820E-004  0.1875335E+03  0.7818608E-02  0.1160705E+00
         -5   -1    0    0    0  501 -0.00000000000E+00  0.00000000000E+00  0.51132220811E+02  0.51347775075E+02  0.47000000000E+01 0.  1.
          5   -1    0    0  501    0  0.00000000000E+00 -0.00000000000E+00 -0.85028729982E+03  0.85030028945E+03  0.47000000000E+01 0. -1.
          6    1    1    2  502    0 -0.98315090679E+01 -0.74082058905E+02 -0.59763636928E+03  0.62636893274E+03  0.17200000000E+03 0.  1.
         -6    1    1    2    0  502  0.98315090679E+01  0.74082058905E+02 -0.20151870973E+03  0.27527913178E+03  0.17200000000E+03 0.  1.
</event>
<event>
 4    1 -0.7147820E-004  0.1808038E+03  0.7818608E-02  0.1167027E+00
         -5   -1    0    0    0  501 -0.00000000000E+00  0.00000000000E+00  0.13716323474E+03  0.13724373561E+03  0.47000000000E+01 0.  1.
          5   -1    0    0  501    0  0.00000000000E+00 -0.00000000000E+00 -0.44781543573E+03  0.44784009923E+03  0.47000000000E+01 0. -1.
          6    1    1    2  502    0 -0.35103790710E+02  0.43286618991E+02 -0.35546887768E+03  0.39880838821E+03  0.17200000000E+03 0. -1.
         -6    1    1    2    0  502  0.35103790710E+02 -0.43286618991E+02  0.44816676692E+02  0.18627544663E+03  0.17200000000E+03 0.  1.
</event>
<event>
 4    1 -0.7147820E-004  0.1986748E+03  0.7818608E-02  0.1150862E+00
          5   -1    0    0  501    0  0.00000000000E+00  0.00000000000E+00  0.37327208075E+03  0.37330166925E+03  0.47000000000E+01 0. -1.
         -5   -1    0    0    0  501 -0.00000000000E+00 -0.00000000000E+00 -0.32203269319E+03  0.32206698912E+03  0.47000000000E+01 0.  1.
          6    1    1    2  502    0  0.91681803353E+02  0.38498508730E+02  0.31057094252E+03  0.36868143237E+03  0.17200000000E+03 0. -1.
         -6    1    1    2    0  502 -0.91681803353E+02 -0.38498508730E+02 -0.25933155495E+03  0.32668722601E+03  0.17200000000E+03 0.  1.
</event>
<event>
 4    1 -0.7147820E-004  0.2030465E+03  0.7818608E-02  0.1147194E+00
         -5   -1    0    0    0  501 -0.00000000000E+00  0.00000000000E+00  0.12323902403E+04  0.12323992026E+04  0.47000000000E+01 0.  1.
          5   -1    0    0  501    0  0.00000000000E+00 -0.00000000000E+00 -0.25888490032E+03  0.25892756055E+03  0.47000000000E+01 0. -1.
          6    1    1    2  502    0 -0.20671107532E+02 -0.10590839841E+03 -0.20907301569E+03  0.29144366425E+03  0.17200000000E+03 0. -1.
         -6    1    1    2    0  502  0.20671107532E+02  0.10590839841E+03  0.11825783557E+04  0.11998830989E+04  0.17200000000E+03 0.  1.
</event>
<event>
 4    1 -0.7147820E-004  0.1988488E+03  0.7818608E-02  0.1150714E+00
          5   -1    0    0  501    0  0.00000000000E+00  0.00000000000E+00  0.17805739610E+03  0.17811941586E+03  0.47000000000E+01 0. -1.
         -5   -1    0    0    0  501 -0.00000000000E+00 -0.00000000000E+00 -0.37506589286E+03  0.37509533986E+03  0.47000000000E+01 0.  1.
          6    1    1    2  502    0  0.46553855931E+02 -0.88258625829E+02  0.78210191833E+02  0.21367657953E+03  0.17200000000E+03 0. -1.
         -6    1    1    2    0  502 -0.46553855931E+02  0.88258625829E+02 -0.27521868859E+03  0.33953817618E+03  0.17200000000E+03 0.  1.
</event>
<event>
 4    1 -0.7147820E-004  0.1810084E+03  0.7818608E-02  0.1166831E+00
         -5   -1    0    0    0  501 -0.00000000000E+00  0.00000000000E+00  0.30354735003E+03  0.30358373427E+03  0.47000000000E+01 0.  1.
          5   -1    0    0  501    0  0.00000000000E+00 -0.00000000000E+00 -0.20271414444E+03  0.20276862271E+03  0.47000000000E+01 0. -1.
          6    1    1    2  502    0  0.44746090522E+02 -0.34319470875E+02 -0.12273425550E+03  0.21869553304E+03  0.17200000000E+03 0. -1.
         -6    1    1    2    0  502 -0.44746090522E+02  0.34319470875E+02  0.22356746109E+03  0.28765682394E+03  0.17200000000E+03 0.  1.
</event>
<event>
 4    1 -0.7147820E-004  0.2264269E+03  0.7818608E-02  0.1129180E+00
         -5   -1    0    0    0  501 -0.00000000000E+00  0.00000000000E+00  0.26847961510E+03  0.26852075101E+03  0.47000000000E+01 0.  1.
          5   -1    0    0  501    0  0.00000000000E+00 -0.00000000000E+00 -0.20705209759E+03  0.20710543478E+03  0.47000000000E+01 0. -1.
          6    1    1    2  502    0  0.76860989221E+01  0.14705802072E+03 -0.35741169578E+02  0.22923038363E+03  0.17200000000E+03 0. -1.
         -6    1    1    2    0  502 -0.76860989221E+01 -0.14705802072E+03  0.97168687088E+02  0.24639580217E+03  0.17200000000E+03 0.  1.
</event>
<event>
 4    1 -0.7147820E-004  0.1770025E+03  0.7818608E-02  0.1170736E+00
         -5   -1    0    0    0  501 -0.00000000000E+00  0.00000000000E+00  0.97546463770E+03  0.97547596044E+03  0.47000000000E+01 0.  1.
          5   -1    0    0  501    0  0.00000000000E+00 -0.00000000000E+00 -0.16446742679E+03  0.16453456924E+03  0.47000000000E+01 0. -1.
          6    1    1    2  502    0  0.41729435438E+02  0.21310261773E+01 -0.10584729816E+03  0.20623660583E+03  0.17200000000E+03 0. -1.
         -6    1    1    2    0  502 -0.41729435438E+02 -0.21310261773E+01  0.91684450907E+03  0.93377392385E+03  0.17200000000E+03 0.  1.
</event>
<event>
 4    1 -0.7147820E-004  0.1932362E+03  0.7818608E-02  0.1155574E+00
          5   -1    0    0  501    0  0.00000000000E+00  0.00000000000E+00  0.64432091499E+02  0.64603284861E+02  0.47000000000E+01 0. -1.
         -5   -1    0    0    0  501 -0.00000000000E+00 -0.00000000000E+00 -0.10167255341E+04  0.10167363973E+04  0.47000000000E+01 0.  1.
          6    1    1    2  502    0 -0.68346699461E+01 -0.87803854807E+02 -0.12125138179E+03  0.22812743635E+03  0.17200000000E+03 0. -1.
         -6    1    1    2    0  502  0.68346699461E+01  0.87803854807E+02 -0.83104206080E+03  0.85321224584E+03  0.17200000000E+03 0.  1.
</event>
<event>
 4    1 -0.7147820E-004  0.3574551E+03  0.7818608E-02  0.1059596E+00
          5   -1    0    0  501    0  0.00000000000E+00  0.00000000000E+00  0.90476153298E+03  0.90477374054E+03  0.47000000000E+01 0. -1.
         -5   -1    0    0    0  501 -0.00000000000E+00 -0.00000000000E+00 -0.19235561015E+03  0.19241302127E+03  0.47000000000E+01 0.  1.
          6    1    1    2  502    0 -0.88788025841E+02  0.30051091976E+03  0.63912971762E+03  0.73229838343E+03  0.17200000000E+03 0. -1.
         -6    1    1    2    0  502  0.88788025841E+02 -0.30051091976E+03  0.73276205219E+02  0.36488837838E+03  0.17200000000E+03 0.  1.
</event>
<event>
 4    1 -0.7147820E-004  0.2340251E+03  0.7818608E-02  0.1123838E+00
          5   -1    0    0  501    0  0.00000000000E+00  0.00000000000E+00  0.87455794877E+03  0.87457057792E+03  0.47000000000E+01 0. -1.
         -5   -1    0    0    0  501 -0.00000000000E+00 -0.00000000000E+00 -0.17641955614E+03  0.17648215147E+03  0.47000000000E+01 0.  1.
          6    1    1    2  502    0 -0.88971147523E+02  0.13140730401E+03  0.77116948917E+03  0.80589709372E+03  0.17200000000E+03 0. -1.
         -6    1    1    2    0  502  0.88971147523E+02 -0.13140730401E+03 -0.73031096535E+02  0.24515563567E+03  0.17200000000E+03 0.  1.
</event>
<event>
 4    1 -0.7147820E-004  0.3541582E+03  0.7818608E-02  0.1060921E+00
         -5   -1    0    0    0  501 -0.00000000000E+00  0.00000000000E+00  0.30044547401E+03  0.30048223383E+03  0.47000000000E+01 0.  1.
          5   -1    0    0  501    0  0.00000000000E+00 -0.00000000000E+00 -0.73748933364E+03  0.73750430998E+03  0.47000000000E+01 0. -1.
          6    1    1    2  502    0 -0.20159963840E+03 -0.23495022188E+03 -0.56042572022E+03  0.66295173945E+03  0.17200000000E+03 0. -1.
         -6    1    1    2    0  502  0.20159963840E+03  0.23495022188E+03  0.12338186058E+03  0.37503480436E+03  0.17200000000E+03 0.  1.
</event>
<event>
 4    1 -0.7147820E-004  0.2379225E+03  0.7818608E-02  0.1121185E+00
         -5   -1    0    0    0  501 -0.00000000000E+00  0.00000000000E+00  0.91253598728E+03  0.91254809084E+03  0.47000000000E+01 0.  1.
          5   -1    0    0  501    0  0.00000000000E+00 -0.00000000000E+00 -0.57562662382E+03  0.57564581129E+03  0.47000000000E+01 0. -1.
          6    1    1    2  502    0  0.11648847118E+03  0.11598940839E+03 -0.53440749505E+03  0.58497733080E+03  0.17200000000E+03 0. -1.
         -6    1    1    2    0  502 -0.11648847118E+03 -0.11598940839E+03  0.87131685852E+03  0.90321657132E+03  0.17200000000E+03 0.  1.
</event>
<event>
 4    1 -0.7147820E-004  0.2008488E+03  0.7818608E-02  0.1149025E+00
          5   -1    0    0  501    0  0.00000000000E+00  0.00000000000E+00  0.62984663324E+03  0.62986416901E+03  0.47000000000E+01 0. -1.
         -5   -1    0    0    0  501 -0.00000000000E+00 -0.00000000000E+00 -0.74995538755E+02  0.75142669856E+02  0.47000000000E+01 0.  1.
          6    1    1    2  502    0  0.51613345586E+02 -0.89957294248E+02  0.41259000019E+03  0.45887989768E+03  0.17200000000E+03 0. -1.
         -6    1    1    2    0  502 -0.51613345586E+02  0.89957294248E+02  0.14226109429E+03  0.24612694119E+03  0.17200000000E+03 0.  1.
</event>
<event>
 4    1 -0.7147820E-004  0.2944773E+03  0.7818608E-02  0.1088034E+00
          5   -1    0    0  501    0  0.00000000000E+00  0.00000000000E+00  0.11641008447E+03  0.11650492593E+03  0.47000000000E+01 0. -1.
         -5   -1    0    0    0  501 -0.00000000000E+00 -0.00000000000E+00 -0.28932710708E+04  0.28932748883E+04  0.47000000000E+01 0.  1.
          6    1    1    2  502    0 -0.98393723861E+02  0.21783373046E+03 -0.91563625560E+02  0.30838410554E+03  0.17200000000E+03 0. -1.
         -6    1    1    2    0  502  0.98393723861E+02 -0.21783373046E+03 -0.26852973608E+04  0.27013957087E+04  0.17200000000E+03 0.  1.
</event>
<event>
 4    1 -0.7147820E-004  0.1785783E+03  0.7818608E-02  0.1169186E+00
         -5   -1    0    0    0  501 -0.00000000000E+00  0.00000000000E+00  0.59038513872E+03  0.59040384655E+03  0.47000000000E+01 0.  1.
          5   -1    0    0  501    0  0.00000000000E+00 -0.00000000000E+00 -0.64745624280E+02  0.64915990815E+02  0.47000000000E+01 0. -1.
          6    1    1    2  502    0 -0.17675822306E+01  0.47990439396E+02  0.12889123202E+03  0.22023432138E+03  0.17200000000E+03 0. -1.
         -6    1    1    2    0  502  0.17675822306E+01 -0.47990439396E+02  0.39674828242E+03  0.43508551599E+03  0.17200000000E+03 0.  1.
</event>
<event>
 4    1 -0.7147820E-004  0.2401041E+03  0.7818608E-02  0.1119723E+00
         -5   -1    0    0    0  501 -0.00000000000E+00  0.00000000000E+00  0.29398942594E+03  0.29402699292E+03  0.47000000000E+01 0.  1.
          5   -1    0    0  501    0  0.00000000000E+00 -0.00000000000E+00 -0.64552156051E+03  0.64553867048E+03  0.47000000000E+01 0. -1.
          6    1    1    2  502    0  0.91172220251E+02 -0.14054750474E+03 -0.56776398466E+03  0.61644619969E+03  0.17200000000E+03 0. -1.
         -6    1    1    2    0  502 -0.91172220251E+02  0.14054750474E+03  0.21623185009E+03  0.32311946371E+03  0.17200000000E+03 0.  1.
</event>
<event>
 4    1 -0.7147820E-004  0.2412766E+03  0.7818608E-02  0.1118945E+00
         -5   -1    0    0    0  501 -0.00000000000E+00  0.00000000000E+00  0.34884011504E+03  0.34887177567E+03  0.47000000000E+01 0.  1.
          5   -1    0    0  501    0  0.00000000000E+00 -0.00000000000E+00 -0.61477892869E+03  0.61479689424E+03  0.47000000000E+01 0. -1.
          6    1    1    2  502    0  0.15574409982E+03 -0.66137405005E+02 -0.54424919590E+03  0.59533315732E+03  0.17200000000E+03 0. -1.
         -6    1    1    2    0  502 -0.15574409982E+03  0.66137405005E+02  0.27831038224E+03  0.36833551259E+03  0.17200000000E+03 0.  1.
</event>
<event>
 4    1 -0.7147820E-004  0.1805281E+03  0.7818608E-02  0.1167293E+00
          5   -1    0    0  501    0  0.00000000000E+00  0.00000000000E+00  0.31885733963E+03  0.31889197707E+03  0.47000000000E+01 0. -1.
         -5   -1    0    0    0  501 -0.00000000000E+00 -0.00000000000E+00 -0.19048821002E+03  0.19054618379E+03  0.47000000000E+01 0.  1.
          6    1    1    2  502    0 -0.54580149427E+02  0.52331442389E+01  0.23762565591E+03  0.29842307360E+03  0.17200000000E+03 0. -1.
         -6    1    1    2    0  502  0.54580149427E+02 -0.52331442389E+01 -0.10925652630E+03  0.21101508726E+03  0.17200000000E+03 0.  1.
</event>
<event>
 4    1 -0.7147820E-004  0.2174749E+03  0.7818608E-02  0.1135780E+00
         -5   -1    0    0    0  501 -0.00000000000E+00  0.00000000000E+00  0.13166341221E+04  0.13166425109E+04  0.47000000000E+01 0.  1.
          5   -1    0    0  501    0  0.00000000000E+00 -0.00000000000E+00 -0.35759644491E+02  0.36067189718E+02  0.47000000000E+01 0. -1.
          6    1    1    2  502    0 -0.44591953128E+02 -0.12539086666E+03  0.63780756405E+03  0.67386482360E+03  0.17200000000E+03 0. -1.
         -6    1    1    2    0  502  0.44591953128E+02  0.12539086666E+03  0.64306691358E+03  0.67884487703E+03  0.17200000000E+03 0.  1.
</event>
<event>
 4    1 -0.7147820E-004  0.1806051E+03  0.7818608E-02  0.1167219E+00
         -5   -1    0    0    0  501 -0.00000000000E+00  0.00000000000E+00  0.20685629284E+04  0.20685682679E+04  0.47000000000E+01 0.  1.
          5   -1    0    0  501    0  0.00000000000E+00 -0.00000000000E+00 -0.59201881997E+02  0.59388153970E+02  0.47000000000E+01 0. -1.
          6    1    1    2  502    0 -0.10932305103E+02 -0.53987701688E+02  0.93073521132E+02  0.20317693660E+03  0.17200000000E+03 0. -1.
         -6    1    1    2    0  502  0.10932305103E+02  0.53987701688E+02  0.19162875253E+04  0.19247794852E+04  0.17200000000E+03 0.  1.
</event>
<event>
 4    1 -0.7147820E-004  0.2064758E+03  0.7818608E-02  0.1144388E+00
          5   -1    0    0  501    0  0.00000000000E+00  0.00000000000E+00  0.59231745119E+03  0.59233609799E+03  0.47000000000E+01 0. -1.
         -5   -1    0    0    0  501 -0.00000000000E+00 -0.00000000000E+00 -0.15873038253E+03  0.15879995069E+03  0.47000000000E+01 0.  1.
          6    1    1    2  502    0 -0.18796411197E+01  0.11421354713E+03  0.49448933722E+03  0.53586562870E+03  0.17200000000E+03 0. -1.
         -6    1    1    2    0  502  0.18796411197E+01 -0.11421354713E+03 -0.60902268570E+02  0.21527041998E+03  0.17200000000E+03 0.  1.
</event>
<event>
 4    1 -0.7147820E-004  0.1816952E+03  0.7818608E-02  0.1166172E+00
          5   -1    0    0  501    0  0.00000000000E+00  0.00000000000E+00  0.12352534839E+04  0.12352624254E+04  0.47000000000E+01 0. -1.
         -5   -1    0    0    0  501 -0.00000000000E+00 -0.00000000000E+00 -0.21948598110E+03  0.21953629746E+03  0.47000000000E+01 0.  1.
          6    1    1    2  502    0 -0.43301270714E+02 -0.39422857976E+02  0.11895675128E+04  0.12033636313E+04  0.17200000000E+03 0. -1.
         -6    1    1    2    0  502  0.43301270714E+02  0.39422857976E+02 -0.17380000995E+03  0.25143509150E+03  0.17200000000E+03 0.  1.
</event>
<event>
 4    1 -0.7147820E-004  0.1971164E+03  0.7818608E-02  0.1152195E+00
          5   -1    0    0  501    0  0.00000000000E+00  0.00000000000E+00  0.15209502824E+03  0.15216762999E+03  0.47000000000E+01 0. -1.
         -5   -1    0    0    0  501 -0.00000000000E+00 -0.00000000000E+00 -0.19097516421E+04  0.19097574256E+04  0.47000000000E+01 0.  1.
          6    1    1    2  502    0 -0.61006325794E+02  0.74492416395E+02  0.80725202105E+02  0.21300575143E+03  0.17200000000E+03 0. -1.
         -6    1    1    2    0  502  0.61006325794E+02 -0.74492416395E+02 -0.18383818160E+04  0.18489193041E+04  0.17200000000E+03 0.  1.
</event>
<event>
 4    1 -0.7147820E-004  0.3491094E+03  0.7818608E-02  0.1062981E+00
          5   -1    0    0  501    0  0.00000000000E+00  0.00000000000E+00  0.55083212752E+03  0.55085217863E+03  0.47000000000E+01 0. -1.
         -5   -1    0    0    0  501 -0.00000000000E+00 -0.00000000000E+00 -0.29337475650E+03  0.29341240218E+03  0.47000000000E+01 0.  1.
          6    1    1    2  502    0  0.29796863465E+03  0.59229203364E+02  0.33806668291E+03  0.48596963677E+03  0.17200000000E+03 0. -1.
         -6    1    1    2    0  502 -0.29796863465E+03 -0.59229203364E+02 -0.80609311889E+02  0.35829494405E+03  0.17200000000E+03 0.  1.
</event>
<event>
 4    1 -0.7147820E-004  0.2582311E+03  0.7818608E-02  0.1108211E+00
         -5   -1    0    0    0  501 -0.00000000000E+00  0.00000000000E+00  0.65849518626E+03  0.65851195914E+03  0.47000000000E+01 0.  1.
          5   -1    0    0  501    0  0.00000000000E+00 -0.00000000000E+00 -0.72809636255E+03  0.72811153208E+03  0.47000000000E+01 0. -1.
          6    1    1    2  502    0  0.13973003185E+03  0.13257011571E+03 -0.67809634095E+03  0.72560179506E+03  0.17200000000E+03 0. -1.
         -6    1    1    2    0  502 -0.13973003185E+03 -0.13257011571E+03  0.60849516466E+03  0.66102169616E+03  0.17200000000E+03 0.  1.
</event>
<event>
 4    1 -0.7147820E-004  0.1800886E+03  0.7818608E-02  0.1167717E+00
          5   -1    0    0  501    0  0.00000000000E+00  0.00000000000E+00  0.18756834875E+03  0.18762722472E+03  0.47000000000E+01 0. -1.
         -5   -1    0    0    0  501 -0.00000000000E+00 -0.00000000000E+00 -0.22633446079E+03  0.22638325500E+03  0.47000000000E+01 0.  1.
          6    1    1    2  502    0  0.34263607814E+02 -0.40913641901E+02  0.81276679990E+02  0.19757990693E+03  0.17200000000E+03 0. -1.
         -6    1    1    2    0  502 -0.34263607814E+02  0.40913641901E+02 -0.12004279203E+03  0.21643057278E+03  0.17200000000E+03 0.  1.
</event>
<event>
 4    1 -0.7147820E-004  0.1746785E+03  0.7818608E-02  0.1173055E+00
          5   -1    0    0  501    0  0.00000000000E+00  0.00000000000E+00  0.14646904854E+03  0.14654443756E+03  0.47000000000E+01 0. -1.
         -5   -1    0    0    0  501 -0.00000000000E+00 -0.00000000000E+00 -0.23309975556E+03  0.23314713389E+03  0.47000000000E+01 0.  1.
          6    1    1    2  502    0 -0.24845531048E+02  0.17643089145E+02 -0.10538959419E+03  0.20400868994E+03  0.17200000000E+03 0.  1.
         -6    1    1    2    0  502  0.24845531048E+02 -0.17643089145E+02  0.18758887164E+02  0.17568288151E+03  0.17200000000E+03 0. -1.
</event>
<event>
 4    1 -0.7147820E-004  0.2827062E+03  0.7818608E-02  0.1094220E+00
          5   -1    0    0  501    0  0.00000000000E+00  0.00000000000E+00  0.27762095230E+03  0.27766073391E+03  0.47000000000E+01 0. -1.
         -5   -1    0    0    0  501 -0.00000000000E+00 -0.00000000000E+00 -0.18327042842E+04  0.18327103108E+04  0.47000000000E+01 0.  1.
          6    1    1    2  502    0 -0.21366692697E+03 -0.68448911035E+02  0.19123877323E+03  0.34131375227E+03  0.17200000000E+03 0. -1.
         -6    1    1    2    0  502  0.21366692697E+03  0.68448911035E+02 -0.17463221051E+04  0.17690572924E+04  0.17200000000E+03 0.  1.
</event>
<event>
 4    1 -0.7147820E-004  0.2524801E+03  0.7818608E-02  0.1111747E+00
         -5   -1    0    0    0  501 -0.00000000000E+00  0.00000000000E+00  0.10910761022E+03  0.10920879364E+03  0.47000000000E+01 0.  1.
          5   -1    0    0  501    0  0.00000000000E+00 -0.00000000000E+00 -0.62168310948E+03  0.62170087551E+03  0.47000000000E+01 0. -1.
          6    1    1    2  502    0 -0.18350936559E+03 -0.22057023666E+02 -0.34641014263E+03  0.42865625677E+03  0.17200000000E+03 0. -1.
         -6    1    1    2    0  502  0.18350936559E+03  0.22057023666E+02 -0.16616535662E+03  0.30225341238E+03  0.17200000000E+03 0.  1.
</event>
<event>
 4    1 -0.7147820E-004  0.2454507E+03  0.7818608E-02  0.1116214E+00
          5   -1    0    0  501    0  0.00000000000E+00  0.00000000000E+00  0.19493135037E+04  0.19493191698E+04  0.47000000000E+01 0. -1.
         -5   -1    0    0    0  501 -0.00000000000E+00 -0.00000000000E+00 -0.22312234884E+03  0.22317184534E+03  0.47000000000E+01 0.  1.
          6    1    1    2  502    0 -0.13079817536E+03  0.11642107541E+03  0.18713174417E+04  0.18873460194E+04  0.17200000000E+03 0. -1.
         -6    1    1    2    0  502  0.13079817536E+03 -0.11642107541E+03 -0.14512628680E+03  0.28514499574E+03  0.17200000000E+03 0.  1.
</event>
<event>
 4    1 -0.7147820E-004  0.2840716E+03  0.7818608E-02  0.1093486E+00
          5   -1    0    0  501    0  0.00000000000E+00  0.00000000000E+00  0.73244693710E+03  0.73246201653E+03  0.47000000000E+01 0. -1.
         -5   -1    0    0    0  501 -0.00000000000E+00 -0.00000000000E+00 -0.16130755893E+03  0.16137601609E+03  0.47000000000E+01 0.  1.
          6    1    1    2  502    0 -0.21755670163E+03  0.61495930378E+02  0.53728050814E+03  0.60775571762E+03  0.17200000000E+03 0. -1.
         -6    1    1    2    0  502  0.21755670163E+03 -0.61495930378E+02  0.33858870024E+02  0.28608231500E+03  0.17200000000E+03 0.  1.
</event>
<event>
 4    1 -0.7147820E-004  0.1974948E+03  0.7818608E-02  0.1151870E+00
          5   -1    0    0  501    0  0.00000000000E+00  0.00000000000E+00  0.65220711653E+03  0.65222405112E+03  0.47000000000E+01 0. -1.
         -5   -1    0    0    0  501 -0.00000000000E+00 -0.00000000000E+00 -0.11479786709E+03  0.11489403940E+03  0.47000000000E+01 0.  1.
          6    1    1    2  502    0  0.91868538083E+02 -0.31310563294E+02  0.53426400828E+03  0.56959828846E+03  0.17200000000E+03 0. -1.
         -6    1    1    2    0  502 -0.91868538083E+02  0.31310563294E+02  0.31452411512E+01  0.19751980206E+03  0.17200000000E+03 0.  1.
</event>
<event>
 4    1 -0.7147820E-004  0.6997346E+03  0.7818608E-02  0.9717686E-01
          5   -1    0    0  501    0  0.00000000000E+00  0.00000000000E+00  0.14531272599E+04  0.14531348608E+04  0.47000000000E+01 0. -1.
         -5   -1    0    0    0  501 -0.00000000000E+00 -0.00000000000E+00 -0.49590817394E+03  0.49593044571E+03  0.47000000000E+01 0.  1.
          6    1    1    2  502    0  0.23202207971E+03 -0.63734627935E+03  0.10303798564E+04  0.12455164286E+04  0.17200000000E+03 0. -1.
         -6    1    1    2    0  502 -0.23202207971E+03  0.63734627935E+03 -0.73160770445E+02  0.70354887791E+03  0.17200000000E+03 0.  1.
</event>
<event>
 4    1 -0.7147820E-004  0.1937400E+03  0.7818608E-02  0.1155131E+00
         -5   -1    0    0    0  501 -0.00000000000E+00  0.00000000000E+00  0.71373771697E+03  0.71375319168E+03  0.47000000000E+01 0.  1.
          5   -1    0    0  501    0  0.00000000000E+00 -0.00000000000E+00 -0.74422013142E+03  0.74423497231E+03  0.47000000000E+01 0. -1.
          6    1    1    2  502    0  0.67373430464E+02  0.58412405240E+02 -0.71800771837E+03  0.74368694479E+03  0.17200000000E+03 0. -1.
         -6    1    1    2    0  502 -0.67373430464E+02 -0.58412405240E+02  0.68752530392E+03  0.71430121920E+03  0.17200000000E+03 0.  1.
</event>
<event>
 4    1 -0.7147820E-004  0.1794708E+03  0.7818608E-02  0.1168316E+00
         -5   -1    0    0    0  501 -0.00000000000E+00  0.00000000000E+00  0.11360199320E+03  0.11369917703E+03  0.47000000000E+01 0.  1.
          5   -1    0    0  501    0  0.00000000000E+00 -0.00000000000E+00 -0.66795173166E+03  0.66796826708E+03  0.47000000000E+01 0. -1.
          6    1    1    2  502    0  0.49230594886E+01  0.51005152563E+02 -0.57373737421E+03  0.60115250699E+03  0.17200000000E+03 0. -1.
         -6    1    1    2    0  502 -0.49230594886E+01 -0.51005152563E+02  0.19387635746E+02  0.18051493712E+03  0.17200000000E+03 0.  1.
</event>
<event>
 4    1 -0.7147820E-004  0.2228081E+03  0.7818608E-02  0.1131807E+00
          5   -1    0    0  501    0  0.00000000000E+00  0.00000000000E+00  0.46928221467E+03  0.46930575002E+03  0.47000000000E+01 0. -1.
         -5   -1    0    0    0  501 -0.00000000000E+00 -0.00000000000E+00 -0.19846783832E+03  0.19852348185E+03  0.47000000000E+01 0.  1.
          6    1    1    2  502    0 -0.42155887932E+02 -0.13521211550E+03  0.36362958743E+03  0.42646208732E+03  0.17200000000E+03 0. -1.
         -6    1    1    2    0  502  0.42155887932E+02  0.13521211550E+03 -0.92815211076E+02  0.24136714456E+03  0.17200000000E+03 0.  1.
</event>
<event>
 4    1 -0.7147820E-004  0.1881412E+03  0.7818608E-02  0.1160149E+00
          5   -1    0    0  501    0  0.00000000000E+00  0.00000000000E+00  0.96990412367E+02  0.97104222828E+02  0.47000000000E+01 0. -1.
         -5   -1    0    0    0  501 -0.00000000000E+00 -0.00000000000E+00 -0.67102772701E+03  0.67104418664E+03  0.47000000000E+01 0.  1.
          6    1    1    2  502    0  0.75997375367E+02  0.61236703369E+01 -0.27507358541E+02  0.19014140836E+03  0.17200000000E+03 0. -1.
         -6    1    1    2    0  502 -0.75997375367E+02 -0.61236703369E+01 -0.54652995610E+03  0.57800700110E+03  0.17200000000E+03 0.  1.
</event>
<event>
 4    1 -0.7147820E-004  0.2197058E+03  0.7818608E-02  0.1134103E+00
          5   -1    0    0  501    0  0.00000000000E+00  0.00000000000E+00  0.12865696817E+03  0.12874278798E+03  0.47000000000E+01 0. -1.
         -5   -1    0    0    0  501 -0.00000000000E+00 -0.00000000000E+00 -0.90972460094E+03  0.90973674190E+03  0.47000000000E+01 0.  1.
          6    1    1    2  502    0  0.10272989739E+03 -0.90184376249E+02  0.75436269138E+01  0.21983530163E+03  0.17200000000E+03 0. -1.
         -6    1    1    2    0  502 -0.10272989739E+03  0.90184376249E+02 -0.78861125969E+03  0.81864422825E+03  0.17200000000E+03 0.  1.
</event>
<event>
 4    1 -0.7147820E-004  0.2231518E+03  0.7818608E-02  0.1131555E+00
          5   -1    0    0  501    0  0.00000000000E+00  0.00000000000E+00  0.60095627873E+03  0.60097465749E+03  0.47000000000E+01 0. -1.
         -5   -1    0    0    0  501 -0.00000000000E+00 -0.00000000000E+00 -0.30827175786E+03  0.30830758455E+03  0.47000000000E+01 0.  1.
          6    1    1    2  502    0 -0.62770758574E+02  0.12756396500E+03  0.53511727471E+03  0.57978205473E+03  0.17200000000E+03 0. -1.
         -6    1    1    2    0  502  0.62770758574E+02 -0.12756396500E+03 -0.24243275384E+03  0.32950018730E+03  0.17200000000E+03 0. -1.
</event>
<event>
 4    1 -0.7147820E-004  0.1763072E+03  0.7818608E-02  0.1171426E+00
          5   -1    0    0  501    0  0.00000000000E+00  0.00000000000E+00  0.16621579817E+04  0.16621646266E+04  0.47000000000E+01 0. -1.
         -5   -1    0    0    0  501 -0.00000000000E+00 -0.00000000000E+00 -0.65371343184E+02  0.65540083229E+02  0.47000000000E+01 0.  1.
          6    1    1    2  502    0  0.35418669308E+02  0.15675775513E+02  0.15285009441E+04  0.15386355476E+04  0.17200000000E+03 0. -1.
         -6    1    1    2    0  502 -0.35418669308E+02 -0.15675775513E+02  0.68285694364E+02  0.18906916229E+03  0.17200000000E+03 0.  1.
</event>
<event>
 4    1 -0.7147820E-004  0.2375480E+03  0.7818608E-02  0.1121437E+00
          5   -1    0    0  501    0  0.00000000000E+00  0.00000000000E+00  0.29052864641E+03  0.29056666083E+03  0.47000000000E+01 0. -1.
         -5   -1    0    0    0  501 -0.00000000000E+00 -0.00000000000E+00 -0.32256567978E+03  0.32259991905E+03  0.47000000000E+01 0.  1.
          6    1    1    2  502    0 -0.14427617505E+02 -0.16320815686E+03  0.17739758237E+03  0.29647758911E+03  0.17200000000E+03 0. -1.
         -6    1    1    2    0  502  0.14427617505E+02  0.16320815686E+03 -0.20943461574E+03  0.31668899078E+03  0.17200000000E+03 0.  1.
</event>
<event>
 4    1 -0.7147820E-004  0.4053774E+03  0.7818608E-02  0.1041933E+00
          5   -1    0    0  501    0  0.00000000000E+00  0.00000000000E+00  0.40489554397E+03  0.40492282169E+03  0.47000000000E+01 0. -1.
         -5   -1    0    0    0  501 -0.00000000000E+00 -0.00000000000E+00 -0.78146045962E+03  0.78147459329E+03  0.47000000000E+01 0.  1.
          6    1    1    2  502    0  0.36526388319E+03 -0.36457462262E+02  0.22298849911E+03  0.46266048205E+03  0.17200000000E+03 0. -1.
         -6    1    1    2    0  502 -0.36526388319E+03  0.36457462262E+02 -0.59955341477E+03  0.72373693292E+03  0.17200000000E+03 0.  1.
</event>
<event>
 4    1 -0.7147820E-004  0.1966853E+03  0.7818608E-02  0.1152566E+00
         -5   -1    0    0    0  501 -0.00000000000E+00  0.00000000000E+00  0.10046308109E+03  0.10057296189E+03  0.47000000000E+01 0.  1.
          5   -1    0    0  501    0  0.00000000000E+00 -0.00000000000E+00 -0.53817130092E+03  0.53819182373E+03  0.47000000000E+01 0. -1.
          6    1    1    2  502    0  0.97923522953E+01  0.94895916362E+02 -0.38936919694E+03  0.43622642817E+03  0.17200000000E+03 0. -1.
         -6    1    1    2    0  502 -0.97923522953E+01 -0.94895916362E+02 -0.48339022887E+02  0.20253835745E+03  0.17200000000E+03 0.  1.
</event>
<event>
 4    1 -0.7147820E-004  0.2145213E+03  0.7818608E-02  0.1138035E+00
          5   -1    0    0  501    0  0.00000000000E+00  0.00000000000E+00  0.39969400483E+03  0.39972163752E+03  0.47000000000E+01 0. -1.
         -5   -1    0    0    0  501 -0.00000000000E+00 -0.00000000000E+00 -0.12271911350E+03  0.12280908280E+03  0.47000000000E+01 0.  1.
          6    1    1    2  502    0 -0.10760575894E+03 -0.69687793118E+02  0.20373856518E+03  0.29585265050E+03  0.17200000000E+03 0. -1.
         -6    1    1    2    0  502  0.10760575894E+03  0.69687793118E+02  0.73236326155E+02  0.22667806981E+03  0.17200000000E+03 0.  1.
</event>
<event>
 4    1 -0.7147820E-004  0.2026739E+03  0.7818608E-02  0.1147502E+00
         -5   -1    0    0    0  501 -0.00000000000E+00  0.00000000000E+00  0.79462258928E+03  0.79463648884E+03  0.47000000000E+01 0.  1.
          5   -1    0    0  501    0  0.00000000000E+00 -0.00000000000E+00 -0.21330530000E+03  0.21335707396E+03  0.47000000000E+01 0. -1.
          6    1    1    2  502    0  0.38946927629E+02  0.99879086257E+02 -0.14805106803E+03  0.25098966869E+03  0.17200000000E+03 0. -1.
         -6    1    1    2    0  502 -0.38946927629E+02 -0.99879086257E+02  0.72936835732E+03  0.75700389411E+03  0.17200000000E+03 0.  1.
</event>
<event>
 4    1 -0.7147820E-004  0.2281465E+03  0.7818608E-02  0.1127951E+00
          5   -1    0    0  501    0  0.00000000000E+00  0.00000000000E+00  0.10458358407E+04  0.10458464016E+04  0.47000000000E+01 0. -1.
         -5   -1    0    0    0  501 -0.00000000000E+00 -0.00000000000E+00 -0.33514859522E+03  0.33518154913E+03  0.47000000000E+01 0.  1.
          6    1    1    2  502    0 -0.14982784945E+03  0.42936147425E+01  0.99253226794E+03  0.10184159870E+04  0.17200000000E+03 0. -1.
         -6    1    1    2    0  502  0.14982784945E+03 -0.42936147425E+01 -0.28184502243E+03  0.36261196377E+03  0.17200000000E+03 0.  1.
</event>
<event>
 4    1 -0.7147820E-004  0.3524460E+03  0.7818608E-02  0.1061616E+00
          5   -1    0    0  501    0  0.00000000000E+00  0.00000000000E+00  0.17530443744E+03  0.17536743080E+03  0.47000000000E+01 0. -1.
         -5   -1    0    0    0  501 -0.00000000000E+00 -0.00000000000E+00 -0.14367923518E+04  0.14368000390E+04  0.47000000000E+01 0.  1.
          6    1    1    2  502    0 -0.15200962022E+03 -0.26744584569E+03 -0.56814818536E+02  0.35699597844E+03  0.17200000000E+03 0. -1.
         -6    1    1    2    0  502  0.15200962022E+03  0.26744584569E+03 -0.12046730958E+04  0.12551714914E+04  0.17200000000E+03 0.  1.
</event>
<event>
 4    1 -0.7147820E-004  0.1824486E+03  0.7818608E-02  0.1165454E+00
          5   -1    0    0  501    0  0.00000000000E+00  0.00000000000E+00  0.15067644630E+03  0.15074973124E+03  0.47000000000E+01 0. -1.
         -5   -1    0    0    0  501 -0.00000000000E+00 -0.00000000000E+00 -0.90267379283E+03  0.90268602862E+03  0.47000000000E+01 0.  1.
          6    1    1    2  502    0  0.32656227796E+02  0.51352405149E+02  0.81773718590E+02  0.19993608924E+03  0.17200000000E+03 0. -1.
         -6    1    1    2    0  502 -0.32656227796E+02 -0.51352405149E+02 -0.83377106512E+03  0.85349967063E+03  0.17200000000E+03 0.  1.
</event>
<event>
 4    1 -0.7147820E-004  0.4291359E+03  0.7818608E-02  0.1034133E+00
          5   -1    0    0  501    0  0.00000000000E+00  0.00000000000E+00  0.12486695779E+04  0.12486784233E+04  0.47000000000E+01 0. -1.
         -5   -1    0    0    0  501 -0.00000000000E+00 -0.00000000000E+00 -0.61288538957E+03  0.61290341062E+03  0.47000000000E+01 0.  1.
          6    1    1    2  502    0 -0.39315837626E+03 -0.37583140669E+00  0.11290007058E+04  0.12078080326E+04  0.17200000000E+03 0. -1.
         -6    1    1    2    0  502  0.39315837626E+03  0.37583140669E+00 -0.49321651747E+03  0.65377380123E+03  0.17200000000E+03 0.  1.
</event>
<event>
 4    1 -0.7147820E-004  0.2077451E+03  0.7818608E-02  0.1143364E+00
          5   -1    0    0  501    0  0.00000000000E+00  0.00000000000E+00  0.16957580284E+03  0.16964092345E+03  0.47000000000E+01 0. -1.
         -5   -1    0    0    0  501 -0.00000000000E+00 -0.00000000000E+00 -0.68147470661E+03  0.68149091391E+03  0.47000000000E+01 0.  1.
          6    1    1    2  502    0  0.56855747879E+02 -0.10169293605E+03  0.80933342914E+02  0.22295343753E+03  0.17200000000E+03 0. -1.
         -6    1    1    2    0  502 -0.56855747879E+02  0.10169293605E+03 -0.59283224668E+03  0.62817839983E+03  0.17200000000E+03 0.  1.
</event>
<event>
 4    1 -0.7147820E-004  0.1875912E+03  0.7818608E-02  0.1160652E+00
         -5   -1    0    0    0  501 -0.00000000000E+00  0.00000000000E+00  0.24585958705E+03  0.24590450696E+03  0.47000000000E+01 0.  1.
          5   -1    0    0  501    0  0.00000000000E+00 -0.00000000000E+00 -0.51275720632E+03  0.51277874628E+03  0.47000000000E+01 0. -1.
          6    1    1    2  502    0 -0.92601291839E+01 -0.74301565316E+02 -0.45553490936E+03  0.49264848142E+03  0.17200000000E+03 0. -1.
         -6    1    1    2    0  502  0.92601291839E+01  0.74301565316E+02  0.18863729009E+03  0.26603477181E+03  0.17200000000E+03 0.  1.
</event>
<event>
 4    1 -0.7147820E-004  0.3871200E+03  0.7818608E-02  0.1048333E+00
         -5   -1    0    0    0  501 -0.00000000000E+00  0.00000000000E+00  0.73148093821E+03  0.73149603756E+03  0.47000000000E+01 0.  1.
          5   -1    0    0  501    0  0.00000000000E+00 -0.00000000000E+00 -0.23573561261E+03  0.23578246129E+03  0.47000000000E+01 0. -1.
          6    1    1    2  502    0  0.27367117366E+03  0.21303050656E+03  0.72781639011E+02  0.39390236734E+03  0.17200000000E+03 0. -1.
         -6    1    1    2    0  502 -0.27367117366E+03 -0.21303050656E+03  0.42296368659E+03  0.57337613151E+03  0.17200000000E+03 0.  1.
</event>
<event>
 4    1 -0.7147820E-004  0.1760185E+03  0.7818608E-02  0.1171713E+00
         -5   -1    0    0    0  501 -0.00000000000E+00  0.00000000000E+00  0.36674276891E+02  0.36974215144E+02  0.47000000000E+01 0.  1.
          5   -1    0    0  501    0  0.00000000000E+00 -0.00000000000E+00 -0.92430907802E+03  0.92432102740E+03  0.47000000000E+01 0. -1.
          6    1    1    2  502    0  0.37210885121E+02 -0.37231525622E+01 -0.58804453706E+03  0.61382317438E+03  0.17200000000E+03 0. -1.
         -6    1    1    2    0  502 -0.37210885121E+02  0.37231525622E+01 -0.29959026406E+03  0.34747206817E+03  0.17200000000E+03 0.  1.
</event>
<event>
 4    1 -0.7147820E-004  0.2286152E+03  0.7818608E-02  0.1127618E+00
         -5   -1    0    0    0  501 -0.00000000000E+00  0.00000000000E+00  0.24152118032E+03  0.24156690697E+03  0.47000000000E+01 0.  1.
          5   -1    0    0  501    0  0.00000000000E+00 -0.00000000000E+00 -0.47927039345E+03  0.47929343834E+03  0.47000000000E+01 0. -1.
          6    1    1    2  502    0  0.15020575291E+03 -0.10915038192E+02 -0.38583134652E+03  0.44847601299E+03  0.17200000000E+03 0. -1.
         -6    1    1    2    0  502 -0.15020575291E+03  0.10915038192E+02  0.14808213339E+03  0.27238433232E+03  0.17200000000E+03 0.  1.
</event>
<event>
 4    1 -0.7147820E-004  0.1755142E+03  0.7818608E-02  0.1172216E+00
         -5   -1    0    0    0  501 -0.00000000000E+00  0.00000000000E+00  0.15093207449E+04  0.15093280628E+04  0.47000000000E+01 0.  1.
          5   -1    0    0  501    0  0.00000000000E+00 -0.00000000000E+00 -0.29293443585E+02  0.29668094598E+02  0.47000000000E+01 0. -1.
          6    1    1    2  502    0 -0.20194880679E+02 -0.28520241877E+02  0.31305817808E+03  0.35890202043E+03  0.17200000000E+03 0. -1.
         -6    1    1    2    0  502  0.20194880679E+02  0.28520241877E+02  0.11669691233E+04  0.11800941370E+04  0.17200000000E+03 0.  1.
</event>
<event>
 4    1 -0.7147820E-004  0.2582443E+03  0.7818608E-02  0.1108203E+00
          5   -1    0    0  501    0  0.00000000000E+00  0.00000000000E+00  0.25399744682E+04  0.25399788167E+04  0.47000000000E+01 0. -1.
         -5   -1    0    0    0  501 -0.00000000000E+00 -0.00000000000E+00 -0.71189101450E+02  0.71344082903E+02  0.47000000000E+01 0.  1.
          6    1    1    2  502    0  0.55731325436E+02  0.18439127535E+03  0.22720447004E+04  0.22866738385E+04  0.17200000000E+03 0. -1.
         -6    1    1    2    0  502 -0.55731325436E+02 -0.18439127535E+03  0.19674066636E+03  0.32464906108E+03  0.17200000000E+03 0.  1.
</event>
<event>
 4    1 -0.7147820E-004  0.2026261E+03  0.7818608E-02  0.1147542E+00
         -5   -1    0    0    0  501 -0.00000000000E+00  0.00000000000E+00  0.53418280457E+03  0.53420348061E+03  0.47000000000E+01 0.  1.
          5   -1    0    0  501    0  0.00000000000E+00 -0.00000000000E+00 -0.11470475384E+03  0.11480100415E+03  0.47000000000E+01 0. -1.
          6    1    1    2  502    0  0.88573581495E+02  0.60233483151E+02  0.23229119350E+02  0.20395328832E+03  0.17200000000E+03 0. -1.
         -6    1    1    2    0  502 -0.88573581495E+02 -0.60233483151E+02  0.39624893138E+03  0.44505119644E+03  0.17200000000E+03 0.  1.
</event>
<event>
 4    1 -0.7147820E-004  0.2182810E+03  0.7818608E-02  0.1135171E+00
          5   -1    0    0  501    0  0.00000000000E+00  0.00000000000E+00  0.46907690446E+03  0.46910045011E+03  0.47000000000E+01 0. -1.
         -5   -1    0    0    0  501 -0.00000000000E+00 -0.00000000000E+00 -0.15670997987E+03  0.15678044455E+03  0.47000000000E+01 0.  1.
          6    1    1    2  502    0 -0.10471632970E+03 -0.84244137019E+02  0.34187244372E+03  0.40561478290E+03  0.17200000000E+03 0. -1.
         -6    1    1    2    0  502  0.10471632970E+03  0.84244137019E+02 -0.29505519140E+02  0.22026611176E+03  0.17200000000E+03 0.  1.
</event>
<event>
 4    1 -0.7147820E-004  0.1939248E+03  0.7818608E-02  0.1154968E+00
          5   -1    0    0  501    0  0.00000000000E+00  0.00000000000E+00  0.39881301104E+03  0.39884070477E+03  0.47000000000E+01 0. -1.
         -5   -1    0    0    0  501 -0.00000000000E+00 -0.00000000000E+00 -0.17096366951E+03  0.17102826168E+03  0.47000000000E+01 0.  1.
          6    1    1    2  502    0  0.84390833140E+02  0.30016776398E+02  0.30477797676E+03  0.36124290263E+03  0.17200000000E+03 0. -1.
         -6    1    1    2    0  502 -0.84390833140E+02 -0.30016776398E+02 -0.76928635233E+02  0.20862606381E+03  0.17200000000E+03 0.  1.
</event>
<event>
 4    1 -0.7147820E-004  0.4591878E+03  0.7818608E-02  0.1025017E+00
          5   -1    0    0  501    0  0.00000000000E+00  0.00000000000E+00  0.63749143838E+03  0.63750876387E+03  0.47000000000E+01 0. -1.
         -5   -1    0    0    0  501 -0.00000000000E+00 -0.00000000000E+00 -0.42941763675E+03  0.42944335686E+03  0.47000000000E+01 0.  1.
          6    1    1    2  502    0  0.37628221985E+03 -0.19920114028E+03  0.35978515247E+03  0.58335131713E+03  0.17200000000E+03 0. -1.
         -6    1    1    2    0  502 -0.37628221985E+03  0.19920114028E+03 -0.15171135084E+03  0.48360080359E+03  0.17200000000E+03 0.  1.
</event>
<event>
 4    1 -0.7147820E-004  0.1833823E+03  0.7818608E-02  0.1164569E+00
          5   -1    0    0  501    0  0.00000000000E+00  0.00000000000E+00  0.25594535272E+03  0.25598850283E+03  0.47000000000E+01 0. -1.
         -5   -1    0    0    0  501 -0.00000000000E+00 -0.00000000000E+00 -0.13897258748E+03  0.13905204088E+03  0.47000000000E+01 0.  1.
          6    1    1    2  502    0  0.16262537292E+02 -0.61486553176E+02  0.10489039583E+03  0.21126064820E+03  0.17200000000E+03 0. -1.
         -6    1    1    2    0  502 -0.16262537292E+02  0.61486553176E+02  0.12082369411E+02  0.18377989550E+03  0.17200000000E+03 0.  1.
</event>
<event>
 4    1 -0.7147820E-004  0.1736819E+03  0.7818608E-02  0.1174062E+00
          5   -1    0    0  501    0  0.00000000000E+00  0.00000000000E+00  0.16417559340E+03  0.16424285515E+03  0.47000000000E+01 0. -1.
         -5   -1    0    0    0  501 -0.00000000000E+00 -0.00000000000E+00 -0.83131680281E+03  0.83133008885E+03  0.47000000000E+01 0.  1.
          6    1    1    2  502    0 -0.22473610382E+02  0.87374080580E+01  0.10579291133E+03  0.20336554662E+03  0.17200000000E+03 0. -1.
         -6    1    1    2    0  502  0.22473610382E+02 -0.87374080580E+01 -0.77293412074E+03  0.79220739739E+03  0.17200000000E+03 0.  1.
</event>
<event>
 4    1 -0.7147820E-004  0.1036205E+04  0.7818608E-02  0.9269703E-01
         -5   -1    0    0    0  501 -0.00000000000E+00  0.00000000000E+00  0.10418556770E+04  0.10418662782E+04  0.47000000000E+01 0.  1.
          5   -1    0    0  501    0  0.00000000000E+00 -0.00000000000E+00 -0.13510458363E+04  0.13510540114E+04  0.47000000000E+01 0. -1.
          6    1    1    2  502    0  0.64081778249E+03  0.79592088420E+03 -0.73731705571E+03  0.12717538775E+04  0.17200000000E+03 0. -1.
         -6    1    1    2    0  502 -0.64081778249E+03 -0.79592088420E+03  0.42812689637E+03  0.11211664121E+04  0.17200000000E+03 0.  1.
</event>
<event>
 4    1 -0.7147820E-004  0.4045659E+03  0.7818608E-02  0.1042210E+00
          5   -1    0    0  501    0  0.00000000000E+00  0.00000000000E+00  0.34275640190E+03  0.34278862444E+03  0.47000000000E+01 0. -1.
         -5   -1    0    0    0  501 -0.00000000000E+00 -0.00000000000E+00 -0.12489466712E+04  0.12489555146E+04  0.47000000000E+01 0.  1.
          6    1    1    2  502    0 -0.12520200312E+02 -0.36596837353E+03  0.17240648056E+03  0.43976994028E+03  0.17200000000E+03 0. -1.
         -6    1    1    2    0  502  0.12520200312E+02  0.36596837353E+03 -0.10785967499E+04  0.11519741988E+04  0.17200000000E+03 0.  1.
</event>
<event>
 4    1 -0.7147820E-004  0.1796069E+03  0.7818608E-02  0.1168184E+00
          5   -1    0    0  501    0  0.00000000000E+00  0.00000000000E+00  0.64116019190E+02  0.64288054231E+02  0.47000000000E+01 0. -1.
         -5   -1    0    0    0  501 -0.00000000000E+00 -0.00000000000E+00 -0.15637008448E+04  0.15637079082E+04  0.47000000000E+01 0.  1.
          6    1    1    2  502    0 -0.51273489323E+02 -0.67577876385E+01 -0.79188593169E+02  0.19628925515E+03  0.17200000000E+03 0. -1.
         -6    1    1    2    0  502  0.51273489323E+02  0.67577876385E+01 -0.14203962325E+04  0.14317067072E+04  0.17200000000E+03 0.  1.
</event>
<event>
 4    1 -0.7147820E-004  0.1779623E+03  0.7818608E-02  0.1169790E+00
          5   -1    0    0  501    0  0.00000000000E+00  0.00000000000E+00  0.72244505311E+02  0.72397227486E+02  0.47000000000E+01 0. -1.
         -5   -1    0    0    0  501 -0.00000000000E+00 -0.00000000000E+00 -0.61550568697E+03  0.61552363131E+03  0.47000000000E+01 0.  1.
          6    1    1    2  502    0  0.29425903498E+02 -0.34938345394E+02 -0.86814364295E+02  0.19800834736E+03  0.17200000000E+03 0. -1.
         -6    1    1    2    0  502 -0.29425903498E+02  0.34938345394E+02 -0.45644681737E+03  0.48991251143E+03  0.17200000000E+03 0.  1.
</event>
<event>
 4    1 -0.7147820E-004  0.2492287E+03  0.7818608E-02  0.1113793E+00
          5   -1    0    0  501    0  0.00000000000E+00  0.00000000000E+00  0.31789313040E+03  0.31792787289E+03  0.47000000000E+01 0. -1.
         -5   -1    0    0    0  501 -0.00000000000E+00 -0.00000000000E+00 -0.41013447949E+03  0.41016140880E+03  0.47000000000E+01 0.  1.
          6    1    1    2  502    0 -0.60770075500E+02  0.16981736018E+03  0.21731876700E+03  0.33066960003E+03  0.17200000000E+03 0. -1.
         -6    1    1    2    0  502  0.60770075500E+02 -0.16981736018E+03 -0.30956011609E+03  0.39741968166E+03  0.17200000000E+03 0.  1.
</event>
<event>
 4    1 -0.7147820E-004  0.2866251E+03  0.7818608E-02  0.1092124E+00
         -5   -1    0    0    0  501 -0.00000000000E+00  0.00000000000E+00  0.85696191781E+03  0.85697480627E+03  0.47000000000E+01 0.  1.
          5   -1    0    0  501    0  0.00000000000E+00 -0.00000000000E+00 -0.51350423589E+03  0.51352574451E+03  0.47000000000E+01 0. -1.
          6    1    1    2  502    0  0.11149097438E+03  0.20034895442E+03 -0.44625872744E+03  0.53037797156E+03  0.17200000000E+03 0. -1.
         -6    1    1    2    0  502 -0.11149097438E+03 -0.20034895442E+03  0.78971640936E+03  0.84012257922E+03  0.17200000000E+03 0.  1.
</event>
<event>
 4    1 -0.7147820E-004  0.1824523E+03  0.7818608E-02  0.1165451E+00
         -5   -1    0    0    0  501 -0.00000000000E+00  0.00000000000E+00  0.97602297089E+02  0.97715394882E+02  0.47000000000E+01 0.  1.
          5   -1    0    0  501    0  0.00000000000E+00 -0.00000000000E+00 -0.52588152602E+03  0.52590252843E+03  0.47000000000E+01 0. -1.
          6    1    1    2  502    0  0.32975020793E+02 -0.51161298130E+02 -0.39912597498E+03  0.43885119839E+03  0.17200000000E+03 0. -1.
         -6    1    1    2    0  502 -0.32975020793E+02  0.51161298130E+02 -0.29153253948E+02  0.18476672492E+03  0.17200000000E+03 0.  1.
</event>
<event>
 4    1 -0.7147820E-004  0.1839628E+03  0.7818608E-02  0.1164022E+00
          5   -1    0    0  501    0  0.00000000000E+00  0.00000000000E+00  0.29621809937E+03  0.29625538374E+03  0.47000000000E+01 0. -1.
         -5   -1    0    0    0  501 -0.00000000000E+00 -0.00000000000E+00 -0.32393748940E+03  0.32397158369E+03  0.47000000000E+01 0.  1.
          6    1    1    2  502    0 -0.58529380042E+02  0.28855523106E+02  0.23566046675E+03  0.29896184561E+03  0.17200000000E+03 0. -1.
         -6    1    1    2    0  502  0.58529380042E+02 -0.28855523106E+02 -0.26337985678E+03  0.32126512182E+03  0.17200000000E+03 0.  1.
</event>
<event>
 4    1 -0.7147820E-004  0.1722729E+03  0.7818608E-02  0.1175498E+00
         -5   -1    0    0    0  501 -0.00000000000E+00  0.00000000000E+00  0.10231781477E+04  0.10231889425E+04  0.47000000000E+01 0.  1.
          5   -1    0    0  501    0  0.00000000000E+00 -0.00000000000E+00 -0.67413787152E+02  0.67577427431E+02  0.47000000000E+01 0. -1.
          6    1    1    2  502    0 -0.49747394372E+01 -0.83187861252E+01  0.66007858434E+02  0.18448573823E+03  0.17200000000E+03 0. -1.
         -6    1    1    2    0  502  0.49747394372E+01  0.83187861252E+01  0.88975650214E+03  0.90628063167E+03  0.17200000000E+03 0.  1.
</event>
<event>
 4    1 -0.7147820E-004  0.1723007E+03  0.7818608E-02  0.1175470E+00
         -5   -1    0    0    0  501 -0.00000000000E+00  0.00000000000E+00  0.39808618514E+03  0.39811392942E+03  0.47000000000E+01 0.  1.
          5   -1    0    0  501    0  0.00000000000E+00 -0.00000000000E+00 -0.22840109903E+03  0.22844945182E+03  0.47000000000E+01 0. -1.
          6    1    1    2  502    0 -0.13467930899E+01 -0.10086214192E+02 -0.17227255109E+03  0.24365011272E+03  0.17200000000E+03 0. -1.
         -6    1    1    2    0  502  0.13467930899E+01  0.10086214192E+02  0.34195763720E+03  0.38291326852E+03  0.17200000000E+03 0.  1.
</event>
<event>
 4    1 -0.7147820E-004  0.3177165E+03  0.7818608E-02  0.1076705E+00
          5   -1    0    0  501    0  0.00000000000E+00  0.00000000000E+00  0.20279494845E+03  0.20284940501E+03  0.47000000000E+01 0. -1.
         -5   -1    0    0    0  501 -0.00000000000E+00 -0.00000000000E+00 -0.57943948531E+03  0.57945854652E+03  0.47000000000E+01 0.  1.
          6    1    1    2  502    0 -0.15630777019E+03  0.21662788439E+03 -0.41356371983E+02  0.32039679901E+03  0.17200000000E+03 0. -1.
         -6    1    1    2    0  502  0.15630777019E+03 -0.21662788439E+03 -0.33528816488E+03  0.46191115252E+03  0.17200000000E+03 0.  1.
</event>
<event>
 4    1 -0.7147820E-004  0.2270854E+03  0.7818608E-02  0.1128708E+00
          5   -1    0    0  501    0  0.00000000000E+00  0.00000000000E+00  0.30164670459E+04  0.30164707075E+04  0.47000000000E+01 0. -1.
         -5   -1    0    0    0  501 -0.00000000000E+00 -0.00000000000E+00 -0.48040966216E+02  0.48270326651E+02  0.47000000000E+01 0.  1.
          6    1    1    2  502    0 -0.10477311389E+02  0.14789866727E+03  0.27149113482E+04  0.27243919355E+04  0.17200000000E+03 0. -1.
         -6    1    1    2    0  502  0.10477311389E+02 -0.14789866727E+03  0.25351473153E+03  0.34034909863E+03  0.17200000000E+03 0.  1.
</event>
<event>
 4    1 -0.7147820E-004  0.1808770E+03  0.7818608E-02  0.1166957E+00
         -5   -1    0    0    0  501 -0.00000000000E+00  0.00000000000E+00  0.83059779657E+03  0.83061109412E+03  0.47000000000E+01 0.  1.
          5   -1    0    0  501    0  0.00000000000E+00 -0.00000000000E+00 -0.23369084088E+03  0.23373809940E+03  0.47000000000E+01 0. -1.
          6    1    1    2  502    0 -0.21887139007E+02 -0.51511697482E+02 -0.18681149466E+03  0.26002891449E+03  0.17200000000E+03 0. -1.
         -6    1    1    2    0  502  0.21887139007E+02  0.51511697482E+02  0.78371845036E+03  0.80432027903E+03  0.17200000000E+03 0.  1.
</event>
<event>
 4    1 -0.7147820E-004  0.3139420E+03  0.7818608E-02  0.1078472E+00
         -5   -1    0    0    0  501 -0.00000000000E+00  0.00000000000E+00  0.49055237069E+03  0.49057488561E+03  0.47000000000E+01 0.  1.
          5   -1    0    0  501    0  0.00000000000E+00 -0.00000000000E+00 -0.51601349736E+03  0.51603490140E+03  0.47000000000E+01 0. -1.
          6    1    1    2  502    0 -0.22768431345E+03  0.13090246572E+03 -0.40604102155E+03  0.51325326429E+03  0.17200000000E+03 0. -1.
         -6    1    1    2    0  502  0.22768431345E+03 -0.13090246572E+03  0.38057989487E+03  0.49335652272E+03  0.17200000000E+03 0.  1.
</event>
<event>
 4    1 -0.7147820E-004  0.1873184E+03  0.7818608E-02  0.1160902E+00
         -5   -1    0    0    0  501 -0.00000000000E+00  0.00000000000E+00  0.74428996156E+02  0.74577244980E+02  0.47000000000E+01 0.  1.
          5   -1    0    0  501    0  0.00000000000E+00 -0.00000000000E+00 -0.18711907940E+04  0.18711966966E+04  0.47000000000E+01 0. -1.
          6    1    1    2  502    0 -0.20067629109E+02 -0.71424699304E+02 -0.17399865292E+04  0.17500403764E+04  0.17200000000E+03 0. -1.
         -6    1    1    2    0  502  0.20067629109E+02  0.71424699304E+02 -0.56775268647E+02  0.19573356518E+03  0.17200000000E+03 0.  1.
</event>
<event>
 4    1 -0.7147820E-004  0.2051292E+03  0.7818608E-02  0.1145482E+00
         -5   -1    0    0    0  501 -0.00000000000E+00  0.00000000000E+00  0.12677299622E+04  0.12677386746E+04  0.47000000000E+01 0.  1.
          5   -1    0    0  501    0  0.00000000000E+00 -0.00000000000E+00 -0.49168190965E+03  0.49170437284E+03  0.47000000000E+01 0. -1.
          6    1    1    2  502    0  0.87094035091E+02  0.70061531509E+02 -0.46148671383E+03  0.50502274819E+03  0.17200000000E+03 0. -1.
         -6    1    1    2    0  502 -0.87094035091E+02 -0.70061531509E+02  0.12375347664E+04  0.12544202993E+04  0.17200000000E+03 0.  1.
</event>
<event>
 4    1 -0.7147820E-004  0.1736434E+03  0.7818608E-02  0.1174101E+00
         -5   -1    0    0    0  501 -0.00000000000E+00  0.00000000000E+00  0.86020987134E+02  0.86149290348E+02  0.47000000000E+01 0.  1.
          5   -1    0    0  501    0  0.00000000000E+00 -0.00000000000E+00 -0.80678988357E+03  0.80680357352E+03  0.47000000000E+01 0. -1.
          6    1    1    2  502    0 -0.17413647646E+02  0.16272257669E+02 -0.69626256079E+03  0.71758872277E+03  0.17200000000E+03 0. -1.
         -6    1    1    2    0  502  0.17413647646E+02 -0.16272257669E+02 -0.24506335653E+02  0.17536414109E+03  0.17200000000E+03 0.  1.
</event>
<event>
 4    1 -0.7147820E-004  0.1945076E+03  0.7818608E-02  0.1154457E+00
         -5   -1    0    0    0  501 -0.00000000000E+00  0.00000000000E+00  0.84558303114E+03  0.84559609303E+03  0.47000000000E+01 0.  1.
          5   -1    0    0  501    0  0.00000000000E+00 -0.00000000000E+00 -0.26306781997E+03  0.26310980199E+03  0.47000000000E+01 0. -1.
          6    1    1    2  502    0 -0.89322188182E+02 -0.16454636584E+02 -0.21376520626E+03  0.28901344566E+03  0.17200000000E+03 0. -1.
         -6    1    1    2    0  502  0.89322188182E+02  0.16454636584E+02  0.79628041742E+03  0.81969244936E+03  0.17200000000E+03 0.  1.
</event>
<event>
 4    1 -0.7147820E-004  0.2519917E+03  0.7818608E-02  0.1112053E+00
          5   -1    0    0  501    0  0.00000000000E+00  0.00000000000E+00  0.21461813053E+03  0.21466958786E+03  0.47000000000E+01 0. -1.
         -5   -1    0    0    0  501 -0.00000000000E+00 -0.00000000000E+00 -0.87824529092E+03  0.87825786705E+03  0.47000000000E+01 0.  1.
          6    1    1    2  502    0  0.62083580835E+02  0.17338236041E+03  0.11320082759E+03  0.27625032358E+03  0.17200000000E+03 0. -1.
         -6    1    1    2    0  502 -0.62083580835E+02 -0.17338236041E+03 -0.77682798798E+03  0.81667713132E+03  0.17200000000E+03 0.  1.
</event>
<event>
 4    1 -0.7147820E-004  0.1806124E+03  0.7818608E-02  0.1167212E+00
          5   -1    0    0  501    0  0.00000000000E+00  0.00000000000E+00  0.49198208097E+02  0.49422198251E+02  0.47000000000E+01 0. -1.
         -5   -1    0    0    0  501 -0.00000000000E+00 -0.00000000000E+00 -0.66612801801E+03  0.66614459870E+03  0.47000000000E+01 0.  1.
          6    1    1    2  502    0 -0.41317499106E+02  0.36465208448E+02 -0.33888378229E+03  0.38400919918E+03  0.17200000000E+03 0. -1.
         -6    1    1    2    0  502  0.41317499106E+02 -0.36465208448E+02 -0.27804602763E+03  0.33155759777E+03  0.17200000000E+03 0.  1.
</event>
<event>
 4    1 -0.7147820E-004  0.1761899E+03  0.7818608E-02  0.1171542E+00
          5   -1    0    0  501    0  0.00000000000E+00  0.00000000000E+00  0.64550996723E+03  0.64552707751E+03  0.47000000000E+01 0. -1.
         -5   -1    0    0    0  501 -0.00000000000E+00 -0.00000000000E+00 -0.23578653270E+03  0.23583337127E+03  0.47000000000E+01 0.  1.
          6    1    1    2  502    0 -0.21167745797E+02  0.31793289929E+02  0.59805123183E+03  0.62346464426E+03  0.17200000000E+03 0. -1.
         -6    1    1    2    0  502  0.21167745797E+02 -0.31793289929E+02 -0.18832779730E+03  0.25789580451E+03  0.17200000000E+03 0.  1.
</event>
<event>
 4    1 -0.7147820E-004  0.1902437E+03  0.7818608E-02  0.1158242E+00
         -5   -1    0    0    0  501 -0.00000000000E+00  0.00000000000E+00  0.45097965203E+03  0.45100414249E+03  0.47000000000E+01 0.  1.
          5   -1    0    0  501    0  0.00000000000E+00 -0.00000000000E+00 -0.13167924948E+03  0.13176310085E+03  0.47000000000E+01 0. -1.
          6    1    1    2  502    0  0.47843343515E+02 -0.65724379985E+02 -0.22519811115E+02  0.19157197482E+03  0.17200000000E+03 0. -1.
         -6    1    1    2    0  502 -0.47843343515E+02  0.65724379985E+02  0.34182021366E+03  0.39119526852E+03  0.17200000000E+03 0.  1.
</event>
<event>
 4    1 -0.7147820E-004  0.1956660E+03  0.7818608E-02  0.1153448E+00
         -5   -1    0    0    0  501 -0.00000000000E+00  0.00000000000E+00  0.71255892873E+03  0.71257442903E+03  0.47000000000E+01 0.  1.
          5   -1    0    0  501    0  0.00000000000E+00 -0.00000000000E+00 -0.72026260003E+02  0.72179443958E+02  0.47000000000E+01 0. -1.
          6    1    1    2  502    0  0.23435293901E+02 -0.90288325415E+02  0.12212787780E+03  0.23065214771E+03  0.17200000000E+03 0. -1.
         -6    1    1    2    0  502 -0.23435293901E+02  0.90288325415E+02  0.51840479093E+03  0.55410172528E+03  0.17200000000E+03 0.  1.
</event>
<event>
 4    1 -0.7147820E-004  0.2707369E+03  0.7818608E-02  0.1100859E+00
         -5   -1    0    0    0  501 -0.00000000000E+00  0.00000000000E+00  0.11352121091E+04  0.11352218385E+04  0.47000000000E+01 0.  1.
          5   -1    0    0  501    0  0.00000000000E+00 -0.00000000000E+00 -0.26132588462E+03  0.26136814644E+03  0.47000000000E+01 0. -1.
          6    1    1    2  502    0  0.20279395325E+03 -0.50883269439E+02 -0.16898679523E+03  0.31914735084E+03  0.17200000000E+03 0. -1.
         -6    1    1    2    0  502 -0.20279395325E+03  0.50883269439E+02  0.10428730197E+04  0.10774426341E+04  0.17200000000E+03 0.  1.
</event>
<event>
 4    1 -0.7147820E-004  0.1801476E+03  0.7818608E-02  0.1167660E+00
          5   -1    0    0  501    0  0.00000000000E+00  0.00000000000E+00  0.30697757010E+03  0.30701354782E+03  0.47000000000E+01 0. -1.
         -5   -1    0    0    0  501 -0.00000000000E+00 -0.00000000000E+00 -0.35080989402E+03  0.35084137689E+03  0.47000000000E+01 0.  1.
          6    1    1    2  502    0  0.13442741928E+02  0.51850316698E+02  0.25303000792E+03  0.31060802881E+03  0.17200000000E+03 0. -1.
         -6    1    1    2    0  502 -0.13442741928E+02 -0.51850316698E+02 -0.29686233184E+03  0.34724689590E+03  0.17200000000E+03 0.  1.
</event>
<event>
 4    1 -0.7147820E-004  0.1875602E+03  0.7818608E-02  0.1160680E+00
         -5   -1    0    0    0  501 -0.00000000000E+00  0.00000000000E+00  0.13762423828E+03  0.13770446965E+03  0.47000000000E+01 0.  1.
          5   -1    0    0  501    0  0.00000000000E+00 -0.00000000000E+00 -0.45193491036E+03  0.45195934906E+03  0.47000000000E+01 0. -1.
          6    1    1    2  502    0 -0.67960167809E+02 -0.31244635311E+02 -0.35153862795E+03  0.39844474973E+03  0.17200000000E+03 0. -1.
         -6    1    1    2    0  502  0.67960167809E+02  0.31244635311E+02  0.37227955870E+02  0.19121906898E+03  0.17200000000E+03 0.  1.
</event>
<event>
 4    1 -0.7147820E-004  0.2567307E+03  0.7818608E-02  0.1109124E+00
         -5   -1    0    0    0  501 -0.00000000000E+00  0.00000000000E+00  0.10244413019E+04  0.10244520833E+04  0.47000000000E+01 0.  1.
          5   -1    0    0  501    0  0.00000000000E+00 -0.00000000000E+00 -0.16165781156E+03  0.16172612046E+03  0.47000000000E+01 0. -1.
          6    1    1    2  502    0 -0.87609585752E+02  0.16926666365E+03 -0.28825161529E+02  0.25834382686E+03  0.17200000000E+03 0. -1.
         -6    1    1    2    0  502  0.87609585752E+02 -0.16926666365E+03  0.89160865186E+03  0.92783437693E+03  0.17200000000E+03 0.  1.
</event>
<event>
 4    1 -0.7147820E-004  0.1812743E+03  0.7818608E-02  0.1166575E+00
         -5   -1    0    0    0  501 -0.00000000000E+00  0.00000000000E+00  0.14902072867E+03  0.14909482745E+03  0.47000000000E+01 0.  1.
          5   -1    0    0  501    0  0.00000000000E+00 -0.00000000000E+00 -0.98292300161E+03  0.98293423844E+03  0.47000000000E+01 0. -1.
          6    1    1    2  502    0  0.18445962584E+02  0.54185922115E+02 -0.91547281740E+03  0.93324747365E+03  0.17200000000E+03 0. -1.
         -6    1    1    2    0  502 -0.18445962584E+02 -0.54185922115E+02  0.81570544448E+02  0.19878159224E+03  0.17200000000E+03 0.  1.
</event>
<event>
 4    1 -0.7147820E-004  0.2602190E+03  0.7818608E-02  0.1107012E+00
          5   -1    0    0  501    0  0.00000000000E+00  0.00000000000E+00  0.34644593215E+03  0.34647781156E+03  0.47000000000E+01 0. -1.
         -5   -1    0    0    0  501 -0.00000000000E+00 -0.00000000000E+00 -0.36448810620E+03  0.36451840771E+03  0.47000000000E+01 0.  1.
          6    1    1    2  502    0 -0.11997105774E+03 -0.15406767711E+03  0.23309741819E+03  0.34935413293E+03  0.17200000000E+03 0. -1.
         -6    1    1    2    0  502  0.11997105774E+03  0.15406767711E+03 -0.25113959224E+03  0.36164208635E+03  0.17200000000E+03 0.  1.
</event>
<event>
 4    1 -0.7147820E-004  0.4089783E+03  0.7818608E-02  0.1040714E+00
         -5   -1    0    0    0  501 -0.00000000000E+00  0.00000000000E+00  0.38377555765E+03  0.38380433641E+03  0.47000000000E+01 0.  1.
          5   -1    0    0  501    0  0.00000000000E+00 -0.00000000000E+00 -0.10230562414E+04  0.10230670374E+04  0.47000000000E+01 0. -1.
          6    1    1    2  502    0  0.13923924272E+02 -0.37079024285E+03 -0.85259038804E+03  0.94560755583E+03  0.17200000000E+03 0. -1.
         -6    1    1    2    0  502 -0.13923924272E+02  0.37079024285E+03  0.21330970430E+03  0.46126381801E+03  0.17200000000E+03 0.  1.
</event>
<event>
 4    1 -0.7147820E-004  0.1943902E+03  0.7818608E-02  0.1154560E+00
          5   -1    0    0  501    0  0.00000000000E+00  0.00000000000E+00  0.10537580297E+04  0.10537685112E+04  0.47000000000E+01 0. -1.
         -5   -1    0    0    0  501 -0.00000000000E+00 -0.00000000000E+00 -0.57834352893E+02  0.58025015076E+02  0.47000000000E+01 0.  1.
          6    1    1    2  502    0  0.66240334409E+02 -0.61771892242E+02  0.84113174692E+03  0.86330189635E+03  0.17200000000E+03 0. -1.
         -6    1    1    2    0  502 -0.66240334409E+02  0.61771892242E+02  0.15479192989E+03  0.24849162990E+03  0.17200000000E+03 0.  1.
</event>
<event>
 4    1 -0.7147820E-004  0.2256342E+03  0.7818608E-02  0.1129751E+00
         -5   -1    0    0    0  501 -0.00000000000E+00  0.00000000000E+00  0.54487598057E+03  0.54489625086E+03  0.47000000000E+01 0.  1.
          5   -1    0    0  501    0  0.00000000000E+00 -0.00000000000E+00 -0.17744733370E+03  0.17750956660E+03  0.47000000000E+01 0. -1.
          6    1    1    2  502    0  0.75265793364E+02 -0.12514724656E+03 -0.64862746542E+02  0.23477212114E+03  0.17200000000E+03 0. -1.
         -6    1    1    2    0  502 -0.75265793364E+02  0.12514724656E+03  0.43229139342E+03  0.48763369633E+03  0.17200000000E+03 0.  1.
</event>
<event>
 4    1 -0.7147820E-004  0.1789815E+03  0.7818608E-02  0.1168792E+00
         -5   -1    0    0    0  501 -0.00000000000E+00  0.00000000000E+00  0.75140350200E+03  0.75141820102E+03  0.47000000000E+01 0.  1.
          5   -1    0    0  501    0  0.00000000000E+00 -0.00000000000E+00 -0.42492191961E+02  0.42751331881E+02  0.47000000000E+01 0. -1.
          6    1    1    2  502    0 -0.53876603825E+01  0.49207263023E+02  0.35053783661E+03  0.39358754619E+03  0.17200000000E+03 0.  1.
         -6    1    1    2    0  502  0.53876603825E+01 -0.49207263023E+02  0.35837347343E+03  0.40058198671E+03  0.17200000000E+03 0.  1.
</event>
<event>
 4    1 -0.7147820E-004  0.2260580E+03  0.7818608E-02  0.1129446E+00
          5   -1    0    0  501    0  0.00000000000E+00  0.00000000000E+00  0.12465490316E+04  0.12465578920E+04  0.47000000000E+01 0. -1.
         -5   -1    0    0    0  501 -0.00000000000E+00 -0.00000000000E+00 -0.15824183723E+03  0.15831162007E+03  0.47000000000E+01 0.  1.
          6    1    1    2  502    0 -0.13833952348E+03  0.48789171750E+02  0.11488219818E+04  0.11708518920E+04  0.17200000000E+03 0. -1.
         -6    1    1    2    0  502  0.13833952348E+03 -0.48789171750E+02 -0.60514787439E+02  0.23401762014E+03  0.17200000000E+03 0.  1.
</event>
<event>
 4    1 -0.7147820E-004  0.2847985E+03  0.7818608E-02  0.1093097E+00
          5   -1    0    0  501    0  0.00000000000E+00  0.00000000000E+00  0.28534907066E+03  0.28538777501E+03  0.47000000000E+01 0. -1.
         -5   -1    0    0    0  501 -0.00000000000E+00 -0.00000000000E+00 -0.53091786249E+03  0.53093866568E+03  0.47000000000E+01 0.  1.
          6    1    1    2  502    0  0.20593207667E+03 -0.95489090402E+02  0.15545426568E+03  0.32446296446E+03  0.17200000000E+03 0. -1.
         -6    1    1    2    0  502 -0.20593207667E+03  0.95489090402E+02 -0.40102305752E+03  0.49186347623E+03  0.17200000000E+03 0.  1.
</event>
<event>
 4    1 -0.7147820E-004  0.2151721E+03  0.7818608E-02  0.1137534E+00
          5   -1    0    0  501    0  0.00000000000E+00  0.00000000000E+00  0.51097323442E+03  0.51099484958E+03  0.47000000000E+01 0. -1.
         -5   -1    0    0    0  501 -0.00000000000E+00 -0.00000000000E+00 -0.10028853072E+04  0.10028963203E+04  0.47000000000E+01 0.  1.
          6    1    1    2  502    0 -0.41323704580E+02 -0.12250460993E+03  0.47598735425E+03  0.52236289054E+03  0.17200000000E+03 0. -1.
         -6    1    1    2    0  502  0.41323704580E+02  0.12250460993E+03 -0.96789942698E+03  0.99152827936E+03  0.17200000000E+03 0.  1.
</event>
<event>
 4    1 -0.7147820E-004  0.3041016E+03  0.7818608E-02  0.1083208E+00
         -5   -1    0    0    0  501 -0.00000000000E+00  0.00000000000E+00  0.89538000000E+02  0.89661270591E+02  0.47000000000E+01 0.  1.
          5   -1    0    0  501    0  0.00000000000E+00 -0.00000000000E+00 -0.10411406846E+04  0.10411512931E+04  0.47000000000E+01 0. -1.
          6    1    1    2  502    0  0.17783207284E+03  0.17683186016E+03 -0.42280752676E+03  0.52081086546E+03  0.17200000000E+03 0. -1.
         -6    1    1    2    0  502 -0.17783207284E+03 -0.17683186016E+03 -0.52879515787E+03  0.61000169826E+03  0.17200000000E+03 0.  1.
</event>
<event>
 4    1 -0.7147820E-004  0.1792024E+03  0.7818608E-02  0.1168577E+00
          5   -1    0    0  501    0  0.00000000000E+00  0.00000000000E+00  0.76163401496E+03  0.76164851654E+03  0.47000000000E+01 0. -1.
         -5   -1    0    0    0  501 -0.00000000000E+00 -0.00000000000E+00 -0.19384372523E+03  0.19390069575E+03  0.47000000000E+01 0.  1.
          6    1    1    2  502    0  0.49597429383E+02  0.83428969888E+01  0.70653939535E+03  0.72891112361E+03  0.17200000000E+03 0. -1.
         -6    1    1    2    0  502 -0.49597429383E+02 -0.83428969888E+01 -0.13874910562E+03  0.22663808868E+03  0.17200000000E+03 0.  1.
</event>
<event>
 4    1 -0.7147820E-004  0.2136429E+03  0.7818608E-02  0.1138713E+00
         -5   -1    0    0    0  501 -0.00000000000E+00  0.00000000000E+00  0.86975227767E+02  0.87102125377E+02  0.47000000000E+01 0.  1.
          5   -1    0    0  501    0  0.00000000000E+00 -0.00000000000E+00 -0.80527172307E+03  0.80528543882E+03  0.47000000000E+01 0. -1.
          6    1    1    2  502    0 -0.99382919458E+01 -0.12633487708E+03 -0.62270366279E+03  0.65833359512E+03  0.17200000000E+03 0. -1.
         -6    1    1    2    0  502  0.99382919458E+01  0.12633487708E+03 -0.95592832516E+02  0.23405396908E+03  0.17200000000E+03 0.  1.
</event>
<event>
 4    1 -0.7147820E-004  0.3041588E+03  0.7818608E-02  0.1083180E+00
          5   -1    0    0  501    0  0.00000000000E+00  0.00000000000E+00  0.12896131886E+03  0.12904693628E+03  0.47000000000E+01 0. -1.
         -5   -1    0    0    0  501 -0.00000000000E+00 -0.00000000000E+00 -0.10170614753E+04  0.10170723349E+04  0.47000000000E+01 0.  1.
          6    1    1    2  502    0 -0.67415538310E+02  0.24162723636E+03 -0.13281784268E+03  0.33189328932E+03  0.17200000000E+03 0. -1.
         -6    1    1    2    0  502  0.67415538310E+02 -0.24162723636E+03 -0.75528231374E+03  0.81422598191E+03  0.17200000000E+03 0.  1.
</event>
<event>
 4    1 -0.7147820E-004  0.2197304E+03  0.7818608E-02  0.1134084E+00
          5   -1    0    0  501    0  0.00000000000E+00  0.00000000000E+00  0.12810910315E+04  0.12810996530E+04  0.47000000000E+01 0. -1.
         -5   -1    0    0    0  501 -0.00000000000E+00 -0.00000000000E+00 -0.42050008902E+03  0.42052635454E+03  0.47000000000E+01 0.  1.
          6    1    1    2  502    0  0.63960762207E+02 -0.12085730236E+03  0.12420882845E+04  0.12613741607E+04  0.17200000000E+03 0. -1.
         -6    1    1    2    0  502 -0.63960762207E+02  0.12085730236E+03 -0.38149734209E+03  0.44025184685E+03  0.17200000000E+03 0.  1.
</event>
<event>
 4    1 -0.7147820E-004  0.1913612E+03  0.7818608E-02  0.1157239E+00
          5   -1    0    0  501    0  0.00000000000E+00  0.00000000000E+00  0.59805150900E+03  0.59806997702E+03  0.47000000000E+01 0. -1.
         -5   -1    0    0    0  501 -0.00000000000E+00 -0.00000000000E+00 -0.13762169179E+03  0.13770192465E+03  0.47000000000E+01 0.  1.
          6    1    1    2  502    0 -0.32411958458E+02  0.77360063474E+02  0.50435184603E+03  0.53943479594E+03  0.17200000000E+03 0. -1.
         -6    1    1    2    0  502  0.32411958458E+02 -0.77360063474E+02 -0.43922028827E+02  0.19633710573E+03  0.17200000000E+03 0.  1.
</event>
<event>
 4    1 -0.7147820E-004  0.2140947E+03  0.7818608E-02  0.1138364E+00
          5   -1    0    0  501    0  0.00000000000E+00  0.00000000000E+00  0.11917855571E+03  0.11927119577E+03  0.47000000000E+01 0. -1.
         -5   -1    0    0    0  501 -0.00000000000E+00 -0.00000000000E+00 -0.58533993915E+03  0.58535880822E+03  0.47000000000E+01 0.  1.
          6    1    1    2  502    0  0.42420235151E+02  0.12022083022E+03 -0.26650186010E+02  0.21574697398E+03  0.17200000000E+03 0. -1.
         -6    1    1    2    0  502 -0.42420235151E+02 -0.12022083022E+03 -0.43951119743E+03  0.48888303001E+03  0.17200000000E+03 0.  1.
</event>
<event>
 4    1 -0.7147820E-004  0.1837925E+03  0.7818608E-02  0.1164182E+00
          5   -1    0    0  501    0  0.00000000000E+00  0.00000000000E+00  0.52663833615E+02  0.52873144138E+02  0.47000000000E+01 0. -1.
         -5   -1    0    0    0  501 -0.00000000000E+00 -0.00000000000E+00 -0.75365052901E+03  0.75366518420E+03  0.47000000000E+01 0.  1.
          6    1    1    2  502    0 -0.64315182202E+02 -0.76973419620E+01 -0.19386777143E+03  0.26714116967E+03  0.17200000000E+03 0. -1.
         -6    1    1    2    0  502  0.64315182202E+02  0.76973419620E+01 -0.50711892396E+03  0.53939715866E+03  0.17200000000E+03 0.  1.
</event>
<event>
 4    1 -0.7147820E-004  0.1987548E+03  0.7818608E-02  0.1150794E+00
          5   -1    0    0  501    0  0.00000000000E+00  0.00000000000E+00  0.22279910213E+03  0.22284867042E+03  0.47000000000E+01 0. -1.
         -5   -1    0    0    0  501 -0.00000000000E+00 -0.00000000000E+00 -0.41683179521E+03  0.41685829187E+03  0.47000000000E+01 0.  1.
          6    1    1    2  502    0  0.75610359136E+02  0.64827165350E+02  0.14547119378E+03  0.24630338202E+03  0.17200000000E+03 0. -1.
         -6    1    1    2    0  502 -0.75610359136E+02 -0.64827165350E+02 -0.33950388686E+03  0.39340358027E+03  0.17200000000E+03 0.  1.
</event>
<event>
 4    1 -0.7147820E-004  0.2536879E+03  0.7818608E-02  0.1110996E+00
          5   -1    0    0  501    0  0.00000000000E+00  0.00000000000E+00  0.41953081994E+02  0.42215531369E+02  0.47000000000E+01 0. -1.
         -5   -1    0    0    0  501 -0.00000000000E+00 -0.00000000000E+00 -0.25082955423E+04  0.25082999457E+04  0.47000000000E+01 0.  1.
          6    1    1    2  502    0 -0.94345017962E+02 -0.16084953455E+03 -0.43637886851E+03  0.50476140112E+03  0.17200000000E+03 0. -1.
         -6    1    1    2    0  502  0.94345017962E+02  0.16084953455E+03 -0.20299635918E+04  0.20457540760E+04  0.17200000000E+03 0.  1.
</event>
<event>
 4    1 -0.7147820E-004  0.8405449E+03  0.7818608E-02  0.9503116E-01
          5   -1    0    0  501    0  0.00000000000E+00  0.00000000000E+00  0.61837304190E+03  0.61839090303E+03  0.47000000000E+01 0. -1.
         -5   -1    0    0    0  501 -0.00000000000E+00 -0.00000000000E+00 -0.17915148254E+04  0.17915209905E+04  0.47000000000E+01 0.  1.
          6    1    1    2  502    0 -0.68639304637E+03 -0.45364771676E+03  0.13867458262E+03  0.85190745090E+03  0.17200000000E+03 0. -1.
         -6    1    1    2    0  502  0.68639304637E+03  0.45364771676E+03 -0.13118163661E+04  0.15580044427E+04  0.17200000000E+03 0.  1.
</event>
<event>
 4    1 -0.7147820E-004  0.1740939E+03  0.7818608E-02  0.1173645E+00
          5   -1    0    0  501    0  0.00000000000E+00  0.00000000000E+00  0.11114086484E+03  0.11124019883E+03  0.47000000000E+01 0. -1.
         -5   -1    0    0    0  501 -0.00000000000E+00 -0.00000000000E+00 -0.45917130975E+03  0.45919536332E+03  0.47000000000E+01 0.  1.
          6    1    1    2  502    0  0.15770363327E+02 -0.21817394775E+02  0.78324632796E+01  0.17427005065E+03  0.17200000000E+03 0. -1.
         -6    1    1    2    0  502 -0.15770363327E+02  0.21817394775E+02 -0.35586290819E+03  0.39616551150E+03  0.17200000000E+03 0.  1.
</event>
<event>
 4    1 -0.7147820E-004  0.1857088E+03  0.7818608E-02  0.1162390E+00
          5   -1    0    0  501    0  0.00000000000E+00  0.00000000000E+00  0.12534921156E+04  0.12535009269E+04  0.47000000000E+01 0. -1.
         -5   -1    0    0    0  501 -0.00000000000E+00 -0.00000000000E+00 -0.33946290996E+02  0.34270113399E+02  0.47000000000E+01 0.  1.
          6    1    1    2  502    0  0.47690789478E+02  0.51277148751E+02  0.89305497675E+03  0.91215949750E+03  0.17200000000E+03 0. -1.
         -6    1    1    2    0  502 -0.47690789478E+02 -0.51277148751E+02  0.32649084781E+03  0.37561154281E+03  0.17200000000E+03 0. -1.
</event>
<event>
 4    1 -0.7147820E-004  0.1910882E+03  0.7818608E-02  0.1157483E+00
          5   -1    0    0  501    0  0.00000000000E+00  0.00000000000E+00  0.62511950289E+03  0.62513717126E+03  0.47000000000E+01 0. -1.
         -5   -1    0    0    0  501 -0.00000000000E+00 -0.00000000000E+00 -0.62570147000E+02  0.62746420580E+02  0.47000000000E+01 0.  1.
          6    1    1    2  502    0  0.16597214298E+01  0.83234394440E+02  0.37098931348E+03  0.41731018417E+03  0.17200000000E+03 0.  1.
         -6    1    1    2    0  502 -0.16597214298E+01 -0.83234394440E+02  0.19156004241E+03  0.27057340767E+03  0.17200000000E+03 0. -1.
</event>
<event>
 4    1 -0.7147820E-004  0.2107769E+03  0.7818608E-02  0.1140952E+00
          5   -1    0    0  501    0  0.00000000000E+00  0.00000000000E+00  0.72457313052E+03  0.72458837382E+03  0.47000000000E+01 0. -1.
         -5   -1    0    0    0  501 -0.00000000000E+00 -0.00000000000E+00 -0.61590277362E+02  0.61769347298E+02  0.47000000000E+01 0.  1.
          6    1    1    2  502    0  0.10480040763E+03  0.62127058102E+02  0.30058868450E+03  0.36712457564E+03  0.17200000000E+03 0. -1.
         -6    1    1    2    0  502 -0.10480040763E+03 -0.62127058102E+02  0.36239416866E+03  0.41923314548E+03  0.17200000000E+03 0.  1.
</event>
<event>
 4    1 -0.7147820E-004  0.2015458E+03  0.7818608E-02  0.1148441E+00
         -5   -1    0    0    0  501 -0.00000000000E+00  0.00000000000E+00  0.11136797102E+03  0.11146710263E+03  0.47000000000E+01 0.  1.
          5   -1    0    0  501    0  0.00000000000E+00 -0.00000000000E+00 -0.16774275518E+04  0.16774341363E+04  0.47000000000E+01 0. -1.
          6    1    1    2  502    0 -0.87492462764E+02 -0.58153080380E+02 -0.15743370620E+04  0.15871855268E+04  0.17200000000E+03 0. -1.
         -6    1    1    2    0  502  0.87492462764E+02  0.58153080380E+02  0.82774812329E+01  0.20171571206E+03  0.17200000000E+03 0.  1.
</event>
<event>
 4    1 -0.7147820E-004  0.1849558E+03  0.7818608E-02  0.1163091E+00
          5   -1    0    0  501    0  0.00000000000E+00  0.00000000000E+00  0.29740645554E+03  0.29744359095E+03  0.47000000000E+01 0. -1.
         -5   -1    0    0    0  501 -0.00000000000E+00 -0.00000000000E+00 -0.14046609795E+03  0.14054470703E+03  0.47000000000E+01 0.  1.
          6    1    1    2  502    0  0.23449059475E+02 -0.63834057118E+02  0.17180083954E+03  0.25243647459E+03  0.17200000000E+03 0. -1.
         -6    1    1    2    0  502 -0.23449059475E+02  0.63834057118E+02 -0.14860481946E+02  0.18555182339E+03  0.17200000000E+03 0.  1.
</event>
<event>
 4    1 -0.7147820E-004  0.2028287E+03  0.7818608E-02  0.1147374E+00
          5   -1    0    0  501    0  0.00000000000E+00  0.00000000000E+00  0.23253571642E+03  0.23258320965E+03  0.47000000000E+01 0. -1.
         -5   -1    0    0    0  501 -0.00000000000E+00 -0.00000000000E+00 -0.39639502873E+03  0.39642289137E+03  0.47000000000E+01 0.  1.
          6    1    1    2  502    0 -0.36332529406E+02  0.10117024499E+03  0.15211648609E+03  0.25353283121E+03  0.17200000000E+03 0. -1.
         -6    1    1    2    0  502  0.36332529406E+02 -0.10117024499E+03 -0.31597579840E+03  0.37547326981E+03  0.17200000000E+03 0.  1.
</event>
<event>
 4    1 -0.7147820E-004  0.1789879E+03  0.7818608E-02  0.1168786E+00
         -5   -1    0    0    0  501 -0.00000000000E+00  0.00000000000E+00  0.41118086089E+02  0.41385830953E+02  0.47000000000E+01 0.  1.
          5   -1    0    0  501    0  0.00000000000E+00 -0.00000000000E+00 -0.10241779581E+04  0.10241887423E+04  0.47000000000E+01 0. -1.
          6    1    1    2  502    0  0.38876933531E+02 -0.30679855116E+02 -0.75358659933E+03  0.77455111656E+03  0.17200000000E+03 0. -1.
         -6    1    1    2    0  502 -0.38876933531E+02  0.30679855116E+02 -0.22947327266E+03  0.29102345668E+03  0.17200000000E+03 0.  1.
</event>
<event>
 4    1 -0.7147820E-004  0.1809484E+03  0.7818608E-02  0.1166888E+00
         -5   -1    0    0    0  501 -0.00000000000E+00  0.00000000000E+00  0.41347805313E+03  0.41350476468E+03  0.47000000000E+01 0.  1.
          5   -1    0    0  501    0  0.00000000000E+00 -0.00000000000E+00 -0.12277982521E+03  0.12286975005E+03  0.47000000000E+01 0. -1.
          6    1    1    2  502    0  0.31674736851E+01  0.56109781321E+02 -0.14541077103E+02  0.18153176960E+03  0.17200000000E+03 0. -1.
         -6    1    1    2    0  502 -0.31674736851E+01 -0.56109781321E+02  0.30523930502E+03  0.35484274514E+03  0.17200000000E+03 0.  1.
</event>
<event>
 4    1 -0.7147820E-004  0.2344427E+03  0.7818608E-02  0.1123551E+00
         -5   -1    0    0    0  501 -0.00000000000E+00  0.00000000000E+00  0.18511376514E+03  0.18517342154E+03  0.47000000000E+01 0.  1.
          5   -1    0    0  501    0  0.00000000000E+00 -0.00000000000E+00 -0.32268023727E+03  0.32271446438E+03  0.47000000000E+01 0. -1.
          6    1    1    2  502    0 -0.15063131704E+03 -0.51861443138E+02 -0.14070311007E+03  0.27342415428E+03  0.17200000000E+03 0. -1.
         -6    1    1    2    0  502  0.15063131704E+03  0.51861443138E+02  0.31366379453E+01  0.23446373164E+03  0.17200000000E+03 0.  1.
</event>
<event>
 4    1 -0.7147820E-004  0.1863537E+03  0.7818608E-02  0.1161792E+00
         -5   -1    0    0    0  501 -0.00000000000E+00  0.00000000000E+00  0.20900604970E+03  0.20905888838E+03  0.47000000000E+01 0.  1.
          5   -1    0    0  501    0  0.00000000000E+00 -0.00000000000E+00 -0.74550892422E+03  0.74552373946E+03  0.47000000000E+01 0. -1.
          6    1    1    2  502    0 -0.60148222985E+02 -0.39062538535E+02 -0.68901823782E+03  0.71377434998E+03  0.17200000000E+03 0. -1.
         -6    1    1    2    0  502  0.60148222985E+02  0.39062538535E+02  0.15251536329E+03  0.24080827786E+03  0.17200000000E+03 0.  1.
</event>
<event>
 4    1 -0.7147820E-004  0.2025023E+03  0.7818608E-02  0.1147645E+00
          5   -1    0    0  501    0  0.00000000000E+00  0.00000000000E+00  0.57145329757E+03  0.57147262515E+03  0.47000000000E+01 0. -1.
         -5   -1    0    0    0  501 -0.00000000000E+00 -0.00000000000E+00 -0.24041452308E+03  0.24046046018E+03  0.47000000000E+01 0.  1.
          6    1    1    2  502    0  0.10143878847E+03 -0.33665563056E+02  0.50555731284E+03  0.54460572390E+03  0.17200000000E+03 0. -1.
         -6    1    1    2    0  502 -0.10143878847E+03  0.33665563056E+02 -0.17451853835E+03  0.26732736143E+03  0.17200000000E+03 0.  1.
</event>
<event>
 4    1 -0.7147820E-004  0.2786065E+03  0.7818608E-02  0.1096452E+00
         -5   -1    0    0    0  501 -0.00000000000E+00  0.00000000000E+00  0.50180750931E+03  0.50182951926E+03  0.47000000000E+01 0.  1.
          5   -1    0    0  501    0  0.00000000000E+00 -0.00000000000E+00 -0.19740898532E+03  0.19746492723E+03  0.47000000000E+01 0. -1.
          6    1    1    2  502    0 -0.20379121167E+03 -0.80664328858E+02 -0.10544264710E+02  0.27880597809E+03  0.17200000000E+03 0. -1.
         -6    1    1    2    0  502  0.20379121167E+03  0.80664328858E+02  0.31494278869E+03  0.42048846839E+03  0.17200000000E+03 0.  1.
</event>
<event>
 4    1 -0.7147820E-004  0.2040796E+03  0.7818608E-02  0.1146342E+00
         -5   -1    0    0    0  501 -0.00000000000E+00  0.00000000000E+00  0.16530116131E+03  0.16536796525E+03  0.47000000000E+01 0.  1.
          5   -1    0    0  501    0  0.00000000000E+00 -0.00000000000E+00 -0.32744266342E+03  0.32747639278E+03  0.47000000000E+01 0. -1.
          6    1    1    2  502    0  0.10971260205E+03  0.52552369846E+01 -0.19947877133E+03  0.28537738659E+03  0.17200000000E+03 0. -1.
         -6    1    1    2    0  502 -0.10971260205E+03 -0.52552369846E+01  0.37337269223E+02  0.20746697144E+03  0.17200000000E+03 0.  1.
</event>
<event>
 4    1 -0.7147820E-004  0.1871312E+03  0.7818608E-02  0.1161075E+00
          5   -1    0    0  501    0  0.00000000000E+00  0.00000000000E+00  0.21633561571E+03  0.21638666462E+03  0.47000000000E+01 0. -1.
         -5   -1    0    0    0  501 -0.00000000000E+00 -0.00000000000E+00 -0.51670502169E+03  0.51672639708E+03  0.47000000000E+01 0.  1.
          6    1    1    2  502    0 -0.58047381431E+02 -0.45437838475E+02  0.15359363569E+03  0.24209316509E+03  0.17200000000E+03 0. -1.
         -6    1    1    2    0  502  0.58047381431E+02  0.45437838475E+02 -0.45396304168E+03  0.49101989661E+03  0.17200000000E+03 0.  1.
</event>
<event>
 4    1 -0.7147820E-004  0.2298254E+03  0.7818608E-02  0.1126763E+00
         -5   -1    0    0    0  501 -0.00000000000E+00  0.00000000000E+00  0.63341721192E+03  0.63343464884E+03  0.47000000000E+01 0.  1.
          5   -1    0    0  501    0  0.00000000000E+00 -0.00000000000E+00 -0.12496684989E+04  0.12496773372E+04  0.47000000000E+01 0. -1.
          6    1    1    2  502    0 -0.13936297485E+03 -0.61754926882E+02 -0.12177260386E+04  0.12392241180E+04  0.17200000000E+03 0. -1.
         -6    1    1    2    0  502  0.13936297485E+03  0.61754926882E+02  0.60147475159E+03  0.64388786800E+03  0.17200000000E+03 0.  1.
</event>
<event>
 4    1 -0.7147820E-004  0.2598397E+03  0.7818608E-02  0.1107240E+00
          5   -1    0    0  501    0  0.00000000000E+00  0.00000000000E+00  0.27404196507E+03  0.27408226615E+03  0.47000000000E+01 0. -1.
         -5   -1    0    0    0  501 -0.00000000000E+00 -0.00000000000E+00 -0.69835474392E+03  0.69837055948E+03  0.47000000000E+01 0.  1.
          6    1    1    2  502    0  0.19374844771E+03  0.19855203478E+02  0.17902443788E+03  0.31554150195E+03  0.17200000000E+03 0. -1.
         -6    1    1    2    0  502 -0.19374844771E+03 -0.19855203478E+02 -0.60333721673E+03  0.65691132369E+03  0.17200000000E+03 0.  1.
</event>
<event>
 4    1 -0.7147820E-004  0.2304842E+03  0.7818608E-02  0.1126299E+00
         -5   -1    0    0    0  501 -0.00000000000E+00  0.00000000000E+00  0.52292635919E+03  0.52294748029E+03  0.47000000000E+01 0.  1.
          5   -1    0    0  501    0  0.00000000000E+00 -0.00000000000E+00 -0.13528382766E+03  0.13536544621E+03  0.47000000000E+01 0. -1.
          6    1    1    2  502    0 -0.38868401936E+02  0.14841903114E+03  0.35821341122E+03  0.42595752071E+03  0.17200000000E+03 0. -1.
         -6    1    1    2    0  502  0.38868401936E+02 -0.14841903114E+03  0.29429120313E+02  0.23235540578E+03  0.17200000000E+03 0. -1.
</event>
<event>
 4    1 -0.7147820E-004  0.2248567E+03  0.7818608E-02  0.1130313E+00
         -5   -1    0    0    0  501 -0.00000000000E+00  0.00000000000E+00  0.15775526272E+03  0.15782526070E+03  0.47000000000E+01 0.  1.
          5   -1    0    0  501    0  0.00000000000E+00 -0.00000000000E+00 -0.60846359008E+03  0.60848174209E+03  0.47000000000E+01 0. -1.
          6    1    1    2  502    0  0.11117934332E+03 -0.92820758222E+02 -0.48899299913E+03  0.53821435575E+03  0.17200000000E+03 0. -1.
         -6    1    1    2    0  502 -0.11117934332E+03  0.92820758222E+02  0.38284671770E+02  0.22809264703E+03  0.17200000000E+03 0.  1.
</event>
<event>
 4    1 -0.7147820E-004  0.1746087E+03  0.7818608E-02  0.1173125E+00
         -5   -1    0    0    0  501 -0.00000000000E+00  0.00000000000E+00  0.56255271427E+02  0.56451267155E+02  0.47000000000E+01 0.  1.
          5   -1    0    0  501    0  0.00000000000E+00 -0.00000000000E+00 -0.65654039412E+03  0.65655721694E+03  0.47000000000E+01 0. -1.
          6    1    1    2  502    0  0.79280794968E+01 -0.29006152026E+02 -0.44979395707E+03  0.48249644052E+03  0.17200000000E+03 0. -1.
         -6    1    1    2    0  502 -0.79280794968E+01  0.29006152026E+02 -0.15049116562E+03  0.23051204357E+03  0.17200000000E+03 0.  1.
</event>
<event>
 4    1 -0.7147820E-004  0.2475371E+03  0.7818608E-02  0.1114871E+00
         -5   -1    0    0    0  501 -0.00000000000E+00  0.00000000000E+00  0.41310842590E+03  0.41313516136E+03  0.47000000000E+01 0.  1.
          5   -1    0    0  501    0  0.00000000000E+00 -0.00000000000E+00 -0.63404408512E+03  0.63406150481E+03  0.47000000000E+01 0. -1.
          6    1    1    2  502    0 -0.12842262643E+03  0.12328119963E+03 -0.56875386092E+03  0.62028669135E+03  0.17200000000E+03 0. -1.
         -6    1    1    2    0  502  0.12842262643E+03 -0.12328119963E+03  0.34781820170E+03  0.42690997481E+03  0.17200000000E+03 0.  1.
</event>
<event>
 4    1 -0.7147820E-004  0.1836236E+03  0.7818608E-02  0.1164341E+00
          5   -1    0    0  501    0  0.00000000000E+00  0.00000000000E+00  0.52094289886E+03  0.52096410037E+03  0.47000000000E+01 0. -1.
         -5   -1    0    0    0  501 -0.00000000000E+00 -0.00000000000E+00 -0.66205481433E+02  0.66372100854E+02  0.47000000000E+01 0.  1.
          6    1    1    2  502    0  0.56898511943E+02  0.29936309069E+02  0.18193605282E+03  0.25849245749E+03  0.17200000000E+03 0.  1.
         -6    1    1    2    0  502 -0.56898511943E+02 -0.29936309069E+02  0.27280136460E+03  0.32884374373E+03  0.17200000000E+03 0. -1.
</event>
<event>
 4    1 -0.7147820E-004  0.2050506E+03  0.7818608E-02  0.1145546E+00
         -5   -1    0    0    0  501 -0.00000000000E+00  0.00000000000E+00  0.57879330750E+03  0.57881238999E+03  0.47000000000E+01 0.  1.
          5   -1    0    0  501    0  0.00000000000E+00 -0.00000000000E+00 -0.15387422797E+03  0.15394599064E+03  0.47000000000E+01 0. -1.
          6    1    1    2  502    0 -0.13271651894E+02  0.11084045564E+03 -0.53784420297E+02  0.21198704493E+03  0.17200000000E+03 0. -1.
         -6    1    1    2    0  502  0.13271651894E+02 -0.11084045564E+03  0.47870349983E+03  0.52077133571E+03  0.17200000000E+03 0.  1.
</event>
<event>
 4    1 -0.7147820E-004  0.2190555E+03  0.7818608E-02  0.1134589E+00
         -5   -1    0    0    0  501 -0.00000000000E+00  0.00000000000E+00  0.30879308715E+03  0.30882885337E+03  0.47000000000E+01 0.  1.
          5   -1    0    0  501    0  0.00000000000E+00 -0.00000000000E+00 -0.12698587810E+04  0.12698674788E+04  0.47000000000E+01 0. -1.
          6    1    1    2  502    0 -0.60860394864E+02 -0.12123247726E+03 -0.12200126694E+04  0.12395225753E+04  0.17200000000E+03 0. -1.
         -6    1    1    2    0  502  0.60860394864E+02  0.12123247726E+03  0.25894697553E+03  0.33917375686E+03  0.17200000000E+03 0.  1.
</event>
<event>
 4    1 -0.7147820E-004  0.2009865E+03  0.7818608E-02  0.1148909E+00
          5   -1    0    0  501    0  0.00000000000E+00  0.00000000000E+00  0.35004427251E+02  0.35318549335E+02  0.47000000000E+01 0. -1.
         -5   -1    0    0    0  501 -0.00000000000E+00 -0.00000000000E+00 -0.21646737229E+04  0.21646788253E+04  0.47000000000E+01 0.  1.
          6    1    1    2  502    0  0.19923131579E+02  0.10205219580E+03 -0.31123761523E+03  0.37049215238E+03  0.17200000000E+03 0. -1.
         -6    1    1    2    0  502 -0.19923131579E+02 -0.10205219580E+03 -0.18184316804E+04  0.18295052222E+04  0.17200000000E+03 0.  1.
</event>
<event>
 4    1 -0.7147820E-004  0.1862645E+03  0.7818608E-02  0.1161874E+00
         -5   -1    0    0    0  501 -0.00000000000E+00  0.00000000000E+00  0.41500040990E+03  0.41502702348E+03  0.47000000000E+01 0.  1.
          5   -1    0    0  501    0  0.00000000000E+00 -0.00000000000E+00 -0.19248711569E+03  0.19254448761E+03  0.47000000000E+01 0. -1.
          6    1    1    2  502    0 -0.39626904112E+02 -0.59499341253E+02 -0.11725375886E+03  0.22009749455E+03  0.17200000000E+03 0. -1.
         -6    1    1    2    0  502  0.39626904112E+02  0.59499341253E+02  0.33976705308E+03  0.38747401654E+03  0.17200000000E+03 0.  1.
</event>
<event>
 4    1 -0.7147820E-004  0.2015355E+03  0.7818608E-02  0.1148450E+00
          5   -1    0    0  501    0  0.00000000000E+00  0.00000000000E+00  0.43997899319E+02  0.44248221936E+02  0.47000000000E+01 0. -1.
         -5   -1    0    0    0  501 -0.00000000000E+00 -0.00000000000E+00 -0.14453954946E+04  0.14454031360E+04  0.47000000000E+01 0.  1.
          6    1    1    2  502    0  0.72391957969E+02  0.76105049817E+02 -0.25179580627E+03  0.32251775493E+03  0.17200000000E+03 0. -1.
         -6    1    1    2    0  502 -0.72391957969E+02 -0.76105049817E+02 -0.11496017890E+04  0.11671336030E+04  0.17200000000E+03 0.  1.
</event>
<event>
 4    1 -0.7147820E-004  0.1855180E+03  0.7818608E-02  0.1162567E+00
          5   -1    0    0  501    0  0.00000000000E+00  0.00000000000E+00  0.10576489709E+04  0.10576594138E+04  0.47000000000E+01 0. -1.
         -5   -1    0    0    0  501 -0.00000000000E+00 -0.00000000000E+00 -0.65172651115E+02  0.65341904268E+02  0.47000000000E+01 0.  1.
          6    1    1    2  502    0  0.56430467983E+02  0.40602226208E+02  0.89384464910E+03  0.91289385758E+03  0.17200000000E+03 0. -1.
         -6    1    1    2    0  502 -0.56430467983E+02 -0.40602226208E+02  0.98631670648E+02  0.21010746047E+03  0.17200000000E+03 0.  1.
</event>
<event>
 4    1 -0.7147820E-004  0.1918209E+03  0.7818608E-02  0.1156829E+00
          5   -1    0    0  501    0  0.00000000000E+00  0.00000000000E+00  0.82487640679E+03  0.82488979656E+03  0.47000000000E+01 0. -1.
         -5   -1    0    0    0  501 -0.00000000000E+00 -0.00000000000E+00 -0.54342489814E+03  0.54344522255E+03  0.47000000000E+01 0.  1.
          6    1    1    2  502    0  0.20873469668E+02  0.82313839351E+02  0.79621366871E+03  0.81899418565E+03  0.17200000000E+03 0. -1.
         -6    1    1    2    0  502 -0.20873469668E+02 -0.82313839351E+02 -0.51476216006E+03  0.54934083347E+03  0.17200000000E+03 0.  1.
</event>
<event>
 4    1 -0.7147820E-004  0.1856044E+03  0.7818608E-02  0.1162487E+00
          5   -1    0    0  501    0  0.00000000000E+00  0.00000000000E+00  0.71238108241E+02  0.71392983309E+02  0.47000000000E+01 0. -1.
         -5   -1    0    0    0  501 -0.00000000000E+00 -0.00000000000E+00 -0.81101052879E+03  0.81102414748E+03  0.47000000000E+01 0.  1.
          6    1    1    2  502    0 -0.69268276021E+02  0.81785988838E+01 -0.89274922795E+02  0.20595872252E+03  0.17200000000E+03 0. -1.
         -6    1    1    2    0  502  0.69268276021E+02 -0.81785988838E+01 -0.65049749775E+03  0.67645840827E+03  0.17200000000E+03 0.  1.
</event>
<event>
 4    1 -0.7147820E-004  0.3882830E+03  0.7818608E-02  0.1047914E+00
          5   -1    0    0  501    0  0.00000000000E+00  0.00000000000E+00  0.34563239053E+03  0.34566434497E+03  0.47000000000E+01 0. -1.
         -5   -1    0    0    0  501 -0.00000000000E+00 -0.00000000000E+00 -0.62026234886E+03  0.62028015558E+03  0.47000000000E+01 0.  1.
          6    1    1    2  502    0  0.28168597252E+01  0.34809737914E+03  0.12581993345E+03  0.40815974289E+03  0.17200000000E+03 0. -1.
         -6    1    1    2    0  502 -0.28168597252E+01 -0.34809737914E+03 -0.40044989178E+03  0.55778475767E+03  0.17200000000E+03 0.  1.
</event>
<event>
 4    1 -0.7147820E-004  0.1819361E+03  0.7818608E-02  0.1165942E+00
         -5   -1    0    0    0  501 -0.00000000000E+00  0.00000000000E+00  0.72298654977E+03  0.72300182652E+03  0.47000000000E+01 0.  1.
          5   -1    0    0  501    0  0.00000000000E+00 -0.00000000000E+00 -0.53306410357E+02  0.53513207576E+02  0.47000000000E+01 0. -1.
          6    1    1    2  502    0 -0.47271837318E+02 -0.35806824516E+02  0.18799590884E+03  0.26161654578E+03  0.17200000000E+03 0. -1.
         -6    1    1    2    0  502  0.47271837318E+02  0.35806824516E+02  0.48168423057E+03  0.51489848831E+03  0.17200000000E+03 0.  1.
</event>
<event>
 4    1 -0.7147820E-004  0.1826686E+03  0.7818608E-02  0.1165245E+00
          5   -1    0    0  501    0  0.00000000000E+00  0.00000000000E+00  0.39457548145E+03  0.39460347257E+03  0.47000000000E+01 0. -1.
         -5   -1    0    0    0  501 -0.00000000000E+00 -0.00000000000E+00 -0.89374118111E+02  0.89497614427E+02  0.47000000000E+01 0.  1.
          6    1    1    2  502    0 -0.16835566351E+02 -0.59163942370E+02  0.95950301056E+02  0.20633533058E+03  0.17200000000E+03 0.  1.
         -6    1    1    2    0  502  0.16835566351E+02  0.59163942370E+02  0.20925106228E+03  0.27776575642E+03  0.17200000000E+03 0. -1.
</event>
<event>
 4    1 -0.7147820E-004  0.2011491E+03  0.7818608E-02  0.1148773E+00
          5   -1    0    0  501    0  0.00000000000E+00  0.00000000000E+00  0.18593845772E+02  0.19178662639E+02  0.47000000000E+01 0. -1.
         -5   -1    0    0    0  501 -0.00000000000E+00 -0.00000000000E+00 -0.24314058080E+04  0.24314103507E+04  0.47000000000E+01 0.  1.
          6    1    1    2  502    0  0.67674094516E+02  0.79354672689E+02 -0.78355087864E+03  0.80895792633E+03  0.17200000000E+03 0. -1.
         -6    1    1    2    0  502 -0.67674094516E+02 -0.79354672689E+02 -0.16292610836E+04  0.16416310870E+04  0.17200000000E+03 0.  1.
</event>
<event>
 4    1 -0.7147820E-004  0.2151286E+03  0.7818608E-02  0.1137568E+00
          5   -1    0    0  501    0  0.00000000000E+00  0.00000000000E+00  0.31412636365E+03  0.31416152269E+03  0.47000000000E+01 0. -1.
         -5   -1    0    0    0  501 -0.00000000000E+00 -0.00000000000E+00 -0.38148631931E+03  0.38151527075E+03  0.47000000000E+01 0.  1.
          6    1    1    2  502    0  0.34931426081E+02  0.12440293284E+03  0.23885122141E+03  0.32145015196E+03  0.17200000000E+03 0. -1.
         -6    1    1    2    0  502 -0.34931426081E+02 -0.12440293284E+03 -0.30621117707E+03  0.37422664148E+03  0.17200000000E+03 0.  1.
</event>
<event>
 4    1 -0.7147820E-004  0.1832887E+03  0.7818608E-02  0.1164658E+00
         -5   -1    0    0    0  501 -0.00000000000E+00  0.00000000000E+00  0.45072320106E+02  0.45316708174E+02  0.47000000000E+01 0.  1.
          5   -1    0    0  501    0  0.00000000000E+00 -0.00000000000E+00 -0.14712631793E+04  0.14712706864E+04  0.47000000000E+01 0. -1.
          6    1    1    2  502    0 -0.57504152686E+02  0.26533260193E+02 -0.12465204838E+04  0.12599238302E+04  0.17200000000E+03 0. -1.
         -6    1    1    2    0  502  0.57504152686E+02 -0.26533260193E+02 -0.17967037534E+03  0.25666356431E+03  0.17200000000E+03 0.  1.
</event>
<event>
 4    1 -0.7147820E-004  0.2067187E+03  0.7818608E-02  0.1144191E+00
         -5   -1    0    0    0  501 -0.00000000000E+00  0.00000000000E+00  0.41063438774E+03  0.41066128427E+03  0.47000000000E+01 0.  1.
          5   -1    0    0  501    0  0.00000000000E+00 -0.00000000000E+00 -0.10870853552E+03  0.10881009004E+03  0.47000000000E+01 0. -1.
          6    1    1    2  502    0  0.67814052882E+02 -0.92465598920E+02  0.96833678457E+02  0.22827482129E+03  0.17200000000E+03 0. -1.
         -6    1    1    2    0  502 -0.67814052882E+02  0.92465598920E+02  0.20509217377E+03  0.29119655302E+03  0.17200000000E+03 0.  1.
</event>
<event>
 4    1 -0.7147820E-004  0.2288196E+03  0.7818608E-02  0.1127473E+00
         -5   -1    0    0    0  501 -0.00000000000E+00  0.00000000000E+00  0.10980396596E+04  0.10980497183E+04  0.47000000000E+01 0.  1.
          5   -1    0    0  501    0  0.00000000000E+00 -0.00000000000E+00 -0.50486001187E+02  0.50704302735E+02  0.47000000000E+01 0. -1.
          6    1    1    2  502    0 -0.15090223009E+03  0.17079747000E+01  0.38575984340E+03  0.44851873651E+03  0.17200000000E+03 0. -1.
         -6    1    1    2    0  502  0.15090223009E+03 -0.17079747000E+01  0.66179381497E+03  0.70023528457E+03  0.17200000000E+03 0.  1.
</event>
<event>
 4    1 -0.7147820E-004  0.1838553E+03  0.7818608E-02  0.1164123E+00
         -5   -1    0    0    0  501 -0.00000000000E+00  0.00000000000E+00  0.27181584790E+03  0.27185647899E+03  0.47000000000E+01 0.  1.
          5   -1    0    0  501    0  0.00000000000E+00 -0.00000000000E+00 -0.41998785604E+03  0.42001415359E+03  0.47000000000E+01 0. -1.
          6    1    1    2  502    0 -0.10984906421E+02  0.64016453296E+02 -0.36433344040E+03  0.40809512402E+03  0.17200000000E+03 0. -1.
         -6    1    1    2    0  502  0.10984906421E+02 -0.64016453296E+02  0.21616143225E+03  0.28377550856E+03  0.17200000000E+03 0.  1.
</event>
<event>
 4    1 -0.7147820E-004  0.1854498E+03  0.7818608E-02  0.1162631E+00
          5   -1    0    0  501    0  0.00000000000E+00  0.00000000000E+00  0.90173680255E+02  0.90296083031E+02  0.47000000000E+01 0. -1.
         -5   -1    0    0    0  501 -0.00000000000E+00 -0.00000000000E+00 -0.60810649021E+03  0.60812465288E+03  0.47000000000E+01 0.  1.
          6    1    1    2  502    0 -0.40502873848E+02  0.56277392268E+02 -0.45582212279E+02  0.19096954141E+03  0.17200000000E+03 0. -1.
         -6    1    1    2    0  502  0.40502873848E+02 -0.56277392268E+02 -0.47235059768E+03  0.50745119450E+03  0.17200000000E+03 0.  1.
</event>
<event>
 4    1 -0.7147820E-004  0.2076655E+03  0.7818608E-02  0.1143428E+00
          5   -1    0    0  501    0  0.00000000000E+00  0.00000000000E+00  0.15578582590E+03  0.15585670839E+03  0.47000000000E+01 0. -1.
         -5   -1    0    0    0  501 -0.00000000000E+00 -0.00000000000E+00 -0.55968405183E+03  0.55970378583E+03  0.47000000000E+01 0.  1.
          6    1    1    2  502    0 -0.98825229972E+02 -0.61437097138E+02  0.52447434169E+02  0.21418607876E+03  0.17200000000E+03 0. -1.
         -6    1    1    2    0  502  0.98825229972E+02  0.61437097138E+02 -0.45634566011E+03  0.50137441546E+03  0.17200000000E+03 0.  1.
</event>
<event>
 4    1 -0.7147820E-004  0.1805395E+03  0.7818608E-02  0.1167282E+00
         -5   -1    0    0    0  501 -0.00000000000E+00  0.00000000000E+00  0.85763775740E+03  0.85765063571E+03  0.47000000000E+01 0.  1.
          5   -1    0    0  501    0  0.00000000000E+00 -0.00000000000E+00 -0.50535004188E+02  0.50753094962E+02  0.47000000000E+01 0. -1.
          6    1    1    2  502    0  0.31768568020E+02  0.44735434092E+02  0.17655799693E+03  0.25252173621E+03  0.17200000000E+03 0. -1.
         -6    1    1    2    0  502 -0.31768568020E+02 -0.44735434092E+02  0.63054475628E+03  0.65588199446E+03  0.17200000000E+03 0.  1.
</event>
<event>
 4    1 -0.7147820E-004  0.1998744E+03  0.7818608E-02  0.1149845E+00
          5   -1    0    0  501    0  0.00000000000E+00  0.00000000000E+00  0.69918830143E+03  0.69920409815E+03  0.47000000000E+01 0. -1.
         -5   -1    0    0    0  501 -0.00000000000E+00 -0.00000000000E+00 -0.32942891510E+03  0.32946244111E+03  0.47000000000E+01 0.  1.
          6    1    1    2  502    0  0.51059936852E+02  0.88083267934E+02  0.65249191875E+03  0.68241884739E+03  0.17200000000E+03 0. -1.
         -6    1    1    2    0  502 -0.51059936852E+02 -0.88083267934E+02 -0.28273253241E+03  0.34624769187E+03  0.17200000000E+03 0.  1.
</event>
<event>
 4    1 -0.7147820E-004  0.2712167E+03  0.7818608E-02  0.1100585E+00
         -5   -1    0    0    0  501 -0.00000000000E+00  0.00000000000E+00  0.64090997694E+03  0.64092721002E+03  0.47000000000E+01 0.  1.
          5   -1    0    0  501    0  0.00000000000E+00 -0.00000000000E+00 -0.66714054504E+03  0.66715710057E+03  0.47000000000E+01 0. -1.
          6    1    1    2  502    0  0.16113235301E+03  0.13420461472E+03 -0.60824807315E+03  0.66597614994E+03  0.17200000000E+03 0. -1.
         -6    1    1    2    0  502 -0.16113235301E+03 -0.13420461472E+03  0.58201750504E+03  0.64210816065E+03  0.17200000000E+03 0.  1.
</event>
<event>
 4    1 -0.7147820E-004  0.2011319E+03  0.7818608E-02  0.1148788E+00
         -5   -1    0    0    0  501 -0.00000000000E+00  0.00000000000E+00  0.34509087615E+03  0.34512288073E+03  0.47000000000E+01 0.  1.
          5   -1    0    0  501    0  0.00000000000E+00 -0.00000000000E+00 -0.15500286912E+03  0.15507410950E+03  0.47000000000E+01 0. -1.
          6    1    1    2  502    0  0.90337040862E+02 -0.52050572562E+02 -0.28514333956E+02  0.20314307839E+03  0.17200000000E+03 0. -1.
         -6    1    1    2    0  502 -0.90337040862E+02  0.52050572562E+02  0.21860234098E+03  0.29705391184E+03  0.17200000000E+03 0.  1.
</event>
<event>
 4    1 -0.7147820E-004  0.2103557E+03  0.7818608E-02  0.1141285E+00
          5   -1    0    0  501    0  0.00000000000E+00  0.00000000000E+00  0.33660731785E+03  0.33664012896E+03  0.47000000000E+01 0. -1.
         -5   -1    0    0    0  501 -0.00000000000E+00 -0.00000000000E+00 -0.30095114087E+03  0.30098783894E+03  0.47000000000E+01 0.  1.
          6    1    1    2  502    0  0.10787294776E+03 -0.55035814484E+02  0.25710624908E+03  0.33219442658E+03  0.17200000000E+03 0. -1.
         -6    1    1    2    0  502 -0.10787294776E+03  0.55035814484E+02 -0.22145007209E+03  0.30543354132E+03  0.17200000000E+03 0.  1.
</event>
<event>
 4    1 -0.7147820E-004  0.2065026E+03  0.7818608E-02  0.1144366E+00
          5   -1    0    0  501    0  0.00000000000E+00  0.00000000000E+00  0.23056804948E+03  0.23061594794E+03  0.47000000000E+01 0. -1.
         -5   -1    0    0    0  501 -0.00000000000E+00 -0.00000000000E+00 -0.51573628690E+03  0.51575770244E+03  0.47000000000E+01 0.  1.
          6    1    1    2  502    0  0.98639692128E+02 -0.57702183361E+02  0.15630717430E+03  0.25898892557E+03  0.17200000000E+03 0. -1.
         -6    1    1    2    0  502 -0.98639692128E+02  0.57702183361E+02 -0.44147541172E+03  0.48738472481E+03  0.17200000000E+03 0.  1.
</event>
<event>
 4    1 -0.7147820E-004  0.2235882E+03  0.7818608E-02  0.1131236E+00
         -5   -1    0    0    0  501 -0.00000000000E+00  0.00000000000E+00  0.11049594116E+04  0.11049694074E+04  0.47000000000E+01 0.  1.
          5   -1    0    0  501    0  0.00000000000E+00 -0.00000000000E+00 -0.14430904378E+03  0.14438556062E+03  0.47000000000E+01 0. -1.
          6    1    1    2  502    0  0.13737688874E+03  0.39182423210E+02 -0.37287722580E+02  0.22667608190E+03  0.17200000000E+03 0. -1.
         -6    1    1    2    0  502 -0.13737688874E+03 -0.39182423210E+02  0.99793809041E+03  0.10226788861E+04  0.17200000000E+03 0.  1.
</event>
<event>
 4    1 -0.7147820E-004  0.1898945E+03  0.7818608E-02  0.1158557E+00
         -5   -1    0    0    0  501 -0.00000000000E+00  0.00000000000E+00  0.93071645245E+03  0.93072831957E+03  0.47000000000E+01 0.  1.
          5   -1    0    0  501    0  0.00000000000E+00 -0.00000000000E+00 -0.46230566136E+02  0.46468863180E+02  0.47000000000E+01 0. -1.
          6    1    1    2  502    0 -0.39860030709E+02 -0.69907734124E+02  0.24418990485E+03  0.30933577706E+03  0.17200000000E+03 0. -1.
         -6    1    1    2    0  502  0.39860030709E+02  0.69907734124E+02  0.64029598146E+03  0.66786140569E+03  0.17200000000E+03 0.  1.
</event>
<event>
 4    1 -0.7147820E-004  0.1895648E+03  0.7818608E-02  0.1158854E+00
          5   -1    0    0  501    0  0.00000000000E+00  0.00000000000E+00  0.13076080444E+03  0.13084524438E+03  0.47000000000E+01 0. -1.
         -5   -1    0    0    0  501 -0.00000000000E+00 -0.00000000000E+00 -0.11667705365E+04  0.11667800027E+04  0.47000000000E+01 0.  1.
          6    1    1    2  502    0  0.67933115689E+02 -0.41664211720E+02  0.49311448708E+02  0.19587351459E+03  0.17200000000E+03 0. -1.
         -6    1    1    2    0  502 -0.67933115689E+02  0.41664211720E+02 -0.10853211807E+04  0.11017517325E+04  0.17200000000E+03 0.  1.
</event>
<event>
 4    1 -0.7147820E-004  0.2024034E+03  0.7818608E-02  0.1147727E+00
         -5   -1    0    0    0  501 -0.00000000000E+00  0.00000000000E+00  0.32625731433E+03  0.32629116622E+03  0.47000000000E+01 0.  1.
          5   -1    0    0  501    0  0.00000000000E+00 -0.00000000000E+00 -0.12550130018E+03  0.12558927640E+03  0.47000000000E+01 0. -1.
          6    1    1    2  502    0 -0.62186513932E+02 -0.86694701446E+02  0.10313607527E+03  0.22716554271E+03  0.17200000000E+03 0. -1.
         -6    1    1    2    0  502  0.62186513932E+02  0.86694701446E+02  0.97619938890E+02  0.22471489991E+03  0.17200000000E+03 0. -1.
</event>
<event>
 4    1 -0.7147820E-004  0.2092991E+03  0.7818608E-02  0.1142122E+00
         -5   -1    0    0    0  501 -0.00000000000E+00  0.00000000000E+00  0.29697010144E+03  0.29700729141E+03  0.47000000000E+01 0.  1.
          5   -1    0    0  501    0  0.00000000000E+00 -0.00000000000E+00 -0.16550789961E+03  0.16557462014E+03  0.47000000000E+01 0. -1.
          6    1    1    2  502    0 -0.53358189163E+02  0.10665367679E+03 -0.10692311379E+02  0.20957201303E+03  0.17200000000E+03 0. -1.
         -6    1    1    2    0  502  0.53358189163E+02 -0.10665367679E+03  0.14215451321E+03  0.25300989852E+03  0.17200000000E+03 0.  1.
</event>
<event>
 4    1 -0.7147820E-004  0.3579432E+03  0.7818608E-02  0.1059401E+00
          5   -1    0    0  501    0  0.00000000000E+00  0.00000000000E+00  0.46162507622E+03  0.46164900194E+03  0.47000000000E+01 0. -1.
         -5   -1    0    0    0  501 -0.00000000000E+00 -0.00000000000E+00 -0.16127387754E+04  0.16127456240E+04  0.47000000000E+01 0.  1.
          6    1    1    2  502    0 -0.17054412549E+03  0.26354131211E+03  0.36818430362E+03  0.51350073355E+03  0.17200000000E+03 0. -1.
         -6    1    1    2    0  502  0.17054412549E+03 -0.26354131211E+03 -0.15192980028E+04  0.15608938924E+04  0.17200000000E+03 0.  1.
</event>
<event>
 4    1 -0.7147820E-004  0.1884937E+03  0.7818608E-02  0.1159827E+00
          5   -1    0    0  501    0  0.00000000000E+00  0.00000000000E+00  0.22572611242E+03  0.22577503810E+03  0.47000000000E+01 0. -1.
         -5   -1    0    0    0  501 -0.00000000000E+00 -0.00000000000E+00 -0.62135578879E+03  0.62137356418E+03  0.47000000000E+01 0.  1.
          6    1    1    2  502    0  0.57567648431E+02  0.51301430262E+02  0.16821067575E+03  0.25263551280E+03  0.17200000000E+03 0. -1.
         -6    1    1    2    0  502 -0.57567648431E+02 -0.51301430262E+02 -0.56384035211E+03  0.59451308948E+03  0.17200000000E+03 0.  1.
</event>
<event>
 4    1 -0.7147820E-004  0.1731113E+03  0.7818608E-02  0.1174642E+00
          5   -1    0    0  501    0  0.00000000000E+00  0.00000000000E+00  0.77734935334E+02  0.77876891126E+02  0.47000000000E+01 0. -1.
         -5   -1    0    0    0  501 -0.00000000000E+00 -0.00000000000E+00 -0.48057876943E+03  0.48060175158E+03  0.47000000000E+01 0.  1.
          6    1    1    2  502    0  0.13573902294E+02  0.14116223892E+02 -0.76914033496E+02  0.18942884455E+03  0.17200000000E+03 0. -1.
         -6    1    1    2    0  502 -0.13573902294E+02 -0.14116223892E+02 -0.32592980060E+03  0.36904979816E+03  0.17200000000E+03 0.  1.
</event>
<event>
 4    1 -0.7147820E-004  0.2033059E+03  0.7818608E-02  0.1146979E+00
          5   -1    0    0  501    0  0.00000000000E+00  0.00000000000E+00  0.92963338959E+02  0.93082073411E+02  0.47000000000E+01 0. -1.
         -5   -1    0    0    0  501 -0.00000000000E+00 -0.00000000000E+00 -0.13997667703E+04  0.13997746609E+04  0.47000000000E+01 0.  1.
          6    1    1    2  502    0  0.26759239831E+02  0.10503914646E+03 -0.36708884634E+02  0.20659337215E+03  0.17200000000E+03 0. -1.
         -6    1    1    2    0  502 -0.26759239831E+02 -0.10503914646E+03 -0.12700945467E+04  0.12862633622E+04  0.17200000000E+03 0.  1.
</event>
<event>
 4    1 -0.7147820E-004  0.2268231E+03  0.7818608E-02  0.1128896E+00
          5   -1    0    0  501    0  0.00000000000E+00  0.00000000000E+00  0.34549520060E+03  0.34552716772E+03  0.47000000000E+01 0. -1.
         -5   -1    0    0    0  501 -0.00000000000E+00 -0.00000000000E+00 -0.60050767152E+03  0.60052606401E+03  0.47000000000E+01 0.  1.
          6    1    1    2  502    0  0.12944672240E+03  0.71472255083E+02  0.28270628157E+03  0.36245217453E+03  0.17200000000E+03 0. -1.
         -6    1    1    2    0  502 -0.12944672240E+03 -0.71472255083E+02 -0.53771875249E+03  0.58360105720E+03  0.17200000000E+03 0.  1.
</event>
<event>
 4    1 -0.7147820E-004  0.1837764E+03  0.7818608E-02  0.1164197E+00
          5   -1    0    0  501    0  0.00000000000E+00  0.00000000000E+00  0.61233654044E+03  0.61235457764E+03  0.47000000000E+01 0. -1.
         -5   -1    0    0    0  501 -0.00000000000E+00 -0.00000000000E+00 -0.25451751075E+03  0.25456090288E+03  0.47000000000E+01 0.  1.
          6    1    1    2  502    0  0.56521682417E+02  0.31544823563E+02  0.56254547334E+03  0.59180333393E+03  0.17200000000E+03 0. -1.
         -6    1    1    2    0  502 -0.56521682417E+02 -0.31544823563E+02 -0.20472644365E+03  0.27511214660E+03  0.17200000000E+03 0.  1.
</event>
<event>
 4    1 -0.7147820E-004  0.1811322E+03  0.7818608E-02  0.1166712E+00
         -5   -1    0    0    0  501 -0.00000000000E+00  0.00000000000E+00  0.57974425426E+02  0.58164628456E+02  0.47000000000E+01 0.  1.
          5   -1    0    0  501    0  0.00000000000E+00 -0.00000000000E+00 -0.58850284823E+03  0.58852161590E+03  0.47000000000E+01 0. -1.
          6    1    1    2  502    0 -0.34012092379E+02  0.45475825443E+02 -0.33015408674E+03  0.37657747426E+03  0.17200000000E+03 0.  1.
         -6    1    1    2    0  502  0.34012092379E+02 -0.45475825443E+02 -0.20037433607E+03  0.27010877009E+03  0.17200000000E+03 0. -1.
</event>
<event>
 4    1 -0.7147820E-004  0.1726242E+03  0.7818608E-02  0.1175139E+00
          5   -1    0    0  501    0  0.00000000000E+00  0.00000000000E+00  0.26602171487E+02  0.27014172722E+02  0.47000000000E+01 0. -1.
         -5   -1    0    0    0  501 -0.00000000000E+00 -0.00000000000E+00 -0.15099857522E+04  0.15099930668E+04  0.47000000000E+01 0.  1.
          6    1    1    2  502    0  0.10813795446E+02  0.99088347412E+01 -0.34678449221E+03  0.38737398882E+03  0.17200000000E+03 0. -1.
         -6    1    1    2    0  502 -0.10813795446E+02 -0.99088347412E+01 -0.11365990885E+04  0.11496332507E+04  0.17200000000E+03 0.  1.
</event>
<event>
 4    1 -0.7147820E-004  0.1940624E+03  0.7818608E-02  0.1154848E+00
         -5   -1    0    0    0  501 -0.00000000000E+00  0.00000000000E+00  0.94858354138E+03  0.94859518498E+03  0.47000000000E+01 0.  1.
          5   -1    0    0  501    0  0.00000000000E+00 -0.00000000000E+00 -0.58651322335E+03  0.58653205468E+03  0.47000000000E+01 0. -1.
          6    1    1    2  502    0 -0.80381353353E+02 -0.40187534280E+02 -0.56009595361E+03  0.59276274945E+03  0.17200000000E+03 0. -1.
         -6    1    1    2    0  502  0.80381353353E+02  0.40187534280E+02  0.92216627163E+03  0.94236449022E+03  0.17200000000E+03 0.  1.
</event>
<event>
 4    1 -0.7147820E-004  0.1798461E+03  0.7818608E-02  0.1167952E+00
         -5   -1    0    0    0  501 -0.00000000000E+00  0.00000000000E+00  0.75136237208E+03  0.75137707190E+03  0.47000000000E+01 0.  1.
          5   -1    0    0  501    0  0.00000000000E+00 -0.00000000000E+00 -0.15740227393E+03  0.15747242882E+03  0.47000000000E+01 0. -1.
          6    1    1    2  502    0  0.46920415397E+02  0.23645150484E+02 -0.90375150629E+02  0.20127664140E+03  0.17200000000E+03 0. -1.
         -6    1    1    2    0  502 -0.46920415397E+02 -0.23645150484E+02  0.68433524878E+03  0.70757285932E+03  0.17200000000E+03 0.  1.
</event>
<event>
 4    1 -0.7147820E-004  0.2088920E+03  0.7818608E-02  0.1142446E+00
          5   -1    0    0  501    0  0.00000000000E+00  0.00000000000E+00  0.23265370583E+03  0.23270117498E+03  0.47000000000E+01 0. -1.
         -5   -1    0    0    0  501 -0.00000000000E+00 -0.00000000000E+00 -0.28808444473E+03  0.28812278163E+03  0.47000000000E+01 0.  1.
          6    1    1    2  502    0  0.11763920769E+03  0.14590854008E+02  0.12616312394E+03  0.24403485417E+03  0.17200000000E+03 0. -1.
         -6    1    1    2    0  502 -0.11763920769E+03 -0.14590854008E+02 -0.18159386284E+03  0.27678910244E+03  0.17200000000E+03 0.  1.
</event>
<event>
 4    1 -0.7147820E-004  0.2220189E+03  0.7818608E-02  0.1132387E+00
          5   -1    0    0  501    0  0.00000000000E+00  0.00000000000E+00  0.65690682425E+02  0.65858604278E+02  0.47000000000E+01 0. -1.
         -5   -1    0    0    0  501 -0.00000000000E+00 -0.00000000000E+00 -0.98837000839E+03  0.98838118330E+03  0.47000000000E+01 0.  1.
          6    1    1    2  502    0 -0.31040503811E+02  0.13691196067E+03 -0.72059557682E+03  0.75402280018E+03  0.17200000000E+03 0. -1.
         -6    1    1    2    0  502  0.31040503811E+02 -0.13691196067E+03 -0.20208374914E+03  0.30021698739E+03  0.17200000000E+03 0. -1.
</event>
<event>
 4    1 -0.7147820E-004  0.1941492E+03  0.7818608E-02  0.1154771E+00
         -5   -1    0    0    0  501 -0.00000000000E+00  0.00000000000E+00  0.62260974919E+03  0.62262748878E+03  0.47000000000E+01 0.  1.
          5   -1    0    0  501    0  0.00000000000E+00 -0.00000000000E+00 -0.94208336887E+02  0.94325504182E+02  0.47000000000E+01 0. -1.
          6    1    1    2  502    0  0.81766896079E+02  0.37737216648E+02  0.49745504622E+02  0.20042090222E+03  0.17200000000E+03 0. -1.
         -6    1    1    2    0  502 -0.81766896079E+02 -0.37737216648E+02  0.47865590768E+03  0.51653209075E+03  0.17200000000E+03 0.  1.
</event>
<event>
 4    1 -0.7147820E-004  0.1787854E+03  0.7818608E-02  0.1168984E+00
         -5   -1    0    0    0  501 -0.00000000000E+00  0.00000000000E+00  0.86256672194E+03  0.86257952665E+03  0.47000000000E+01 0.  1.
          5   -1    0    0  501    0  0.00000000000E+00 -0.00000000000E+00 -0.26110043399E+03  0.26114273230E+03  0.47000000000E+01 0. -1.
          6    1    1    2  502    0 -0.24023125911E+02  0.42463108315E+02 -0.21973737585E+03  0.28328208643E+03  0.17200000000E+03 0. -1.
         -6    1    1    2    0  502  0.24023125911E+02 -0.42463108315E+02  0.82120366380E+03  0.84044017252E+03  0.17200000000E+03 0.  1.
</event>
<event>
 4    1 -0.7147820E-004  0.2090566E+03  0.7818608E-02  0.1142315E+00
          5   -1    0    0  501    0  0.00000000000E+00  0.00000000000E+00  0.24893257617E+03  0.24897694166E+03  0.47000000000E+01 0. -1.
         -5   -1    0    0    0  501 -0.00000000000E+00 -0.00000000000E+00 -0.34040826770E+03  0.34044071248E+03  0.47000000000E+01 0.  1.
          6    1    1    2  502    0 -0.60148296540E+02 -0.10248336775E+03  0.15937183856E+03  0.26287647512E+03  0.17200000000E+03 0. -1.
         -6    1    1    2    0  502  0.60148296540E+02  0.10248336775E+03 -0.25084753010E+03  0.32654117902E+03  0.17200000000E+03 0. -1.
</event>
<event>
 4    1 -0.7147820E-004  0.3710222E+03  0.7818608E-02  0.1054303E+00
          5   -1    0    0  501    0  0.00000000000E+00  0.00000000000E+00  0.15617448567E+04  0.15617519289E+04  0.47000000000E+01 0. -1.
         -5   -1    0    0    0  501 -0.00000000000E+00 -0.00000000000E+00 -0.21302356960E+03  0.21307541201E+03  0.47000000000E+01 0.  1.
          6    1    1    2  502    0 -0.84188941846E+02  0.31778246954E+03  0.13538507453E+04  0.14037696807E+04  0.17200000000E+03 0. -1.
         -6    1    1    2    0  502  0.84188941846E+02 -0.31778246954E+03 -0.51294581832E+01  0.37105766023E+03  0.17200000000E+03 0.  1.
</event>
<event>
 4    1 -0.7147820E-004  0.2649602E+03  0.7818608E-02  0.1104199E+00
         -5   -1    0    0    0  501 -0.00000000000E+00  0.00000000000E+00  0.50537079470E+03  0.50539264946E+03  0.47000000000E+01 0.  1.
          5   -1    0    0  501    0  0.00000000000E+00 -0.00000000000E+00 -0.18746810472E+03  0.18752701215E+03  0.47000000000E+01 0. -1.
          6    1    1    2  502    0 -0.18963823690E+03  0.68243995063E+02 -0.17440384031E+02  0.26553355861E+03  0.17200000000E+03 0.  1.
         -6    1    1    2    0  502  0.18963823690E+03 -0.68243995063E+02  0.33534307401E+03  0.42738610300E+03  0.17200000000E+03 0.  1.
</event>
<event>
 4    1 -0.7147820E-004  0.2001101E+03  0.7818608E-02  0.1149646E+00
         -5   -1    0    0    0  501 -0.00000000000E+00  0.00000000000E+00  0.98851835550E+02  0.98963505352E+02  0.47000000000E+01 0.  1.
          5   -1    0    0  501    0  0.00000000000E+00 -0.00000000000E+00 -0.50042315250E+03  0.50044522333E+03  0.47000000000E+01 0. -1.
          6    1    1    2  502    0  0.14932646212E+02 -0.10117846047E+03 -0.33182087004E+03  0.38749084451E+03  0.17200000000E+03 0. -1.
         -6    1    1    2    0  502 -0.14932646212E+02  0.10117846047E+03 -0.69750446904E+02  0.21191788417E+03  0.17200000000E+03 0.  1.
</event>
<event>
 4    1 -0.7147820E-004  0.1876854E+03  0.7818608E-02  0.1160566E+00
          5   -1    0    0  501    0  0.00000000000E+00  0.00000000000E+00  0.11650010728E+03  0.11659487551E+03  0.47000000000E+01 0. -1.
         -5   -1    0    0    0  501 -0.00000000000E+00 -0.00000000000E+00 -0.59776150361E+03  0.59777998059E+03  0.47000000000E+01 0.  1.
          6    1    1    2  502    0 -0.20139421979E+02 -0.72361768501E+02  0.10536064294E+02  0.18798093124E+03  0.17200000000E+03 0. -1.
         -6    1    1    2    0  502  0.20139421979E+02  0.72361768501E+02 -0.49179746063E+03  0.52639392487E+03  0.17200000000E+03 0.  1.
</event>
<event>
 4    1 -0.7147820E-004  0.1800842E+03  0.7818608E-02  0.1167722E+00
          5   -1    0    0  501    0  0.00000000000E+00  0.00000000000E+00  0.57020986928E+03  0.57022923901E+03  0.47000000000E+01 0. -1.
         -5   -1    0    0    0  501 -0.00000000000E+00 -0.00000000000E+00 -0.57983406896E+02  0.58173580561E+02  0.47000000000E+01 0.  1.
          6    1    1    2  502    0  0.34640105705E+02 -0.40575668064E+02  0.30172765421E+03  0.35138283833E+03  0.17200000000E+03 0.  1.
         -6    1    1    2    0  502 -0.34640105705E+02  0.40575668064E+02  0.21049880818E+03  0.27701998124E+03  0.17200000000E+03 0.  1.
</event>
<event>
 4    1 -0.7147820E-004  0.1904766E+03  0.7818608E-02  0.1158032E+00
         -5   -1    0    0    0  501 -0.00000000000E+00  0.00000000000E+00  0.42426401385E+03  0.42429004637E+03  0.47000000000E+01 0.  1.
          5   -1    0    0  501    0  0.00000000000E+00 -0.00000000000E+00 -0.42290782630E+03  0.42293394229E+03  0.47000000000E+01 0. -1.
          6    1    1    2  502    0 -0.41820066328E+00 -0.81836208131E+02 -0.37769432716E+03  0.42300631747E+03  0.17200000000E+03 0. -1.
         -6    1    1    2    0  502  0.41820066328E+00  0.81836208131E+02  0.37905051471E+03  0.42421767120E+03  0.17200000000E+03 0.  1.
</event>
<event>
 4    1 -0.7147820E-004  0.1846796E+03  0.7818608E-02  0.1163349E+00
         -5   -1    0    0    0  501 -0.00000000000E+00  0.00000000000E+00  0.32697941186E+03  0.32701318900E+03  0.47000000000E+01 0.  1.
          5   -1    0    0  501    0  0.00000000000E+00 -0.00000000000E+00 -0.15261848949E+03  0.15269084234E+03  0.47000000000E+01 0. -1.
          6    1    1    2  502    0  0.45678903740E+02 -0.49355959668E+02 -0.47839920722E+02  0.19077534174E+03  0.17200000000E+03 0. -1.
         -6    1    1    2    0  502 -0.45678903740E+02  0.49355959668E+02  0.22220084309E+03  0.28892868960E+03  0.17200000000E+03 0.  1.
</event>
<event>
 4    1 -0.7147820E-004  0.1727938E+03  0.7818608E-02  0.1174965E+00
          5   -1    0    0  501    0  0.00000000000E+00  0.00000000000E+00  0.20731012760E+03  0.20736339842E+03  0.47000000000E+01 0. -1.
         -5   -1    0    0    0  501 -0.00000000000E+00 -0.00000000000E+00 -0.15926442889E+03  0.15933376387E+03  0.47000000000E+01 0.  1.
          6    1    1    2  502    0  0.16101391731E+02 -0.37983526619E+01  0.80921889173E+02  0.19080365417E+03  0.17200000000E+03 0. -1.
         -6    1    1    2    0  502 -0.16101391731E+02  0.37983526619E+01 -0.32876190471E+02  0.17589350812E+03  0.17200000000E+03 0.  1.
</event>
<event>
 4    1 -0.7147820E-004  0.2008224E+03  0.7818608E-02  0.1149047E+00
         -5   -1    0    0    0  501 -0.00000000000E+00  0.00000000000E+00  0.22441212148E+03  0.22446133357E+03  0.47000000000E+01 0.  1.
          5   -1    0    0  501    0  0.00000000000E+00 -0.00000000000E+00 -0.48894442172E+03  0.48896701068E+03  0.47000000000E+01 0. -1.
          6    1    1    2  502    0  0.64130710145E+02  0.81442631656E+02 -0.41596806295E+03  0.46190808569E+03  0.17200000000E+03 0. -1.
         -6    1    1    2    0  502 -0.64130710145E+02 -0.81442631656E+02  0.15143576271E+03  0.25152025855E+03  0.17200000000E+03 0.  1.
</event>
<event>
 4    1 -0.7147820E-004  0.2095076E+03  0.7818608E-02  0.1141956E+00
         -5   -1    0    0    0  501 -0.00000000000E+00  0.00000000000E+00  0.18854321416E+03  0.18860178580E+03  0.47000000000E+01 0.  1.
          5   -1    0    0  501    0  0.00000000000E+00 -0.00000000000E+00 -0.73347516131E+03  0.73349021960E+03  0.47000000000E+01 0. -1.
          6    1    1    2  502    0 -0.34062900711E+02  0.11466981158E+03 -0.65340284072E+03  0.68616959941E+03  0.17200000000E+03 0. -1.
         -6    1    1    2    0  502  0.34062900711E+02 -0.11466981158E+03  0.10847089358E+03  0.23592240599E+03  0.17200000000E+03 0.  1.
</event>
<event>
 4    1 -0.7147820E-004  0.1874109E+03  0.7818608E-02  0.1160817E+00
          5   -1    0    0  501    0  0.00000000000E+00  0.00000000000E+00  0.54498613056E+02  0.54700903329E+02  0.47000000000E+01 0. -1.
         -5   -1    0    0    0  501 -0.00000000000E+00 -0.00000000000E+00 -0.69918185137E+03  0.69919764822E+03  0.47000000000E+01 0.  1.
          6    1    1    2  502    0  0.66300679305E+02  0.33809355922E+02 -0.21556988171E+03  0.28564528094E+03  0.17200000000E+03 0. -1.
         -6    1    1    2    0  502 -0.66300679305E+02 -0.33809355922E+02 -0.42911335660E+03  0.46825327061E+03  0.17200000000E+03 0.  1.
</event>
<event>
 4    1 -0.7147820E-004  0.2618459E+03  0.7818608E-02  0.1106039E+00
          5   -1    0    0  501    0  0.00000000000E+00  0.00000000000E+00  0.72389933913E+03  0.72391459662E+03  0.47000000000E+01 0. -1.
         -5   -1    0    0    0  501 -0.00000000000E+00 -0.00000000000E+00 -0.14366652770E+03  0.14374338657E+03  0.47000000000E+01 0.  1.
          6    1    1    2  502    0  0.11722216279E+03 -0.15886541614E+03  0.54344869037E+03  0.60324102560E+03  0.17200000000E+03 0. -1.
         -6    1    1    2    0  502 -0.11722216279E+03  0.15886541614E+03  0.36784121053E+02  0.26441695759E+03  0.17200000000E+03 0.  1.
</event>
<event>
 4    1 -0.7147820E-004  0.2379767E+03  0.7818608E-02  0.1121148E+00
          5   -1    0    0  501    0  0.00000000000E+00  0.00000000000E+00  0.20789940770E+03  0.20795252757E+03  0.47000000000E+01 0. -1.
         -5   -1    0    0    0  501 -0.00000000000E+00 -0.00000000000E+00 -0.38543887155E+03  0.38546752614E+03  0.47000000000E+01 0.  1.
          6    1    1    2  502    0  0.95636158155E+02 -0.13380070571E+03  0.71967506130E+02  0.24862064583E+03  0.17200000000E+03 0. -1.
         -6    1    1    2    0  502 -0.95636158155E+02  0.13380070571E+03 -0.24950696999E+03  0.34479940787E+03  0.17200000000E+03 0.  1.
</event>
<event>
 4    1 -0.7147820E-004  0.1802901E+03  0.7818608E-02  0.1167523E+00
         -5   -1    0    0    0  501 -0.00000000000E+00  0.00000000000E+00  0.11905648922E+03  0.11914922420E+03  0.47000000000E+01 0.  1.
          5   -1    0    0  501    0  0.00000000000E+00 -0.00000000000E+00 -0.39915904516E+03  0.39918671488E+03  0.47000000000E+01 0. -1.
          6    1    1    2  502    0  0.19699597933E+02 -0.50323337592E+02 -0.28584722778E+03  0.33795436097E+03  0.17200000000E+03 0. -1.
         -6    1    1    2    0  502 -0.19699597933E+02  0.50323337592E+02  0.57446718457E+01  0.18038157811E+03  0.17200000000E+03 0.  1.
</event>
<event>
 4    1 -0.7147820E-004  0.2355491E+03  0.7818608E-02  0.1122794E+00
         -5   -1    0    0    0  501 -0.00000000000E+00  0.00000000000E+00  0.29965282793E+03  0.29968968499E+03  0.47000000000E+01 0.  1.
          5   -1    0    0  501    0  0.00000000000E+00 -0.00000000000E+00 -0.25297320261E+03  0.25301685959E+03  0.47000000000E+01 0. -1.
          6    1    1    2  502    0  0.16088263022E+03  0.40224838142E+01 -0.11980043281E+03  0.26426415720E+03  0.17200000000E+03 0. -1.
         -6    1    1    2    0  502 -0.16088263022E+03 -0.40224838142E+01  0.16648005813E+03  0.28844238738E+03  0.17200000000E+03 0.  1.
</event>
<event>
 4    1 -0.7147820E-004  0.1782143E+03  0.7818608E-02  0.1169543E+00
         -5   -1    0    0    0  501 -0.00000000000E+00  0.00000000000E+00  0.41406858550E+03  0.41409525897E+03  0.47000000000E+01 0.  1.
          5   -1    0    0  501    0  0.00000000000E+00 -0.00000000000E+00 -0.11258546116E+03  0.11268352170E+03  0.47000000000E+01 0. -1.
          6    1    1    2  502    0 -0.22445268377E+02 -0.40896713272E+02  0.19341969910E+01  0.17822478040E+03  0.17200000000E+03 0. -1.
         -6    1    1    2    0  502  0.22445268377E+02  0.40896713272E+02  0.29954892736E+03  0.34855400028E+03  0.17200000000E+03 0.  1.
</event>
<event>
 4    1 -0.7147820E-004  0.2045218E+03  0.7818608E-02  0.1145979E+00
         -5   -1    0    0    0  501 -0.00000000000E+00  0.00000000000E+00  0.11871378084E+03  0.11880678331E+03  0.47000000000E+01 0.  1.
          5   -1    0    0  501    0  0.00000000000E+00 -0.00000000000E+00 -0.35389909744E+03  0.35393030552E+03  0.47000000000E+01 0. -1.
          6    1    1    2  502    0 -0.10039202981E+03 -0.46546692293E+02 -0.13441307918E+03  0.24473665453E+03  0.17200000000E+03 0. -1.
         -6    1    1    2    0  502  0.10039202981E+03  0.46546692293E+02 -0.10077223741E+03  0.22800043431E+03  0.17200000000E+03 0. -1.
</event>
<event>
 4    1 -0.7147820E-004  0.4515710E+03  0.7818608E-02  0.1027255E+00
         -5   -1    0    0    0  501 -0.00000000000E+00  0.00000000000E+00  0.23448072307E+04  0.23448119412E+04  0.47000000000E+01 0.  1.
          5   -1    0    0  501    0  0.00000000000E+00 -0.00000000000E+00 -0.19141626038E+03  0.19147395316E+03  0.47000000000E+01 0. -1.
          6    1    1    2  502    0  0.17934607751E+03  0.37705091747E+03  0.13985146923E+03  0.47273125910E+03  0.17200000000E+03 0. -1.
         -6    1    1    2    0  502 -0.17934607751E+03 -0.37705091747E+03  0.20135395011E+04  0.20635546352E+04  0.17200000000E+03 0.  1.
</event>
<event>
 4    1 -0.7147820E-004  0.2403508E+03  0.7818608E-02  0.1119559E+00
         -5   -1    0    0    0  501 -0.00000000000E+00  0.00000000000E+00  0.19946235859E+03  0.19951772477E+03  0.47000000000E+01 0.  1.
          5   -1    0    0  501    0  0.00000000000E+00 -0.00000000000E+00 -0.29281024842E+03  0.29284796667E+03  0.47000000000E+01 0. -1.
          6    1    1    2  502    0 -0.16359199395E+03  0.37711915954E+02 -0.20528615767E+02  0.24122593798E+03  0.17200000000E+03 0. -1.
         -6    1    1    2    0  502  0.16359199395E+03 -0.37711915954E+02 -0.72819274062E+02  0.25113975345E+03  0.17200000000E+03 0.  1.
</event>
<event>
 4    1 -0.7147820E-004  0.1736400E+03  0.7818608E-02  0.1174104E+00
         -5   -1    0    0    0  501 -0.00000000000E+00  0.00000000000E+00  0.36811391784E+03  0.36814392092E+03  0.47000000000E+01 0.  1.
          5   -1    0    0  501    0  0.00000000000E+00 -0.00000000000E+00 -0.94269962056E+02  0.94387052851E+02  0.47000000000E+01 0. -1.
          6    1    1    2  502    0 -0.32482551468E+01  0.23585802521E+02  0.52898217409E+02  0.18151876665E+03  0.17200000000E+03 0. -1.
         -6    1    1    2    0  502  0.32482551468E+01 -0.23585802521E+02  0.22094573838E+03  0.28101220712E+03  0.17200000000E+03 0.  1.
</event>
<event>
 4    1 -0.7147820E-004  0.1868746E+03  0.7818608E-02  0.1161311E+00
          5   -1    0    0  501    0  0.00000000000E+00  0.00000000000E+00  0.49671327893E+02  0.49893194071E+02  0.47000000000E+01 0. -1.
         -5   -1    0    0    0  501 -0.00000000000E+00 -0.00000000000E+00 -0.12937812231E+04  0.12937897601E+04  0.47000000000E+01 0.  1.
          6    1    1    2  502    0  0.32120264959E+02 -0.65623062977E+02 -0.16743710141E+03  0.25091289473E+03  0.17200000000E+03 0. -1.
         -6    1    1    2    0  502 -0.32120264959E+02  0.65623062977E+02 -0.10766727938E+04  0.10927700594E+04  0.17200000000E+03 0.  1.
</event>
<event>
 4    1 -0.7147820E-004  0.2404475E+03  0.7818608E-02  0.1119495E+00
         -5   -1    0    0    0  501 -0.00000000000E+00  0.00000000000E+00  0.72994825639E+02  0.73145981230E+02  0.47000000000E+01 0.  1.
          5   -1    0    0  501    0  0.00000000000E+00 -0.00000000000E+00 -0.93108128273E+03  0.93109314521E+03  0.47000000000E+01 0. -1.
          6    1    1    2  502    0  0.13787937223E+03 -0.96022303072E+02 -0.62374241967E+03  0.66848306641E+03  0.17200000000E+03 0. -1.
         -6    1    1    2    0  502 -0.13787937223E+03  0.96022303072E+02 -0.23434403742E+03  0.33575606003E+03  0.17200000000E+03 0.  1.
</event>
<event>
 4    1 -0.7147820E-004  0.2195328E+03  0.7818608E-02  0.1134232E+00
          5   -1    0    0  501    0  0.00000000000E+00  0.00000000000E+00  0.22848487637E+03  0.22853321143E+03  0.47000000000E+01 0. -1.
         -5   -1    0    0    0  501 -0.00000000000E+00 -0.00000000000E+00 -0.76559356548E+03  0.76560799206E+03  0.47000000000E+01 0.  1.
          6    1    1    2  502    0  0.97877772137E+02  0.95029451490E+02  0.15455040627E+03  0.26847808664E+03  0.17200000000E+03 0. -1.
         -6    1    1    2    0  502 -0.97877772137E+02 -0.95029451490E+02 -0.69165909538E+03  0.72566311685E+03  0.17200000000E+03 0. -1.
</event>
<event>
 4    1 -0.7147820E-004  0.1738680E+03  0.7818608E-02  0.1173873E+00
         -5   -1    0    0    0  501 -0.00000000000E+00  0.00000000000E+00  0.52692632403E+02  0.52901828982E+02  0.47000000000E+01 0.  1.
          5   -1    0    0  501    0  0.00000000000E+00 -0.00000000000E+00 -0.15395210627E+04  0.15395282370E+04  0.47000000000E+01 0. -1.
          6    1    1    2  502    0  0.19403117966E+02 -0.16419930088E+02 -0.13744553025E+04  0.13854087750E+04  0.17200000000E+03 0. -1.
         -6    1    1    2    0  502 -0.19403117966E+02  0.16419930088E+02 -0.11237312778E+03  0.20702129103E+03  0.17200000000E+03 0.  1.
</event>
<event>
 4    1 -0.7147820E-004  0.2304183E+03  0.7818608E-02  0.1126346E+00
          5   -1    0    0  501    0  0.00000000000E+00  0.00000000000E+00  0.14327990551E+04  0.14328067638E+04  0.47000000000E+01 0. -1.
         -5   -1    0    0    0  501 -0.00000000000E+00 -0.00000000000E+00 -0.10418833505E+03  0.10429429112E+03  0.47000000000E+01 0.  1.
          6    1    1    2  502    0  0.72452949151E+02  0.13512648961E+03  0.12813286460E+04  0.13018815987E+04  0.17200000000E+03 0. -1.
         -6    1    1    2    0  502 -0.72452949151E+02 -0.13512648961E+03  0.47282074049E+02  0.23521945617E+03  0.17200000000E+03 0.  1.
</event>
<event>
 4    1 -0.7147820E-004  0.2203286E+03  0.7818608E-02  0.1133638E+00
         -5   -1    0    0    0  501 -0.00000000000E+00  0.00000000000E+00  0.85459456663E+02  0.85588601654E+02  0.47000000000E+01 0.  1.
          5   -1    0    0  501    0  0.00000000000E+00 -0.00000000000E+00 -0.72605793074E+03  0.72607314286E+03  0.47000000000E+01 0. -1.
          6    1    1    2  502    0 -0.13508623758E+03 -0.26690865643E+02 -0.50994483818E+03  0.55550736438E+03  0.17200000000E+03 0. -1.
         -6    1    1    2    0  502  0.13508623758E+03  0.26690865643E+02 -0.13065363589E+03  0.25615438014E+03  0.17200000000E+03 0.  1.
</event>
<event>
 4    1 -0.7147820E-004  0.2244694E+03  0.7818608E-02  0.1130594E+00
          5   -1    0    0  501    0  0.00000000000E+00  0.00000000000E+00  0.40618771175E+03  0.40621490270E+03  0.47000000000E+01 0. -1.
         -5   -1    0    0    0  501 -0.00000000000E+00 -0.00000000000E+00 -0.21043493816E+03  0.21048741815E+03  0.47000000000E+01 0.  1.
          6    1    1    2  502    0 -0.14310343229E+03 -0.17997685776E+02  0.29548319662E+03  0.37107523295E+03  0.17200000000E+03 0. -1.
         -6    1    1    2    0  502  0.14310343229E+03  0.17997685776E+02 -0.99730423036E+02  0.24562708789E+03  0.17200000000E+03 0.  1.
</event>
<event>
 4    1 -0.7147820E-004  0.2038947E+03  0.7818608E-02  0.1146494E+00
         -5   -1    0    0    0  501 -0.00000000000E+00  0.00000000000E+00  0.87646881380E+02  0.87772807952E+02  0.47000000000E+01 0.  1.
          5   -1    0    0  501    0  0.00000000000E+00 -0.00000000000E+00 -0.50683299507E+03  0.50685478679E+03  0.47000000000E+01 0. -1.
          6    1    1    2  502    0  0.75329951471E+02 -0.79463372497E+02 -0.28543164282E+03  0.35077664102E+03  0.17200000000E+03 0. -1.
         -6    1    1    2    0  502 -0.75329951471E+02  0.79463372497E+02 -0.13375447087E+03  0.24385095373E+03  0.17200000000E+03 0.  1.
</event>
<event>
 4    1 -0.7147820E-004  0.2616641E+03  0.7818608E-02  0.1106148E+00
          5   -1    0    0  501    0  0.00000000000E+00  0.00000000000E+00  0.86328711095E+03  0.86329990498E+03  0.47000000000E+01 0. -1.
         -5   -1    0    0    0  501 -0.00000000000E+00 -0.00000000000E+00 -0.19223054324E+03  0.19228799171E+03  0.47000000000E+01 0.  1.
          6    1    1    2  502    0 -0.76814992898E+02  0.18161376044E+03  0.74007806206E+03  0.78497365501E+03  0.17200000000E+03 0. -1.
         -6    1    1    2    0  502  0.76814992898E+02 -0.18161376044E+03 -0.69021494351E+02  0.27061424168E+03  0.17200000000E+03 0.  1.
</event>
<event>
 4    1 -0.7147820E-004  0.1742907E+03  0.7818608E-02  0.1173446E+00
          5   -1    0    0  501    0  0.00000000000E+00  0.00000000000E+00  0.33644427393E+03  0.33647710095E+03  0.47000000000E+01 0. -1.
         -5   -1    0    0    0  501 -0.00000000000E+00 -0.00000000000E+00 -0.31194167844E+03  0.31197708369E+03  0.47000000000E+01 0.  1.
          6    1    1    2  502    0 -0.22202456790E+02  0.17329131547E+02  0.28556892439E+03  0.33455471670E+03  0.17200000000E+03 0. -1.
         -6    1    1    2    0  502  0.22202456790E+02 -0.17329131547E+02 -0.26106632889E+03  0.31389946794E+03  0.17200000000E+03 0.  1.
</event>
<event>
 4    1 -0.7147820E-004  0.1907328E+03  0.7818608E-02  0.1157802E+00
         -5   -1    0    0    0  501 -0.00000000000E+00  0.00000000000E+00  0.31776884475E+03  0.31780360082E+03  0.47000000000E+01 0.  1.
          5   -1    0    0  501    0  0.00000000000E+00 -0.00000000000E+00 -0.39550278930E+03  0.39553071480E+03  0.47000000000E+01 0. -1.
          6    1    1    2  502    0 -0.18842912745E+02  0.80249240565E+02 -0.33952503663E+03  0.38943066966E+03  0.17200000000E+03 0. -1.
         -6    1    1    2    0  502  0.18842912745E+02 -0.80249240565E+02  0.26179109208E+03  0.32390364596E+03  0.17200000000E+03 0.  1.
</event>
<event>
 4    1 -0.7147820E-004  0.1742979E+03  0.7818608E-02  0.1173439E+00
          5   -1    0    0  501    0  0.00000000000E+00  0.00000000000E+00  0.51643292111E+03  0.51645430776E+03  0.47000000000E+01 0. -1.
         -5   -1    0    0    0  501 -0.00000000000E+00 -0.00000000000E+00 -0.17875689607E+03  0.17881867322E+03  0.47000000000E+01 0.  1.
          6    1    1    2  502    0  0.21566126967E+01 -0.28126365023E+02  0.45360695554E+03  0.48594136838E+03  0.17200000000E+03 0. -1.
         -6    1    1    2    0  502 -0.21566126967E+01  0.28126365023E+02 -0.11593093050E+03  0.20933161260E+03  0.17200000000E+03 0.  1.
</event>
<event>
 4    1 -0.7147820E-004  0.2161031E+03  0.7818608E-02  0.1136822E+00
          5   -1    0    0  501    0  0.00000000000E+00  0.00000000000E+00  0.25559120034E+03  0.25563441023E+03  0.47000000000E+01 0. -1.
         -5   -1    0    0    0  501 -0.00000000000E+00 -0.00000000000E+00 -0.66317819640E+03  0.66319485084E+03  0.47000000000E+01 0.  1.
          6    1    1    2  502    0  0.13030714466E+03  0.11687541220E+02  0.18725696054E+03  0.28594705776E+03  0.17200000000E+03 0. -1.
         -6    1    1    2    0  502 -0.13030714466E+03 -0.11687541220E+02 -0.59484395660E+03  0.63288220331E+03  0.17200000000E+03 0.  1.
</event>
<event>
 4    1 -0.7147820E-004  0.2317591E+03  0.7818608E-02  0.1125408E+00
         -5   -1    0    0    0  501 -0.00000000000E+00  0.00000000000E+00  0.25092409794E+04  0.25092453812E+04  0.47000000000E+01 0.  1.
          5   -1    0    0  501    0  0.00000000000E+00 -0.00000000000E+00 -0.10921024385E+04  0.10921125519E+04  0.47000000000E+01 0. -1.
          6    1    1    2  502    0 -0.15445775803E+03 -0.16463859507E+02 -0.10743754101E+04  0.10990881582E+04  0.17200000000E+03 0. -1.
         -6    1    1    2    0  502  0.15445775803E+03  0.16463859507E+02  0.24915139511E+04  0.25022697749E+04  0.17200000000E+03 0.  1.
</event>
<event>
 4    1 -0.7147820E-004  0.2480627E+03  0.7818608E-02  0.1114535E+00
         -5   -1    0    0    0  501 -0.00000000000E+00  0.00000000000E+00  0.35937246869E+03  0.35940320151E+03  0.47000000000E+01 0.  1.
          5   -1    0    0  501    0  0.00000000000E+00 -0.00000000000E+00 -0.19354577936E+03  0.19360283756E+03  0.47000000000E+01 0. -1.
          6    1    1    2  502    0  0.16355576560E+03 -0.72115381415E+02  0.17692912615E+03  0.30469498253E+03  0.17200000000E+03 0.  1.
         -6    1    1    2    0  502 -0.16355576560E+03  0.72115381415E+02 -0.11102436821E+02  0.24831105654E+03  0.17200000000E+03 0.  1.
</event>
<event>
 4    1 -0.7147820E-004  0.1766174E+03  0.7818608E-02  0.1171117E+00
          5   -1    0    0  501    0  0.00000000000E+00  0.00000000000E+00  0.87872818552E+03  0.87874075473E+03  0.47000000000E+01 0. -1.
         -5   -1    0    0    0  501 -0.00000000000E+00 -0.00000000000E+00 -0.81801416544E+02  0.81936327405E+02  0.47000000000E+01 0.  1.
          6    1    1    2  502    0  0.30404214037E+02  0.26177969345E+02  0.75998487807E+03  0.78023760305E+03  0.17200000000E+03 0. -1.
         -6    1    1    2    0  502 -0.30404214037E+02 -0.26177969345E+02  0.36941890903E+02  0.18043947909E+03  0.17200000000E+03 0.  1.
</event>
<event>
 4    1 -0.7147820E-004  0.2052163E+03  0.7818608E-02  0.1145411E+00
         -5   -1    0    0    0  501 -0.00000000000E+00  0.00000000000E+00  0.20770564442E+03  0.20775881383E+03  0.47000000000E+01 0.  1.
          5   -1    0    0  501    0  0.00000000000E+00 -0.00000000000E+00 -0.43292441724E+03  0.43294992903E+03  0.47000000000E+01 0. -1.
          6    1    1    2  502    0 -0.26341114282E+01 -0.11190524291E+03 -0.34622419289E+03  0.40247349437E+03  0.17200000000E+03 0. -1.
         -6    1    1    2    0  502  0.26341114282E+01  0.11190524291E+03  0.12100542006E+03  0.23823524848E+03  0.17200000000E+03 0.  1.
</event>
<event>
 4    1 -0.7147820E-004  0.1843669E+03  0.7818608E-02  0.1163642E+00
          5   -1    0    0  501    0  0.00000000000E+00  0.00000000000E+00  0.25205783833E+03  0.25210165383E+03  0.47000000000E+01 0. -1.
         -5   -1    0    0    0  501 -0.00000000000E+00 -0.00000000000E+00 -0.16998442228E+03  0.17004938641E+03  0.47000000000E+01 0.  1.
          6    1    1    2  502    0  0.43529107411E+02 -0.50123561098E+02  0.13709112485E+03  0.22975014926E+03  0.17200000000E+03 0. -1.
         -6    1    1    2    0  502 -0.43529107411E+02  0.50123561098E+02 -0.55017708808E+02  0.19240089098E+03  0.17200000000E+03 0.  1.
</event>
<event>
 4    1 -0.7147820E-004  0.1807149E+03  0.7818608E-02  0.1167113E+00
         -5   -1    0    0    0  501 -0.00000000000E+00  0.00000000000E+00  0.23824593347E+04  0.23824639707E+04  0.47000000000E+01 0.  1.
          5   -1    0    0  501    0  0.00000000000E+00 -0.00000000000E+00 -0.22645962017E+03  0.22650838741E+03  0.47000000000E+01 0. -1.
          6    1    1    2  502    0  0.21498163792E+02  0.51104894868E+02 -0.18639497556E+03  0.25961696447E+03  0.17200000000E+03 0. -1.
         -6    1    1    2    0  502 -0.21498163792E+02 -0.51104894868E+02  0.23423946901E+04  0.23493553936E+04  0.17200000000E+03 0.  1.
</event>
<event>
 4    1 -0.7147820E-004  0.2535813E+03  0.7818608E-02  0.1111062E+00
         -5   -1    0    0    0  501 -0.00000000000E+00  0.00000000000E+00  0.83314615150E+03  0.83315940837E+03  0.47000000000E+01 0.  1.
          5   -1    0    0  501    0  0.00000000000E+00 -0.00000000000E+00 -0.20610986331E+03  0.20616344427E+03  0.47000000000E+01 0. -1.
          6    1    1    2  502    0 -0.18631492856E+03  0.24923306254E+01 -0.97510060805E+02  0.27168304378E+03  0.17200000000E+03 0. -1.
         -6    1    1    2    0  502  0.18631492856E+03 -0.24923306254E+01  0.72454634899E+03  0.76763980887E+03  0.17200000000E+03 0.  1.
</event>
<event>
 4    1 -0.7147820E-004  0.1959828E+03  0.7818608E-02  0.1153173E+00
          5   -1    0    0  501    0  0.00000000000E+00  0.00000000000E+00  0.53895655150E+03  0.53897704441E+03  0.47000000000E+01 0. -1.
         -5   -1    0    0    0  501 -0.00000000000E+00 -0.00000000000E+00 -0.25379938212E+03  0.25384289702E+03  0.47000000000E+01 0.  1.
          6    1    1    2  502    0 -0.69483176785E+02  0.63224647275E+02  0.47876966242E+03  0.51732935113E+03  0.17200000000E+03 0. -1.
         -6    1    1    2    0  502  0.69483176785E+02 -0.63224647275E+02 -0.19361249305E+03  0.27549059030E+03  0.17200000000E+03 0.  1.
</event>
<event>
 4    1 -0.7147820E-004  0.1841829E+03  0.7818608E-02  0.1163815E+00
          5   -1    0    0  501    0  0.00000000000E+00  0.00000000000E+00  0.91107700683E+02  0.91228850282E+02  0.47000000000E+01 0. -1.
         -5   -1    0    0    0  501 -0.00000000000E+00 -0.00000000000E+00 -0.50683742937E+03  0.50685922090E+03  0.47000000000E+01 0.  1.
          6    1    1    2  502    0 -0.50284162649E+01 -0.65681537073E+02 -0.36210860361E+03  0.40625852617E+03  0.17200000000E+03 0.  1.
         -6    1    1    2    0  502  0.50284162649E+01  0.65681537073E+02 -0.53621125077E+02  0.19182954501E+03  0.17200000000E+03 0.  1.
</event>
<event>
 4    1 -0.7147820E-004  0.1779329E+03  0.7818608E-02  0.1169819E+00
         -5   -1    0    0    0  501 -0.00000000000E+00  0.00000000000E+00  0.54936148772E+02  0.55136833804E+02  0.47000000000E+01 0.  1.
          5   -1    0    0  501    0  0.00000000000E+00 -0.00000000000E+00 -0.64973802001E+03  0.64975501895E+03  0.47000000000E+01 0. -1.
          6    1    1    2  502    0 -0.46783323757E+01  0.45323736248E+02 -0.41687819912E+03  0.45326323562E+03  0.17200000000E+03 0. -1.
         -6    1    1    2    0  502  0.46783323757E+01 -0.45323736248E+02 -0.17792367212E+03  0.25162861714E+03  0.17200000000E+03 0.  1.
</event>
<event>
 4    1 -0.7147820E-004  0.2119668E+03  0.7818608E-02  0.1140018E+00
          5   -1    0    0  501    0  0.00000000000E+00  0.00000000000E+00  0.13182383833E+04  0.13182467619E+04  0.47000000000E+01 0. -1.
         -5   -1    0    0    0  501 -0.00000000000E+00 -0.00000000000E+00 -0.10131710233E+04  0.10131819246E+04  0.47000000000E+01 0.  1.
          6    1    1    2  502    0  0.25132603952E+02  0.12130244060E+03  0.12984731732E+04  0.13156604849E+04  0.17200000000E+03 0. -1.
         -6    1    1    2    0  502 -0.25132603952E+02 -0.12130244060E+03 -0.99340581319E+03  0.10157682017E+04  0.17200000000E+03 0.  1.
</event>
<event>
 4    1 -0.7147820E-004  0.2496835E+03  0.7818608E-02  0.1113505E+00
          5   -1    0    0  501    0  0.00000000000E+00  0.00000000000E+00  0.18270142488E+04  0.18270202942E+04  0.47000000000E+01 0. -1.
         -5   -1    0    0    0  501 -0.00000000000E+00 -0.00000000000E+00 -0.21803759183E+03  0.21808824235E+03  0.47000000000E+01 0.  1.
          6    1    1    2  502    0  0.63590937113E+02  0.16945211986E+03  0.17436395436E+04  0.17614257538E+04  0.17200000000E+03 0. -1.
         -6    1    1    2    0  502 -0.63590937113E+02 -0.16945211986E+03 -0.13466288658E+03  0.28368278275E+03  0.17200000000E+03 0.  1.
</event>
<event>
 4    1 -0.7147820E-004  0.2741312E+03  0.7818608E-02  0.1098938E+00
          5   -1    0    0  501    0  0.00000000000E+00  0.00000000000E+00  0.27220773715E+03  0.27224830975E+03  0.47000000000E+01 0. -1.
         -5   -1    0    0    0  501 -0.00000000000E+00 -0.00000000000E+00 -0.64570618205E+03  0.64572328713E+03  0.47000000000E+01 0.  1.
          6    1    1    2  502    0  0.17406970202E+03  0.12354620045E+03  0.16054250522E+03  0.31768194911E+03  0.17200000000E+03 0. -1.
         -6    1    1    2    0  502 -0.17406970202E+03 -0.12354620045E+03 -0.53404095013E+03  0.60028964777E+03  0.17200000000E+03 0.  1.
</event>
<event>
 4    1 -0.7147820E-004  0.1914903E+03  0.7818608E-02  0.1157124E+00
         -5   -1    0    0    0  501 -0.00000000000E+00  0.00000000000E+00  0.27054463453E+03  0.27058545651E+03  0.47000000000E+01 0.  1.
          5   -1    0    0  501    0  0.00000000000E+00 -0.00000000000E+00 -0.29539735735E+03  0.29543474530E+03  0.47000000000E+01 0. -1.
          6    1    1    2  502    0  0.84102124262E+02 -0.33721910858E+01 -0.22064583330E+03  0.29215256756E+03  0.17200000000E+03 0. -1.
         -6    1    1    2    0  502 -0.84102124262E+02  0.33721910858E+01  0.19579311048E+03  0.27386763425E+03  0.17200000000E+03 0.  1.
</event>
<event>
 4    1 -0.7147820E-004  0.1733289E+03  0.7818608E-02  0.1174420E+00
          5   -1    0    0  501    0  0.00000000000E+00  0.00000000000E+00  0.14248852064E+03  0.14256601458E+03  0.47000000000E+01 0. -1.
         -5   -1    0    0    0  501 -0.00000000000E+00 -0.00000000000E+00 -0.31695195397E+03  0.31698679961E+03  0.47000000000E+01 0.  1.
          6    1    1    2  502    0 -0.20392527330E+02  0.65606416234E+01  0.45791767188E+02  0.17927571819E+03  0.17200000000E+03 0. -1.
         -6    1    1    2    0  502  0.20392527330E+02 -0.65606416234E+01 -0.22025520052E+03  0.28027709601E+03  0.17200000000E+03 0.  1.
</event>
<event>
 4    1 -0.7147820E-004  0.2038584E+03  0.7818608E-02  0.1146524E+00
         -5   -1    0    0    0  501 -0.00000000000E+00  0.00000000000E+00  0.15282690255E+04  0.15282762526E+04  0.47000000000E+01 0.  1.
          5   -1    0    0  501    0  0.00000000000E+00 -0.00000000000E+00 -0.10122086599E+03  0.10132992506E+03  0.47000000000E+01 0. -1.
          6    1    1    2  502    0  0.65068920210E+02 -0.87978893172E+02  0.16634422546E+02  0.20453594803E+03  0.17200000000E+03 0. -1.
         -6    1    1    2    0  502 -0.65068920210E+02  0.87978893172E+02  0.14104137370E+04  0.14250702297E+04  0.17200000000E+03 0.  1.
</event>
<event>
 4    1 -0.7147820E-004  0.2423280E+03  0.7818608E-02  0.1118252E+00
          5   -1    0    0  501    0  0.00000000000E+00  0.00000000000E+00  0.56133892993E+03  0.56135860576E+03  0.47000000000E+01 0. -1.
         -5   -1    0    0    0  501 -0.00000000000E+00 -0.00000000000E+00 -0.22445514109E+04  0.22445563317E+04  0.47000000000E+01 0.  1.
          6    1    1    2  502    0 -0.10648286130E+03 -0.13341753267E+03  0.52826815124E+03  0.58119710717E+03  0.17200000000E+03 0. -1.
         -6    1    1    2    0  502  0.10648286130E+03  0.13341753267E+03 -0.22114806322E+04  0.22247178303E+04  0.17200000000E+03 0.  1.
</event>
<event>
 4    1 -0.7147820E-004  0.2236068E+03  0.7818608E-02  0.1131222E+00
          5   -1    0    0  501    0  0.00000000000E+00  0.00000000000E+00  0.10354901498E+04  0.10355008162E+04  0.47000000000E+01 0. -1.
         -5   -1    0    0    0  501 -0.00000000000E+00 -0.00000000000E+00 -0.52019033577E+02  0.52230928140E+02  0.47000000000E+01 0.  1.
          6    1    1    2  502    0  0.92859441316E+01 -0.14258255177E+03  0.63952066626E+03  0.67748556841E+03  0.17200000000E+03 0. -1.
         -6    1    1    2    0  502 -0.92859441316E+01  0.14258255177E+03  0.34395044995E+03  0.41024617591E+03  0.17200000000E+03 0.  1.
</event>
<event>
 4    1 -0.7147820E-004  0.3498921E+03  0.7818608E-02  0.1062659E+00
          5   -1    0    0  501    0  0.00000000000E+00  0.00000000000E+00  0.23272182867E+03  0.23276928392E+03  0.47000000000E+01 0. -1.
         -5   -1    0    0    0  501 -0.00000000000E+00 -0.00000000000E+00 -0.67009389437E+03  0.67011037693E+03  0.47000000000E+01 0.  1.
          6    1    1    2  502    0  0.29558463746E+03 -0.73960769062E+02 -0.93139887075E+01  0.35001603342E+03  0.17200000000E+03 0. -1.
         -6    1    1    2    0  502 -0.29558463746E+03  0.73960769062E+02 -0.42805807700E+03  0.55286362744E+03  0.17200000000E+03 0.  1.
</event>
<event>
 4    1 -0.7147820E-004  0.2855680E+03  0.7818608E-02  0.1092686E+00
         -5   -1    0    0    0  501 -0.00000000000E+00  0.00000000000E+00  0.40188761895E+03  0.40191510082E+03  0.47000000000E+01 0.  1.
          5   -1    0    0  501    0  0.00000000000E+00 -0.00000000000E+00 -0.35458939802E+03  0.35462054535E+03  0.47000000000E+01 0. -1.
          6    1    1    2  502    0 -0.18875229480E+03  0.12781893552E+03 -0.22377246547E+03  0.36279915294E+03  0.17200000000E+03 0. -1.
         -6    1    1    2    0  502  0.18875229480E+03 -0.12781893552E+03  0.27107068641E+03  0.39373649323E+03  0.17200000000E+03 0.  1.
</event>
<event>
 4    1 -0.7147820E-004  0.1752226E+03  0.7818608E-02  0.1172508E+00
          5   -1    0    0  501    0  0.00000000000E+00  0.00000000000E+00  0.56920249147E+03  0.56922189548E+03  0.47000000000E+01 0. -1.
         -5   -1    0    0    0  501 -0.00000000000E+00 -0.00000000000E+00 -0.10865319204E+03  0.10875479824E+03  0.47000000000E+01 0.  1.
          6    1    1    2  502    0 -0.33450848089E+02  0.57554179440E-01  0.47090485260E+03  0.50244834834E+03  0.17200000000E+03 0. -1.
         -6    1    1    2    0  502  0.33450848089E+02 -0.57554179440E-01 -0.10355553171E+02  0.17552834538E+03  0.17200000000E+03 0.  1.
</event>
<event>
 4    1 -0.7147820E-004  0.1768524E+03  0.7818608E-02  0.1170884E+00
         -5   -1    0    0    0  501 -0.00000000000E+00  0.00000000000E+00  0.48033883330E+03  0.48036182693E+03  0.47000000000E+01 0.  1.
          5   -1    0    0  501    0  0.00000000000E+00 -0.00000000000E+00 -0.94679335284E+02  0.94795920428E+02  0.47000000000E+01 0. -1.
          6    1    1    2  502    0  0.16218343615E+02  0.37812038773E+02  0.31971987291E+02  0.17971920575E+03  0.17200000000E+03 0. -1.
         -6    1    1    2    0  502 -0.16218343615E+02 -0.37812038773E+02  0.35368751072E+03  0.39543854160E+03  0.17200000000E+03 0.  1.
</event>
<event>
 4    1 -0.7147820E-004  0.2208276E+03  0.7818608E-02  0.1133268E+00
         -5   -1    0    0    0  501 -0.00000000000E+00  0.00000000000E+00  0.48146103760E+03  0.48148397765E+03  0.47000000000E+01 0.  1.
          5   -1    0    0  501    0  0.00000000000E+00 -0.00000000000E+00 -0.10395135295E+03  0.10405755033E+03  0.47000000000E+01 0. -1.
          6    1    1    2  502    0  0.13545697883E+03 -0.28848492102E+02  0.14119921974E+03  0.26211075572E+03  0.17200000000E+03 0. -1.
         -6    1    1    2    0  502 -0.13545697883E+03  0.28848492102E+02  0.23631046492E+03  0.32343077225E+03  0.17200000000E+03 0.  1.
</event>
<event>
 4    1 -0.7147820E-004  0.1752411E+03  0.7818608E-02  0.1172490E+00
         -5   -1    0    0    0  501 -0.00000000000E+00  0.00000000000E+00  0.74211869127E+02  0.74360550828E+02  0.47000000000E+01 0.  1.
          5   -1    0    0  501    0  0.00000000000E+00 -0.00000000000E+00 -0.42592461288E+03  0.42595054391E+03  0.47000000000E+01 0. -1.
          6    1    1    2  502    0 -0.33438049881E+02  0.27077573717E+01 -0.21903212322E+03  0.28050758659E+03  0.17200000000E+03 0.  1.
         -6    1    1    2    0  502  0.33438049881E+02 -0.27077573717E+01 -0.13268062053E+03  0.21980350814E+03  0.17200000000E+03 0.  1.
</event>
<event>
 4    1 -0.7147820E-004  0.2480215E+03  0.7818608E-02  0.1114562E+00
          5   -1    0    0  501    0  0.00000000000E+00  0.00000000000E+00  0.66456071247E+02  0.66622063955E+02  0.47000000000E+01 0. -1.
         -5   -1    0    0    0  501 -0.00000000000E+00 -0.00000000000E+00 -0.10652113481E+04  0.10652217169E+04  0.47000000000E+01 0.  1.
          6    1    1    2  502    0  0.17457240200E+03  0.38146463686E+02 -0.29357624794E+03  0.38431977517E+03  0.17200000000E+03 0.  1.
         -6    1    1    2    0  502 -0.17457240200E+03 -0.38146463686E+02 -0.70517902891E+03  0.74752400566E+03  0.17200000000E+03 0.  1.
</event>
<event>
 4    1 -0.7147820E-004  0.1780783E+03  0.7818608E-02  0.1169676E+00
         -5   -1    0    0    0  501 -0.00000000000E+00  0.00000000000E+00  0.44085407622E+03  0.44087912915E+03  0.47000000000E+01 0.  1.
          5   -1    0    0  501    0  0.00000000000E+00 -0.00000000000E+00 -0.12392145622E+03  0.12401055322E+03  0.47000000000E+01 0. -1.
          6    1    1    2  502    0  0.16276892374E+01 -0.46100065433E+02 -0.24550858704E+02  0.17976264926E+03  0.17200000000E+03 0. -1.
         -6    1    1    2    0  502 -0.16276892374E+01  0.46100065433E+02  0.34148347871E+03  0.38512703311E+03  0.17200000000E+03 0.  1.
</event>
<event>
 4    1 -0.7147820E-004  0.1997586E+03  0.7818608E-02  0.1149943E+00
         -5   -1    0    0    0  501 -0.00000000000E+00  0.00000000000E+00  0.80327189962E+02  0.80464572621E+02  0.47000000000E+01 0.  1.
          5   -1    0    0  501    0  0.00000000000E+00 -0.00000000000E+00 -0.57113587055E+03  0.57115520888E+03  0.47000000000E+01 0. -1.
          6    1    1    2  502    0  0.36399790826E+02  0.94839563062E+02 -0.36341230948E+03  0.41469506167E+03  0.17200000000E+03 0. -1.
         -6    1    1    2    0  502 -0.36399790826E+02 -0.94839563062E+02 -0.12739637111E+03  0.23692471983E+03  0.17200000000E+03 0.  1.
</event>
<event>
 4    1 -0.7147820E-004  0.1097358E+04  0.7818608E-02  0.9207771E-01
          5   -1    0    0  501    0  0.00000000000E+00  0.00000000000E+00  0.16590778896E+04  0.16590845469E+04  0.47000000000E+01 0. -1.
         -5   -1    0    0    0  501 -0.00000000000E+00 -0.00000000000E+00 -0.10065839283E+04  0.10065949009E+04  0.47000000000E+01 0.  1.
          6    1    1    2  502    0 -0.87381046748E+03 -0.64114442688E+03  0.10301779774E+04  0.15051450343E+04  0.17200000000E+03 0. -1.
         -6    1    1    2    0  502  0.87381046748E+03  0.64114442688E+03 -0.37768401599E+03  0.11605344136E+04  0.17200000000E+03 0.  1.
</event>
<event>
 4    1 -0.7147820E-004  0.2175352E+03  0.7818608E-02  0.1135734E+00
          5   -1    0    0  501    0  0.00000000000E+00  0.00000000000E+00  0.12212816113E+03  0.12221856546E+03  0.47000000000E+01 0. -1.
         -5   -1    0    0    0  501 -0.00000000000E+00 -0.00000000000E+00 -0.59101648298E+03  0.59103517083E+03  0.47000000000E+01 0.  1.
          6    1    1    2  502    0  0.42572881098E+02 -0.12619480279E+03 -0.25050486022E+02  0.21897284148E+03  0.17200000000E+03 0. -1.
         -6    1    1    2    0  502 -0.42572881098E+02  0.12619480279E+03 -0.44383783582E+03  0.49428089480E+03  0.17200000000E+03 0.  1.
</event>
<event>
 4    1 -0.7147820E-004  0.2033333E+03  0.7818608E-02  0.1146957E+00
          5   -1    0    0  501    0  0.00000000000E+00  0.00000000000E+00  0.21461166128E+03  0.21466312016E+03  0.47000000000E+01 0. -1.
         -5   -1    0    0    0  501 -0.00000000000E+00 -0.00000000000E+00 -0.96337350485E+03  0.96338496970E+03  0.47000000000E+01 0.  1.
          6    1    1    2  502    0  0.23389624403E+02 -0.10589315289E+03  0.15247924364E+03  0.25415419355E+03  0.17200000000E+03 0. -1.
         -6    1    1    2    0  502 -0.23389624403E+02  0.10589315289E+03 -0.90124108721E+03  0.92389389631E+03  0.17200000000E+03 0.  1.
</event>
<event>
 4    1 -0.7147820E-004  0.1823525E+03  0.7818608E-02  0.1165546E+00
         -5   -1    0    0    0  501 -0.00000000000E+00  0.00000000000E+00  0.53243744767E+02  0.53450784436E+02  0.47000000000E+01 0.  1.
          5   -1    0    0  501    0  0.00000000000E+00 -0.00000000000E+00 -0.13993222271E+04  0.13993301202E+04  0.47000000000E+01 0. -1.
          6    1    1    2  502    0  0.59696252392E+02  0.10236458462E+02 -0.12140040115E+04  0.12276229746E+04  0.17200000000E+03 0. -1.
         -6    1    1    2    0  502 -0.59696252392E+02 -0.10236458462E+02 -0.13207447078E+03  0.22515793005E+03  0.17200000000E+03 0.  1.
</event>
<event>
 4    1 -0.7147820E-004  0.1814335E+03  0.7818608E-02  0.1166423E+00
         -5   -1    0    0    0  501 -0.00000000000E+00  0.00000000000E+00  0.26003642714E+03  0.26007889849E+03  0.47000000000E+01 0.  1.
          5   -1    0    0  501    0  0.00000000000E+00 -0.00000000000E+00 -0.24163050364E+03  0.24167620960E+03  0.47000000000E+01 0. -1.
          6    1    1    2  502    0  0.53843834782E+02 -0.20855634702E+02 -0.16393592811E+03  0.24452628604E+03  0.17200000000E+03 0. -1.
         -6    1    1    2    0  502 -0.53843834782E+02  0.20855634702E+02  0.18234185161E+03  0.25722882205E+03  0.17200000000E+03 0.  1.
</event>
<event>
 4    1 -0.7147820E-004  0.3013231E+03  0.7818608E-02  0.1084581E+00
          5   -1    0    0  501    0  0.00000000000E+00  0.00000000000E+00  0.36551288890E+03  0.36554310547E+03  0.47000000000E+01 0. -1.
         -5   -1    0    0    0  501 -0.00000000000E+00 -0.00000000000E+00 -0.31142061927E+03  0.31145608375E+03  0.47000000000E+01 0.  1.
          6    1    1    2  502    0  0.16776353909E+03  0.18184334975E+03  0.17937144994E+03  0.35067039503E+03  0.17200000000E+03 0. -1.
         -6    1    1    2    0  502 -0.16776353909E+03 -0.18184334975E+03 -0.12527918031E+03  0.32632879419E+03  0.17200000000E+03 0.  1.
</event>
<event>
 4    1 -0.7147820E-004  0.1863778E+03  0.7818608E-02  0.1161770E+00
         -5   -1    0    0    0  501 -0.00000000000E+00  0.00000000000E+00  0.91652640996E+03  0.91653846082E+03  0.47000000000E+01 0.  1.
          5   -1    0    0  501    0  0.00000000000E+00 -0.00000000000E+00 -0.97247973969E+03  0.97249109719E+03  0.47000000000E+01 0. -1.
          6    1    1    2  502    0  0.35574139372E+02 -0.62347060447E+02 -0.95390376206E+03  0.97194087403E+03  0.17200000000E+03 0. -1.
         -6    1    1    2    0  502 -0.35574139372E+02  0.62347060447E+02  0.89795043234E+03  0.91708868397E+03  0.17200000000E+03 0.  1.
</event>
<event>
 4    1 -0.7147820E-004  0.1817683E+03  0.7818608E-02  0.1166103E+00
         -5   -1    0    0    0  501 -0.00000000000E+00  0.00000000000E+00  0.37599218350E+02  0.37891835804E+02  0.47000000000E+01 0.  1.
          5   -1    0    0  501    0  0.00000000000E+00 -0.00000000000E+00 -0.95975216524E+03  0.95976367335E+03  0.47000000000E+01 0. -1.
          6    1    1    2  502    0 -0.49888936710E+02 -0.31093764228E+02 -0.60926081401E+03  0.63579750523E+03  0.17200000000E+03 0. -1.
         -6    1    1    2    0  502  0.49888936710E+02  0.31093764228E+02 -0.31289213289E+03  0.36185800392E+03  0.17200000000E+03 0.  1.
</event>
<event>
 4    1 -0.7147820E-004  0.1721570E+03  0.7818608E-02  0.1175617E+00
         -5   -1    0    0    0  501 -0.00000000000E+00  0.00000000000E+00  0.19257999440E+03  0.19263733865E+03  0.47000000000E+01 0.  1.
          5   -1    0    0  501    0  0.00000000000E+00 -0.00000000000E+00 -0.20503722551E+03  0.20509108670E+03  0.47000000000E+01 0. -1.
          6    1    1    2  502    0  0.37107993156E+01 -0.63466264157E+01 -0.10562590856E+03  0.20197743007E+03  0.17200000000E+03 0. -1.
         -6    1    1    2    0  502 -0.37107993156E+01  0.63466264157E+01  0.93168677450E+02  0.19575099529E+03  0.17200000000E+03 0.  1.
</event>
<event>
 4    1 -0.7147820E-004  0.3022969E+03  0.7818608E-02  0.1084098E+00
         -5   -1    0    0    0  501 -0.00000000000E+00  0.00000000000E+00  0.53673377306E+02  0.53878766053E+02  0.47000000000E+01 0.  1.
          5   -1    0    0  501    0  0.00000000000E+00 -0.00000000000E+00 -0.26701018970E+04  0.26701060336E+04  0.47000000000E+01 0. -1.
          6    1    1    2  502    0  0.19612867811E+03 -0.15275137042E+03 -0.21295075598E+04  0.21508570122E+04  0.17200000000E+03 0. -1.
         -6    1    1    2    0  502 -0.19612867811E+03  0.15275137042E+03 -0.48692095990E+03  0.57312778744E+03  0.17200000000E+03 0.  1.
</event>
<event>
 4    1 -0.7147820E-004  0.1895487E+03  0.7818608E-02  0.1158869E+00
          5   -1    0    0  501    0  0.00000000000E+00  0.00000000000E+00  0.16692212683E+03  0.16698828230E+03  0.47000000000E+01 0. -1.
         -5   -1    0    0    0  501 -0.00000000000E+00 -0.00000000000E+00 -0.21585215675E+03  0.21590331997E+03  0.47000000000E+01 0.  1.
          6    1    1    2  502    0 -0.52095816318E+02  0.60255706288E+02 -0.35703167581E+02  0.19288193382E+03  0.17200000000E+03 0. -1.
         -6    1    1    2    0  502  0.52095816318E+02 -0.60255706288E+02 -0.13226862344E+02  0.19000966845E+03  0.17200000000E+03 0.  1.
</event>
<event>
 4    1 -0.7147820E-004  0.1790619E+03  0.7818608E-02  0.1168714E+00
         -5   -1    0    0    0  501 -0.00000000000E+00  0.00000000000E+00  0.81144074781E+03  0.81145435929E+03  0.47000000000E+01 0.  1.
          5   -1    0    0  501    0  0.00000000000E+00 -0.00000000000E+00 -0.46108589898E+02  0.46347514091E+02  0.47000000000E+01 0. -1.
          6    1    1    2  502    0  0.32635832736E+02 -0.37604093499E+02  0.21906458245E+03  0.28293542852E+03  0.17200000000E+03 0. -1.
         -6    1    1    2    0  502 -0.32635832736E+02  0.37604093499E+02  0.54626757546E+03  0.57486644486E+03  0.17200000000E+03 0.  1.
</event>
<event>
 4    1 -0.7147820E-004  0.2087992E+03  0.7818608E-02  0.1142520E+00
          5   -1    0    0  501    0  0.00000000000E+00  0.00000000000E+00  0.86754021813E+03  0.86755294943E+03  0.47000000000E+01 0. -1.
         -5   -1    0    0    0  501 -0.00000000000E+00 -0.00000000000E+00 -0.19544595471E+03  0.19550245833E+03  0.47000000000E+01 0.  1.
          6    1    1    2  502    0  0.10948176142E+02 -0.11786967116E+03  0.79418961661E+03  0.82117858537E+03  0.17200000000E+03 0. -1.
         -6    1    1    2    0  502 -0.10948176142E+02  0.11786967116E+03 -0.12209535320E+03  0.24187682240E+03  0.17200000000E+03 0.  1.
</event>
<event>
 4    1 -0.7147820E-004  0.2013338E+03  0.7818608E-02  0.1148619E+00
          5   -1    0    0  501    0  0.00000000000E+00  0.00000000000E+00  0.13017570274E+03  0.13026052197E+03  0.47000000000E+01 0. -1.
         -5   -1    0    0    0  501 -0.00000000000E+00 -0.00000000000E+00 -0.40712165112E+03  0.40714877970E+03  0.47000000000E+01 0.  1.
          6    1    1    2  502    0  0.99054948410E+02 -0.33755015462E+02 -0.80532274430E+01  0.20149476009E+03  0.17200000000E+03 0. -1.
         -6    1    1    2    0  502 -0.99054948410E+02  0.33755015462E+02 -0.26889272093E+03  0.33591454158E+03  0.17200000000E+03 0.  1.
</event>
<event>
 4    1 -0.7147820E-004  0.3650938E+03  0.7818608E-02  0.1056585E+00
         -5   -1    0    0    0  501 -0.00000000000E+00  0.00000000000E+00  0.10549435931E+04  0.10549540628E+04  0.47000000000E+01 0.  1.
          5   -1    0    0  501    0  0.00000000000E+00 -0.00000000000E+00 -0.13672457018E+03  0.13680532918E+03  0.47000000000E+01 0. -1.
          6    1    1    2  502    0 -0.17577917404E+03  0.26983543559E+03  0.29460129625E+03  0.46913047661E+03  0.17200000000E+03 0. -1.
         -6    1    1    2    0  502  0.17577917404E+03 -0.26983543559E+03  0.62361772666E+03  0.72262891537E+03  0.17200000000E+03 0.  1.
</event>
<event>
 4    1 -0.7147820E-004  0.1721876E+03  0.7818608E-02  0.1175586E+00
          5   -1    0    0  501    0  0.00000000000E+00  0.00000000000E+00  0.63072315598E+03  0.63074066738E+03  0.47000000000E+01 0. -1.
         -5   -1    0    0    0  501 -0.00000000000E+00 -0.00000000000E+00 -0.16700327874E+03  0.16706940208E+03  0.47000000000E+01 0.  1.
          6    1    1    2  502    0 -0.18852901006E+01  0.78106314996E+01  0.57001616560E+03  0.59545527904E+03  0.17200000000E+03 0. -1.
         -6    1    1    2    0  502  0.18852901006E+01 -0.78106314996E+01 -0.10629628837E+03  0.20235479042E+03  0.17200000000E+03 0.  1.
</event>
<event>
 4    1 -0.7147820E-004  0.1920834E+03  0.7818608E-02  0.1156596E+00
         -5   -1    0    0    0  501 -0.00000000000E+00  0.00000000000E+00  0.43440776865E+03  0.43443319333E+03  0.47000000000E+01 0.  1.
          5   -1    0    0  501    0  0.00000000000E+00 -0.00000000000E+00 -0.67776892683E+03  0.67778522275E+03  0.47000000000E+01 0. -1.
          6    1    1    2  502    0  0.60621024380E+02  0.60308683408E+02 -0.64178261500E+03  0.66991116636E+03  0.17200000000E+03 0. -1.
         -6    1    1    2    0  502 -0.60621024380E+02 -0.60308683408E+02  0.39842145683E+03  0.44230724972E+03  0.17200000000E+03 0.  1.
</event>
<event>
 4    1 -0.7147820E-004  0.3850175E+03  0.7818608E-02  0.1049095E+00
         -5   -1    0    0    0  501 -0.00000000000E+00  0.00000000000E+00  0.64116383510E+03  0.64118106135E+03  0.47000000000E+01 0.  1.
          5   -1    0    0  501    0  0.00000000000E+00 -0.00000000000E+00 -0.61278393155E+03  0.61280195559E+03  0.47000000000E+01 0. -1.
          6    1    1    2  502    0  0.24762335116E+03  0.23945181459E+03 -0.48058665404E+03  0.61579381906E+03  0.17200000000E+03 0. -1.
         -6    1    1    2    0  502 -0.24762335116E+03 -0.23945181459E+03  0.50896655759E+03  0.63818919788E+03  0.17200000000E+03 0.  1.
</event>
<event>
 4    1 -0.7147820E-004  0.2075704E+03  0.7818608E-02  0.1143505E+00
          5   -1    0    0  501    0  0.00000000000E+00  0.00000000000E+00  0.25127003199E+03  0.25131398484E+03  0.47000000000E+01 0. -1.
         -5   -1    0    0    0  501 -0.00000000000E+00 -0.00000000000E+00 -0.54865586682E+03  0.54867599746E+03  0.47000000000E+01 0.  1.
          6    1    1    2  502    0  0.53287409685E+02 -0.10325657805E+03  0.18297246506E+03  0.27670271396E+03  0.17200000000E+03 0. -1.
         -6    1    1    2    0  502 -0.53287409685E+02  0.10325657805E+03 -0.48035829989E+03  0.52328726835E+03  0.17200000000E+03 0.  1.
</event>
<event>
 4    1 -0.7147820E-004  0.4987648E+03  0.7818608E-02  0.1014102E+00
         -5   -1    0    0    0  501 -0.00000000000E+00  0.00000000000E+00  0.24664396990E+03  0.24668874698E+03  0.47000000000E+01 0.  1.
          5   -1    0    0  501    0  0.00000000000E+00 -0.00000000000E+00 -0.17344790372E+04  0.17344854051E+04  0.47000000000E+01 0. -1.
          6    1    1    2  502    0  0.45837559624E+03 -0.95258354082E+02 -0.13847942400E+04  0.14718768388E+04  0.17200000000E+03 0. -1.
         -6    1    1    2    0  502 -0.45837559624E+03  0.95258354082E+02 -0.10304082725E+03  0.50929731329E+03  0.17200000000E+03 0.  1.
</event>
<event>
 4    1 -0.7147820E-004  0.2292219E+03  0.7818608E-02  0.1127189E+00
         -5   -1    0    0    0  501 -0.00000000000E+00  0.00000000000E+00  0.37727829490E+03  0.37730756923E+03  0.47000000000E+01 0.  1.
          5   -1    0    0  501    0  0.00000000000E+00 -0.00000000000E+00 -0.28219116807E+03  0.28223030549E+03  0.47000000000E+01 0. -1.
          6    1    1    2  502    0 -0.85724507348E+00 -0.15151874019E+03 -0.18716811424E+03  0.29593000268E+03  0.17200000000E+03 0. -1.
         -6    1    1    2    0  502  0.85724507348E+00  0.15151874019E+03  0.28225524107E+03  0.36360787204E+03  0.17200000000E+03 0.  1.
</event>
<event>
 4    1 -0.7147820E-004  0.2677382E+03  0.7818608E-02  0.1102581E+00
          5   -1    0    0  501    0  0.00000000000E+00  0.00000000000E+00  0.13601942403E+03  0.13610060144E+03  0.47000000000E+01 0. -1.
         -5   -1    0    0    0  501 -0.00000000000E+00 -0.00000000000E+00 -0.62623122079E+03  0.62624885780E+03  0.47000000000E+01 0.  1.
          6    1    1    2  502    0  0.85529547446E+02 -0.18650591460E+03 -0.93203173876E+02  0.28349707457E+03  0.17200000000E+03 0. -1.
         -6    1    1    2    0  502 -0.85529547446E+02  0.18650591460E+03 -0.39700862289E+03  0.47885238468E+03  0.17200000000E+03 0. -1.
</event>
<event>
 4    1 -0.7147820E-004  0.1833777E+03  0.7818608E-02  0.1164574E+00
         -5   -1    0    0    0  501 -0.00000000000E+00  0.00000000000E+00  0.22853492255E+03  0.22858324703E+03  0.47000000000E+01 0.  1.
          5   -1    0    0  501    0  0.00000000000E+00 -0.00000000000E+00 -0.40094374135E+03  0.40097128791E+03  0.47000000000E+01 0. -1.
          6    1    1    2  502    0 -0.63438660647E+02  0.43491646344E+01 -0.33666571625E+03  0.38336820864E+03  0.17200000000E+03 0. -1.
         -6    1    1    2    0  502  0.63438660647E+02 -0.43491646344E+01  0.16425689745E+03  0.24618632630E+03  0.17200000000E+03 0.  1.
</event>
<event>
 4    1 -0.7147820E-004  0.3237488E+03  0.7818608E-02  0.1073937E+00
          5   -1    0    0  501    0  0.00000000000E+00  0.00000000000E+00  0.42167562966E+03  0.42170182197E+03  0.47000000000E+01 0. -1.
         -5   -1    0    0    0  501 -0.00000000000E+00 -0.00000000000E+00 -0.37295233978E+03  0.37298195365E+03  0.47000000000E+01 0.  1.
          6    1    1    2  502    0  0.26672179751E+03  0.63943335377E+02  0.25386506012E+03  0.41141309672E+03  0.17200000000E+03 0. -1.
         -6    1    1    2    0  502 -0.26672179751E+03 -0.63943335377E+02 -0.20514177024E+03  0.38327067890E+03  0.17200000000E+03 0.  1.
</event>
<event>
 4    1 -0.7147820E-004  0.1777685E+03  0.7818608E-02  0.1169980E+00
         -5   -1    0    0    0  501 -0.00000000000E+00  0.00000000000E+00  0.45207651244E+03  0.45210094348E+03  0.47000000000E+01 0.  1.
          5   -1    0    0  501    0  0.00000000000E+00 -0.00000000000E+00 -0.38495013784E+03  0.38497882880E+03  0.47000000000E+01 0. -1.
          6    1    1    2  502    0 -0.28728400377E+02  0.34530067502E+02 -0.34507840625E+03  0.38817618810E+03  0.17200000000E+03 0. -1.
         -6    1    1    2    0  502  0.28728400377E+02 -0.34530067502E+02  0.41220478084E+03  0.44890358419E+03  0.17200000000E+03 0.  1.
</event>
<event>
 4    1 -0.7147820E-004  0.2252654E+03  0.7818608E-02  0.1130017E+00
         -5   -1    0    0    0  501 -0.00000000000E+00  0.00000000000E+00  0.71996691743E+03  0.71998225825E+03  0.47000000000E+01 0.  1.
          5   -1    0    0  501    0  0.00000000000E+00 -0.00000000000E+00 -0.11569694528E+04  0.11569789993E+04  0.47000000000E+01 0. -1.
          6    1    1    2  502    0  0.10357596039E+03 -0.10213972992E+03 -0.11279478093E+04  0.11502220501E+04  0.17200000000E+03 0. -1.
         -6    1    1    2    0  502 -0.10357596039E+03  0.10213972992E+03  0.69094527394E+03  0.72673920740E+03  0.17200000000E+03 0.  1.
</event>
<event>
 4    1 -0.7147820E-004  0.1895575E+03  0.7818608E-02  0.1158861E+00
         -5   -1    0    0    0  501 -0.00000000000E+00  0.00000000000E+00  0.32250450422E+03  0.32253874998E+03  0.47000000000E+01 0.  1.
          5   -1    0    0  501    0  0.00000000000E+00 -0.00000000000E+00 -0.17361868951E+03  0.17368229428E+03  0.47000000000E+01 0. -1.
          6    1    1    2  502    0  0.58122700802E+02 -0.54495856284E+02 -0.74123718569E+02  0.20353469570E+03  0.17200000000E+03 0. -1.
         -6    1    1    2    0  502 -0.58122700802E+02  0.54495856284E+02  0.22300953328E+03  0.29268634856E+03  0.17200000000E+03 0.  1.
</event>
<event>
 4    1 -0.7147820E-004  0.1800355E+03  0.7818608E-02  0.1167769E+00
          5   -1    0    0  501    0  0.00000000000E+00  0.00000000000E+00  0.12543331866E+04  0.12543419920E+04  0.47000000000E+01 0. -1.
         -5   -1    0    0    0  501 -0.00000000000E+00 -0.00000000000E+00 -0.26342160984E+03  0.26346353548E+03  0.47000000000E+01 0.  1.
          6    1    1    2  502    0 -0.51119096406E+02  0.14684481032E+02  0.12161798053E+04  0.12294332494E+04  0.17200000000E+03 0. -1.
         -6    1    1    2    0  502  0.51119096406E+02 -0.14684481032E+02 -0.22526822852E+03  0.28837227811E+03  0.17200000000E+03 0.  1.
</event>
<event>
 4    1 -0.7147820E-004  0.1868265E+03  0.7818608E-02  0.1161355E+00
         -5   -1    0    0    0  501 -0.00000000000E+00  0.00000000000E+00  0.28060925157E+03  0.28064860959E+03  0.47000000000E+01 0.  1.
          5   -1    0    0  501    0  0.00000000000E+00 -0.00000000000E+00 -0.61436616749E+03  0.61438414510E+03  0.47000000000E+01 0. -1.
          6    1    1    2  502    0  0.19358775633E+02 -0.70323387734E+02 -0.56653994629E+03  0.59654978987E+03  0.17200000000E+03 0. -1.
         -6    1    1    2    0  502 -0.19358775633E+02  0.70323387734E+02  0.23278303037E+03  0.29848296482E+03  0.17200000000E+03 0.  1.
</event>
<event>
 4    1 -0.7147820E-004  0.1926596E+03  0.7818608E-02  0.1156084E+00
          5   -1    0    0  501    0  0.00000000000E+00  0.00000000000E+00  0.40382599893E+03  0.40385334889E+03  0.47000000000E+01 0. -1.
         -5   -1    0    0    0  501 -0.00000000000E+00 -0.00000000000E+00 -0.95022065842E+02  0.95138230995E+02  0.47000000000E+01 0.  1.
          6    1    1    2  502    0 -0.33079035426E+02 -0.80246570439E+02  0.20013410178E+03  0.27779739622E+03  0.17200000000E+03 0.  1.
         -6    1    1    2    0  502  0.33079035426E+02  0.80246570439E+02  0.10866983131E+03  0.22119418367E+03  0.17200000000E+03 0. -1.
</event>
<event>
 4    1 -0.7147820E-004  0.1899246E+03  0.7818608E-02  0.1158529E+00
          5   -1    0    0  501    0  0.00000000000E+00  0.00000000000E+00  0.37094194458E+03  0.37097171894E+03  0.47000000000E+01 0. -1.
         -5   -1    0    0    0  501 -0.00000000000E+00 -0.00000000000E+00 -0.28251442503E+03  0.28255351767E+03  0.47000000000E+01 0.  1.
          6    1    1    2  502    0  0.27645924234E+02  0.75650871551E+02  0.30884507376E+03  0.36256948448E+03  0.17200000000E+03 0. -1.
         -6    1    1    2    0  502 -0.27645924234E+02 -0.75650871551E+02 -0.22041755420E+03  0.29095575212E+03  0.17200000000E+03 0.  1.
</event>
<event>
 4    1 -0.7147820E-004  0.1804362E+03  0.7818608E-02  0.1167382E+00
         -5   -1    0    0    0  501 -0.00000000000E+00  0.00000000000E+00  0.83605217199E+03  0.83606538278E+03  0.47000000000E+01 0.  1.
          5   -1    0    0  501    0  0.00000000000E+00 -0.00000000000E+00 -0.50761361793E+02  0.50978484198E+02  0.47000000000E+01 0. -1.
          6    1    1    2  502    0  0.13807434559E+02 -0.52750116757E+02  0.17778143114E+03  0.25330506771E+03  0.17200000000E+03 0. -1.
         -6    1    1    2    0  502 -0.13807434559E+02  0.52750116757E+02  0.60750937905E+03  0.63373879927E+03  0.17200000000E+03 0.  1.
</event>
<event>
 4    1 -0.7147820E-004  0.1815903E+03  0.7818608E-02  0.1166273E+00
         -5   -1    0    0    0  501 -0.00000000000E+00  0.00000000000E+00  0.48500448230E+03  0.48502725475E+03  0.47000000000E+01 0.  1.
          5   -1    0    0  501    0  0.00000000000E+00 -0.00000000000E+00 -0.13064426826E+04  0.13064511368E+04  0.47000000000E+01 0. -1.
          6    1    1    2  502    0  0.58094985375E+02 -0.40025665128E+01 -0.12828401733E+04  0.12956287887E+04  0.17200000000E+03 0. -1.
         -6    1    1    2    0  502 -0.58094985375E+02  0.40025665128E+01  0.46140197307E+03  0.49584960282E+03  0.17200000000E+03 0.  1.
</event>
<event>
 4    1 -0.7147820E-004  0.2217826E+03  0.7818608E-02  0.1132561E+00
          5   -1    0    0  501    0  0.00000000000E+00  0.00000000000E+00  0.23692325491E+03  0.23696986879E+03  0.47000000000E+01 0. -1.
         -5   -1    0    0    0  501 -0.00000000000E+00 -0.00000000000E+00 -0.12855167726E+04  0.12855253645E+04  0.47000000000E+01 0.  1.
          6    1    1    2  502    0  0.13998147433E+03 -0.29502402343E+01  0.17278472085E+03  0.28114422781E+03  0.17200000000E+03 0. -1.
         -6    1    1    2    0  502 -0.13998147433E+03  0.29502402343E+01 -0.12213782386E+04  0.12413510055E+04  0.17200000000E+03 0.  1.
</event>
<event>
 4    1 -0.7147820E-004  0.2017469E+03  0.7818608E-02  0.1148273E+00
          5   -1    0    0  501    0  0.00000000000E+00  0.00000000000E+00  0.53766875541E+02  0.53971908485E+02  0.47000000000E+01 0. -1.
         -5   -1    0    0    0  501 -0.00000000000E+00 -0.00000000000E+00 -0.97632919956E+03  0.97634051228E+03  0.47000000000E+01 0.  1.
          6    1    1    2  502    0  0.45028671893E+02 -0.95342753325E+02 -0.70633725908E+03  0.73458433516E+03  0.17200000000E+03 0.  1.
         -6    1    1    2    0  502 -0.45028671893E+02  0.95342753325E+02 -0.21622506494E+03  0.29572808560E+03  0.17200000000E+03 0. -1.
</event>
<event>
 4    1 -0.7147820E-004  0.2311945E+03  0.7818608E-02  0.1125802E+00
         -5   -1    0    0    0  501 -0.00000000000E+00  0.00000000000E+00  0.11892424717E+03  0.11901708518E+03  0.47000000000E+01 0.  1.
          5   -1    0    0  501    0  0.00000000000E+00 -0.00000000000E+00 -0.92989540711E+03  0.92990728471E+03  0.47000000000E+01 0. -1.
          6    1    1    2  502    0 -0.13507907381E+03  0.74970380919E+02 -0.78255246497E+03  0.81598975155E+03  0.17200000000E+03 0. -1.
         -6    1    1    2    0  502  0.13507907381E+03 -0.74970380919E+02 -0.28418694966E+02  0.23293461834E+03  0.17200000000E+03 0.  1.
</event>
<event>
 4    1 -0.7147820E-004  0.2257803E+03  0.7818608E-02  0.1129646E+00
         -5   -1    0    0    0  501 -0.00000000000E+00  0.00000000000E+00  0.99560787348E+03  0.99561896714E+03  0.47000000000E+01 0.  1.
          5   -1    0    0  501    0  0.00000000000E+00 -0.00000000000E+00 -0.18274096460E+03  0.18280139535E+03  0.47000000000E+01 0. -1.
          6    1    1    2  502    0 -0.13140110922E+03  0.64237743654E+02 -0.93485600034E+02  0.24436918101E+03  0.17200000000E+03 0. -1.
         -6    1    1    2    0  502  0.13140110922E+03 -0.64237743654E+02  0.90635250891E+03  0.93405118148E+03  0.17200000000E+03 0.  1.
</event>
<event>
 4    1 -0.7147820E-004  0.1772368E+03  0.7818608E-02  0.1170504E+00
         -5   -1    0    0    0  501 -0.00000000000E+00  0.00000000000E+00  0.12656028603E+04  0.12656115873E+04  0.47000000000E+01 0.  1.
          5   -1    0    0  501    0  0.00000000000E+00 -0.00000000000E+00 -0.43896076993E+02  0.44146976968E+02  0.47000000000E+01 0. -1.
          6    1    1    2  502    0  0.10473396711E+02  0.41462996645E+02  0.17829201467E+03  0.25139792088E+03  0.17200000000E+03 0. -1.
         -6    1    1    2    0  502 -0.10473396711E+02 -0.41462996645E+02  0.10434147686E+04  0.10583606434E+04  0.17200000000E+03 0.  1.
</event>
<event>
 4    1 -0.7147820E-004  0.1945989E+03  0.7818608E-02  0.1154378E+00
         -5   -1    0    0    0  501 -0.00000000000E+00  0.00000000000E+00  0.35399135698E+03  0.35402255693E+03  0.47000000000E+01 0.  1.
          5   -1    0    0  501    0  0.00000000000E+00 -0.00000000000E+00 -0.18329459850E+03  0.18335484678E+03  0.47000000000E+01 0. -1.
          6    1    1    2  502    0 -0.87358530440E+02  0.25558031391E+02 -0.88073452428E+02  0.21360163584E+03  0.17200000000E+03 0. -1.
         -6    1    1    2    0  502  0.87358530440E+02 -0.25558031391E+02  0.25877021091E+03  0.32377576788E+03  0.17200000000E+03 0.  1.
</event>
<event>
 4    1 -0.7147820E-004  0.2636507E+03  0.7818608E-02  0.1104969E+00
          5   -1    0    0  501    0  0.00000000000E+00  0.00000000000E+00  0.29235133196E+03  0.29238910941E+03  0.47000000000E+01 0. -1.
         -5   -1    0    0    0  501 -0.00000000000E+00 -0.00000000000E+00 -0.26192761266E+03  0.26196977741E+03  0.47000000000E+01 0.  1.
          6    1    1    2  502    0 -0.16869603519E+03 -0.10709496881E+03  0.99513481821E+02  0.28180599301E+03  0.17200000000E+03 0. -1.
         -6    1    1    2    0  502  0.16869603519E+03  0.10709496881E+03 -0.69089762517E+02  0.27255289380E+03  0.17200000000E+03 0.  1.
</event>
<event>
 4    1 -0.7147820E-004  0.1947883E+03  0.7818608E-02  0.1154212E+00
         -5   -1    0    0    0  501 -0.00000000000E+00  0.00000000000E+00  0.74214190852E+02  0.74362867910E+02  0.47000000000E+01 0.  1.
          5   -1    0    0  501    0  0.00000000000E+00 -0.00000000000E+00 -0.21012989323E+04  0.21013041885E+04  0.47000000000E+01 0. -1.
          6    1    1    2  502    0  0.63113536502E+02  0.66144895531E+02 -0.19599926294E+04  0.19696480836E+04  0.17200000000E+03 0. -1.
         -6    1    1    2    0  502 -0.63113536502E+02 -0.66144895531E+02 -0.67092111991E+02  0.20601897288E+03  0.17200000000E+03 0.  1.
</event>
<event>
 4    1 -0.7147820E-004  0.1798698E+03  0.7818608E-02  0.1167929E+00
         -5   -1    0    0    0  501 -0.00000000000E+00  0.00000000000E+00  0.76740215906E+02  0.76884008333E+02  0.47000000000E+01 0.  1.
          5   -1    0    0  501    0  0.00000000000E+00 -0.00000000000E+00 -0.70783397132E+03  0.70784957509E+03  0.47000000000E+01 0. -1.
          6    1    1    2  502    0 -0.18272557988E+02 -0.49348388169E+02 -0.56527059543E+03  0.59319810843E+03  0.17200000000E+03 0. -1.
         -6    1    1    2    0  502  0.18272557988E+02  0.49348388169E+02 -0.65823159988E+02  0.19153547499E+03  0.17200000000E+03 0.  1.
</event>
<event>
 4    1 -0.7147820E-004  0.2181544E+03  0.7818608E-02  0.1135267E+00
         -5   -1    0    0    0  501 -0.00000000000E+00  0.00000000000E+00  0.78075115608E+02  0.78216454005E+02  0.47000000000E+01 0.  1.
          5   -1    0    0  501    0  0.00000000000E+00 -0.00000000000E+00 -0.72865917770E+03  0.72867433553E+03  0.47000000000E+01 0. -1.
          6    1    1    2  502    0  0.34771150452E+01  0.13414644713E+03 -0.48886362484E+03  0.53533074197E+03  0.17200000000E+03 0. -1.
         -6    1    1    2    0  502 -0.34771150452E+01 -0.13414644713E+03 -0.16172043726E+03  0.27156004756E+03  0.17200000000E+03 0.  1.
</event>
<event>
 4    1 -0.7147820E-004  0.1859832E+03  0.7818608E-02  0.1162135E+00
         -5   -1    0    0    0  501 -0.00000000000E+00  0.00000000000E+00  0.62378632527E+03  0.62380403140E+03  0.47000000000E+01 0.  1.
          5   -1    0    0  501    0  0.00000000000E+00 -0.00000000000E+00 -0.61103291433E+03  0.61105099002E+03  0.47000000000E+01 0. -1.
          6    1    1    2  502    0  0.46532746816E+02 -0.53296010938E+02 -0.58237050665E+03  0.61134701138E+03  0.17200000000E+03 0. -1.
         -6    1    1    2    0  502 -0.46532746816E+02  0.53296010938E+02  0.59512391758E+03  0.62350801004E+03  0.17200000000E+03 0.  1.
</event>
<event>
 4    1 -0.7147820E-004  0.2178911E+03  0.7818608E-02  0.1135465E+00
          5   -1    0    0  501    0  0.00000000000E+00  0.00000000000E+00  0.10698952115E+04  0.10699055349E+04  0.47000000000E+01 0. -1.
         -5   -1    0    0    0  501 -0.00000000000E+00 -0.00000000000E+00 -0.92746391976E+02  0.92865403809E+02  0.47000000000E+01 0.  1.
          6    1    1    2  502    0  0.44825937228E+02  0.12602837296E+03  0.90858581923E+03  0.93434720867E+03  0.17200000000E+03 0.  1.
         -6    1    1    2    0  502 -0.44825937228E+02 -0.12602837296E+03  0.68563000319E+02  0.22842373006E+03  0.17200000000E+03 0.  1.
</event>
<event>
 4    1 -0.7147820E-004  0.1975393E+03  0.7818608E-02  0.1151832E+00
         -5   -1    0    0    0  501 -0.00000000000E+00  0.00000000000E+00  0.32996168979E+04  0.32996202452E+04  0.47000000000E+01 0.  1.
          5   -1    0    0  501    0  0.00000000000E+00 -0.00000000000E+00 -0.16709521484E+02  0.17357940783E+02  0.47000000000E+01 0. -1.
          6    1    1    2  502    0 -0.74585353331E+02  0.62248034999E+02  0.72423581238E+03  0.75069255007E+03  0.17200000000E+03 0. -1.
         -6    1    1    2    0  502  0.74585353331E+02 -0.62248034999E+02  0.25586715640E+04  0.25662856359E+04  0.17200000000E+03 0.  1.
</event>
<event>
 4    1 -0.7147820E-004  0.2589672E+03  0.7818608E-02  0.1107765E+00
         -5   -1    0    0    0  501 -0.00000000000E+00  0.00000000000E+00  0.16093191324E+03  0.16100053012E+03  0.47000000000E+01 0.  1.
          5   -1    0    0  501    0  0.00000000000E+00 -0.00000000000E+00 -0.48090308257E+03  0.48092604922E+03  0.47000000000E+01 0. -1.
          6    1    1    2  502    0  0.19317197605E+03  0.12828840027E+02 -0.27738397369E+03  0.37948104081E+03  0.17200000000E+03 0. -1.
         -6    1    1    2    0  502 -0.19317197605E+03 -0.12828840027E+02 -0.42587195630E+02  0.26244553854E+03  0.17200000000E+03 0.  1.
</event>
<event>
 4    1 -0.7147820E-004  0.1926597E+03  0.7818608E-02  0.1156084E+00
         -5   -1    0    0    0  501 -0.00000000000E+00  0.00000000000E+00  0.62906829837E+03  0.62908585583E+03  0.47000000000E+01 0.  1.
          5   -1    0    0  501    0  0.00000000000E+00 -0.00000000000E+00 -0.20023324884E+03  0.20028840191E+03  0.47000000000E+01 0. -1.
          6    1    1    2  502    0  0.87360851757E+01 -0.86356509949E+02 -0.13386842524E+03  0.23460290124E+03  0.17200000000E+03 0. -1.
         -6    1    1    2    0  502 -0.87360851757E+01  0.86356509949E+02  0.56270347477E+03  0.59477135650E+03  0.17200000000E+03 0.  1.
</event>
<event>
 4    1 -0.7147820E-004  0.6543524E+03  0.7818608E-02  0.9798646E-01
         -5   -1    0    0    0  501 -0.00000000000E+00  0.00000000000E+00  0.10849461970E+04  0.10849563772E+04  0.47000000000E+01 0.  1.
          5   -1    0    0  501    0  0.00000000000E+00 -0.00000000000E+00 -0.92211104625E+03  0.92212302412E+03  0.47000000000E+01 0. -1.
          6    1    1    2  502    0  0.61674118065E+03  0.13499399059E+03 -0.67758036525E+03  0.94196189561E+03  0.17200000000E+03 0. -1.
         -6    1    1    2    0  502 -0.61674118065E+03 -0.13499399059E+03  0.84041551599E+03  0.10651175057E+04  0.17200000000E+03 0.  1.
</event>
<event>
 4    1 -0.7147820E-004  0.1757880E+03  0.7818608E-02  0.1171943E+00
          5   -1    0    0  501    0  0.00000000000E+00  0.00000000000E+00  0.34520941818E+03  0.34524141177E+03  0.47000000000E+01 0. -1.
         -5   -1    0    0    0  501 -0.00000000000E+00 -0.00000000000E+00 -0.99377508550E+02  0.99488588318E+02  0.47000000000E+01 0.  1.
          6    1    1    2  502    0 -0.75743498537E+00 -0.36288431778E+02  0.19326108255E+03  0.26124944022E+03  0.17200000000E+03 0. -1.
         -6    1    1    2    0  502  0.75743498537E+00  0.36288431778E+02  0.52570827084E+02  0.18348055987E+03  0.17200000000E+03 0. -1.
</event>
<event>
 4    1 -0.7147820E-004  0.1798858E+03  0.7818608E-02  0.1167914E+00
          5   -1    0    0  501    0  0.00000000000E+00  0.00000000000E+00  0.10732375101E+04  0.10732478013E+04  0.47000000000E+01 0. -1.
         -5   -1    0    0    0  501 -0.00000000000E+00 -0.00000000000E+00 -0.38744062981E+02  0.39028097779E+02  0.47000000000E+01 0.  1.
          6    1    1    2  502    0  0.51082527915E+02 -0.12864030982E+02  0.78095703583E+03  0.80140676298E+03  0.17200000000E+03 0. -1.
         -6    1    1    2    0  502 -0.51082527915E+02  0.12864030982E+02  0.25353641130E+03  0.31086913614E+03  0.17200000000E+03 0.  1.
</event>
<event>
 4    1 -0.7147820E-004  0.2428491E+03  0.7818608E-02  0.1117909E+00
          5   -1    0    0  501    0  0.00000000000E+00  0.00000000000E+00  0.83971626152E+02  0.84103055822E+02  0.47000000000E+01 0. -1.
         -5   -1    0    0    0  501 -0.00000000000E+00 -0.00000000000E+00 -0.75529026025E+03  0.75530488362E+03  0.47000000000E+01 0.  1.
          6    1    1    2  502    0  0.23692018417E+02 -0.16979504452E+03 -0.44750772436E+03  0.50915501789E+03  0.17200000000E+03 0. -1.
         -6    1    1    2    0  502 -0.23692018417E+02  0.16979504452E+03 -0.22381090973E+03  0.33025292156E+03  0.17200000000E+03 0. -1.
</event>
<event>
 4    1 -0.7147820E-004  0.2032633E+03  0.7818608E-02  0.1147015E+00
          5   -1    0    0  501    0  0.00000000000E+00  0.00000000000E+00  0.22753599095E+03  0.22758452754E+03  0.47000000000E+01 0. -1.
         -5   -1    0    0    0  501 -0.00000000000E+00 -0.00000000000E+00 -0.24330024816E+03  0.24334564051E+03  0.47000000000E+01 0.  1.
          6    1    1    2  502    0  0.37820876377E+02  0.10149655877E+03  0.11078331212E+03  0.23149279119E+03  0.17200000000E+03 0. -1.
         -6    1    1    2    0  502 -0.37820876377E+02 -0.10149655877E+03 -0.12654756933E+03  0.23943737685E+03  0.17200000000E+03 0.  1.
</event>
<event>
 4    1 -0.7147820E-004  0.1751823E+03  0.7818608E-02  0.1172549E+00
         -5   -1    0    0    0  501 -0.00000000000E+00  0.00000000000E+00  0.96863388115E+02  0.96977347649E+02  0.47000000000E+01 0.  1.
          5   -1    0    0  501    0  0.00000000000E+00 -0.00000000000E+00 -0.33872486791E+03  0.33875747392E+03  0.47000000000E+01 0. -1.
          6    1    1    2  502    0  0.32045689370E+02 -0.88264448781E+01 -0.17671518069E+03  0.24883144380E+03  0.17200000000E+03 0. -1.
         -6    1    1    2    0  502 -0.32045689370E+02  0.88264448781E+01 -0.65146299102E+02  0.18690337777E+03  0.17200000000E+03 0.  1.
</event>
<event>
 4    1 -0.7147820E-004  0.1815955E+03  0.7818608E-02  0.1166268E+00
          5   -1    0    0  501    0  0.00000000000E+00  0.00000000000E+00  0.46265848485E+02  0.46503964735E+02  0.47000000000E+01 0. -1.
         -5   -1    0    0    0  501 -0.00000000000E+00 -0.00000000000E+00 -0.14319305679E+04  0.14319382813E+04  0.47000000000E+01 0.  1.
          6    1    1    2  502    0 -0.48623772557E+02  0.32072509685E+02 -0.16824943561E+03  0.24755764928E+03  0.17200000000E+03 0. -1.
         -6    1    1    2    0  502  0.48623772557E+02 -0.32072509685E+02 -0.12174152838E+04  0.12308845967E+04  0.17200000000E+03 0.  1.
</event>
<event>
 4    1 -0.7147820E-004  0.1768319E+03  0.7818608E-02  0.1170905E+00
         -5   -1    0    0    0  501 -0.00000000000E+00  0.00000000000E+00  0.38463739526E+03  0.38466610954E+03  0.47000000000E+01 0.  1.
          5   -1    0    0  501    0  0.00000000000E+00 -0.00000000000E+00 -0.10770422050E+03  0.10780672109E+03  0.47000000000E+01 0. -1.
          6    1    1    2  502    0 -0.21451328927E+02  0.35005333555E+02  0.16392171551E+02  0.17759007905E+03  0.17200000000E+03 0. -1.
         -6    1    1    2    0  502  0.21451328927E+02 -0.35005333555E+02  0.26054100321E+03  0.31488275158E+03  0.17200000000E+03 0.  1.
</event>
<event>
 4    1 -0.7147820E-004  0.1772364E+03  0.7818608E-02  0.1170505E+00
         -5   -1    0    0    0  501 -0.00000000000E+00  0.00000000000E+00  0.10953391701E+03  0.10963470699E+03  0.47000000000E+01 0.  1.
          5   -1    0    0  501    0  0.00000000000E+00 -0.00000000000E+00 -0.60727850661E+03  0.60729669404E+03  0.47000000000E+01 0. -1.
          6    1    1    2  502    0 -0.42683789612E+02 -0.26114706507E+01 -0.50936014624E+03  0.53931482852E+03  0.17200000000E+03 0. -1.
         -6    1    1    2    0  502  0.42683789612E+02  0.26114706507E+01  0.11615556647E+02  0.17761657251E+03  0.17200000000E+03 0.  1.
</event>
<event>
 4    1 -0.7147820E-004  0.5925620E+03  0.7818608E-02  0.9920959E-01
         -5   -1    0    0    0  501 -0.00000000000E+00  0.00000000000E+00  0.13869171683E+04  0.13869251320E+04  0.47000000000E+01 0.  1.
          5   -1    0    0  501    0  0.00000000000E+00 -0.00000000000E+00 -0.25360693451E+03  0.25365048242E+03  0.47000000000E+01 0. -1.
          6    1    1    2  502    0 -0.20651261074E+02 -0.56667388827E+03  0.53154949291E+03  0.79603682932E+03  0.17200000000E+03 0. -1.
         -6    1    1    2    0  502  0.20651261074E+02  0.56667388827E+03  0.60176074090E+03  0.84453878509E+03  0.17200000000E+03 0.  1.
</event>
<event>
 4    1 -0.7147820E-004  0.1751989E+03  0.7818608E-02  0.1172532E+00
          5   -1    0    0  501    0  0.00000000000E+00  0.00000000000E+00  0.54977717228E+03  0.54979726187E+03  0.47000000000E+01 0. -1.
         -5   -1    0    0    0  501 -0.00000000000E+00 -0.00000000000E+00 -0.95619683640E+02  0.95735123646E+02  0.47000000000E+01 0.  1.
          6    1    1    2  502    0 -0.32148444667E+02  0.87820820244E+01  0.43540641488E+03  0.46933292403E+03  0.17200000000E+03 0. -1.
         -6    1    1    2    0  502  0.32148444667E+02 -0.87820820244E+01  0.18751073753E+02  0.17619946148E+03  0.17200000000E+03 0.  1.
</event>
<event>
 4    1 -0.7147820E-004  0.2175086E+03  0.7818608E-02  0.1135754E+00
          5   -1    0    0  501    0  0.00000000000E+00  0.00000000000E+00  0.43173308583E+03  0.43175866801E+03  0.47000000000E+01 0. -1.
         -5   -1    0    0    0  501 -0.00000000000E+00 -0.00000000000E+00 -0.43962347350E+03  0.43964859655E+03  0.47000000000E+01 0.  1.
          6    1    1    2  502    0  0.58738158833E+02 -0.11948142230E+03  0.37357804307E+03  0.43228524823E+03  0.17200000000E+03 0. -1.
         -6    1    1    2    0  502 -0.58738158833E+02  0.11948142230E+03 -0.38146843073E+03  0.43912201633E+03  0.17200000000E+03 0.  1.
</event>
<event>
 4    1 -0.7147820E-004  0.1933722E+03  0.7818608E-02  0.1155454E+00
          5   -1    0    0  501    0  0.00000000000E+00  0.00000000000E+00  0.11311761413E+04  0.11311859054E+04  0.47000000000E+01 0. -1.
         -5   -1    0    0    0  501 -0.00000000000E+00 -0.00000000000E+00 -0.17069984306E+03  0.17076453502E+03  0.47000000000E+01 0.  1.
          6    1    1    2  502    0 -0.19223065300E+02  0.86251366524E+02  0.10648107405E+04  0.10822267496E+04  0.17200000000E+03 0. -1.
         -6    1    1    2    0  502  0.19223065300E+02 -0.86251366524E+02 -0.10433444228E+03  0.21972369083E+03  0.17200000000E+03 0.  1.
</event>
<event>
 4    1 -0.7147820E-004  0.2439047E+03  0.7818608E-02  0.1117219E+00
         -5   -1    0    0    0  501 -0.00000000000E+00  0.00000000000E+00  0.23567109182E+03  0.23571795332E+03  0.47000000000E+01 0.  1.
          5   -1    0    0  501    0  0.00000000000E+00 -0.00000000000E+00 -0.19822251351E+04  0.19822307071E+04  0.47000000000E+01 0. -1.
          6    1    1    2  502    0 -0.13312267799E+03 -0.11038051010E+03 -0.19092460913E+04  0.19247623598E+04  0.17200000000E+03 0. -1.
         -6    1    1    2    0  502  0.13312267799E+03  0.11038051010E+03  0.16269204802E+03  0.29318630066E+03  0.17200000000E+03 0.  1.
</event>
<event>
 4    1 -0.7147820E-004  0.1984826E+03  0.7818608E-02  0.1151026E+00
          5   -1    0    0  501    0  0.00000000000E+00  0.00000000000E+00  0.10413308058E+03  0.10423909282E+03  0.47000000000E+01 0. -1.
         -5   -1    0    0    0  501 -0.00000000000E+00 -0.00000000000E+00 -0.10171718706E+04  0.10171827291E+04  0.47000000000E+01 0.  1.
          6    1    1    2  502    0 -0.88925972817E+02 -0.43629402905E+02 -0.12070017210E+02  0.19884928653E+03  0.17200000000E+03 0. -1.
         -6    1    1    2    0  502  0.88925972817E+02  0.43629402905E+02 -0.90096877280E+03  0.92257253536E+03  0.17200000000E+03 0.  1.
</event>
<event>
 4    1 -0.7147820E-004  0.1845547E+03  0.7818608E-02  0.1163466E+00
         -5   -1    0    0    0  501 -0.00000000000E+00  0.00000000000E+00  0.65461369644E+03  0.65463056877E+03  0.47000000000E+01 0.  1.
          5   -1    0    0  501    0  0.00000000000E+00 -0.00000000000E+00 -0.66102561528E+02  0.66269439719E+02  0.47000000000E+01 0. -1.
          6    1    1    2  502    0 -0.64547277361E+02  0.17609481639E+02  0.12748288270E+03  0.22430410215E+03  0.17200000000E+03 0.  1.
         -6    1    1    2    0  502  0.64547277361E+02 -0.17609481639E+02  0.46102825221E+03  0.49659590634E+03  0.17200000000E+03 0.  1.
</event>
<event>
 4    1 -0.7147820E-004  0.2091135E+03  0.7818608E-02  0.1142270E+00
          5   -1    0    0  501    0  0.00000000000E+00  0.00000000000E+00  0.42163274663E+02  0.42424423748E+02  0.47000000000E+01 0. -1.
         -5   -1    0    0    0  501 -0.00000000000E+00 -0.00000000000E+00 -0.11275248651E+04  0.11275346609E+04  0.47000000000E+01 0.  1.
          6    1    1    2  502    0  0.68006017337E+02  0.97568590316E+02 -0.71144968415E+03  0.74154507704E+03  0.17200000000E+03 0. -1.
         -6    1    1    2    0  502 -0.68006017337E+02 -0.97568590316E+02 -0.37391190632E+03  0.42841400759E+03  0.17200000000E+03 0. -1.
</event>
<event>
 4    1 -0.7147820E-004  0.1728115E+03  0.7818608E-02  0.1174947E+00
          5   -1    0    0  501    0  0.00000000000E+00  0.00000000000E+00  0.30398666248E+03  0.30402299414E+03  0.47000000000E+01 0. -1.
         -5   -1    0    0    0  501 -0.00000000000E+00 -0.00000000000E+00 -0.28880177636E+03  0.28884001805E+03  0.47000000000E+01 0.  1.
          6    1    1    2  502    0 -0.15901528059E+02  0.51903553059E+01  0.24839990855E+03  0.30259926132E+03  0.17200000000E+03 0. -1.
         -6    1    1    2    0  502  0.15901528059E+02 -0.51903553059E+01 -0.23321502243E+03  0.29026375087E+03  0.17200000000E+03 0.  1.
</event>
<event>
 4    1 -0.7147820E-004  0.2020112E+03  0.7818608E-02  0.1148053E+00
          5   -1    0    0  501    0  0.00000000000E+00  0.00000000000E+00  0.61872966609E+03  0.61874751693E+03  0.47000000000E+01 0. -1.
         -5   -1    0    0    0  501 -0.00000000000E+00 -0.00000000000E+00 -0.20285932568E+03  0.20291376497E+03  0.47000000000E+01 0.  1.
          6    1    1    2  502    0 -0.96990119717E+02 -0.42631493975E+02  0.54545409112E+03  0.58166029013E+03  0.17200000000E+03 0. -1.
         -6    1    1    2    0  502  0.96990119717E+02  0.42631493975E+02 -0.12958375071E+03  0.24000099176E+03  0.17200000000E+03 0.  1.
</event>
<event>
 4    1 -0.7147820E-004  0.2218811E+03  0.7818608E-02  0.1132488E+00
         -5   -1    0    0    0  501 -0.00000000000E+00  0.00000000000E+00  0.13421759210E+03  0.13429985863E+03  0.47000000000E+01 0.  1.
          5   -1    0    0  501    0  0.00000000000E+00 -0.00000000000E+00 -0.36659566644E+03  0.36662579377E+03  0.47000000000E+01 0. -1.
          6    1    1    2  502    0  0.11266070475E+03 -0.83395405961E+02 -0.11538542399E+03  0.25009003219E+03  0.17200000000E+03 0. -1.
         -6    1    1    2    0  502 -0.11266070475E+03  0.83395405961E+02 -0.11699265035E+03  0.25083562021E+03  0.17200000000E+03 0. -1.
</event>
<event>
 4    1 -0.7147820E-004  0.1771623E+03  0.7818608E-02  0.1170578E+00
         -5   -1    0    0    0  501 -0.00000000000E+00  0.00000000000E+00  0.35684132382E+02  0.35992322846E+02  0.47000000000E+01 0.  1.
          5   -1    0    0  501    0  0.00000000000E+00 -0.00000000000E+00 -0.12232406041E+04  0.12232496334E+04  0.47000000000E+01 0. -1.
          6    1    1    2  502    0  0.40999379741E+02 -0.11024826603E+02 -0.92944957002E+03  0.94618338558E+03  0.17200000000E+03 0. -1.
         -6    1    1    2    0  502 -0.40999379741E+02  0.11024826603E+02 -0.25810690173E+03  0.31305857065E+03  0.17200000000E+03 0.  1.
</event>
<event>
 4    1 -0.7147820E-004  0.2550006E+03  0.7818608E-02  0.1110185E+00
         -5   -1    0    0    0  501 -0.00000000000E+00  0.00000000000E+00  0.50154376882E+03  0.50156579034E+03  0.47000000000E+01 0.  1.
          5   -1    0    0  501    0  0.00000000000E+00 -0.00000000000E+00 -0.33105598215E+03  0.33108934341E+03  0.47000000000E+01 0. -1.
          6    1    1    2  502    0  0.53557744546E+01 -0.18818238245E+03 -0.23949905508E+03  0.34983580544E+03  0.17200000000E+03 0. -1.
         -6    1    1    2    0  502 -0.53557744546E+01  0.18818238245E+03  0.40998684174E+03  0.48281932831E+03  0.17200000000E+03 0.  1.
</event>
<event>
 4    1 -0.7147820E-004  0.3882005E+03  0.7818608E-02  0.1047944E+00
          5   -1    0    0  501    0  0.00000000000E+00  0.00000000000E+00  0.15977046547E+03  0.15983958094E+03  0.47000000000E+01 0. -1.
         -5   -1    0    0    0  501 -0.00000000000E+00 -0.00000000000E+00 -0.11250848681E+04  0.11250946851E+04  0.47000000000E+01 0.  1.
          6    1    1    2  502    0 -0.32497141051E+03 -0.12453610657E+03 -0.22416770683E+03  0.44827538442E+03  0.17200000000E+03 0. -1.
         -6    1    1    2    0  502  0.32497141051E+03  0.12453610657E+03 -0.74114669579E+03  0.83665888161E+03  0.17200000000E+03 0.  1.
</event>
<event>
 4    1 -0.7147820E-004  0.3132327E+03  0.7818608E-02  0.1078807E+00
          5   -1    0    0  501    0  0.00000000000E+00  0.00000000000E+00  0.61509540720E+03  0.61511336351E+03  0.47000000000E+01 0. -1.
         -5   -1    0    0    0  501 -0.00000000000E+00 -0.00000000000E+00 -0.26377842873E+03  0.26382029767E+03  0.47000000000E+01 0.  1.
          6    1    1    2  502    0 -0.24900369283E+03 -0.80795234511E+02  0.45199218464E+03  0.54991967044E+03  0.17200000000E+03 0. -1.
         -6    1    1    2    0  502  0.24900369283E+03  0.80795234511E+02 -0.10067520617E+03  0.32901399073E+03  0.17200000000E+03 0.  1.
</event>
<event>
 4    1 -0.7147820E-004  0.1882828E+03  0.7818608E-02  0.1160019E+00
          5   -1    0    0  501    0  0.00000000000E+00  0.00000000000E+00  0.19367580415E+03  0.19373282405E+03  0.47000000000E+01 0. -1.
         -5   -1    0    0    0  501 -0.00000000000E+00 -0.00000000000E+00 -0.95535601318E+03  0.95536757424E+03  0.47000000000E+01 0.  1.
          6    1    1    2  502    0  0.39322316014E+02  0.65728005429E+02  0.13575922838E+03  0.23212277640E+03  0.17200000000E+03 0. -1.
         -6    1    1    2    0  502 -0.39322316014E+02 -0.65728005429E+02 -0.89743943741E+03  0.91697762189E+03  0.17200000000E+03 0.  1.
</event>
<event>
 4    1 -0.7147820E-004  0.1888520E+03  0.7818608E-02  0.1159501E+00
          5   -1    0    0  501    0  0.00000000000E+00  0.00000000000E+00  0.20748623581E+03  0.20753946143E+03  0.47000000000E+01 0. -1.
         -5   -1    0    0    0  501 -0.00000000000E+00 -0.00000000000E+00 -0.40394616815E+03  0.40397350997E+03  0.47000000000E+01 0.  1.
          6    1    1    2  502    0 -0.74838396540E+02  0.21915542634E+02  0.13353966903E+03  0.23129617336E+03  0.17200000000E+03 0. -1.
         -6    1    1    2    0  502  0.74838396540E+02 -0.21915542634E+02 -0.32999960137E+03  0.38021679804E+03  0.17200000000E+03 0.  1.
</event>
<event>
 4    1 -0.7147820E-004  0.2261571E+03  0.7818608E-02  0.1129374E+00
         -5   -1    0    0    0  501 -0.00000000000E+00  0.00000000000E+00  0.19662109521E+03  0.19667726122E+03  0.47000000000E+01 0.  1.
          5   -1    0    0  501    0  0.00000000000E+00 -0.00000000000E+00 -0.33602924628E+03  0.33606211383E+03  0.47000000000E+01 0. -1.
          6    1    1    2  502    0 -0.14580471414E+03 -0.17435806839E+02 -0.19637653199E+03  0.29951755264E+03  0.17200000000E+03 0. -1.
         -6    1    1    2    0  502  0.14580471414E+03  0.17435806839E+02  0.56968380918E+02  0.23322182241E+03  0.17200000000E+03 0.  1.
</event>
<event>
 4    1 -0.7147820E-004  0.1781759E+03  0.7818608E-02  0.1169580E+00
         -5   -1    0    0    0  501 -0.00000000000E+00  0.00000000000E+00  0.36400907300E+02  0.36703079602E+02  0.47000000000E+01 0.  1.
          5   -1    0    0  501    0  0.00000000000E+00 -0.00000000000E+00 -0.10193099252E+04  0.10193207609E+04  0.47000000000E+01 0. -1.
          6    1    1    2  502    0 -0.22223470027E+01  0.46451239976E+02 -0.69470582156E+03  0.71719093346E+03  0.17200000000E+03 0. -1.
         -6    1    1    2    0  502  0.22223470027E+01 -0.46451239976E+02 -0.28820319635E+03  0.33883290706E+03  0.17200000000E+03 0.  1.
</event>
<event>
 4    1 -0.7147820E-004  0.1780878E+03  0.7818608E-02  0.1169667E+00
         -5   -1    0    0    0  501 -0.00000000000E+00  0.00000000000E+00  0.58960058368E+03  0.58961931640E+03  0.47000000000E+01 0.  1.
          5   -1    0    0  501    0  0.00000000000E+00 -0.00000000000E+00 -0.20137846109E+03  0.20143330060E+03  0.47000000000E+01 0. -1.
          6    1    1    2  502    0  0.43948268836E+02 -0.14135747377E+02 -0.14450911151E+03  0.22934287213E+03  0.17200000000E+03 0. -1.
         -6    1    1    2    0  502 -0.43948268836E+02  0.14135747377E+02  0.53273123410E+03  0.56170974487E+03  0.17200000000E+03 0.  1.
</event>
<event>
 4    1 -0.7147820E-004  0.1827971E+03  0.7818608E-02  0.1165123E+00
         -5   -1    0    0    0  501 -0.00000000000E+00  0.00000000000E+00  0.57437508957E+03  0.57439431884E+03  0.47000000000E+01 0.  1.
          5   -1    0    0  501    0  0.00000000000E+00 -0.00000000000E+00 -0.24401373371E+03  0.24405899336E+03  0.47000000000E+01 0. -1.
          6    1    1    2  502    0  0.53298680003E+02 -0.31464557977E+02 -0.19195783363E+03  0.26507089163E+03  0.17200000000E+03 0. -1.
         -6    1    1    2    0  502 -0.53298680003E+02  0.31464557977E+02  0.52231918948E+03  0.55338242057E+03  0.17200000000E+03 0.  1.
</event>
<event>
 4    1 -0.7147820E-004  0.3693489E+03  0.7818608E-02  0.1054942E+00
          5   -1    0    0  501    0  0.00000000000E+00  0.00000000000E+00  0.10508032482E+03  0.10518538237E+03  0.47000000000E+01 0. -1.
         -5   -1    0    0    0  501 -0.00000000000E+00 -0.00000000000E+00 -0.27713254767E+04  0.27713294621E+04  0.47000000000E+01 0.  1.
          6    1    1    2  502    0  0.32652682403E+03  0.14657387398E+02 -0.28427823539E+03  0.46608231133E+03  0.17200000000E+03 0. -1.
         -6    1    1    2    0  502 -0.32652682403E+03 -0.14657387398E+02 -0.23819669165E+04  0.24104325332E+04  0.17200000000E+03 0.  1.
</event>
<event>
 4    1 -0.7147820E-004  0.2499842E+03  0.7818608E-02  0.1113315E+00
          5   -1    0    0  501    0  0.00000000000E+00  0.00000000000E+00  0.11372331770E+04  0.11372428891E+04  0.47000000000E+01 0. -1.
         -5   -1    0    0    0  501 -0.00000000000E+00 -0.00000000000E+00 -0.34538072024E+03  0.34541269796E+03  0.47000000000E+01 0.  1.
          6    1    1    2  502    0 -0.58100291129E+01  0.18131281904E+03  0.10757322415E+04  0.11043966453E+04  0.17200000000E+03 0. -1.
         -6    1    1    2    0  502  0.58100291129E+01 -0.18131281904E+03 -0.28387978479E+03  0.37825894173E+03  0.17200000000E+03 0.  1.
</event>
<event>
 4    1 -0.7147820E-004  0.2412685E+03  0.7818608E-02  0.1118951E+00
          5   -1    0    0  501    0  0.00000000000E+00  0.00000000000E+00  0.17748452715E+04  0.17748514946E+04  0.47000000000E+01 0. -1.
         -5   -1    0    0    0  501 -0.00000000000E+00 -0.00000000000E+00 -0.12794747615E+03  0.12803377153E+03  0.47000000000E+01 0.  1.
          6    1    1    2  502    0  0.28324100338E+02  0.16680597953E+03  0.16439895185E+04  0.16615992376E+04  0.17200000000E+03 0. -1.
         -6    1    1    2    0  502 -0.28324100338E+02 -0.16680597953E+03  0.29082768307E+01  0.24128602848E+03  0.17200000000E+03 0.  1.
</event>
<event>
 4    1 -0.7147820E-004  0.1993761E+03  0.7818608E-02  0.1150266E+00
          5   -1    0    0  501    0  0.00000000000E+00  0.00000000000E+00  0.39389641584E+03  0.39392445521E+03  0.47000000000E+01 0. -1.
         -5   -1    0    0    0  501 -0.00000000000E+00 -0.00000000000E+00 -0.17654576893E+03  0.17660831953E+03  0.47000000000E+01 0.  1.
          6    1    1    2  502    0 -0.91482113849E+02 -0.42401074540E+02  0.29543072918E+03  0.35641288420E+03  0.17200000000E+03 0. -1.
         -6    1    1    2    0  502  0.91482113849E+02  0.42401074540E+02 -0.78080082272E+02  0.21411989054E+03  0.17200000000E+03 0.  1.
</event>
<event>
 4    1 -0.7147820E-004  0.1863809E+03  0.7818608E-02  0.1161767E+00
         -5   -1    0    0    0  501 -0.00000000000E+00  0.00000000000E+00  0.27721739843E+03  0.27725723794E+03  0.47000000000E+01 0.  1.
          5   -1    0    0  501    0  0.00000000000E+00 -0.00000000000E+00 -0.45515422245E+03  0.45517848830E+03  0.47000000000E+01 0. -1.
          6    1    1    2  502    0  0.49291709534E+02 -0.52193544429E+02 -0.40073579059E+03  0.44195815703E+03  0.17200000000E+03 0. -1.
         -6    1    1    2    0  502 -0.49291709534E+02  0.52193544429E+02  0.22279896657E+03  0.29047756921E+03  0.17200000000E+03 0.  1.
</event>
<event>
 4    1 -0.7147820E-004  0.4262863E+03  0.7818608E-02  0.1035040E+00
         -5   -1    0    0    0  501 -0.00000000000E+00  0.00000000000E+00  0.10557835662E+04  0.10557940275E+04  0.47000000000E+01 0.  1.
          5   -1    0    0  501    0  0.00000000000E+00 -0.00000000000E+00 -0.38342207275E+03  0.38345087804E+03  0.47000000000E+01 0. -1.
          6    1    1    2  502    0 -0.38667142529E+03  0.51197465742E+02 -0.19805362927E+03  0.47004809510E+03  0.17200000000E+03 0. -1.
         -6    1    1    2    0  502  0.38667142529E+03 -0.51197465742E+02  0.87041512268E+03  0.96919681047E+03  0.17200000000E+03 0.  1.
</event>
<event>
 4    1 -0.7147820E-004  0.1798808E+03  0.7818608E-02  0.1167918E+00
         -5   -1    0    0    0  501 -0.00000000000E+00  0.00000000000E+00  0.25571536736E+03  0.25575855627E+03  0.47000000000E+01 0.  1.
          5   -1    0    0  501    0  0.00000000000E+00 -0.00000000000E+00 -0.30083393462E+03  0.30087064699E+03  0.47000000000E+01 0. -1.
          6    1    1    2  502    0  0.52630558382E+02  0.17653355890E+01 -0.23442699423E+03  0.29548791466E+03  0.17200000000E+03 0. -1.
         -6    1    1    2    0  502 -0.52630558382E+02 -0.17653355890E+01  0.18930842697E+03  0.26114128859E+03  0.17200000000E+03 0.  1.
</event>
<event>
 4    1 -0.7147820E-004  0.1758247E+03  0.7818608E-02  0.1171906E+00
         -5   -1    0    0    0  501 -0.00000000000E+00  0.00000000000E+00  0.88105660987E+02  0.88230932773E+02  0.47000000000E+01 0.  1.
          5   -1    0    0  501    0  0.00000000000E+00 -0.00000000000E+00 -0.39173809295E+03  0.39176628680E+03  0.47000000000E+01 0. -1.
          6    1    1    2  502    0  0.22506258356E+02  0.28701576486E+02 -0.22968089010E+03  0.28925356253E+03  0.17200000000E+03 0. -1.
         -6    1    1    2    0  502 -0.22506258356E+02 -0.28701576486E+02 -0.73951541870E+02  0.19074365705E+03  0.17200000000E+03 0.  1.
</event>
<event>
 4    1 -0.7147820E-004  0.1960020E+03  0.7818608E-02  0.1153157E+00
          5   -1    0    0  501    0  0.00000000000E+00  0.00000000000E+00  0.23534890825E+03  0.23539583390E+03  0.47000000000E+01 0. -1.
         -5   -1    0    0    0  501 -0.00000000000E+00 -0.00000000000E+00 -0.16932638114E+03  0.16939159764E+03  0.47000000000E+01 0.  1.
          6    1    1    2  502    0  0.33327459596E+02  0.87875274097E+02  0.71695894538E+02  0.20870334126E+03  0.17200000000E+03 0. -1.
         -6    1    1    2    0  502 -0.33327459596E+02 -0.87875274097E+02 -0.56733674252E+01  0.19608409027E+03  0.17200000000E+03 0.  1.
</event>
<event>
 4    1 -0.7147820E-004  0.1953664E+03  0.7818608E-02  0.1153708E+00
          5   -1    0    0  501    0  0.00000000000E+00  0.00000000000E+00  0.63649107004E+03  0.63650842276E+03  0.47000000000E+01 0. -1.
         -5   -1    0    0    0  501 -0.00000000000E+00 -0.00000000000E+00 -0.50766090089E+03  0.50768265707E+03  0.47000000000E+01 0.  1.
          6    1    1    2  502    0  0.63840432046E+01 -0.92429902689E+02  0.60166285829E+03  0.63258694103E+03  0.17200000000E+03 0. -1.
         -6    1    1    2    0  502 -0.63840432046E+01  0.92429902689E+02 -0.47283268914E+03  0.51160413880E+03  0.17200000000E+03 0.  1.
</event>
<event>
 4    1 -0.7147820E-004  0.1808934E+03  0.7818608E-02  0.1166941E+00
          5   -1    0    0  501    0  0.00000000000E+00  0.00000000000E+00  0.13839593381E+03  0.13847571807E+03  0.47000000000E+01 0. -1.
         -5   -1    0    0    0  501 -0.00000000000E+00 -0.00000000000E+00 -0.56465496231E+03  0.56467452259E+03  0.47000000000E+01 0.  1.
          6    1    1    2  502    0 -0.25289128110E+02 -0.49988781089E+02  0.54957152860E+02  0.18905741690E+03  0.17200000000E+03 0. -1.
         -6    1    1    2    0  502  0.25289128110E+02  0.49988781089E+02 -0.48121618136E+03  0.51409282376E+03  0.17200000000E+03 0.  1.
</event>
<event>
 4    1 -0.7147820E-004  0.2088677E+03  0.7818608E-02  0.1142466E+00
          5   -1    0    0  501    0  0.00000000000E+00  0.00000000000E+00  0.28379256547E+03  0.28383148208E+03  0.47000000000E+01 0. -1.
         -5   -1    0    0    0  501 -0.00000000000E+00 -0.00000000000E+00 -0.47792677085E+03  0.47794988053E+03  0.47000000000E+01 0.  1.
          6    1    1    2  502    0 -0.49628231942E+02  0.10760466155E+03  0.21665561504E+03  0.30094082495E+03  0.17200000000E+03 0. -1.
         -6    1    1    2    0  502  0.49628231942E+02 -0.10760466155E+03 -0.41078982042E+03  0.46084053766E+03  0.17200000000E+03 0.  1.
</event>
<event>
 4    1 -0.7147820E-004  0.2871905E+03  0.7818608E-02  0.1091825E+00
         -5   -1    0    0    0  501 -0.00000000000E+00  0.00000000000E+00  0.39792349081E+03  0.39795124643E+03  0.47000000000E+01 0.  1.
          5   -1    0    0  501    0  0.00000000000E+00 -0.00000000000E+00 -0.20947626092E+03  0.20952898102E+03  0.47000000000E+01 0. -1.
          6    1    1    2  502    0  0.58114833147E+02  0.22252432814E+03  0.12580766337E+03  0.31353784239E+03  0.17200000000E+03 0.  1.
         -6    1    1    2    0  502 -0.58114833147E+02 -0.22252432814E+03  0.62639566522E+02  0.29394238507E+03  0.17200000000E+03 0.  1.
</event>
<event>
 4    1 -0.7147820E-004  0.1859707E+03  0.7818608E-02  0.1162147E+00
          5   -1    0    0  501    0  0.00000000000E+00  0.00000000000E+00  0.21765619389E+03  0.21770693314E+03  0.47000000000E+01 0. -1.
         -5   -1    0    0    0  501 -0.00000000000E+00 -0.00000000000E+00 -0.22938937666E+03  0.22943752118E+03  0.47000000000E+01 0.  1.
          6    1    1    2  502    0  0.70602888228E+02  0.40391961962E+01  0.11813190793E+03  0.22031847540E+03  0.17200000000E+03 0. -1.
         -6    1    1    2    0  502 -0.70602888228E+02 -0.40391961962E+01 -0.12986509069E+03  0.22682597892E+03  0.17200000000E+03 0.  1.
</event>
<event>
 4    1 -0.7147820E-004  0.1729672E+03  0.7818608E-02  0.1174788E+00
          5   -1    0    0  501    0  0.00000000000E+00  0.00000000000E+00  0.54915662904E+03  0.54917674133E+03  0.47000000000E+01 0. -1.
         -5   -1    0    0    0  501 -0.00000000000E+00 -0.00000000000E+00 -0.68866654880E+02  0.69026850967E+02  0.47000000000E+01 0.  1.
          6    1    1    2  502    0 -0.18252035403E+02 -0.71275957445E+00  0.38182044002E+03  0.41917119801E+03  0.17200000000E+03 0. -1.
         -6    1    1    2    0  502  0.18252035403E+02  0.71275957445E+00  0.98469534139E+02  0.19903239429E+03  0.17200000000E+03 0.  1.
</event>
<event>
 4    1 -0.7147820E-004  0.2085472E+03  0.7818608E-02  0.1142722E+00
          5   -1    0    0  501    0  0.00000000000E+00  0.00000000000E+00  0.74594664359E+02  0.74742584588E+02  0.47000000000E+01 0. -1.
         -5   -1    0    0    0  501 -0.00000000000E+00 -0.00000000000E+00 -0.61918142781E+03  0.61919926562E+03  0.47000000000E+01 0.  1.
          6    1    1    2  502    0 -0.71846296687E+02 -0.93520343475E+02 -0.18763337297E+03  0.28053204388E+03  0.17200000000E+03 0. -1.
         -6    1    1    2    0  502  0.71846296687E+02  0.93520343475E+02 -0.35695339048E+03  0.41340980633E+03  0.17200000000E+03 0. -1.
</event>
<event>
 4    1 -0.7147820E-004  0.2836009E+03  0.7818608E-02  0.1093738E+00
         -5   -1    0    0    0  501 -0.00000000000E+00  0.00000000000E+00  0.17730782791E+03  0.17737010976E+03  0.47000000000E+01 0.  1.
          5   -1    0    0  501    0  0.00000000000E+00 -0.00000000000E+00 -0.68854903622E+03  0.68856507701E+03  0.47000000000E+01 0. -1.
          6    1    1    2  502    0  0.21351708518E+03 -0.72497928204E+02 -0.50859542073E+03  0.58232190174E+03  0.17200000000E+03 0. -1.
         -6    1    1    2    0  502 -0.21351708518E+03  0.72497928204E+02 -0.26457875868E+01  0.28361328504E+03  0.17200000000E+03 0.  1.
</event>
<event>
 4    1 -0.7147820E-004  0.1802833E+03  0.7818608E-02  0.1167529E+00
         -5   -1    0    0    0  501 -0.00000000000E+00  0.00000000000E+00  0.24313047535E+03  0.24317589939E+03  0.47000000000E+01 0.  1.
          5   -1    0    0  501    0  0.00000000000E+00 -0.00000000000E+00 -0.42950265615E+03  0.42952837117E+03  0.47000000000E+01 0. -1.
          6    1    1    2  502    0  0.44925639185E+02  0.29995819351E+02 -0.37234295229E+03  0.41369232088E+03  0.17200000000E+03 0. -1.
         -6    1    1    2    0  502 -0.44925639185E+02 -0.29995819351E+02  0.18597077149E+03  0.25901194969E+03  0.17200000000E+03 0.  1.
</event>
<event>
 4    1 -0.7147820E-004  0.1968422E+03  0.7818608E-02  0.1152431E+00
          5   -1    0    0  501    0  0.00000000000E+00  0.00000000000E+00  0.90424243606E+03  0.90425465063E+03  0.47000000000E+01 0. -1.
         -5   -1    0    0    0  501 -0.00000000000E+00 -0.00000000000E+00 -0.88361849844E+02  0.88486758940E+02  0.47000000000E+01 0.  1.
          6    1    1    2  502    0 -0.52245801135E+02 -0.80207302157E+02  0.76431729595E+03  0.78925772973E+03  0.17200000000E+03 0. -1.
         -6    1    1    2    0  502  0.52245801135E+02  0.80207302157E+02  0.51563290273E+02  0.20348367984E+03  0.17200000000E+03 0.  1.
</event>
<event>
 4    1 -0.7147820E-004  0.2302493E+03  0.7818608E-02  0.1126464E+00
         -5   -1    0    0    0  501 -0.00000000000E+00  0.00000000000E+00  0.21164166617E+04  0.21164218804E+04  0.47000000000E+01 0.  1.
          5   -1    0    0  501    0  0.00000000000E+00 -0.00000000000E+00 -0.26630491873E+02  0.27042061634E+02  0.47000000000E+01 0. -1.
          6    1    1    2  502    0  0.13689403000E+03  0.68489320803E+02  0.76795740633E+03  0.80173146405E+03  0.17200000000E+03 0. -1.
         -6    1    1    2    0  502 -0.13689403000E+03 -0.68489320803E+02  0.13218287635E+04  0.13417324780E+04  0.17200000000E+03 0.  1.
</event>
<event>
 4    1 -0.7147820E-004  0.1749123E+03  0.7818608E-02  0.1172820E+00
          5   -1    0    0  501    0  0.00000000000E+00  0.00000000000E+00  0.12799231365E+03  0.12807857883E+03  0.47000000000E+01 0. -1.
         -5   -1    0    0    0  501 -0.00000000000E+00 -0.00000000000E+00 -0.46068559471E+03  0.46070956922E+03  0.47000000000E+01 0.  1.
          6    1    1    2  502    0  0.25050959513E+02  0.19564629510E+02  0.37917624268E+02  0.17897505840E+03  0.17200000000E+03 0. -1.
         -6    1    1    2    0  502 -0.25050959513E+02 -0.19564629510E+02 -0.37061090533E+03  0.40981308965E+03  0.17200000000E+03 0.  1.
</event>
<event>
 4    1 -0.7147820E-004  0.2015606E+03  0.7818608E-02  0.1148429E+00
         -5   -1    0    0    0  501 -0.00000000000E+00  0.00000000000E+00  0.36470581566E+03  0.36473609908E+03  0.47000000000E+01 0.  1.
          5   -1    0    0  501    0  0.00000000000E+00 -0.00000000000E+00 -0.17448449201E+03  0.17454778129E+03  0.47000000000E+01 0. -1.
          6    1    1    2  502    0  0.10108080123E+03 -0.28728868424E+02 -0.67084117704E+02  0.21243105966E+03  0.17200000000E+03 0. -1.
         -6    1    1    2    0  502 -0.10108080123E+03  0.28728868424E+02  0.25730544135E+03  0.32685282071E+03  0.17200000000E+03 0.  1.
</event>
<event>
 4    1 -0.7147820E-004  0.1836272E+03  0.7818608E-02  0.1164338E+00
         -5   -1    0    0    0  501 -0.00000000000E+00  0.00000000000E+00  0.33728424065E+03  0.33731698592E+03  0.47000000000E+01 0.  1.
          5   -1    0    0  501    0  0.00000000000E+00 -0.00000000000E+00 -0.10093347684E+03  0.10104284610E+03  0.47000000000E+01 0. -1.
          6    1    1    2  502    0 -0.45676731688E+02  0.45261489362E+02  0.95789465900E+02  0.20711008670E+03  0.17200000000E+03 0. -1.
         -6    1    1    2    0  502  0.45676731688E+02 -0.45261489362E+02  0.14056129790E+03  0.23124974531E+03  0.17200000000E+03 0.  1.
</event>
<event>
 4    1 -0.7147820E-004  0.1848600E+03  0.7818608E-02  0.1163181E+00
         -5   -1    0    0    0  501 -0.00000000000E+00  0.00000000000E+00  0.16387104907E+04  0.16387172307E+04  0.47000000000E+01 0.  1.
          5   -1    0    0  501    0  0.00000000000E+00 -0.00000000000E+00 -0.23813790396E+02  0.24273166522E+02  0.47000000000E+01 0. -1.
          6    1    1    2  502    0  0.31270872299E+02 -0.60094490966E+02  0.11105862208E+04  0.11258663194E+04  0.17200000000E+03 0. -1.
         -6    1    1    2    0  502 -0.31270872299E+02  0.60094490966E+02  0.50431047953E+03  0.53712407790E+03  0.17200000000E+03 0. -1.
</event>
<event>
 4    1 -0.7147820E-004  0.1909016E+03  0.7818608E-02  0.1157651E+00
         -5   -1    0    0    0  501 -0.00000000000E+00  0.00000000000E+00  0.60370181277E+02  0.60552859449E+02  0.47000000000E+01 0.  1.
          5   -1    0    0  501    0  0.00000000000E+00 -0.00000000000E+00 -0.95937812470E+03  0.95938963729E+03  0.47000000000E+01 0. -1.
          6    1    1    2  502    0 -0.60705082682E+02  0.56340995104E+02 -0.76048098926E+03  0.78407572964E+03  0.17200000000E+03 0. -1.
         -6    1    1    2    0  502  0.60705082682E+02 -0.56340995104E+02 -0.13852695416E+03  0.23586676710E+03  0.17200000000E+03 0.  1.
</event>
<event>
 4    1 -0.7147820E-004  0.1954042E+03  0.7818608E-02  0.1153675E+00
          5   -1    0    0  501    0  0.00000000000E+00  0.00000000000E+00  0.33655597986E+03  0.33658879598E+03  0.47000000000E+01 0. -1.
         -5   -1    0    0    0  501 -0.00000000000E+00 -0.00000000000E+00 -0.27678472063E+03  0.27682462241E+03  0.47000000000E+01 0.  1.
          6    1    1    2  502    0  0.70018903563E+02  0.60796107697E+02  0.26551284563E+03  0.32966632336E+03  0.17200000000E+03 0. -1.
         -6    1    1    2    0  502 -0.70018903563E+02 -0.60796107697E+02 -0.20574158639E+03  0.28374709503E+03  0.17200000000E+03 0.  1.
</event>
<event>
 4    1 -0.7147820E-004  0.2546242E+03  0.7818608E-02  0.1110417E+00
         -5   -1    0    0    0  501 -0.00000000000E+00  0.00000000000E+00  0.28315372971E+03  0.28319273410E+03  0.47000000000E+01 0.  1.
          5   -1    0    0  501    0  0.00000000000E+00 -0.00000000000E+00 -0.44185095884E+03  0.44187595525E+03  0.47000000000E+01 0. -1.
          6    1    1    2  502    0  0.13794163409E+03  0.12736407473E+03 -0.33101413054E+03  0.41761687773E+03  0.17200000000E+03 0. -1.
         -6    1    1    2    0  502 -0.13794163409E+03 -0.12736407473E+03  0.17231690141E+03  0.30745181161E+03  0.17200000000E+03 0.  1.
</event>
<event>
 4    1 -0.7147820E-004  0.1779837E+03  0.7818608E-02  0.1169769E+00
          5   -1    0    0  501    0  0.00000000000E+00  0.00000000000E+00  0.41614182917E+03  0.41616836976E+03  0.47000000000E+01 0. -1.
         -5   -1    0    0    0  501 -0.00000000000E+00 -0.00000000000E+00 -0.99613321678E+02  0.99724138782E+02  0.47000000000E+01 0.  1.
          6    1    1    2  502    0  0.42206225906E+02  0.17686564061E+02  0.28369680580E+03  0.33490604305E+03  0.17200000000E+03 0. -1.
         -6    1    1    2    0  502 -0.42206225906E+02 -0.17686564061E+02  0.32831701698E+02  0.18098646549E+03  0.17200000000E+03 0.  1.
</event>
<event>
 4    1 -0.7147820E-004  0.1844855E+03  0.7818608E-02  0.1163531E+00
         -5   -1    0    0    0  501 -0.00000000000E+00  0.00000000000E+00  0.63715871305E+03  0.63717604758E+03  0.47000000000E+01 0.  1.
          5   -1    0    0  501    0  0.00000000000E+00 -0.00000000000E+00 -0.55735561127E+02  0.55933377997E+02  0.47000000000E+01 0. -1.
          6    1    1    2  502    0 -0.58627240893E+02 -0.31839471412E+02  0.21833828141E+03  0.28584350691E+03  0.17200000000E+03 0. -1.
         -6    1    1    2    0  502  0.58627240893E+02  0.31839471412E+02  0.36308487051E+03  0.40726591866E+03  0.17200000000E+03 0.  1.
</event>
<event>
 4    1 -0.7147820E-004  0.1779356E+03  0.7818608E-02  0.1169816E+00
         -5   -1    0    0    0  501 -0.00000000000E+00  0.00000000000E+00  0.12681367509E+04  0.12681454605E+04  0.47000000000E+01 0.  1.
          5   -1    0    0  501    0  0.00000000000E+00 -0.00000000000E+00 -0.84110245695E+02  0.84241459098E+02  0.47000000000E+01 0. -1.
          6    1    1    2  502    0  0.31836741305E+02 -0.32611587569E+02  0.24884466214E+02  0.17966727693E+03  0.17200000000E+03 0. -1.
         -6    1    1    2    0  502 -0.31836741305E+02  0.32611587569E+02  0.11591420390E+04  0.11727196427E+04  0.17200000000E+03 0.  1.
</event>
<event>
 4    1 -0.7147820E-004  0.2756039E+03  0.7818608E-02  0.1098114E+00
          5   -1    0    0  501    0  0.00000000000E+00  0.00000000000E+00  0.45403534843E+03  0.45405967408E+03  0.47000000000E+01 0. -1.
         -5   -1    0    0    0  501 -0.00000000000E+00 -0.00000000000E+00 -0.21271953427E+03  0.21277145076E+03  0.47000000000E+01 0.  1.
          6    1    1    2  502    0  0.18638441700E+03 -0.10786279248E+03  0.27480701281E+03  0.38919972661E+03  0.17200000000E+03 0. -1.
         -6    1    1    2    0  502 -0.18638441700E+03  0.10786279248E+03 -0.33491198650E+02  0.27763139824E+03  0.17200000000E+03 0.  1.
</event>
<event>
 4    1 -0.7147820E-004  0.2481300E+03  0.7818608E-02  0.1114492E+00
         -5   -1    0    0    0  501 -0.00000000000E+00  0.00000000000E+00  0.39103945604E+03  0.39106770025E+03  0.47000000000E+01 0.  1.
          5   -1    0    0  501    0  0.00000000000E+00 -0.00000000000E+00 -0.49220880303E+03  0.49223124218E+03  0.47000000000E+01 0. -1.
          6    1    1    2  502    0  0.17540552546E+03  0.34891036734E+02 -0.41481997280E+03  0.48336745095E+03  0.17200000000E+03 0. -1.
         -6    1    1    2    0  502 -0.17540552546E+03 -0.34891036734E+02  0.31365062581E+03  0.39993149148E+03  0.17200000000E+03 0.  1.
</event>
<event>
 4    1 -0.7147820E-004  0.2811412E+03  0.7818608E-02  0.1095067E+00
          5   -1    0    0  501    0  0.00000000000E+00  0.00000000000E+00  0.32184092198E+03  0.32187523834E+03  0.47000000000E+01 0. -1.
         -5   -1    0    0    0  501 -0.00000000000E+00 -0.00000000000E+00 -0.76869494687E+03  0.76870931524E+03  0.47000000000E+01 0.  1.
          6    1    1    2  502    0 -0.22093555134E+03  0.25374581919E+02  0.22641328925E+03  0.36097557369E+03  0.17200000000E+03 0. -1.
         -6    1    1    2    0  502  0.22093555134E+03 -0.25374581919E+02 -0.67326731414E+03  0.72960897989E+03  0.17200000000E+03 0.  1.
</event>
<event>
 4    1 -0.7147820E-004  0.1858678E+03  0.7818608E-02  0.1162242E+00
         -5   -1    0    0    0  501 -0.00000000000E+00  0.00000000000E+00  0.55677299029E+03  0.55679282747E+03  0.47000000000E+01 0.  1.
          5   -1    0    0  501    0  0.00000000000E+00 -0.00000000000E+00 -0.73829206729E+02  0.73978657505E+02  0.47000000000E+01 0. -1.
          6    1    1    2  502    0 -0.38240818343E+02  0.59164871291E+02  0.11505799556E+03  0.21859822626E+03  0.17200000000E+03 0. -1.
         -6    1    1    2    0  502  0.38240818343E+02 -0.59164871291E+02  0.36788578800E+03  0.41217325871E+03  0.17200000000E+03 0.  1.
</event>
<event>
 4    1 -0.7147820E-004  0.1937210E+03  0.7818608E-02  0.1155147E+00
         -5   -1    0    0    0  501 -0.00000000000E+00  0.00000000000E+00  0.23413508288E+03  0.23418225175E+03  0.47000000000E+01 0.  1.
          5   -1    0    0  501    0  0.00000000000E+00 -0.00000000000E+00 -0.28877884385E+03  0.28881708858E+03  0.47000000000E+01 0. -1.
          6    1    1    2  502    0 -0.75174977308E+02  0.47880701417E+02 -0.20179264849E+03  0.27972863951E+03  0.17200000000E+03 0. -1.
         -6    1    1    2    0  502  0.75174977308E+02 -0.47880701417E+02  0.14714888751E+03  0.24327070082E+03  0.17200000000E+03 0.  1.
</event>
<event>
 4    1 -0.7147820E-004  0.2543999E+03  0.7818608E-02  0.1110555E+00
         -5   -1    0    0    0  501 -0.00000000000E+00  0.00000000000E+00  0.93923335337E+02  0.94040857721E+02  0.47000000000E+01 0.  1.
          5   -1    0    0  501    0  0.00000000000E+00 -0.00000000000E+00 -0.18674884899E+04  0.18674944042E+04  0.47000000000E+01 0. -1.
          6    1    1    2  502    0  0.63374168417E+02 -0.17640580361E+03 -0.16660300289E+04  0.16853413156E+04  0.17200000000E+03 0. -1.
         -6    1    1    2    0  502 -0.63374168417E+02  0.17640580361E+03 -0.10753512564E+03  0.27619394638E+03  0.17200000000E+03 0.  1.
</event>
<event>
 4    1 -0.7147820E-004  0.1843302E+03  0.7818608E-02  0.1163677E+00
          5   -1    0    0  501    0  0.00000000000E+00  0.00000000000E+00  0.45028440977E+02  0.45273065909E+02  0.47000000000E+01 0. -1.
         -5   -1    0    0    0  501 -0.00000000000E+00 -0.00000000000E+00 -0.10485831017E+04  0.10485936349E+04  0.47000000000E+01 0.  1.
          6    1    1    2  502    0 -0.36201331461E+02 -0.55525430337E+02 -0.21107790247E+03  0.28023470649E+03  0.17200000000E+03 0. -1.
         -6    1    1    2    0  502  0.36201331461E+02  0.55525430337E+02 -0.79247675827E+03  0.81363199434E+03  0.17200000000E+03 0.  1.
</event>
<event>
 4    1 -0.7147820E-004  0.2053206E+03  0.7818608E-02  0.1145326E+00
         -5   -1    0    0    0  501 -0.00000000000E+00  0.00000000000E+00  0.43028154729E+03  0.43030721577E+03  0.47000000000E+01 0.  1.
          5   -1    0    0  501    0  0.00000000000E+00 -0.00000000000E+00 -0.21373521769E+03  0.21378688753E+03  0.47000000000E+01 0. -1.
          6    1    1    2  502    0  0.91090344868E+02  0.65384084318E+02 -0.12876159191E+03  0.24235527013E+03  0.17200000000E+03 0. -1.
         -6    1    1    2    0  502 -0.91090344868E+02 -0.65384084318E+02  0.34530792152E+03  0.40173883316E+03  0.17200000000E+03 0.  1.
</event>
<event>
 4    1 -0.7147820E-004  0.2279716E+03  0.7818608E-02  0.1128076E+00
          5   -1    0    0  501    0  0.00000000000E+00  0.00000000000E+00  0.20170930930E+03  0.20176405888E+03  0.47000000000E+01 0. -1.
         -5   -1    0    0    0  501 -0.00000000000E+00 -0.00000000000E+00 -0.26944030291E+03  0.26948129218E+03  0.47000000000E+01 0.  1.
          6    1    1    2  502    0 -0.48847380348E+02 -0.14142484330E+03  0.15639524503E+02  0.22850743445E+03  0.17200000000E+03 0.  1.
         -6    1    1    2    0  502  0.48847380348E+02  0.14142484330E+03 -0.83370518116E+02  0.24273791661E+03  0.17200000000E+03 0. -1.
</event>
<event>
 4    1 -0.7147820E-004  0.1988593E+03  0.7818608E-02  0.1150705E+00
          5   -1    0    0  501    0  0.00000000000E+00  0.00000000000E+00  0.11910335491E+04  0.11910428226E+04  0.47000000000E+01 0. -1.
         -5   -1    0    0    0  501 -0.00000000000E+00 -0.00000000000E+00 -0.68945180389E+03  0.68946782368E+03  0.47000000000E+01 0.  1.
          6    1    1    2  502    0  0.92719763704E+02 -0.36933258402E+02  0.11681273558E+04  0.11849331372E+04  0.17200000000E+03 0. -1.
         -6    1    1    2    0  502 -0.92719763704E+02  0.36933258402E+02 -0.66654561056E+03  0.69557750907E+03  0.17200000000E+03 0.  1.
</event>
<event>
 4    1 -0.7147820E-004  0.2711483E+03  0.7818608E-02  0.1100624E+00
         -5   -1    0    0    0  501 -0.00000000000E+00  0.00000000000E+00  0.62914195594E+03  0.62915951135E+03  0.47000000000E+01 0.  1.
          5   -1    0    0  501    0  0.00000000000E+00 -0.00000000000E+00 -0.11714519332E+03  0.11723944011E+03  0.47000000000E+01 0. -1.
          6    1    1    2  502    0  0.13382225442E+03  0.16133507490E+03  0.23555522150E+03  0.35917636969E+03  0.17200000000E+03 0. -1.
         -6    1    1    2    0  502 -0.13382225442E+03 -0.16133507490E+03  0.27644154112E+03  0.38722258177E+03  0.17200000000E+03 0.  1.
</event>
<event>
 4    1 -0.7147820E-004  0.2053405E+03  0.7818608E-02  0.1145310E+00
          5   -1    0    0  501    0  0.00000000000E+00  0.00000000000E+00  0.49674821393E+02  0.49896672037E+02  0.47000000000E+01 0. -1.
         -5   -1    0    0    0  501 -0.00000000000E+00 -0.00000000000E+00 -0.18192728124E+04  0.18192788835E+04  0.47000000000E+01 0.  1.
          6    1    1    2  502    0 -0.73511831622E+02 -0.84715551507E+02 -0.20150793938E+03  0.28769804255E+03  0.17200000000E+03 0. -1.
         -6    1    1    2    0  502  0.73511831622E+02  0.84715551507E+02 -0.15680900516E+04  0.15814775130E+04  0.17200000000E+03 0.  1.
</event>
<event>
 4    1 -0.7147820E-004  0.2324771E+03  0.7818608E-02  0.1124908E+00
         -5   -1    0    0    0  501 -0.00000000000E+00  0.00000000000E+00  0.58611694296E+03  0.58613578702E+03  0.47000000000E+01 0.  1.
          5   -1    0    0  501    0  0.00000000000E+00 -0.00000000000E+00 -0.21991671476E+03  0.21996693259E+03  0.47000000000E+01 0. -1.
          6    1    1    2  502    0 -0.10971695081E+03  0.11146216371E+03 -0.12406551896E+03  0.26351067574E+03  0.17200000000E+03 0. -1.
         -6    1    1    2    0  502  0.10971695081E+03 -0.11146216371E+03  0.49026574715E+03  0.54259204386E+03  0.17200000000E+03 0.  1.
</event>
<event>
 4    1 -0.7147820E-004  0.2609995E+03  0.7818608E-02  0.1106544E+00
         -5   -1    0    0    0  501 -0.00000000000E+00  0.00000000000E+00  0.46444010397E+03  0.46446388468E+03  0.47000000000E+01 0.  1.
          5   -1    0    0  501    0  0.00000000000E+00 -0.00000000000E+00 -0.17460007518E+03  0.17466332258E+03  0.47000000000E+01 0. -1.
          6    1    1    2  502    0 -0.16467533608E+02 -0.19561582195E+03  0.16999554830E+02  0.26155250778E+03  0.17200000000E+03 0. -1.
         -6    1    1    2    0  502  0.16467533608E+02  0.19561582195E+03  0.27284047396E+03  0.37757469948E+03  0.17200000000E+03 0. -1.
</event>
<event>
 4    1 -0.7147820E-004  0.1726612E+03  0.7818608E-02  0.1175101E+00
         -5   -1    0    0    0  501 -0.00000000000E+00  0.00000000000E+00  0.78490046771E+02  0.78630639335E+02  0.47000000000E+01 0.  1.
          5   -1    0    0  501    0  0.00000000000E+00 -0.00000000000E+00 -0.93214567105E+03  0.93215751998E+03  0.47000000000E+01 0. -1.
          6    1    1    2  502    0 -0.10847268845E+02 -0.10499305755E+02 -0.81600182705E+03  0.83406887030E+03  0.17200000000E+03 0. -1.
         -6    1    1    2    0  502  0.10847268845E+02  0.10499305755E+02 -0.37653797228E+02  0.17671928901E+03  0.17200000000E+03 0.  1.
</event>
<event>
 4    1 -0.7147820E-004  0.2864977E+03  0.7818608E-02  0.1092192E+00
          5   -1    0    0  501    0  0.00000000000E+00  0.00000000000E+00  0.59505894639E+03  0.59507750728E+03  0.47000000000E+01 0. -1.
         -5   -1    0    0    0  501 -0.00000000000E+00 -0.00000000000E+00 -0.11412476290E+04  0.11412573070E+04  0.47000000000E+01 0.  1.
          6    1    1    2  502    0  0.11267619254E+02 -0.22884487550E+03  0.54092029165E+03  0.61210758712E+03  0.17200000000E+03 0. -1.
         -6    1    1    2    0  502 -0.11267619254E+02  0.22884487550E+03 -0.10871089743E+04  0.11242272271E+04  0.17200000000E+03 0.  1.
</event>
<event>
 4    1 -0.7147820E-004  0.3561298E+03  0.7818608E-02  0.1060127E+00
          5   -1    0    0  501    0  0.00000000000E+00  0.00000000000E+00  0.19107826658E+03  0.19113606138E+03  0.47000000000E+01 0. -1.
         -5   -1    0    0    0  501 -0.00000000000E+00 -0.00000000000E+00 -0.10032519479E+04  0.10032629571E+04  0.47000000000E+01 0.  1.
          6    1    1    2  502    0  0.24220673772E+02  0.31089831362E+03 -0.58610012549E+02  0.36092040122E+03  0.17200000000E+03 0. -1.
         -6    1    1    2    0  502 -0.24220673772E+02 -0.31089831362E+03 -0.75356366881E+03  0.83347861724E+03  0.17200000000E+03 0.  1.
</event>
<event>
 4    1 -0.7147820E-004  0.1739085E+03  0.7818608E-02  0.1173832E+00
         -5   -1    0    0    0  501 -0.00000000000E+00  0.00000000000E+00  0.85734290991E+03  0.85735579264E+03  0.47000000000E+01 0.  1.
          5   -1    0    0  501    0  0.00000000000E+00 -0.00000000000E+00 -0.86187807568E+02  0.86315862814E+02  0.47000000000E+01 0. -1.
          6    1    1    2  502    0 -0.24164856436E+02  0.87315999747E+01  0.22825612543E+02  0.17540008470E+03  0.17200000000E+03 0. -1.
         -6    1    1    2    0  502  0.24164856436E+02 -0.87315999747E+01  0.74832948980E+03  0.76827157076E+03  0.17200000000E+03 0.  1.
</event>
<event>
 4    1 -0.7147820E-004  0.1779815E+03  0.7818608E-02  0.1169771E+00
         -5   -1    0    0    0  501 -0.00000000000E+00  0.00000000000E+00  0.22806867087E+03  0.22811709413E+03  0.47000000000E+01 0.  1.
          5   -1    0    0  501    0  0.00000000000E+00 -0.00000000000E+00 -0.76680745129E+03  0.76682185503E+03  0.47000000000E+01 0. -1.
          6    1    1    2  502    0  0.10888868316E+02  0.44439081393E+02 -0.71954473485E+03  0.74123007552E+03  0.17200000000E+03 0. -1.
         -6    1    1    2    0  502 -0.10888868316E+02 -0.44439081393E+02  0.18080595443E+03  0.25370887364E+03  0.17200000000E+03 0.  1.
</event>
<event>
 4    1 -0.7147820E-004  0.2910386E+03  0.7818608E-02  0.1089808E+00
          5   -1    0    0  501    0  0.00000000000E+00  0.00000000000E+00  0.39793734219E+03  0.39796509685E+03  0.47000000000E+01 0. -1.
         -5   -1    0    0    0  501 -0.00000000000E+00 -0.00000000000E+00 -0.37910742012E+03  0.37913655323E+03  0.47000000000E+01 0.  1.
          6    1    1    2  502    0 -0.18726021461E+03  0.14160884118E+03  0.26674457416E+03  0.39478616961E+03  0.17200000000E+03 0. -1.
         -6    1    1    2    0  502  0.18726021461E+03 -0.14160884118E+03 -0.24791465209E+03  0.38231548046E+03  0.17200000000E+03 0.  1.
</event>
<event>
 4    1 -0.7147820E-004  0.2043252E+03  0.7818608E-02  0.1146140E+00
          5   -1    0    0  501    0  0.00000000000E+00  0.00000000000E+00  0.52558749493E+03  0.52560850909E+03  0.47000000000E+01 0. -1.
         -5   -1    0    0    0  501 -0.00000000000E+00 -0.00000000000E+00 -0.92253332368E+02  0.92372979453E+02  0.47000000000E+01 0.  1.
          6    1    1    2  502    0 -0.10975920140E+03  0.10849171118E+02  0.33217508874E+03  0.38998599512E+03  0.17200000000E+03 0. -1.
         -6    1    1    2    0  502  0.10975920140E+03 -0.10849171118E+02  0.10115907382E+03  0.22799549343E+03  0.17200000000E+03 0. -1.
</event>
<event>
 4    1 -0.7147820E-004  0.1887494E+03  0.7818608E-02  0.1159594E+00
         -5   -1    0    0    0  501 -0.00000000000E+00  0.00000000000E+00  0.94533357237E+02  0.94650122190E+02  0.47000000000E+01 0.  1.
          5   -1    0    0  501    0  0.00000000000E+00 -0.00000000000E+00 -0.74995838608E+03  0.74997311342E+03  0.47000000000E+01 0. -1.
          6    1    1    2  502    0  0.63512133266E+02  0.44816874759E+02 -0.62569766839E+03  0.65354717930E+03  0.17200000000E+03 0. -1.
         -6    1    1    2    0  502 -0.63512133266E+02 -0.44816874759E+02 -0.29727360446E+02  0.19107605631E+03  0.17200000000E+03 0.  1.
</event>
<event>
 4    1 -0.7147820E-004  0.2235883E+03  0.7818608E-02  0.1131236E+00
         -5   -1    0    0    0  501 -0.00000000000E+00  0.00000000000E+00  0.10383987118E+04  0.10384093483E+04  0.47000000000E+01 0.  1.
          5   -1    0    0  501    0  0.00000000000E+00 -0.00000000000E+00 -0.33033580638E+03  0.33036924036E+03  0.47000000000E+01 0. -1.
          6    1    1    2  502    0 -0.14282967763E+03 -0.27249463045E+01 -0.27852825410E+03  0.35716905028E+03  0.17200000000E+03 0. -1.
         -6    1    1    2    0  502  0.14282967763E+03  0.27249463045E+01  0.98659115953E+03  0.10116095384E+04  0.17200000000E+03 0.  1.
</event>
<event>
 4    1 -0.7147820E-004  0.1850505E+03  0.7818608E-02  0.1163003E+00
         -5   -1    0    0    0  501 -0.00000000000E+00  0.00000000000E+00  0.16451703109E+03  0.16458415330E+03  0.47000000000E+01 0.  1.
          5   -1    0    0  501    0  0.00000000000E+00 -0.00000000000E+00 -0.28479829185E+03  0.28483707104E+03  0.47000000000E+01 0. -1.
          6    1    1    2  502    0 -0.44446477145E+02 -0.51809409696E+02 -0.17679851855E+03  0.25593245286E+03  0.17200000000E+03 0. -1.
         -6    1    1    2    0  502  0.44446477145E+02  0.51809409696E+02  0.56517257793E+02  0.19348877149E+03  0.17200000000E+03 0.  1.
</event>
<event>
 4    1 -0.7147820E-004  0.1898269E+03  0.7818608E-02  0.1158618E+00
          5   -1    0    0  501    0  0.00000000000E+00  0.00000000000E+00  0.45618521023E+03  0.45620942124E+03  0.47000000000E+01 0. -1.
         -5   -1    0    0    0  501 -0.00000000000E+00 -0.00000000000E+00 -0.14886405874E+03  0.14893823547E+03  0.47000000000E+01 0.  1.
          6    1    1    2  502    0 -0.20449267801E+01 -0.80287472298E+02  0.36100895766E+03  0.40787464673E+03  0.17200000000E+03 0. -1.
         -6    1    1    2    0  502  0.20449267801E+01  0.80287472298E+02 -0.53687806183E+02  0.19727300998E+03  0.17200000000E+03 0.  1.
</event>
<event>
 4    1 -0.7147820E-004  0.1740286E+03  0.7818608E-02  0.1173711E+00
         -5   -1    0    0    0  501 -0.00000000000E+00  0.00000000000E+00  0.15994963778E+04  0.15995032831E+04  0.47000000000E+01 0.  1.
          5   -1    0    0  501    0  0.00000000000E+00 -0.00000000000E+00 -0.38461510936E+02  0.38747617004E+02  0.47000000000E+01 0. -1.
          6    1    1    2  502    0  0.86466504269E+01 -0.25043881358E+02  0.19576805755E+03  0.26193719269E+03  0.17200000000E+03 0. -1.
         -6    1    1    2    0  502 -0.86466504269E+01  0.25043881358E+02  0.13652668093E+04  0.13763137074E+04  0.17200000000E+03 0.  1.
</event>
<event>
 4    1 -0.7147820E-004  0.1843628E+03  0.7818608E-02  0.1163646E+00
          5   -1    0    0  501    0  0.00000000000E+00  0.00000000000E+00  0.47481035276E+03  0.47483361411E+03  0.47000000000E+01 0. -1.
         -5   -1    0    0    0  501 -0.00000000000E+00 -0.00000000000E+00 -0.11572628670E+03  0.11582168809E+03  0.47000000000E+01 0.  1.
          6    1    1    2  502    0  0.42224200282E+02 -0.51212879800E+02  0.36202879295E+03  0.40626898611E+03  0.17200000000E+03 0. -1.
         -6    1    1    2    0  502 -0.42224200282E+02  0.51212879800E+02 -0.29447268903E+01  0.18438631610E+03  0.17200000000E+03 0.  1.
</event>
<event>
 4    1 -0.7147820E-004  0.2503799E+03  0.7818608E-02  0.1113065E+00
         -5   -1    0    0    0  501 -0.00000000000E+00  0.00000000000E+00  0.25120659632E+03  0.25125056027E+03  0.47000000000E+01 0.  1.
          5   -1    0    0  501    0  0.00000000000E+00 -0.00000000000E+00 -0.71466508564E+03  0.71468054026E+03  0.47000000000E+01 0. -1.
          6    1    1    2  502    0  0.11853673426E+03  0.13804034379E+03 -0.62136691542E+03  0.66991561966E+03  0.17200000000E+03 0.  1.
         -6    1    1    2    0  502 -0.11853673426E+03 -0.13804034379E+03  0.15790842610E+03  0.29601548087E+03  0.17200000000E+03 0.  1.
</event>
<event>
 4    1 -0.7147820E-004  0.1771949E+03  0.7818608E-02  0.1170546E+00
          5   -1    0    0  501    0  0.00000000000E+00  0.00000000000E+00  0.70742656757E+03  0.70744218033E+03  0.47000000000E+01 0. -1.
         -5   -1    0    0    0  501 -0.00000000000E+00 -0.00000000000E+00 -0.46101040736E+02  0.46340003852E+02  0.47000000000E+01 0.  1.
          6    1    1    2  502    0  0.30218802839E+02 -0.30014255844E+02  0.40611697210E+03  0.44309031430E+03  0.17200000000E+03 0. -1.
         -6    1    1    2    0  502 -0.30218802839E+02  0.30014255844E+02  0.25520855474E+03  0.31069186988E+03  0.17200000000E+03 0. -1.
</event>
<event>
 4    1 -0.7147820E-004  0.2387333E+03  0.7818608E-02  0.1120640E+00
          5   -1    0    0  501    0  0.00000000000E+00  0.00000000000E+00  0.18249909089E+04  0.18249969609E+04  0.47000000000E+01 0. -1.
         -5   -1    0    0    0  501 -0.00000000000E+00 -0.00000000000E+00 -0.45020345075E+03  0.45022798343E+03  0.47000000000E+01 0.  1.
          6    1    1    2  502    0 -0.24633771525E+02  0.16371549672E+03  0.17848421604E+04  0.18007373835E+04  0.17200000000E+03 0. -1.
         -6    1    1    2    0  502  0.24633771525E+02 -0.16371549672E+03 -0.41005470231E+03  0.47448756090E+03  0.17200000000E+03 0.  1.
</event>
<event>
 4    1 -0.7147820E-004  0.1926113E+03  0.7818608E-02  0.1156127E+00
          5   -1    0    0  501    0  0.00000000000E+00  0.00000000000E+00  0.12670661197E+04  0.12670748366E+04  0.47000000000E+01 0. -1.
         -5   -1    0    0    0  501 -0.00000000000E+00 -0.00000000000E+00 -0.68049295788E+03  0.68050918857E+03  0.47000000000E+01 0.  1.
          6    1    1    2  502    0 -0.55474700422E+02 -0.66615794383E+02  0.12458992157E+04  0.12606997906E+04  0.17200000000E+03 0. -1.
         -6    1    1    2    0  502  0.55474700422E+02  0.66615794383E+02 -0.65932605386E+03  0.68688423460E+03  0.17200000000E+03 0.  1.
</event>
<event>
 4    1 -0.7147820E-004  0.1974233E+03  0.7818608E-02  0.1151931E+00
          5   -1    0    0  501    0  0.00000000000E+00  0.00000000000E+00  0.15215491861E+03  0.15222749179E+03  0.47000000000E+01 0. -1.
         -5   -1    0    0    0  501 -0.00000000000E+00 -0.00000000000E+00 -0.65059372728E+03  0.65061070386E+03  0.47000000000E+01 0.  1.
          6    1    1    2  502    0 -0.88840837973E+02  0.38720506722E+02  0.63375154666E+02  0.20734604496E+03  0.17200000000E+03 0. -1.
         -6    1    1    2    0  502  0.88840837973E+02 -0.38720506722E+02 -0.56181396334E+03  0.59549215069E+03  0.17200000000E+03 0.  1.
</event>
<event>
 4    1 -0.7147820E-004  0.2161784E+03  0.7818608E-02  0.1136765E+00
         -5   -1    0    0    0  501 -0.00000000000E+00  0.00000000000E+00  0.64021845429E+03  0.64023570598E+03  0.47000000000E+01 0.  1.
          5   -1    0    0  501    0  0.00000000000E+00 -0.00000000000E+00 -0.71485089790E+03  0.71486634851E+03  0.47000000000E+01 0. -1.
          6    1    1    2  502    0 -0.13087204271E+03  0.46501021908E+01 -0.67934433177E+03  0.71291081919E+03  0.17200000000E+03 0. -1.
         -6    1    1    2    0  502  0.13087204271E+03 -0.46501021908E+01  0.60471188816E+03  0.64219123530E+03  0.17200000000E+03 0.  1.
</event>
<event>
 4    1 -0.7147820E-004  0.1903762E+03  0.7818608E-02  0.1158123E+00
          5   -1    0    0  501    0  0.00000000000E+00  0.00000000000E+00  0.59019978478E+03  0.59021849848E+03  0.47000000000E+01 0. -1.
         -5   -1    0    0    0  501 -0.00000000000E+00 -0.00000000000E+00 -0.36357988255E+03  0.36361025975E+03  0.47000000000E+01 0.  1.
          6    1    1    2  502    0  0.15900746424E+02  0.80039020621E+02  0.54809261947E+03  0.58021426910E+03  0.17200000000E+03 0. -1.
         -6    1    1    2    0  502 -0.15900746424E+02 -0.80039020621E+02 -0.32147271724E+03  0.37361448913E+03  0.17200000000E+03 0.  1.
</event>
<event>
 4    1 -0.7147820E-004  0.1846128E+03  0.7818608E-02  0.1163412E+00
         -5   -1    0    0    0  501 -0.00000000000E+00  0.00000000000E+00  0.84027691011E+03  0.84029005448E+03  0.47000000000E+01 0.  1.
          5   -1    0    0  501    0  0.00000000000E+00 -0.00000000000E+00 -0.71903593677E+02  0.72057038404E+02  0.47000000000E+01 0. -1.
          6    1    1    2  502    0  0.48336717462E+02 -0.46491494473E+02  0.82761374923E+02  0.20231495865E+03  0.17200000000E+03 0. -1.
         -6    1    1    2    0  502 -0.48336717462E+02  0.46491494473E+02  0.68561194151E+03  0.71003213424E+03  0.17200000000E+03 0.  1.
</event>
<event>
 4    1 -0.7147820E-004  0.1753859E+03  0.7818608E-02  0.1172345E+00
         -5   -1    0    0    0  501 -0.00000000000E+00  0.00000000000E+00  0.23678409970E+03  0.23683074097E+03  0.47000000000E+01 0.  1.
          5   -1    0    0  501    0  0.00000000000E+00 -0.00000000000E+00 -0.37187970485E+03  0.37190940413E+03  0.47000000000E+01 0. -1.
          6    1    1    2  502    0  0.30231685901E+02  0.16194764764E+02 -0.31308283349E+03  0.35886081684E+03  0.17200000000E+03 0. -1.
         -6    1    1    2    0  502 -0.30231685901E+02 -0.16194764764E+02  0.17798722834E+03  0.24987932826E+03  0.17200000000E+03 0.  1.
</event>
<event>
 4    1 -0.7147820E-004  0.1892456E+03  0.7818608E-02  0.1159144E+00
          5   -1    0    0  501    0  0.00000000000E+00  0.00000000000E+00  0.17923560530E+03  0.17929721751E+03  0.47000000000E+01 0. -1.
         -5   -1    0    0    0  501 -0.00000000000E+00 -0.00000000000E+00 -0.35901867973E+03  0.35904944283E+03  0.47000000000E+01 0.  1.
          6    1    1    2  502    0 -0.56297838248E+02  0.55321337043E+02  0.89398348457E+02  0.20929873777E+03  0.17200000000E+03 0. -1.
         -6    1    1    2    0  502  0.56297838248E+02 -0.55321337043E+02 -0.26918142288E+03  0.32904792257E+03  0.17200000000E+03 0.  1.
</event>
<event>
 4    1 -0.7147820E-004  0.1745257E+03  0.7818608E-02  0.1173209E+00
          5   -1    0    0  501    0  0.00000000000E+00  0.00000000000E+00  0.28121205171E+04  0.28121244448E+04  0.47000000000E+01 0. -1.
         -5   -1    0    0    0  501 -0.00000000000E+00 -0.00000000000E+00 -0.22232158086E+02  0.22723530826E+02  0.47000000000E+01 0.  1.
          6    1    1    2  502    0 -0.50653156793E+01  0.29147129982E+02  0.24153066562E+04  0.24216039016E+04  0.17200000000E+03 0. -1.
         -6    1    1    2    0  502  0.50653156793E+01 -0.29147129982E+02  0.37458170281E+03  0.41324407399E+03  0.17200000000E+03 0.  1.
</event>
<event>
 4    1 -0.7147820E-004  0.1758398E+03  0.7818608E-02  0.1171891E+00
         -5   -1    0    0    0  501 -0.00000000000E+00  0.00000000000E+00  0.12540284915E+03  0.12549089439E+03  0.47000000000E+01 0.  1.
          5   -1    0    0  501    0  0.00000000000E+00 -0.00000000000E+00 -0.10144620446E+04  0.10144729321E+04  0.47000000000E+01 0. -1.
          6    1    1    2  502    0 -0.36058191318E+02 -0.59521654423E+01 -0.94046636681E+03  0.95676361163E+03  0.17200000000E+03 0. -1.
         -6    1    1    2    0  502  0.36058191318E+02  0.59521654423E+01  0.51407171395E+02  0.18320021481E+03  0.17200000000E+03 0.  1.
</event>
<event>
 4    1 -0.7147820E-004  0.2086453E+03  0.7818608E-02  0.1142643E+00
         -5   -1    0    0    0  501 -0.00000000000E+00  0.00000000000E+00  0.17855492975E+03  0.17861677676E+03  0.47000000000E+01 0.  1.
          5   -1    0    0  501    0  0.00000000000E+00 -0.00000000000E+00 -0.79805890446E+03  0.79807274417E+03  0.47000000000E+01 0. -1.
          6    1    1    2  502    0 -0.11785833114E+03  0.76325112890E+01 -0.71674564639E+03  0.74649659280E+03  0.17200000000E+03 0. -1.
         -6    1    1    2    0  502  0.11785833114E+03 -0.76325112890E+01  0.97241671683E+02  0.23019292812E+03  0.17200000000E+03 0.  1.
</event>
<event>
 4    1 -0.7147820E-004  0.1972396E+03  0.7818608E-02  0.1152089E+00
          5   -1    0    0  501    0  0.00000000000E+00  0.00000000000E+00  0.60439556194E+02  0.60622025312E+02  0.47000000000E+01 0. -1.
         -5   -1    0    0    0  501 -0.00000000000E+00 -0.00000000000E+00 -0.15605467389E+04  0.15605538165E+04  0.47000000000E+01 0.  1.
          6    1    1    2  502    0  0.28437996113E+02  0.92253618958E+02 -0.12837812380E+03  0.23533888864E+03  0.17200000000E+03 0. -1.
         -6    1    1    2    0  502 -0.28437996113E+02 -0.92253618958E+02 -0.13717290589E+04  0.13858369532E+04  0.17200000000E+03 0.  1.
</event>
<event>
 4    1 -0.7147820E-004  0.1831468E+03  0.7818608E-02  0.1164792E+00
         -5   -1    0    0    0  501 -0.00000000000E+00  0.00000000000E+00  0.32296920963E+03  0.32300340612E+03  0.47000000000E+01 0.  1.
          5   -1    0    0  501    0  0.00000000000E+00 -0.00000000000E+00 -0.19016764634E+03  0.19022571780E+03  0.47000000000E+01 0. -1.
          6    1    1    2  502    0 -0.62902139680E+02 -0.14345315959E+01 -0.10651907279E+03  0.21187036113E+03  0.17200000000E+03 0. -1.
         -6    1    1    2    0  502  0.62902139680E+02  0.14345315959E+01  0.23932063608E+03  0.30135876279E+03  0.17200000000E+03 0.  1.
</event>
<event>
 4    1 -0.7147820E-004  0.1781057E+03  0.7818608E-02  0.1169649E+00
          5   -1    0    0  501    0  0.00000000000E+00  0.00000000000E+00  0.38980126263E+02  0.39262453355E+02  0.47000000000E+01 0. -1.
         -5   -1    0    0    0  501 -0.00000000000E+00 -0.00000000000E+00 -0.13094774655E+04  0.13094859001E+04  0.47000000000E+01 0.  1.
          6    1    1    2  502    0  0.45371781049E+02 -0.88905118861E+01 -0.21903563117E+03  0.28230878031E+03  0.17200000000E+03 0. -1.
         -6    1    1    2    0  502 -0.45371781049E+02  0.88905118861E+01 -0.10514617080E+04  0.10664395732E+04  0.17200000000E+03 0.  1.
</event>
<event>
 4    1 -0.7147820E-004  0.1892391E+03  0.7818608E-02  0.1159149E+00
         -5   -1    0    0    0  501 -0.00000000000E+00  0.00000000000E+00  0.29855501186E+03  0.29859200443E+03  0.47000000000E+01 0.  1.
          5   -1    0    0  501    0  0.00000000000E+00 -0.00000000000E+00 -0.45604874685E+03  0.45607296511E+03  0.47000000000E+01 0. -1.
          6    1    1    2  502    0 -0.75265238649E+02 -0.23719158759E+02 -0.40268764914E+03  0.44493684654E+03  0.17200000000E+03 0. -1.
         -6    1    1    2    0  502  0.75265238649E+02  0.23719158759E+02  0.24519391415E+03  0.30972812300E+03  0.17200000000E+03 0.  1.
</event>
<event>
 4    1 -0.7147820E-004  0.1748571E+03  0.7818608E-02  0.1172875E+00
          5   -1    0    0  501    0  0.00000000000E+00  0.00000000000E+00  0.92113893457E+03  0.92115092508E+03  0.47000000000E+01 0. -1.
         -5   -1    0    0    0  501 -0.00000000000E+00 -0.00000000000E+00 -0.15675016793E+03  0.15682061454E+03  0.47000000000E+01 0.  1.
          6    1    1    2  502    0 -0.22157496577E+02 -0.22361985363E+02  0.86074279542E+03  0.87832407055E+03  0.17200000000E+03 0. -1.
         -6    1    1    2    0  502  0.22157496577E+02  0.22361985363E+02 -0.96354028783E+02  0.19964746907E+03  0.17200000000E+03 0.  1.
</event>
<event>
 4    1 -0.7147820E-004  0.2313699E+03  0.7818608E-02  0.1125679E+00
          5   -1    0    0  501    0  0.00000000000E+00  0.00000000000E+00  0.19198388848E+03  0.19204141073E+03  0.47000000000E+01 0. -1.
         -5   -1    0    0    0  501 -0.00000000000E+00 -0.00000000000E+00 -0.62169510472E+03  0.62171287041E+03  0.47000000000E+01 0.  1.
          6    1    1    2  502    0 -0.11811087664E+03  0.99989358381E+02  0.87332669077E+02  0.24730355043E+03  0.17200000000E+03 0. -1.
         -6    1    1    2    0  502  0.11811087664E+03 -0.99989358381E+02 -0.51704388532E+03  0.56645073070E+03  0.17200000000E+03 0.  1.
</event>
<event>
 4    1 -0.7147820E-004  0.1733763E+03  0.7818608E-02  0.1174372E+00
         -5   -1    0    0    0  501 -0.00000000000E+00  0.00000000000E+00  0.59955243713E+02  0.60139182308E+02  0.47000000000E+01 0.  1.
          5   -1    0    0  501    0  0.00000000000E+00 -0.00000000000E+00 -0.51715541410E+03  0.51717677087E+03  0.47000000000E+01 0. -1.
          6    1    1    2  502    0 -0.95014460261E-01 -0.21801812797E+02 -0.28054769337E+03  0.32979741710E+03  0.17200000000E+03 0. -1.
         -6    1    1    2    0  502  0.95014460261E-01  0.21801812797E+02 -0.17665247701E+03  0.24751853608E+03  0.17200000000E+03 0.  1.
</event>
<event>
 4    1 -0.7147820E-004  0.2241598E+03  0.7818608E-02  0.1130819E+00
         -5   -1    0    0    0  501 -0.00000000000E+00  0.00000000000E+00  0.94939892116E+03  0.94941055477E+03  0.47000000000E+01 0.  1.
          5   -1    0    0  501    0  0.00000000000E+00 -0.00000000000E+00 -0.19962539481E+03  0.19968071578E+03  0.47000000000E+01 0. -1.
          6    1    1    2  502    0  0.11629049724E+03  0.84499207192E+02 -0.11765963588E+03  0.25316276519E+03  0.17200000000E+03 0. -1.
         -6    1    1    2    0  502 -0.11629049724E+03 -0.84499207192E+02  0.86743316223E+03  0.89592850535E+03  0.17200000000E+03 0.  1.
</event>
<event>
 4    1 -0.7147820E-004  0.1846415E+03  0.7818608E-02  0.1163385E+00
         -5   -1    0    0    0  501 -0.00000000000E+00  0.00000000000E+00  0.20846352938E+03  0.20851650554E+03  0.47000000000E+01 0.  1.
          5   -1    0    0  501    0  0.00000000000E+00 -0.00000000000E+00 -0.43593456406E+03  0.43595989969E+03  0.47000000000E+01 0. -1.
          6    1    1    2  502    0 -0.57770632231E+02  0.34220343142E+02 -0.36847744619E+03  0.41215058678E+03  0.17200000000E+03 0. -1.
         -6    1    1    2    0  502  0.57770632231E+02 -0.34220343142E+02  0.14100641151E+03  0.23232581845E+03  0.17200000000E+03 0.  1.
</event>
<event>
 4    1 -0.7147820E-004  0.3608401E+03  0.7818608E-02  0.1058252E+00
         -5   -1    0    0    0  501 -0.00000000000E+00  0.00000000000E+00  0.28234184580E+04  0.28234223699E+04  0.47000000000E+01 0.  1.
          5   -1    0    0  501    0  0.00000000000E+00 -0.00000000000E+00 -0.52736398844E+03  0.52738493182E+03  0.47000000000E+01 0. -1.
          6    1    1    2  502    0  0.31718640142E+03 -0.37901070975E+01 -0.45244866203E+03  0.57871873127E+03  0.17200000000E+03 0. -1.
         -6    1    1    2    0  502 -0.31718640142E+03  0.37901070975E+01  0.27485031316E+04  0.27720885704E+04  0.17200000000E+03 0.  1.
</event>
<event>
 4    1 -0.7147820E-004  0.1735095E+03  0.7818608E-02  0.1174237E+00
          5   -1    0    0  501    0  0.00000000000E+00  0.00000000000E+00  0.67135321143E+02  0.67299638520E+02  0.47000000000E+01 0. -1.
         -5   -1    0    0    0  501 -0.00000000000E+00 -0.00000000000E+00 -0.45212707135E+03  0.45215149966E+03  0.47000000000E+01 0.  1.
          6    1    1    2  502    0 -0.73261923260E+01  0.21630478624E+02 -0.16681837611E+03  0.24069466406E+03  0.17200000000E+03 0. -1.
         -6    1    1    2    0  502  0.73261923260E+01 -0.21630478624E+02 -0.21817337409E+03  0.27875647412E+03  0.17200000000E+03 0.  1.
</event>
<event>
 4    1 -0.7147820E-004  0.2066208E+03  0.7818608E-02  0.1144270E+00
         -5   -1    0    0    0  501 -0.00000000000E+00  0.00000000000E+00  0.13838086897E+03  0.13846066191E+03  0.47000000000E+01 0.  1.
          5   -1    0    0  501    0  0.00000000000E+00 -0.00000000000E+00 -0.39509108097E+03  0.39511903556E+03  0.47000000000E+01 0. -1.
          6    1    1    2  502    0  0.25036478963E+02  0.11171985487E+03 -0.25336186800E+03  0.32693177791E+03  0.17200000000E+03 0. -1.
         -6    1    1    2    0  502 -0.25036478963E+02 -0.11171985487E+03 -0.33483439965E+01  0.20664791956E+03  0.17200000000E+03 0.  1.
</event>
<event>
 4    1 -0.7147820E-004  0.1813130E+03  0.7818608E-02  0.1166538E+00
          5   -1    0    0  501    0  0.00000000000E+00  0.00000000000E+00  0.20977055174E+03  0.20982319790E+03  0.47000000000E+01 0. -1.
         -5   -1    0    0    0  501 -0.00000000000E+00 -0.00000000000E+00 -0.37006888065E+03  0.37009872524E+03  0.47000000000E+01 0.  1.
          6    1    1    2  502    0  0.32449781568E+02 -0.47301212919E+02  0.14004036708E+03  0.22909757196E+03  0.17200000000E+03 0. -1.
         -6    1    1    2    0  502 -0.32449781568E+02  0.47301212919E+02 -0.30033869599E+03  0.35082435118E+03  0.17200000000E+03 0.  1.
</event>
<event>
 4    1 -0.7147820E-004  0.2102806E+03  0.7818608E-02  0.1141344E+00
          5   -1    0    0  501    0  0.00000000000E+00  0.00000000000E+00  0.44065673964E+03  0.44068180379E+03  0.47000000000E+01 0. -1.
         -5   -1    0    0    0  501 -0.00000000000E+00 -0.00000000000E+00 -0.90165476165E+03  0.90166701127E+03  0.47000000000E+01 0.  1.
          6    1    1    2  502    0 -0.11880471131E+03 -0.22789260046E+02  0.40222898329E+03  0.45387890984E+03  0.17200000000E+03 0. -1.
         -6    1    1    2    0  502  0.11880471131E+03  0.22789260046E+02 -0.86322700530E+03  0.88846990522E+03  0.17200000000E+03 0.  1.
</event>
<event>
 4    1 -0.7147820E-004  0.2111406E+03  0.7818608E-02  0.1140666E+00
          5   -1    0    0  501    0  0.00000000000E+00  0.00000000000E+00  0.11153986868E+04  0.11154085890E+04  0.47000000000E+01 0. -1.
         -5   -1    0    0    0  501 -0.00000000000E+00 -0.00000000000E+00 -0.61867939609E+02  0.62046208196E+02  0.47000000000E+01 0.  1.
          6    1    1    2  502    0 -0.56824678068E+02  0.10847726991E+03  0.87754643135E+03  0.90258966385E+03  0.17200000000E+03 0. -1.
         -6    1    1    2    0  502  0.56824678068E+02 -0.10847726991E+03  0.17598431583E+03  0.27486513337E+03  0.17200000000E+03 0.  1.
</event>
<event>
 4    1 -0.7147820E-004  0.1748186E+03  0.7818608E-02  0.1172914E+00
         -5   -1    0    0    0  501 -0.00000000000E+00  0.00000000000E+00  0.21168491525E+03  0.21173708543E+03  0.47000000000E+01 0.  1.
          5   -1    0    0  501    0  0.00000000000E+00 -0.00000000000E+00 -0.15582084872E+03  0.15589171529E+03  0.47000000000E+01 0. -1.
          6    1    1    2  502    0  0.17503954396E+02 -0.25906513445E+02 -0.22106106984E+02  0.17621071427E+03  0.17200000000E+03 0. -1.
         -6    1    1    2    0  502 -0.17503954396E+02  0.25906513445E+02  0.77970173522E+02  0.19141808644E+03  0.17200000000E+03 0.  1.
</event>
<event>
 4    1 -0.7147820E-004  0.1765150E+03  0.7818608E-02  0.1171219E+00
          5   -1    0    0  501    0  0.00000000000E+00  0.00000000000E+00  0.91283346743E+02  0.91404263536E+02  0.47000000000E+01 0. -1.
         -5   -1    0    0    0  501 -0.00000000000E+00 -0.00000000000E+00 -0.45422703992E+03  0.45425135530E+03  0.47000000000E+01 0.  1.
          6    1    1    2  502    0 -0.35680979277E+02  0.17332381057E+02 -0.45257315456E+02  0.18222449977E+03  0.17200000000E+03 0. -1.
         -6    1    1    2    0  502  0.35680979277E+02 -0.17332381057E+02 -0.31768637772E+03  0.36343111906E+03  0.17200000000E+03 0.  1.
</event>
<event>
 4    1 -0.7147820E-004  0.2168522E+03  0.7818608E-02  0.1136252E+00
          5   -1    0    0  501    0  0.00000000000E+00  0.00000000000E+00  0.10186103797E+04  0.10186212228E+04  0.47000000000E+01 0. -1.
         -5   -1    0    0    0  501 -0.00000000000E+00 -0.00000000000E+00 -0.99750871363E+02  0.99861535827E+02  0.47000000000E+01 0.  1.
          6    1    1    2  502    0  0.96599862511E+02 -0.90051925400E+02  0.86943382017E+03  0.89606922186E+03  0.17200000000E+03 0. -1.
         -6    1    1    2    0  502 -0.96599862511E+02  0.90051925400E+02  0.49425688160E+02  0.22241353681E+03  0.17200000000E+03 0.  1.
</event>
<event>
 4    1 -0.7147820E-004  0.2320226E+03  0.7818608E-02  0.1125224E+00
          5   -1    0    0  501    0  0.00000000000E+00  0.00000000000E+00  0.28793814863E+02  0.29174882594E+02  0.47000000000E+01 0. -1.
         -5   -1    0    0    0  501 -0.00000000000E+00 -0.00000000000E+00 -0.21964960801E+04  0.21965011086E+04  0.47000000000E+01 0.  1.
          6    1    1    2  502    0 -0.23061410616E+02  0.15400864621E+03 -0.64637073602E+03  0.68675295423E+03  0.17200000000E+03 0. -1.
         -6    1    1    2    0  502  0.23061410616E+02 -0.15400864621E+03 -0.15213315292E+04  0.15389230369E+04  0.17200000000E+03 0.  1.
</event>
<event>
 4    1 -0.7147820E-004  0.1805208E+03  0.7818608E-02  0.1167300E+00
         -5   -1    0    0    0  501 -0.00000000000E+00  0.00000000000E+00  0.11922559618E+04  0.11922652257E+04  0.47000000000E+01 0.  1.
          5   -1    0    0  501    0  0.00000000000E+00 -0.00000000000E+00 -0.12844306977E+03  0.12852903241E+03  0.47000000000E+01 0. -1.
          6    1    1    2  502    0  0.43367794763E+02  0.33511228374E+02 -0.54058225993E+02  0.18844113099E+03  0.17200000000E+03 0. -1.
         -6    1    1    2    0  502 -0.43367794763E+02 -0.33511228374E+02  0.11178711180E+04  0.11323531271E+04  0.17200000000E+03 0.  1.
</event>
<event>
 4    1 -0.7147820E-004  0.1755657E+03  0.7818608E-02  0.1172165E+00
         -5   -1    0    0    0  501 -0.00000000000E+00  0.00000000000E+00  0.20266188415E+04  0.20266242914E+04  0.47000000000E+01 0.  1.
          5   -1    0    0  501    0  0.00000000000E+00 -0.00000000000E+00 -0.44566678452E+02  0.44813824076E+02  0.47000000000E+01 0. -1.
          6    1    1    2  502    0 -0.35068271108E+02 -0.30877739403E+01  0.14978471466E+03  0.23077863578E+03  0.17200000000E+03 0. -1.
         -6    1    1    2    0  502  0.35068271108E+02  0.30877739403E+01  0.18322674484E+04  0.18406594797E+04  0.17200000000E+03 0.  1.
</event>
<event>
 4    1 -0.7147820E-004  0.1997594E+03  0.7818608E-02  0.1149942E+00
         -5   -1    0    0    0  501 -0.00000000000E+00  0.00000000000E+00  0.34558926302E+03  0.34562122145E+03  0.47000000000E+01 0.  1.
          5   -1    0    0  501    0  0.00000000000E+00 -0.00000000000E+00 -0.13751878096E+04  0.13751958412E+04  0.47000000000E+01 0. -1.
          6    1    1    2  502    0 -0.90464367810E+01  0.10118290347E+03 -0.13382971089E+04  0.13531234125E+04  0.17200000000E+03 0. -1.
         -6    1    1    2    0  502  0.90464367810E+01 -0.10118290347E+03  0.30869856229E+03  0.36769365011E+03  0.17200000000E+03 0.  1.
</event>
<event>
 4    1 -0.7147820E-004  0.1758934E+03  0.7818608E-02  0.1171838E+00
         -5   -1    0    0    0  501 -0.00000000000E+00  0.00000000000E+00  0.40354971769E+02  0.40627746017E+02  0.47000000000E+01 0.  1.
          5   -1    0    0  501    0  0.00000000000E+00 -0.00000000000E+00 -0.85293124798E+03  0.85294419734E+03  0.47000000000E+01 0. -1.
          6    1    1    2  502    0 -0.36012084054E+02  0.75901780527E+01 -0.55069707183E+03  0.57810530695E+03  0.17200000000E+03 0. -1.
         -6    1    1    2    0  502  0.36012084054E+02 -0.75901780527E+01 -0.26187920438E+03  0.31546663641E+03  0.17200000000E+03 0.  1.
</event>
<event>
 4    1 -0.7147820E-004  0.1799010E+03  0.7818608E-02  0.1167899E+00
          5   -1    0    0  501    0  0.00000000000E+00  0.00000000000E+00  0.33295674680E+03  0.33298991762E+03  0.47000000000E+01 0. -1.
         -5   -1    0    0    0  501 -0.00000000000E+00 -0.00000000000E+00 -0.27805488369E+03  0.27809460323E+03  0.47000000000E+01 0.  1.
          6    1    1    2  502    0  0.44625172894E+02  0.28088572360E+02  0.27388212608E+03  0.32768245748E+03  0.17200000000E+03 0. -1.
         -6    1    1    2    0  502 -0.44625172894E+02 -0.28088572360E+02 -0.21898026298E+03  0.28340206338E+03  0.17200000000E+03 0.  1.
</event>
<event>
 4    1 -0.7147820E-004  0.1747181E+03  0.7818608E-02  0.1173015E+00
          5   -1    0    0  501    0  0.00000000000E+00  0.00000000000E+00  0.63637679063E+03  0.63639414646E+03  0.47000000000E+01 0. -1.
         -5   -1    0    0    0  501 -0.00000000000E+00 -0.00000000000E+00 -0.59241527805E+02  0.59427675511E+02  0.47000000000E+01 0.  1.
          6    1    1    2  502    0 -0.78849244189E+01  0.29668742436E+02  0.44093400810E+03  0.47428810422E+03  0.17200000000E+03 0. -1.
         -6    1    1    2    0  502  0.78849244189E+01 -0.29668742436E+02  0.13620125473E+03  0.22153371775E+03  0.17200000000E+03 0.  1.
</event>
<event>
 4    1 -0.7147820E-004  0.1772930E+03  0.7818608E-02  0.1170449E+00
         -5   -1    0    0    0  501 -0.00000000000E+00  0.00000000000E+00  0.13433725159E+03  0.13441944490E+03  0.47000000000E+01 0.  1.
          5   -1    0    0  501    0  0.00000000000E+00 -0.00000000000E+00 -0.29326030711E+03  0.29329796748E+03  0.47000000000E+01 0. -1.
          6    1    1    2  502    0 -0.39242994412E+02 -0.17572161933E+02 -0.17573279409E+03  0.24962934204E+03  0.17200000000E+03 0. -1.
         -6    1    1    2    0  502  0.39242994412E+02  0.17572161933E+02  0.16809738578E+02  0.17808807034E+03  0.17200000000E+03 0.  1.
</event>
<event>
 4    1 -0.7147820E-004  0.2032406E+03  0.7818608E-02  0.1147033E+00
          5   -1    0    0  501    0  0.00000000000E+00  0.00000000000E+00  0.40900354550E+03  0.40903054926E+03  0.47000000000E+01 0. -1.
         -5   -1    0    0    0  501 -0.00000000000E+00 -0.00000000000E+00 -0.13254305280E+03  0.13262635803E+03  0.47000000000E+01 0.  1.
          6    1    1    2  502    0 -0.10298794911E+03  0.33409833301E+02  0.27047982640E+03  0.33832834808E+03  0.17200000000E+03 0. -1.
         -6    1    1    2    0  502  0.10298794911E+03 -0.33409833301E+02  0.59806662976E+01  0.20332855922E+03  0.17200000000E+03 0.  1.
</event>
<event>
 4    1 -0.7147820E-004  0.2226078E+03  0.7818608E-02  0.1131954E+00
          5   -1    0    0  501    0  0.00000000000E+00  0.00000000000E+00  0.18249871507E+03  0.18255922602E+03  0.47000000000E+01 0. -1.
         -5   -1    0    0    0  501 -0.00000000000E+00 -0.00000000000E+00 -0.31664371941E+03  0.31667859896E+03  0.47000000000E+01 0.  1.
          6    1    1    2  502    0 -0.10461727933E+03 -0.95002318380E+02  0.27262971183E+02  0.22427100845E+03  0.17200000000E+03 0. -1.
         -6    1    1    2    0  502  0.10461727933E+03  0.95002318380E+02 -0.16140797551E+03  0.27496681653E+03  0.17200000000E+03 0.  1.
</event>
<event>
 4    1 -0.7147820E-004  0.2146285E+03  0.7818608E-02  0.1137952E+00
         -5   -1    0    0    0  501 -0.00000000000E+00  0.00000000000E+00  0.35141464709E+03  0.35144607580E+03  0.47000000000E+01 0.  1.
          5   -1    0    0  501    0  0.00000000000E+00 -0.00000000000E+00 -0.13450800467E+03  0.13459009369E+03  0.47000000000E+01 0. -1.
          6    1    1    2  502    0 -0.12736359295E+03  0.16121890941E+02  0.14764803608E+03  0.26050977474E+03  0.17200000000E+03 0.  1.
         -6    1    1    2    0  502  0.12736359295E+03 -0.16121890941E+02  0.69258606349E+02  0.22552639475E+03  0.17200000000E+03 0. -1.
</event>
<event>
 4    1 -0.7147820E-004  0.2592307E+03  0.7818608E-02  0.1107606E+00
         -5   -1    0    0    0  501 -0.00000000000E+00  0.00000000000E+00  0.46546310087E+03  0.46548682932E+03  0.47000000000E+01 0.  1.
          5   -1    0    0  501    0  0.00000000000E+00 -0.00000000000E+00 -0.26380057347E+03  0.26384243889E+03  0.47000000000E+01 0. -1.
          6    1    1    2  502    0  0.12729537328E+03 -0.14632993005E+03 -0.14455949366E+03  0.29681308545E+03  0.17200000000E+03 0. -1.
         -6    1    1    2    0  502 -0.12729537328E+03  0.14632993005E+03  0.34622202106E+03  0.43251618276E+03  0.17200000000E+03 0.  1.
</event>
<event>
 4    1 -0.7147820E-004  0.1882724E+03  0.7818608E-02  0.1160029E+00
         -5   -1    0    0    0  501 -0.00000000000E+00  0.00000000000E+00  0.56510531314E+03  0.56512485783E+03  0.47000000000E+01 0.  1.
          5   -1    0    0  501    0  0.00000000000E+00 -0.00000000000E+00 -0.64884948120E+02  0.65054949793E+02  0.47000000000E+01 0. -1.
          6    1    1    2  502    0  0.45473172129E+02  0.61600952355E+02  0.19128555665E+03  0.26839644352E+03  0.17200000000E+03 0.  1.
         -6    1    1    2    0  502 -0.45473172129E+02 -0.61600952355E+02  0.30893480837E+03  0.36178336410E+03  0.17200000000E+03 0.  1.
</event>
<event>
 4    1 -0.7147820E-004  0.1804555E+03  0.7818608E-02  0.1167363E+00
         -5   -1    0    0    0  501 -0.00000000000E+00  0.00000000000E+00  0.22340234274E+03  0.22345177722E+03  0.47000000000E+01 0.  1.
          5   -1    0    0  501    0  0.00000000000E+00 -0.00000000000E+00 -0.16280115185E+04  0.16280183029E+04  0.47000000000E+01 0. -1.
          6    1    1    2  502    0  0.45691925210E+02  0.29873674896E+02 -0.15856311213E+04  0.15958666114E+04  0.17200000000E+03 0. -1.
         -6    1    1    2    0  502 -0.45691925210E+02 -0.29873674896E+02  0.18102194549E+03  0.25560346873E+03  0.17200000000E+03 0.  1.
</event>
<event>
 4    1 -0.7147820E-004  0.2202948E+03  0.7818608E-02  0.1133663E+00
         -5   -1    0    0    0  501 -0.00000000000E+00  0.00000000000E+00  0.24534603448E+03  0.24539104840E+03  0.47000000000E+01 0.  1.
          5   -1    0    0  501    0  0.00000000000E+00 -0.00000000000E+00 -0.86641643207E+03  0.86642917989E+03  0.47000000000E+01 0. -1.
          6    1    1    2  502    0  0.46237501171E+02 -0.12964517925E+03 -0.79889399994E+03  0.82871068664E+03  0.17200000000E+03 0. -1.
         -6    1    1    2    0  502 -0.46237501171E+02  0.12964517925E+03  0.17782360235E+03  0.28310954164E+03  0.17200000000E+03 0.  1.
</event>
<event>
 4    1 -0.7147820E-004  0.1835848E+03  0.7818608E-02  0.1164378E+00
         -5   -1    0    0    0  501 -0.00000000000E+00  0.00000000000E+00  0.83741293257E+02  0.83873083861E+02  0.47000000000E+01 0.  1.
          5   -1    0    0  501    0  0.00000000000E+00 -0.00000000000E+00 -0.47612052364E+03  0.47614372098E+03  0.47000000000E+01 0. -1.
          6    1    1    2  502    0  0.57155730810E+02  0.29199606901E+02 -0.30664463360E+03  0.35739939273E+03  0.17200000000E+03 0. -1.
         -6    1    1    2    0  502 -0.57155730810E+02 -0.29199606901E+02 -0.85734596788E+02  0.20261741212E+03  0.17200000000E+03 0.  1.
</event>
<event>
 4    1 -0.7147820E-004  0.1755821E+03  0.7818608E-02  0.1172149E+00
          5   -1    0    0  501    0  0.00000000000E+00  0.00000000000E+00  0.19589636249E+03  0.19595273624E+03  0.47000000000E+01 0. -1.
         -5   -1    0    0    0  501 -0.00000000000E+00 -0.00000000000E+00 -0.28488110264E+03  0.28491987057E+03  0.47000000000E+01 0.  1.
          6    1    1    2  502    0  0.31274718384E+02  0.16339077763E+02  0.11640335160E+03  0.21066279628E+03  0.17200000000E+03 0. -1.
         -6    1    1    2    0  502 -0.31274718384E+02 -0.16339077763E+02 -0.20538809175E+03  0.27020981052E+03  0.17200000000E+03 0.  1.
</event>
<event>
 4    1 -0.7147820E-004  0.2403532E+03  0.7818608E-02  0.1119558E+00
          5   -1    0    0  501    0  0.00000000000E+00  0.00000000000E+00  0.11882682328E+04  0.11882775278E+04  0.47000000000E+01 0. -1.
         -5   -1    0    0    0  501 -0.00000000000E+00 -0.00000000000E+00 -0.77188216407E+03  0.77189647312E+03  0.47000000000E+01 0.  1.
          6    1    1    2  502    0 -0.60730656140E+02  0.15651661469E+03  0.11569137037E+04  0.11816171043E+04  0.17200000000E+03 0. -1.
         -6    1    1    2    0  502  0.60730656140E+02 -0.15651661469E+03 -0.74052763494E+03  0.77855689669E+03  0.17200000000E+03 0.  1.
</event>
<event>
 4    1 -0.7147820E-004  0.1779709E+03  0.7818608E-02  0.1169781E+00
          5   -1    0    0  501    0  0.00000000000E+00  0.00000000000E+00  0.17896976218E+04  0.17897037932E+04  0.47000000000E+01 0. -1.
         -5   -1    0    0    0  501 -0.00000000000E+00 -0.00000000000E+00 -0.25116095009E+02  0.25552068967E+02  0.47000000000E+01 0.  1.
          6    1    1    2  502    0  0.27101261714E+02  0.36812450415E+02  0.13807399038E+04  0.13921624606E+04  0.17200000000E+03 0. -1.
         -6    1    1    2    0  502 -0.27101261714E+02 -0.36812450415E+02  0.38384162305E+03  0.42309340160E+03  0.17200000000E+03 0.  1.
</event>
<event>
 4    1 -0.7147820E-004  0.1768397E+03  0.7818608E-02  0.1170897E+00
         -5   -1    0    0    0  501 -0.00000000000E+00  0.00000000000E+00  0.99183267535E+03  0.99184381124E+03  0.47000000000E+01 0.  1.
          5   -1    0    0  501    0  0.00000000000E+00 -0.00000000000E+00 -0.11044823759E+03  0.11054819396E+03  0.47000000000E+01 0. -1.
          6    1    1    2  502    0 -0.26791402548E+02 -0.31152787000E+02 -0.25284685408E+02  0.17863815579E+03  0.17200000000E+03 0. -1.
         -6    1    1    2    0  502  0.26791402548E+02  0.31152787000E+02  0.90666912317E+03  0.92375384941E+03  0.17200000000E+03 0.  1.
</event>
<event>
 4    1 -0.7147820E-004  0.2077152E+03  0.7818608E-02  0.1143388E+00
          5   -1    0    0  501    0  0.00000000000E+00  0.00000000000E+00  0.37911298803E+03  0.37914212071E+03  0.47000000000E+01 0. -1.
         -5   -1    0    0    0  501 -0.00000000000E+00 -0.00000000000E+00 -0.27002567678E+03  0.27006657720E+03  0.47000000000E+01 0.  1.
          6    1    1    2  502    0 -0.48092783469E+02 -0.10605988620E+03  0.30146222435E+03  0.36609437034E+03  0.17200000000E+03 0. -1.
         -6    1    1    2    0  502  0.48092783469E+02  0.10605988620E+03 -0.19237491310E+03  0.28311432756E+03  0.17200000000E+03 0.  1.
</event>
<event>
 4    1 -0.7147820E-004  0.1756092E+03  0.7818608E-02  0.1172121E+00
          5   -1    0    0  501    0  0.00000000000E+00  0.00000000000E+00  0.66556927683E+02  0.66722669480E+02  0.47000000000E+01 0. -1.
         -5   -1    0    0    0  501 -0.00000000000E+00 -0.00000000000E+00 -0.10883762949E+04  0.10883864430E+04  0.47000000000E+01 0.  1.
          6    1    1    2  502    0 -0.35013048142E+02 -0.53539900108E+01 -0.73003671204E+02  0.19017916489E+03  0.17200000000E+03 0. -1.
         -6    1    1    2    0  502  0.35013048142E+02  0.53539900108E+01 -0.94881569601E+03  0.96492994758E+03  0.17200000000E+03 0.  1.
</event>
<event>
 4    1 -0.7147820E-004  0.1873625E+03  0.7818608E-02  0.1160862E+00
          5   -1    0    0  501    0  0.00000000000E+00  0.00000000000E+00  0.11503861154E+03  0.11513458275E+03  0.47000000000E+01 0. -1.
         -5   -1    0    0    0  501 -0.00000000000E+00 -0.00000000000E+00 -0.23387851990E+04  0.23387899215E+04  0.47000000000E+01 0.  1.
          6    1    1    2  502    0  0.30224066826E+02 -0.67876522949E+02  0.32287015694E+02  0.19012408571E+03  0.17200000000E+03 0. -1.
         -6    1    1    2    0  502 -0.30224066826E+02  0.67876522949E+02 -0.22560336031E+04  0.22638004186E+04  0.17200000000E+03 0.  1.
</event>
<event>
 4    1 -0.7147820E-004  0.1835735E+03  0.7818608E-02  0.1164389E+00
         -5   -1    0    0    0  501 -0.00000000000E+00  0.00000000000E+00  0.52158674302E+03  0.52160791836E+03  0.47000000000E+01 0.  1.
          5   -1    0    0  501    0  0.00000000000E+00 -0.00000000000E+00 -0.20294004629E+03  0.20299446394E+03  0.47000000000E+01 0. -1.
          6    1    1    2  502    0 -0.25132883239E+02  0.59021797027E+02 -0.13981482477E+03  0.23075402395E+03  0.17200000000E+03 0. -1.
         -6    1    1    2    0  502  0.25132883239E+02 -0.59021797027E+02  0.45846152150E+03  0.49384835834E+03  0.17200000000E+03 0.  1.
</event>
<event>
 4    1 -0.7147820E-004  0.1862548E+03  0.7818608E-02  0.1161883E+00
         -5   -1    0    0    0  501 -0.00000000000E+00  0.00000000000E+00  0.57953665673E+03  0.57955571474E+03  0.47000000000E+01 0.  1.
          5   -1    0    0  501    0  0.00000000000E+00 -0.00000000000E+00 -0.64653348869E+02  0.64823957917E+02  0.47000000000E+01 0. -1.
          6    1    1    2  502    0  0.46221512596E+02 -0.54501738495E+02  0.16882376320E+03  0.25138084801E+03  0.17200000000E+03 0. -1.
         -6    1    1    2    0  502 -0.46221512596E+02  0.54501738495E+02  0.34605954465E+03  0.39299882464E+03  0.17200000000E+03 0.  1.
</event>
<event>
 4    1 -0.7147820E-004  0.1873007E+03  0.7818608E-02  0.1160919E+00
         -5   -1    0    0    0  501 -0.00000000000E+00  0.00000000000E+00  0.48234585921E+02  0.48463030023E+02  0.47000000000E+01 0.  1.
          5   -1    0    0  501    0  0.00000000000E+00 -0.00000000000E+00 -0.86029505261E+03  0.86030789113E+03  0.47000000000E+01 0. -1.
          6    1    1    2  502    0 -0.11763674061E+02 -0.73206362075E+02 -0.58596160414E+03  0.61516872239E+03  0.17200000000E+03 0. -1.
         -6    1    1    2    0  502  0.11763674061E+02  0.73206362075E+02 -0.22609886254E+03  0.29360219876E+03  0.17200000000E+03 0.  1.
</event>
<event>
 4    1 -0.7147820E-004  0.2370796E+03  0.7818608E-02  0.1121754E+00
          5   -1    0    0  501    0  0.00000000000E+00  0.00000000000E+00  0.15711922181E+03  0.15718950302E+03  0.47000000000E+01 0. -1.
         -5   -1    0    0    0  501 -0.00000000000E+00 -0.00000000000E+00 -0.70416629785E+03  0.70418198289E+03  0.47000000000E+01 0.  1.
          6    1    1    2  502    0  0.39809650867E+02  0.15823374926E+03  0.28616096012E+02  0.23880035314E+03  0.17200000000E+03 0. -1.
         -6    1    1    2    0  502 -0.39809650867E+02 -0.15823374926E+03 -0.57566317206E+03  0.62257113278E+03  0.17200000000E+03 0.  1.
</event>
<event>
 4    1 -0.7147820E-004  0.1886036E+03  0.7818608E-02  0.1159727E+00
          5   -1    0    0  501    0  0.00000000000E+00  0.00000000000E+00  0.28204905549E+03  0.28208821263E+03  0.47000000000E+01 0. -1.
         -5   -1    0    0    0  501 -0.00000000000E+00 -0.00000000000E+00 -0.21637880815E+03  0.21642984687E+03  0.47000000000E+01 0.  1.
          6    1    1    2  502    0 -0.61192231591E+02 -0.47358604924E+02  0.19386482897E+03  0.27047162250E+03  0.17200000000E+03 0. -1.
         -6    1    1    2    0  502  0.61192231591E+02  0.47358604924E+02 -0.12819458163E+03  0.22804643700E+03  0.17200000000E+03 0.  1.
</event>
<event>
 4    1 -0.7147820E-004  0.1869369E+03  0.7818608E-02  0.1161253E+00
          5   -1    0    0  501    0  0.00000000000E+00  0.00000000000E+00  0.61093117891E+02  0.61273640774E+02  0.47000000000E+01 0. -1.
         -5   -1    0    0    0  501 -0.00000000000E+00 -0.00000000000E+00 -0.61790149873E+03  0.61791937349E+03  0.47000000000E+01 0.  1.
          6    1    1    2  502    0 -0.40575324503E+02 -0.60951236290E+02 -0.37198213536E+03  0.41631252586E+03  0.17200000000E+03 0. -1.
         -6    1    1    2    0  502  0.40575324503E+02  0.60951236290E+02 -0.18482624548E+03  0.26288048840E+03  0.17200000000E+03 0. -1.
</event>
<event>
 4    1 -0.7147820E-004  0.2521682E+03  0.7818608E-02  0.1111942E+00
          5   -1    0    0  501    0  0.00000000000E+00  0.00000000000E+00  0.89690286415E+02  0.89813347990E+02  0.47000000000E+01 0. -1.
         -5   -1    0    0    0  501 -0.00000000000E+00 -0.00000000000E+00 -0.11612835403E+04  0.11612930513E+04  0.47000000000E+01 0.  1.
          6    1    1    2  502    0 -0.26086284363E+02  0.18254947880E+03 -0.14515391699E+03  0.29096127931E+03  0.17200000000E+03 0. -1.
         -6    1    1    2    0  502  0.26086284363E+02 -0.18254947880E+03 -0.92643933688E+03  0.96014511994E+03  0.17200000000E+03 0.  1.
</event>
<event>
 4    1 -0.7147820E-004  0.1928300E+03  0.7818608E-02  0.1155933E+00
          5   -1    0    0  501    0  0.00000000000E+00  0.00000000000E+00  0.38611874206E+03  0.38614734619E+03  0.47000000000E+01 0. -1.
         -5   -1    0    0    0  501 -0.00000000000E+00 -0.00000000000E+00 -0.13588392348E+03  0.13596518180E+03  0.47000000000E+01 0.  1.
          6    1    1    2  502    0  0.46635976876E+02 -0.73651127175E+02  0.26610974626E+03  0.32863018718E+03  0.17200000000E+03 0. -1.
         -6    1    1    2    0  502 -0.46635976876E+02  0.73651127175E+02 -0.15874927682E+02  0.19348234080E+03  0.17200000000E+03 0.  1.
</event>
<event>
 4    1 -0.7147820E-004  0.1982835E+03  0.7818608E-02  0.1151195E+00
         -5   -1    0    0    0  501 -0.00000000000E+00  0.00000000000E+00  0.91825403953E+03  0.91826606771E+03  0.47000000000E+01 0.  1.
          5   -1    0    0  501    0  0.00000000000E+00 -0.00000000000E+00 -0.30642887224E+03  0.30646491437E+03  0.47000000000E+01 0. -1.
          6    1    1    2  502    0 -0.40152610109E+01  0.98570994356E+02 -0.26206671322E+03  0.32862642229E+03  0.17200000000E+03 0. -1.
         -6    1    1    2    0  502  0.40152610109E+01 -0.98570994356E+02  0.87389188051E+03  0.89610455979E+03  0.17200000000E+03 0.  1.
</event>
<event>
 4    1 -0.7147820E-004  0.1797248E+03  0.7818608E-02  0.1168070E+00
          5   -1    0    0  501    0  0.00000000000E+00  0.00000000000E+00  0.61078556221E+03  0.61080364521E+03  0.47000000000E+01 0. -1.
         -5   -1    0    0    0  501 -0.00000000000E+00 -0.00000000000E+00 -0.20483411677E+03  0.20488803135E+03  0.47000000000E+01 0.  1.
          6    1    1    2  502    0  0.30540504835E+02  0.42240894738E+02  0.55426314231E+03  0.58267370504E+03  0.17200000000E+03 0. -1.
         -6    1    1    2    0  502 -0.30540504835E+02 -0.42240894738E+02 -0.14831169687E+03  0.23301797152E+03  0.17200000000E+03 0.  1.
</event>
<event>
 4    1 -0.7147820E-004  0.2191732E+03  0.7818608E-02  0.1134501E+00
         -5   -1    0    0    0  501 -0.00000000000E+00  0.00000000000E+00  0.42656269496E+03  0.42658858720E+03  0.47000000000E+01 0.  1.
          5   -1    0    0  501    0  0.00000000000E+00 -0.00000000000E+00 -0.11765590230E+03  0.11774974032E+03  0.47000000000E+01 0. -1.
          6    1    1    2  502    0  0.13427560538E+03 -0.20565389919E+02  0.97704261718E+02  0.23996457284E+03  0.17200000000E+03 0. -1.
         -6    1    1    2    0  502 -0.13427560538E+03  0.20565389919E+02  0.21120253094E+03  0.30437375468E+03  0.17200000000E+03 0. -1.
</event>
<event>
 4    1 -0.7147820E-004  0.2676227E+03  0.7818608E-02  0.1102648E+00
         -5   -1    0    0    0  501 -0.00000000000E+00  0.00000000000E+00  0.55940947413E+03  0.55942921781E+03  0.47000000000E+01 0.  1.
          5   -1    0    0  501    0  0.00000000000E+00 -0.00000000000E+00 -0.28687171967E+03  0.28691021861E+03  0.47000000000E+01 0. -1.
          6    1    1    2  502    0 -0.13791770334E+02 -0.20456713396E+03 -0.17863506230E+03  0.32176452680E+03  0.17200000000E+03 0. -1.
         -6    1    1    2    0  502  0.13791770334E+02  0.20456713396E+03  0.45117281676E+03  0.52457490962E+03  0.17200000000E+03 0.  1.
</event>
<event>
 4    1 -0.7147820E-004  0.2160965E+03  0.7818608E-02  0.1136827E+00
         -5   -1    0    0    0  501 -0.00000000000E+00  0.00000000000E+00  0.27061745413E+03  0.27065826512E+03  0.47000000000E+01 0.  1.
          5   -1    0    0  501    0  0.00000000000E+00 -0.00000000000E+00 -0.29541256563E+03  0.29544995165E+03  0.47000000000E+01 0. -1.
          6    1    1    2  502    0  0.61672094897E+02  0.11537013294E+03 -0.19496852156E+03  0.29105057853E+03  0.17200000000E+03 0. -1.
         -6    1    1    2    0  502 -0.61672094897E+02 -0.11537013294E+03  0.17017341006E+03  0.27505763824E+03  0.17200000000E+03 0.  1.
</event>
<event>
 4    1 -0.7147820E-004  0.2049216E+03  0.7818608E-02  0.1145652E+00
         -5   -1    0    0    0  501 -0.00000000000E+00  0.00000000000E+00  0.72642389591E+03  0.72643910037E+03  0.47000000000E+01 0.  1.
          5   -1    0    0  501    0  0.00000000000E+00 -0.00000000000E+00 -0.60010676267E+02  0.60194445475E+02  0.47000000000E+01 0. -1.
          6    1    1    2  502    0  0.80870393191E+02  0.76608323559E+02  0.25609581761E+03  0.32799073696E+03  0.17200000000E+03 0. -1.
         -6    1    1    2    0  502 -0.80870393191E+02 -0.76608323559E+02  0.41031740203E+03  0.45864280889E+03  0.17200000000E+03 0.  1.
</event>
<event>
 4    1 -0.7147820E-004  0.1745741E+03  0.7818608E-02  0.1173160E+00
          5   -1    0    0  501    0  0.00000000000E+00  0.00000000000E+00  0.27485135161E+03  0.27489153403E+03  0.47000000000E+01 0. -1.
         -5   -1    0    0    0  501 -0.00000000000E+00 -0.00000000000E+00 -0.26669988659E+03  0.26674129697E+03  0.47000000000E+01 0.  1.
          6    1    1    2  502    0 -0.27329683892E+02  0.12050190626E+02  0.21109869716E+03  0.27393206942E+03  0.17200000000E+03 0. -1.
         -6    1    1    2    0  502  0.27329683892E+02 -0.12050190626E+02 -0.20294723214E+03  0.26770076158E+03  0.17200000000E+03 0.  1.
</event>
<event>
 4    1 -0.7147820E-004  0.1896354E+03  0.7818608E-02  0.1158791E+00
          5   -1    0    0  501    0  0.00000000000E+00  0.00000000000E+00  0.88983870322E+03  0.88985111550E+03  0.47000000000E+01 0. -1.
         -5   -1    0    0    0  501 -0.00000000000E+00 -0.00000000000E+00 -0.10256886687E+03  0.10267649415E+03  0.47000000000E+01 0.  1.
          6    1    1    2  502    0 -0.36815731925E+02  0.70867269812E+02  0.78003385851E+03  0.80275425161E+03  0.17200000000E+03 0. -1.
         -6    1    1    2    0  502  0.36815731925E+02 -0.70867269812E+02  0.72359778351E+01  0.18977335804E+03  0.17200000000E+03 0.  1.
</event>
<event>
 4    1 -0.7147820E-004  0.2743687E+03  0.7818608E-02  0.1098805E+00
          5   -1    0    0  501    0  0.00000000000E+00  0.00000000000E+00  0.15858674209E+03  0.15865637323E+03  0.47000000000E+01 0. -1.
         -5   -1    0    0    0  501 -0.00000000000E+00 -0.00000000000E+00 -0.48560278361E+03  0.48562552801E+03  0.47000000000E+01 0.  1.
          6    1    1    2  502    0  0.19409398772E+03 -0.89564036200E+02 -0.11479362968E+03  0.29741514767E+03  0.17200000000E+03 0. -1.
         -6    1    1    2    0  502 -0.19409398772E+03  0.89564036200E+02 -0.21222241184E+03  0.34686675357E+03  0.17200000000E+03 0.  1.
</event>
<event>
 4    1 -0.7147820E-004  0.2034697E+03  0.7818608E-02  0.1146844E+00
         -5   -1    0    0    0  501 -0.00000000000E+00  0.00000000000E+00  0.35002872545E+03  0.35006027858E+03  0.47000000000E+01 0.  1.
          5   -1    0    0  501    0  0.00000000000E+00 -0.00000000000E+00 -0.95140792539E+03  0.95141953443E+03  0.47000000000E+01 0. -1.
          6    1    1    2  502    0 -0.49010138397E+02 -0.97025402815E+02 -0.90964235860E+03  0.93212077705E+03  0.17200000000E+03 0. -1.
         -6    1    1    2    0  502  0.49010138397E+02  0.97025402815E+02  0.30826315866E+03  0.36935903596E+03  0.17200000000E+03 0.  1.
</event>
<event>
 4    1 -0.7147820E-004  0.1923640E+03  0.7818608E-02  0.1156346E+00
         -5   -1    0    0    0  501 -0.00000000000E+00  0.00000000000E+00  0.19272673104E+03  0.19278403165E+03  0.47000000000E+01 0.  1.
          5   -1    0    0  501    0  0.00000000000E+00 -0.00000000000E+00 -0.48280048425E+03  0.48282336066E+03  0.47000000000E+01 0. -1.
          6    1    1    2  502    0 -0.27829808632E+02 -0.81519416677E+02 -0.40722821963E+03  0.45037621652E+03  0.17200000000E+03 0. -1.
         -6    1    1    2    0  502  0.27829808632E+02  0.81519416677E+02  0.11715446642E+03  0.22523117579E+03  0.17200000000E+03 0.  1.
</event>
<event>
 4    1 -0.7147820E-004  0.2042802E+03  0.7818608E-02  0.1146177E+00
          5   -1    0    0  501    0  0.00000000000E+00  0.00000000000E+00  0.63613826611E+02  0.63787216087E+02  0.47000000000E+01 0. -1.
         -5   -1    0    0    0  501 -0.00000000000E+00 -0.00000000000E+00 -0.81403927684E+03  0.81405284486E+03  0.47000000000E+01 0.  1.
          6    1    1    2  502    0 -0.33959571478E+02  0.10484825414E+03 -0.18118129650E+03  0.27305140742E+03  0.17200000000E+03 0. -1.
         -6    1    1    2    0  502  0.33959571478E+02 -0.10484825414E+03 -0.56924415373E+03  0.60478865353E+03  0.17200000000E+03 0.  1.
</event>
<event>
 4    1 -0.7147820E-004  0.2402209E+03  0.7818608E-02  0.1119646E+00
          5   -1    0    0  501    0  0.00000000000E+00  0.00000000000E+00  0.68780924689E+03  0.68782530493E+03  0.47000000000E+01 0. -1.
         -5   -1    0    0    0  501 -0.00000000000E+00 -0.00000000000E+00 -0.34415670389E+03  0.34418879534E+03  0.47000000000E+01 0.  1.
          6    1    1    2  502    0 -0.76210354953E+02 -0.14937897454E+03  0.62055839564E+03  0.66543130271E+03  0.17200000000E+03 0. -1.
         -6    1    1    2    0  502  0.76210354953E+02  0.14937897454E+03 -0.27690585264E+03  0.36658279756E+03  0.17200000000E+03 0.  1.
</event>
<event>
 4    1 -0.7147820E-004  0.1735259E+03  0.7818608E-02  0.1174220E+00
         -5   -1    0    0    0  501 -0.00000000000E+00  0.00000000000E+00  0.37383770580E+03  0.37386724954E+03  0.47000000000E+01 0.  1.
          5   -1    0    0  501    0  0.00000000000E+00 -0.00000000000E+00 -0.12897233018E+03  0.12905794029E+03  0.47000000000E+01 0. -1.
          6    1    1    2  502    0 -0.71118765380E+01  0.21832145524E+02 -0.31730782716E+02  0.17640312905E+03  0.17200000000E+03 0. -1.
         -6    1    1    2    0  502  0.71118765380E+01 -0.21832145524E+02  0.27659615834E+03  0.32652206078E+03  0.17200000000E+03 0.  1.
</event>
<event>
 4    1 -0.7147820E-004  0.2083500E+03  0.7818608E-02  0.1142879E+00
          5   -1    0    0  501    0  0.00000000000E+00  0.00000000000E+00  0.17850635985E+03  0.17856822367E+03  0.47000000000E+01 0. -1.
         -5   -1    0    0    0  501 -0.00000000000E+00 -0.00000000000E+00 -0.28767397748E+03  0.28771236907E+03  0.47000000000E+01 0.  1.
          6    1    1    2  502    0 -0.65860569995E+02 -0.97406892799E+02  0.37216078709E+02  0.21164771192E+03  0.17200000000E+03 0. -1.
         -6    1    1    2    0  502  0.65860569995E+02  0.97406892799E+02 -0.14638369634E+03  0.25463288083E+03  0.17200000000E+03 0.  1.
</event>
<event>
 4    1 -0.7147820E-004  0.3103308E+03  0.7818608E-02  0.1080187E+00
          5   -1    0    0  501    0  0.00000000000E+00  0.00000000000E+00  0.80279654855E+03  0.80281030659E+03  0.47000000000E+01 0. -1.
         -5   -1    0    0    0  501 -0.00000000000E+00 -0.00000000000E+00 -0.23895601456E+03  0.23900223198E+03  0.47000000000E+01 0.  1.
          6    1    1    2  502    0  0.25544082549E+03  0.38356188465E+02  0.64953973278E+03  0.71986601321E+03  0.17200000000E+03 0. -1.
         -6    1    1    2    0  502 -0.25544082549E+03 -0.38356188465E+02 -0.85699198782E+02  0.32194652536E+03  0.17200000000E+03 0.  1.
</event>
<event>
 4    1 -0.7147820E-004  0.1991483E+03  0.7818608E-02  0.1150460E+00
         -5   -1    0    0    0  501 -0.00000000000E+00  0.00000000000E+00  0.28249885638E+03  0.28253795117E+03  0.47000000000E+01 0.  1.
          5   -1    0    0  501    0  0.00000000000E+00 -0.00000000000E+00 -0.74508926283E+03  0.74510408641E+03  0.47000000000E+01 0. -1.
          6    1    1    2  502    0 -0.68900883774E+02 -0.72998119197E+02 -0.69419182684E+03  0.72219273718E+03  0.17200000000E+03 0. -1.
         -6    1    1    2    0  502  0.68900883774E+02  0.72998119197E+02  0.23160142038E+03  0.30544930040E+03  0.17200000000E+03 0.  1.
</event>
<event>
 4    1 -0.7147820E-004  0.2202386E+03  0.7818608E-02  0.1133705E+00
         -5   -1    0    0    0  501 -0.00000000000E+00  0.00000000000E+00  0.14376366449E+03  0.14384047145E+03  0.47000000000E+01 0.  1.
          5   -1    0    0  501    0  0.00000000000E+00 -0.00000000000E+00 -0.95239061103E+03  0.95240220809E+03  0.47000000000E+01 0. -1.
          6    1    1    2  502    0 -0.55259152892E+02  0.12596620888E+03 -0.84481509005E+03  0.87305074087E+03  0.17200000000E+03 0. -1.
         -6    1    1    2    0  502  0.55259152892E+02 -0.12596620888E+03  0.36188143515E+02  0.22319193867E+03  0.17200000000E+03 0.  1.
</event>
<event>
 4    1 -0.7147820E-004  0.1755445E+03  0.7818608E-02  0.1172186E+00
          5   -1    0    0  501    0  0.00000000000E+00  0.00000000000E+00  0.26132053952E+03  0.26136280220E+03  0.47000000000E+01 0. -1.
         -5   -1    0    0    0  501 -0.00000000000E+00 -0.00000000000E+00 -0.21306673916E+03  0.21311857107E+03  0.47000000000E+01 0.  1.
          6    1    1    2  502    0 -0.32946137882E+01  0.34942859370E+02  0.18269941470E+03  0.25336719210E+03  0.17200000000E+03 0. -1.
         -6    1    1    2    0  502  0.32946137882E+01 -0.34942859370E+02 -0.13444561434E+03  0.22111418117E+03  0.17200000000E+03 0.  1.
</event>
<event>
 4    1 -0.7147820E-004  0.2003208E+03  0.7818608E-02  0.1149469E+00
          5   -1    0    0  501    0  0.00000000000E+00  0.00000000000E+00  0.13948221258E+04  0.13948300443E+04  0.47000000000E+01 0. -1.
         -5   -1    0    0    0  501 -0.00000000000E+00 -0.00000000000E+00 -0.44278009551E+02  0.44526757458E+02  0.47000000000E+01 0.  1.
          6    1    1    2  502    0 -0.33339773845E+02  0.97123068234E+02  0.11023688399E+04  0.11204220142E+04  0.17200000000E+03 0. -1.
         -6    1    1    2    0  502  0.33339773845E+02 -0.97123068234E+02  0.24817527635E+03  0.31893478752E+03  0.17200000000E+03 0.  1.
</event>
<event>
 4    1 -0.7147820E-004  0.1805388E+03  0.7818608E-02  0.1167283E+00
         -5   -1    0    0    0  501 -0.00000000000E+00  0.00000000000E+00  0.19366758441E+03  0.19372460673E+03  0.47000000000E+01 0.  1.
          5   -1    0    0  501    0  0.00000000000E+00 -0.00000000000E+00 -0.26249279758E+03  0.26253487155E+03  0.47000000000E+01 0. -1.
          6    1    1    2  502    0 -0.46096705738E+02 -0.29754603455E+02 -0.17112395607E+03  0.24875218803E+03  0.17200000000E+03 0. -1.
         -6    1    1    2    0  502  0.46096705738E+02  0.29754603455E+02  0.10229874291E+03  0.20750729025E+03  0.17200000000E+03 0.  1.
</event>
<event>
 4    1 -0.7147820E-004  0.1995421E+03  0.7818608E-02  0.1150126E+00
          5   -1    0    0  501    0  0.00000000000E+00  0.00000000000E+00  0.69813688462E+03  0.69815270512E+03  0.47000000000E+01 0. -1.
         -5   -1    0    0    0  501 -0.00000000000E+00 -0.00000000000E+00 -0.22640882974E+03  0.22645760792E+03  0.47000000000E+01 0.  1.
          6    1    1    2  502    0 -0.31150220161E+02  0.96243002284E+02  0.63573621622E+03  0.66631643257E+03  0.17200000000E+03 0. -1.
         -6    1    1    2    0  502  0.31150220161E+02 -0.96243002284E+02 -0.16400816133E+03  0.25829388047E+03  0.17200000000E+03 0.  1.
</event>
<event>
 4    1 -0.7147820E-004  0.1749753E+03  0.7818608E-02  0.1172757E+00
          5   -1    0    0  501    0  0.00000000000E+00  0.00000000000E+00  0.58328166730E+02  0.58517219979E+02  0.47000000000E+01 0. -1.
         -5   -1    0    0    0  501 -0.00000000000E+00 -0.00000000000E+00 -0.16156839832E+04  0.16156908193E+04  0.47000000000E+01 0.  1.
          6    1    1    2  502    0 -0.99534781643E+01  0.30549676437E+02 -0.90576644908E+02  0.19702914267E+03  0.17200000000E+03 0. -1.
         -6    1    1    2    0  502  0.99534781643E+01 -0.30549676437E+02 -0.14667791715E+04  0.14771788966E+04  0.17200000000E+03 0.  1.
</event>
<event>
 4    1 -0.7147820E-004  0.2721488E+03  0.7818608E-02  0.1100056E+00
         -5   -1    0    0    0  501 -0.00000000000E+00  0.00000000000E+00  0.76708851586E+03  0.76710291432E+03  0.47000000000E+01 0.  1.
          5   -1    0    0  501    0  0.00000000000E+00 -0.00000000000E+00 -0.21728691454E+03  0.21733774001E+03  0.47000000000E+01 0. -1.
          6    1    1    2  502    0 -0.55593316430E+02  0.20344619616E+03 -0.92035091967E+02  0.28728980093E+03  0.17200000000E+03 0. -1.
         -6    1    1    2    0  502  0.55593316430E+02 -0.20344619616E+03  0.64183669328E+03  0.69715085340E+03  0.17200000000E+03 0.  1.
</event>
<event>
 4    1 -0.7147820E-004  0.2315671E+03  0.7818608E-02  0.1125542E+00
          5   -1    0    0  501    0  0.00000000000E+00  0.00000000000E+00  0.12869460231E+04  0.12869546054E+04  0.47000000000E+01 0. -1.
         -5   -1    0    0    0  501 -0.00000000000E+00 -0.00000000000E+00 -0.13415891333E+04  0.13415973661E+04  0.47000000000E+01 0.  1.
          6    1    1    2  502    0  0.14694465637E+03 -0.49463057496E+02  0.12663843068E+04  0.12873820484E+04  0.17200000000E+03 0. -1.
         -6    1    1    2    0  502 -0.14694465637E+03  0.49463057496E+02 -0.13210274170E+04  0.13411699231E+04  0.17200000000E+03 0.  1.
</event>
<event>
 4    1 -0.7147820E-004  0.2194763E+03  0.7818608E-02  0.1134274E+00
         -5   -1    0    0    0  501 -0.00000000000E+00  0.00000000000E+00  0.92176699893E+03  0.92177898127E+03  0.47000000000E+01 0.  1.
          5   -1    0    0  501    0  0.00000000000E+00 -0.00000000000E+00 -0.19046371809E+03  0.19052169932E+03  0.47000000000E+01 0. -1.
          6    1    1    2  502    0  0.11508869736E+03  0.73078342784E+02 -0.10811776977E+03  0.24466161240E+03  0.17200000000E+03 0. -1.
         -6    1    1    2    0  502 -0.11508869736E+03 -0.73078342784E+02  0.83942105060E+03  0.86763906819E+03  0.17200000000E+03 0.  1.
</event>
<event>
 4    1 -0.7147820E-004  0.2679230E+03  0.7818608E-02  0.1102474E+00
          5   -1    0    0  501    0  0.00000000000E+00  0.00000000000E+00  0.11920561054E+04  0.11920653708E+04  0.47000000000E+01 0. -1.
         -5   -1    0    0    0  501 -0.00000000000E+00 -0.00000000000E+00 -0.16508233439E+03  0.16514922685E+03  0.47000000000E+01 0.  1.
          6    1    1    2  502    0 -0.69272182993E+02 -0.19339103565E+03  0.10543853442E+04  0.10878930012E+04  0.17200000000E+03 0. -1.
         -6    1    1    2    0  502  0.69272182993E+02  0.19339103565E+03 -0.27411573183E+02  0.26932159652E+03  0.17200000000E+03 0.  1.
</event>
