<event>
 4    1  0.3169553E-002  0.2966622E+03  0.7818608E-02  0.1086921E+00
         -3   -1    0    0    0  501 -0.00000000000E+00  0.00000000000E+00  0.49928974010E+03  0.49928974010E+03  0.00000000000E+00 0.  1.
          3   -1    0    0  502    0  0.00000000000E+00 -0.00000000000E+00 -0.17638279566E+03  0.17638279566E+03  0.00000000000E+00 0. -1.
          6    1    1    2  502    0  0.15217460656E+03 -0.18779605019E+03  0.15280952209E+03  0.33370528523E+03  0.17200000000E+03 0. -1.
         -6    1    1    2    0  501 -0.15217460656E+03  0.18779605019E+03  0.17009742236E+03  0.34196725053E+03  0.17200000000E+03 0.  1.
</event>
<event>
 4    1  0.3169553E-002  0.2222657E+03  0.7818608E-02  0.1132205E+00
          2   -1    0    0  502    0  0.00000000000E+00  0.00000000000E+00  0.85096849395E+03  0.85096849395E+03  0.00000000000E+00 0. -1.
         -2   -1    0    0    0  501 -0.00000000000E+00 -0.00000000000E+00 -0.11781188293E+03  0.11781188293E+03  0.00000000000E+00 0.  1.
          6    1    1    2  502    0  0.12992422834E+03  0.54200850474E+02  0.71156215581E+03  0.74546813405E+03  0.17200000000E+03 0. -1.
         -6    1    1    2    0  501 -0.12992422834E+03 -0.54200850474E+02  0.21594455217E+02  0.22331224283E+03  0.17200000000E+03 0.  1.
</event>
<event>
 4    1  0.3169553E-002  0.1723665E+03  0.7818608E-02  0.1175402E+00
         -4   -1    0    0    0  501 -0.00000000000E+00  0.00000000000E+00  0.35195487427E+03  0.35195487427E+03  0.00000000000E+00 0.  1.
          4   -1    0    0  502    0  0.00000000000E+00 -0.00000000000E+00 -0.11505979596E+03  0.11505979596E+03  0.00000000000E+00 0. -1.
          6    1    1    2  502    0 -0.17791663260E+00 -0.11232428977E+02 -0.20611982464E+01  0.17237879119E+03  0.17200000000E+03 0. -1.
         -6    1    1    2    0  501  0.17791663260E+00  0.11232428977E+02  0.23895627655E+03  0.29463587904E+03  0.17200000000E+03 0.  1.
</event>
<event>
 4    1  0.3169553E-002  0.2632302E+03  0.7818608E-02  0.1105218E+00
          1   -1    0    0  502    0  0.00000000000E+00  0.00000000000E+00  0.30665272450E+03  0.30665272450E+03  0.00000000000E+00 0. -1.
         -1   -1    0    0    0  501 -0.00000000000E+00 -0.00000000000E+00 -0.25569312757E+03  0.25569312757E+03  0.00000000000E+00 0.  1.
          6    1    1    2  502    0 -0.19794216135E+03 -0.22913767344E+02  0.12136701143E+03  0.28986219387E+03  0.17200000000E+03 0. -1.
         -6    1    1    2    0  501  0.19794216135E+03  0.22913767344E+02 -0.70407414499E+02  0.27248365821E+03  0.17200000000E+03 0.  1.
</event>
<event>
 4    1  0.3169553E-002  0.1829523E+03  0.7818608E-02  0.1164976E+00
          1   -1    0    0  502    0  0.00000000000E+00  0.00000000000E+00  0.40650428397E+03  0.40650428397E+03  0.00000000000E+00 0. -1.
         -1   -1    0    0    0  501 -0.00000000000E+00 -0.00000000000E+00 -0.82340065344E+02  0.82340065344E+02  0.00000000000E+00 0.  1.
          6    1    1    2  502    0 -0.60148263421E+02  0.16423095799E+02  0.16176137068E+03  0.24420948530E+03  0.17200000000E+03 0. -1.
         -6    1    1    2    0  501  0.60148263421E+02 -0.16423095799E+02  0.16240284795E+03  0.24463486401E+03  0.17200000000E+03 0. -1.
</event>
<event>
 4    1  0.3169553E-002  0.1976667E+03  0.7818608E-02  0.1151723E+00
          2   -1    0    0  502    0  0.00000000000E+00  0.00000000000E+00  0.66807838280E+03  0.66807838280E+03  0.00000000000E+00 0. -1.
         -2   -1    0    0    0  501 -0.00000000000E+00 -0.00000000000E+00 -0.59258154331E+02  0.59258154331E+02  0.00000000000E+00 0.  1.
          6    1    1    2  502    0 -0.97031207525E+02 -0.85488455600E+01  0.34596705361E+03  0.39845368637E+03  0.17200000000E+03 0. -1.
         -6    1    1    2    0  501  0.97031207525E+02  0.85488455600E+01  0.26285317486E+03  0.32888285076E+03  0.17200000000E+03 0.  1.
</event>
<event>
 4    1  0.3169553E-002  0.1792380E+03  0.7818608E-02  0.1168543E+00
          2   -1    0    0  502    0  0.00000000000E+00  0.00000000000E+00  0.11985095579E+04  0.11985095579E+04  0.00000000000E+00 0. -1.
         -2   -1    0    0    0  501 -0.00000000000E+00 -0.00000000000E+00 -0.26846836541E+02  0.26846836541E+02  0.00000000000E+00 0.  1.
          6    1    1    2  502    0  0.50289274020E+02 -0.36396601348E+01  0.56169595830E+03  0.58960037973E+03  0.17200000000E+03 0. -1.
         -6    1    1    2    0  501 -0.50289274020E+02  0.36396601348E+01  0.60996676311E+03  0.63575601476E+03  0.17200000000E+03 0.  1.
</event>
<event>
 4    1  0.3169553E-002  0.1767067E+03  0.7818608E-02  0.1171029E+00
          2   -1    0    0  502    0  0.00000000000E+00  0.00000000000E+00  0.37340969445E+03  0.37340969445E+03  0.00000000000E+00 0. -1.
         -2   -1    0    0    0  501 -0.00000000000E+00 -0.00000000000E+00 -0.89071432019E+02  0.89071432019E+02  0.00000000000E+00 0.  1.
          6    1    1    2  502    0  0.34554424616E+02  0.21147958392E+02  0.84972207845E+02  0.19607529296E+03  0.17200000000E+03 0.  1.
         -6    1    1    2    0  501 -0.34554424616E+02 -0.21147958392E+02  0.19936605459E+03  0.26640583351E+03  0.17200000000E+03 0. -1.
</event>
<event>
 4    1  0.3169553E-002  0.1885763E+03  0.7818608E-02  0.1159752E+00
         -1   -1    0    0    0  501 -0.00000000000E+00  0.00000000000E+00  0.17540609176E+03  0.17540609176E+03  0.00000000000E+00 0.  1.
          1   -1    0    0  502    0  0.00000000000E+00 -0.00000000000E+00 -0.20529406233E+03  0.20529406233E+03  0.00000000000E+00 0. -1.
          6    1    1    2  502    0 -0.36365076040E+02  0.68224660370E+02 -0.36194619707E+02  0.19201841978E+03  0.17200000000E+03 0. -1.
         -6    1    1    2    0  501  0.36365076040E+02 -0.68224660370E+02  0.63066491360E+01  0.18868173431E+03  0.17200000000E+03 0.  1.
</event>
<event>
 4    1  0.3169553E-002  0.2840203E+03  0.7818608E-02  0.1093513E+00
         -1   -1    0    0    0  501 -0.00000000000E+00  0.00000000000E+00  0.43176380781E+03  0.43176380781E+03  0.00000000000E+00 0.  1.
          1   -1    0    0  502    0  0.00000000000E+00 -0.00000000000E+00 -0.58371694589E+03  0.58371694589E+03  0.00000000000E+00 0. -1.
          6    1    1    2  502    0  0.17264401836E+03 -0.14586830345E+03 -0.49464728045E+03  0.57038885954E+03  0.17200000000E+03 0. -1.
         -6    1    1    2    0  501 -0.17264401836E+03  0.14586830345E+03  0.34269414237E+03  0.44509189416E+03  0.17200000000E+03 0.  1.
</event>
<event>
 4    1  0.3169553E-002  0.1820403E+03  0.7818608E-02  0.1165843E+00
         -3   -1    0    0    0  501 -0.00000000000E+00  0.00000000000E+00  0.50643403945E+02  0.50643403945E+02  0.00000000000E+00 0.  1.
          3   -1    0    0  502    0  0.00000000000E+00 -0.00000000000E+00 -0.66709778872E+03  0.66709778872E+03  0.00000000000E+00 0. -1.
          6    1    1    2  502    0  0.43931996754E+02  0.40306920746E+02 -0.35783017581E+03  0.40147366405E+03  0.17200000000E+03 0. -1.
         -6    1    1    2    0  501 -0.43931996754E+02 -0.40306920746E+02 -0.25862420896E+03  0.31626752862E+03  0.17200000000E+03 0.  1.
</event>
<event>
 4    1  0.3169553E-002  0.2655457E+03  0.7818608E-02  0.1103856E+00
         -2   -1    0    0    0  501 -0.00000000000E+00  0.00000000000E+00  0.51247045661E+03  0.51247045661E+03  0.00000000000E+00 0.  1.
          2   -1    0    0  502    0  0.00000000000E+00 -0.00000000000E+00 -0.13827303921E+03  0.13827303921E+03  0.00000000000E+00 0. -1.
          6    1    1    2  502    0  0.15806646693E+03  0.12627555802E+03  0.20984535374E+03  0.33845176467E+03  0.17200000000E+03 0. -1.
         -6    1    1    2    0  501 -0.15806646693E+03 -0.12627555802E+03  0.16435206365E+03  0.31229173116E+03  0.17200000000E+03 0.  1.
</event>
<event>
 4    1  0.3169553E-002  0.1726346E+03  0.7818608E-02  0.1175128E+00
         -2   -1    0    0    0  501 -0.00000000000E+00  0.00000000000E+00  0.29257198736E+02  0.29257198736E+02  0.00000000000E+00 0.  1.
          2   -1    0    0  502    0  0.00000000000E+00 -0.00000000000E+00 -0.12677381174E+04  0.12677381174E+04  0.00000000000E+00 0. -1.
          6    1    1    2  502    0 -0.13704925908E+02  0.55562162498E+01 -0.33178233905E+03  0.37400831145E+03  0.17200000000E+03 0.  1.
         -6    1    1    2    0  501  0.13704925908E+02 -0.55562162498E+01 -0.90669857966E+03  0.92298700472E+03  0.17200000000E+03 0. -1.
</event>
<event>
 4    1  0.3169553E-002  0.2488301E+03  0.7818608E-02  0.1114046E+00
          3   -1    0    0  502    0  0.00000000000E+00  0.00000000000E+00  0.64141416867E+03  0.64141416867E+03  0.00000000000E+00 0. -1.
         -3   -1    0    0    0  501 -0.00000000000E+00 -0.00000000000E+00 -0.37281636266E+03  0.37281636266E+03  0.00000000000E+00 0.  1.
          6    1    1    2  502    0  0.13861044344E+03  0.11454058308E+03  0.57085301184E+03  0.62272751773E+03  0.17200000000E+03 0. -1.
         -6    1    1    2    0  501 -0.13861044344E+03 -0.11454058308E+03 -0.30225520583E+03  0.39150301360E+03  0.17200000000E+03 0.  1.
</event>
<event>
 4    1  0.3169553E-002  0.2338976E+03  0.7818608E-02  0.1123926E+00
         -3   -1    0    0    0  501 -0.00000000000E+00  0.00000000000E+00  0.20547132489E+03  0.20547132489E+03  0.00000000000E+00 0.  1.
          3   -1    0    0  502    0  0.00000000000E+00 -0.00000000000E+00 -0.29011882358E+03  0.29011882358E+03  0.00000000000E+00 0. -1.
          6    1    1    2  502    0 -0.15830263282E+03 -0.80231242773E+01 -0.11338948751E+03  0.25993320288E+03  0.17200000000E+03 0. -1.
         -6    1    1    2    0  501  0.15830263282E+03  0.80231242773E+01  0.28741988827E+02  0.23565694559E+03  0.17200000000E+03 0.  1.
</event>
<event>
 4    1  0.3169553E-002  0.2918790E+03  0.7818608E-02  0.1089372E+00
          3   -1    0    0  502    0  0.00000000000E+00  0.00000000000E+00  0.91058254176E+02  0.91058254176E+02  0.00000000000E+00 0. -1.
         -3   -1    0    0    0  501 -0.00000000000E+00 -0.00000000000E+00 -0.93569439864E+03  0.93569439864E+03  0.00000000000E+00 0.  1.
          6    1    1    2  502    0 -0.16691736600E+03  0.16657720521E+03 -0.41694704646E+03  0.50895796675E+03  0.17200000000E+03 0. -1.
         -6    1    1    2    0  501  0.16691736600E+03 -0.16657720521E+03 -0.42768909800E+03  0.51779468606E+03  0.17200000000E+03 0.  1.
</event>
<event>
 4    1  0.3169553E-002  0.1948928E+03  0.7818608E-02  0.1154121E+00
          2   -1    0    0  502    0  0.00000000000E+00  0.00000000000E+00  0.14845396814E+04  0.14845396814E+04  0.00000000000E+00 0. -1.
         -2   -1    0    0    0  501 -0.00000000000E+00 -0.00000000000E+00 -0.41243623226E+02  0.41243623226E+02  0.00000000000E+00 0.  1.
          6    1    1    2  502    0  0.88939655044E+02  0.22111615171E+02  0.11917041146E+04  0.12075354581E+04  0.17200000000E+03 0. -1.
         -6    1    1    2    0  501 -0.88939655044E+02 -0.22111615171E+02  0.25159194361E+03  0.31824784659E+03  0.17200000000E+03 0.  1.
</event>
<event>
 4    1  0.3169553E-002  0.1951885E+03  0.7818608E-02  0.1153863E+00
         -2   -1    0    0    0  501 -0.00000000000E+00  0.00000000000E+00  0.51575656095E+02  0.51575656095E+02  0.00000000000E+00 0.  1.
          2   -1    0    0  502    0  0.00000000000E+00 -0.00000000000E+00 -0.86013200649E+03  0.86013200649E+03  0.00000000000E+00 0. -1.
          6    1    1    2  502    0  0.77127684125E+02  0.50654286004E+02 -0.57556483359E+03  0.60776098428E+03  0.17200000000E+03 0.  1.
         -6    1    1    2    0  501 -0.77127684125E+02 -0.50654286004E+02 -0.23299151681E+03  0.30394667830E+03  0.17200000000E+03 0.  1.
</event>
<event>
 4    1  0.3169553E-002  0.1748148E+03  0.7818608E-02  0.1172918E+00
          2   -1    0    0  502    0  0.00000000000E+00  0.00000000000E+00  0.30831141850E+04  0.30831141850E+04  0.00000000000E+00 0. -1.
         -2   -1    0    0    0  501 -0.00000000000E+00 -0.00000000000E+00 -0.18784826800E+02  0.18784826800E+02  0.00000000000E+00 0.  1.
          6    1    1    2  502    0 -0.11707462641E+02 -0.28968155060E+02  0.25980781735E+04  0.26039528441E+04  0.17200000000E+03 0. -1.
         -6    1    1    2    0  501  0.11707462641E+02  0.28968155060E+02  0.46625118466E+03  0.49794616765E+03  0.17200000000E+03 0.  1.
</event>
<event>
 4    1  0.3169553E-002  0.3021555E+03  0.7818608E-02  0.1084168E+00
         -2   -1    0    0    0  501 -0.00000000000E+00  0.00000000000E+00  0.24749730235E+03  0.24749730235E+03  0.00000000000E+00 0.  1.
          2   -1    0    0  502    0  0.00000000000E+00 -0.00000000000E+00 -0.12294720865E+04  0.12294720865E+04  0.00000000000E+00 0. -1.
          6    1    1    2  502    0 -0.54291548744E+02 -0.24241775833E+03 -0.11088325923E+04  0.11492639643E+04  0.17200000000E+03 0. -1.
         -6    1    1    2    0  501  0.54291548744E+02  0.24241775833E+03  0.12685780815E+03  0.32770542459E+03  0.17200000000E+03 0.  1.
</event>
<event>
 4    1  0.3169553E-002  0.2204742E+03  0.7818608E-02  0.1133530E+00
          2   -1    0    0  502    0  0.00000000000E+00  0.00000000000E+00  0.23558890974E+03  0.23558890974E+03  0.00000000000E+00 0. -1.
         -2   -1    0    0    0  501 -0.00000000000E+00 -0.00000000000E+00 -0.21352128759E+03  0.21352128759E+03  0.00000000000E+00 0.  1.
          6    1    1    2  502    0 -0.98705793254E+02 -0.96343403007E+02  0.52246226150E+02  0.22658012506E+03  0.17200000000E+03 0. -1.
         -6    1    1    2    0  501  0.98705793254E+02  0.96343403007E+02 -0.30178604002E+02  0.22253007227E+03  0.17200000000E+03 0. -1.
</event>
<event>
 4    1  0.3169553E-002  0.3023103E+03  0.7818608E-02  0.1084091E+00
          2   -1    0    0  502    0  0.00000000000E+00  0.00000000000E+00  0.15401669620E+03  0.15401669620E+03  0.00000000000E+00 0. -1.
         -2   -1    0    0    0  501 -0.00000000000E+00 -0.00000000000E+00 -0.62581873762E+03  0.62581873762E+03  0.00000000000E+00 0.  1.
          6    1    1    2  502    0  0.23273759297E+03  0.87411248226E+02 -0.14713772053E+03  0.33621573773E+03  0.17200000000E+03 0. -1.
         -6    1    1    2    0  501 -0.23273759297E+03 -0.87411248226E+02 -0.32466432089E+03  0.44361969609E+03  0.17200000000E+03 0. -1.
</event>
<event>
 4    1  0.3169553E-002  0.3112412E+03  0.7818608E-02  0.1079752E+00
          2   -1    0    0  502    0  0.00000000000E+00  0.00000000000E+00  0.31025431106E+04  0.31025431106E+04  0.00000000000E+00 0. -1.
         -2   -1    0    0    0  501 -0.00000000000E+00 -0.00000000000E+00 -0.47614271013E+02  0.47614271013E+02  0.00000000000E+00 0.  1.
          6    1    1    2  502    0 -0.22335806443E+03 -0.13190240821E+03  0.24516058402E+04  0.24712835260E+04  0.17200000000E+03 0. -1.
         -6    1    1    2    0  501  0.22335806443E+03  0.13190240821E+03  0.60332299946E+03  0.67887385567E+03  0.17200000000E+03 0.  1.
</event>
<event>
 4    1  0.3169553E-002  0.7914185E+03  0.7818608E-02  0.9572522E-01
         -1   -1    0    0    0  501 -0.00000000000E+00  0.00000000000E+00  0.19946579095E+03  0.19946579095E+03  0.00000000000E+00 0.  1.
          1   -1    0    0  502    0  0.00000000000E+00 -0.00000000000E+00 -0.32417743126E+04  0.32417743126E+04  0.00000000000E+00 0. -1.
          6    1    1    2  502    0  0.57020892421E+03 -0.52117270848E+03 -0.12164405878E+04  0.14512308269E+04  0.17200000000E+03 0. -1.
         -6    1    1    2    0  501 -0.57020892421E+03  0.52117270848E+03 -0.18258679339E+04  0.19900092767E+04  0.17200000000E+03 0.  1.
</event>
<event>
 4    1  0.3169553E-002  0.2564532E+03  0.7818608E-02  0.1109293E+00
         -2   -1    0    0    0  501 -0.00000000000E+00  0.00000000000E+00  0.29087286390E+02  0.29087286390E+02  0.00000000000E+00 0.  1.
          2   -1    0    0  502    0  0.00000000000E+00 -0.00000000000E+00 -0.22698333123E+04  0.22698333123E+04  0.00000000000E+00 0. -1.
          6    1    1    2  502    0  0.17313816020E+03  0.78787319667E+02 -0.10489334528E+04  0.10798285292E+04  0.17200000000E+03 0. -1.
         -6    1    1    2    0  501 -0.17313816020E+03 -0.78787319667E+02 -0.11918125731E+04  0.12190920694E+04  0.17200000000E+03 0.  1.
</event>
<event>
 4    1  0.3169553E-002  0.3796112E+03  0.7818608E-02  0.1051078E+00
         -1   -1    0    0    0  501 -0.00000000000E+00  0.00000000000E+00  0.38266353086E+03  0.38266353086E+03  0.00000000000E+00 0.  1.
          1   -1    0    0  502    0  0.00000000000E+00 -0.00000000000E+00 -0.56493791710E+03  0.56493791710E+03  0.00000000000E+00 0. -1.
          6    1    1    2  502    0  0.28825055147E+03 -0.17729142886E+03 -0.36471677789E+03  0.52642469475E+03  0.17200000000E+03 0. -1.
         -6    1    1    2    0  501 -0.28825055147E+03  0.17729142886E+03  0.18244239165E+03  0.42117675321E+03  0.17200000000E+03 0.  1.
</event>
<event>
 4    1  0.3169553E-002  0.2139818E+03  0.7818608E-02  0.1138451E+00
          1   -1    0    0  502    0  0.00000000000E+00  0.00000000000E+00  0.16409167692E+04  0.16409167692E+04  0.00000000000E+00 0. -1.
         -1   -1    0    0    0  501 -0.00000000000E+00 -0.00000000000E+00 -0.29469591557E+02  0.29469591557E+02  0.00000000000E+00 0.  1.
          6    1    1    2  502    0  0.11486541952E+03  0.54864736760E+02  0.99822496607E+03  0.10209021926E+04  0.17200000000E+03 0. -1.
         -6    1    1    2    0  501 -0.11486541952E+03 -0.54864736760E+02  0.61322221161E+03  0.64948416821E+03  0.17200000000E+03 0.  1.
</event>
<event>
 4    1  0.3169553E-002  0.2701720E+03  0.7818608E-02  0.1101181E+00
         -2   -1    0    0    0  501 -0.00000000000E+00  0.00000000000E+00  0.64025738320E+03  0.64025738320E+03  0.00000000000E+00 0.  1.
          2   -1    0    0  502    0  0.00000000000E+00 -0.00000000000E+00 -0.11404333544E+03  0.11404333544E+03  0.00000000000E+00 0. -1.
          6    1    1    2  502    0 -0.20756972415E+03 -0.17991671598E+02  0.26997268025E+03  0.38193996742E+03  0.17200000000E+03 0. -1.
         -6    1    1    2    0  501  0.20756972415E+03  0.17991671598E+02  0.25624136751E+03  0.37236075123E+03  0.17200000000E+03 0.  1.
</event>
<event>
 4    1  0.3169553E-002  0.1745386E+03  0.7818608E-02  0.1173196E+00
          2   -1    0    0  502    0  0.00000000000E+00  0.00000000000E+00  0.18107053234E+04  0.18107053234E+04  0.00000000000E+00 0. -1.
         -2   -1    0    0    0  501 -0.00000000000E+00 -0.00000000000E+00 -0.31518614367E+02  0.31518614367E+02  0.00000000000E+00 0.  1.
          6    1    1    2  502    0 -0.15412117704E+02 -0.25341478751E+02  0.15185266057E+04  0.15285243787E+04  0.17200000000E+03 0. -1.
         -6    1    1    2    0  501  0.15412117704E+02  0.25341478751E+02  0.26066010332E+03  0.31369955910E+03  0.17200000000E+03 0.  1.
</event>
<event>
 4    1  0.3169553E-002  0.2444043E+03  0.7818608E-02  0.1116893E+00
          2   -1    0    0  502    0  0.00000000000E+00  0.00000000000E+00  0.55983456054E+03  0.55983456054E+03  0.00000000000E+00 0. -1.
         -2   -1    0    0    0  501 -0.00000000000E+00 -0.00000000000E+00 -0.14332095443E+03  0.14332095443E+03  0.00000000000E+00 0.  1.
          6    1    1    2  502    0  0.54228977031E+02  0.16495050340E+03  0.38597867407E+03  0.45685116544E+03  0.17200000000E+03 0. -1.
         -6    1    1    2    0  501 -0.54228977031E+02 -0.16495050340E+03  0.30534932035E+02  0.24630434953E+03  0.17200000000E+03 0. -1.
</event>
<event>
 4    1  0.3169553E-002  0.3110119E+03  0.7818608E-02  0.1079862E+00
         -2   -1    0    0    0  501 -0.00000000000E+00  0.00000000000E+00  0.72467279162E+02  0.72467279162E+02  0.00000000000E+00 0.  1.
          2   -1    0    0  502    0  0.00000000000E+00 -0.00000000000E+00 -0.13661535257E+04  0.13661535257E+04  0.00000000000E+00 0. -1.
          6    1    1    2  502    0  0.25532709020E+03 -0.44186618911E+02 -0.75583646651E+03  0.81732315787E+03  0.17200000000E+03 0. -1.
         -6    1    1    2    0  501 -0.25532709020E+03  0.44186618911E+02 -0.53784978004E+03  0.62129764700E+03  0.17200000000E+03 0. -1.
</event>
<event>
 4    1  0.3169553E-002  0.2667703E+03  0.7818608E-02  0.1103142E+00
         -1   -1    0    0    0  501 -0.00000000000E+00  0.00000000000E+00  0.49887913461E+03  0.49887913461E+03  0.00000000000E+00 0.  1.
          1   -1    0    0  502    0  0.00000000000E+00 -0.00000000000E+00 -0.32544195358E+03  0.32544195358E+03  0.00000000000E+00 0. -1.
          6    1    1    2  502    0  0.43162145885E+02  0.19929729060E+03 -0.22217233717E+03  0.34716988389E+03  0.17200000000E+03 0. -1.
         -6    1    1    2    0  501 -0.43162145885E+02 -0.19929729060E+03  0.39560951820E+03  0.47715120431E+03  0.17200000000E+03 0.  1.
</event>
<event>
 4    1  0.3169553E-002  0.1721665E+03  0.7818608E-02  0.1175607E+00
          1   -1    0    0  502    0  0.00000000000E+00  0.00000000000E+00  0.61317634683E+03  0.61317634683E+03  0.00000000000E+00 0. -1.
         -1   -1    0    0    0  501 -0.00000000000E+00 -0.00000000000E+00 -0.14072177345E+03  0.14072177345E+03  0.00000000000E+00 0.  1.
          6    1    1    2  502    0 -0.59324171630E+01  0.47018311567E+01  0.54164470176E+03  0.56834873426E+03  0.17200000000E+03 0. -1.
         -6    1    1    2    0  501  0.59324171630E+01 -0.47018311567E+01 -0.69190128376E+02  0.18554938603E+03  0.17200000000E+03 0.  1.
</event>
<event>
 4    1  0.3169553E-002  0.1004952E+04  0.7818608E-02  0.9303130E-01
         -2   -1    0    0    0  501 -0.00000000000E+00  0.00000000000E+00  0.68404724582E+03  0.68404724582E+03  0.00000000000E+00 0.  1.
          2   -1    0    0  502    0  0.00000000000E+00 -0.00000000000E+00 -0.14924294355E+04  0.14924294355E+04  0.00000000000E+00 0. -1.
          6    1    1    2  502    0  0.98082393299E+03 -0.13538393696E+03 -0.29141538918E+03  0.10463514357E+04  0.17200000000E+03 0. -1.
         -6    1    1    2    0  501 -0.98082393299E+03  0.13538393696E+03 -0.51696680045E+03  0.11301252456E+04  0.17200000000E+03 0.  1.
</event>
<event>
 4    1  0.3169553E-002  0.2160150E+03  0.7818608E-02  0.1136889E+00
          3   -1    0    0  502    0  0.00000000000E+00  0.00000000000E+00  0.74325651976E+03  0.74325651976E+03  0.00000000000E+00 0. -1.
         -3   -1    0    0    0  501 -0.00000000000E+00 -0.00000000000E+00 -0.67274152773E+02  0.67274152773E+02  0.00000000000E+00 0.  1.
          6    1    1    2  502    0  0.10865697402E+03 -0.72609444821E+02  0.23325768605E+03  0.31791762704E+03  0.17200000000E+03 0.  1.
         -6    1    1    2    0  501 -0.10865697402E+03  0.72609444821E+02  0.44272468094E+03  0.49261304550E+03  0.17200000000E+03 0.  1.
</event>
<event>
 4    1  0.3169553E-002  0.2187993E+03  0.7818608E-02  0.1134781E+00
          1   -1    0    0  502    0  0.00000000000E+00  0.00000000000E+00  0.34276467190E+03  0.34276467190E+03  0.00000000000E+00 0. -1.
         -1   -1    0    0    0  501 -0.00000000000E+00 -0.00000000000E+00 -0.15445784184E+03  0.15445784184E+03  0.00000000000E+00 0.  1.
          6    1    1    2  502    0  0.67954460693E+02 -0.11692436528E+03  0.17222024685E+02  0.21947599882E+03  0.17200000000E+03 0.  1.
         -6    1    1    2    0  501 -0.67954460693E+02  0.11692436528E+03  0.17108480537E+03  0.27774651492E+03  0.17200000000E+03 0. -1.
</event>
<event>
 4    1  0.3169553E-002  0.2103539E+03  0.7818608E-02  0.1141286E+00
          2   -1    0    0  502    0  0.00000000000E+00  0.00000000000E+00  0.64005419302E+03  0.64005419302E+03  0.00000000000E+00 0. -1.
         -2   -1    0    0    0  501 -0.00000000000E+00 -0.00000000000E+00 -0.71971933766E+02  0.71971933766E+02  0.00000000000E+00 0.  1.
          6    1    1    2  502    0  0.29869539661E+02  0.11735666262E+03  0.35474982705E+03  0.41242722443E+03  0.17200000000E+03 0.  1.
         -6    1    1    2    0  501 -0.29869539661E+02 -0.11735666262E+03  0.21333243221E+03  0.29959890236E+03  0.17200000000E+03 0.  1.
</event>
<event>
 4    1  0.3169553E-002  0.2249438E+03  0.7818608E-02  0.1130250E+00
          2   -1    0    0  502    0  0.00000000000E+00  0.00000000000E+00  0.75119110671E+03  0.75119110671E+03  0.00000000000E+00 0. -1.
         -2   -1    0    0    0  501 -0.00000000000E+00 -0.00000000000E+00 -0.67359781696E+02  0.67359781696E+02  0.00000000000E+00 0.  1.
          6    1    1    2  502    0  0.13694583762E+03 -0.47555656557E+02  0.34301646498E+03  0.41019507330E+03  0.17200000000E+03 0. -1.
         -6    1    1    2    0  501 -0.13694583762E+03  0.47555656557E+02  0.34081486004E+03  0.40835581511E+03  0.17200000000E+03 0. -1.
</event>
<event>
 4    1  0.3169553E-002  0.6159758E+03  0.7818608E-02  0.9872805E-01
          2   -1    0    0  502    0  0.00000000000E+00  0.00000000000E+00  0.11352773733E+04  0.11352773733E+04  0.00000000000E+00 0. -1.
         -2   -1    0    0    0  501 -0.00000000000E+00 -0.00000000000E+00 -0.37304698544E+03  0.37304698544E+03  0.00000000000E+00 0.  1.
          6    1    1    2  502    0 -0.29409408613E+02 -0.59074295753E+03  0.62443675704E+03  0.87712451723E+03  0.17200000000E+03 0. -1.
         -6    1    1    2    0  501  0.29409408613E+02  0.59074295753E+03  0.13779363078E+03  0.63119984147E+03  0.17200000000E+03 0.  1.
</event>
<event>
 4    1  0.3169553E-002  0.1870684E+03  0.7818608E-02  0.1161132E+00
         -2   -1    0    0    0  501 -0.00000000000E+00  0.00000000000E+00  0.32946822011E+03  0.32946822011E+03  0.00000000000E+00 0.  1.
          2   -1    0    0  502    0  0.00000000000E+00 -0.00000000000E+00 -0.11500014866E+03  0.11500014866E+03  0.00000000000E+00 0. -1.
          6    1    1    2  502    0  0.12688417855E+02 -0.72454072658E+02  0.45811591078E+02  0.19259618498E+03  0.17200000000E+03 0. -1.
         -6    1    1    2    0  501 -0.12688417855E+02  0.72454072658E+02  0.16865648038E+03  0.25187218379E+03  0.17200000000E+03 0. -1.
</event>
<event>
 4    1  0.3169553E-002  0.2028417E+03  0.7818608E-02  0.1147363E+00
         -2   -1    0    0    0  501 -0.00000000000E+00  0.00000000000E+00  0.22840476493E+04  0.22840476493E+04  0.00000000000E+00 0.  1.
          2   -1    0    0  502    0  0.00000000000E+00 -0.00000000000E+00 -0.77903480824E+02  0.77903480824E+02  0.00000000000E+00 0. -1.
          6    1    1    2  502    0  0.10743768693E+03  0.42283710393E+01  0.67601153547E+02  0.21380984930E+03  0.17200000000E+03 0. -1.
         -6    1    1    2    0  501 -0.10743768693E+03 -0.42283710393E+01  0.21385430149E+04  0.21481412808E+04  0.17200000000E+03 0.  1.
</event>
<event>
 4    1  0.3169553E-002  0.1794201E+03  0.7818608E-02  0.1168365E+00
         -1   -1    0    0    0  501 -0.00000000000E+00  0.00000000000E+00  0.26337028677E+02  0.26337028677E+02  0.00000000000E+00 0.  1.
          1   -1    0    0  502    0  0.00000000000E+00 -0.00000000000E+00 -0.13724049349E+04  0.13724049349E+04  0.00000000000E+00 0. -1.
          6    1    1    2  502    0  0.15543960789E+02 -0.48641196110E+02 -0.90433269316E+03  0.92195943544E+03  0.17200000000E+03 0.  1.
         -6    1    1    2    0  501 -0.15543960789E+02  0.48641196110E+02 -0.44173521304E+03  0.47678252812E+03  0.17200000000E+03 0.  1.
</event>
<event>
 4    1  0.3169553E-002  0.1821947E+03  0.7818608E-02  0.1165696E+00
          1   -1    0    0  502    0  0.00000000000E+00  0.00000000000E+00  0.63504394276E+03  0.63504394276E+03  0.00000000000E+00 0. -1.
         -1   -1    0    0    0  501 -0.00000000000E+00 -0.00000000000E+00 -0.57357127788E+02  0.57357127788E+02  0.00000000000E+00 0.  1.
          6    1    1    2  502    0  0.55592809820E+02  0.22810785676E+02  0.18575891280E+03  0.26019466968E+03  0.17200000000E+03 0.  1.
         -6    1    1    2    0  501 -0.55592809820E+02 -0.22810785676E+02  0.39192790217E+03  0.43220640086E+03  0.17200000000E+03 0. -1.
</event>
<event>
 4    1  0.3169553E-002  0.4011233E+03  0.7818608E-02  0.1043391E+00
          1   -1    0    0  502    0  0.00000000000E+00  0.00000000000E+00  0.14987676959E+04  0.14987676959E+04  0.00000000000E+00 0. -1.
         -1   -1    0    0    0  501 -0.00000000000E+00 -0.00000000000E+00 -0.34033746557E+03  0.34033746557E+03  0.00000000000E+00 0.  1.
          6    1    1    2  502    0 -0.31211237703E+03 -0.18412432499E+03  0.13400378721E+04  0.13987856883E+04  0.17200000000E+03 0. -1.
         -6    1    1    2    0  501  0.31211237703E+03  0.18412432499E+03 -0.18160764179E+03  0.44031947323E+03  0.17200000000E+03 0.  1.
</event>
<event>
 4    1  0.3169553E-002  0.2735243E+03  0.7818608E-02  0.1099279E+00
          1   -1    0    0  502    0  0.00000000000E+00  0.00000000000E+00  0.10550917019E+03  0.10550917019E+03  0.00000000000E+00 0. -1.
         -1   -1    0    0    0  501 -0.00000000000E+00 -0.00000000000E+00 -0.76977061042E+03  0.76977061042E+03  0.00000000000E+00 0.  1.
          6    1    1    2  502    0 -0.16827712551E+03 -0.13005520725E+03 -0.20925686109E+03  0.34438928818E+03  0.17200000000E+03 0. -1.
         -6    1    1    2    0  501  0.16827712551E+03  0.13005520725E+03 -0.45500457915E+03  0.53089049243E+03  0.17200000000E+03 0. -1.
</event>
<event>
 4    1  0.3169553E-002  0.1864357E+03  0.7818608E-02  0.1161716E+00
         -1   -1    0    0    0  501 -0.00000000000E+00  0.00000000000E+00  0.99165389278E+03  0.99165389278E+03  0.00000000000E+00 0.  1.
          1   -1    0    0  502    0  0.00000000000E+00 -0.00000000000E+00 -0.35710309803E+02  0.35710309803E+02  0.00000000000E+00 0. -1.
          6    1    1    2  502    0 -0.71775956924E+02  0.47401172720E+01  0.54778057960E+03  0.57863790067E+03  0.17200000000E+03 0.  1.
         -6    1    1    2    0  501  0.71775956924E+02 -0.47401172720E+01  0.40816300338E+03  0.44872630192E+03  0.17200000000E+03 0. -1.
</event>
<event>
 4    1  0.3169553E-002  0.6178876E+03  0.7818608E-02  0.9868975E-01
         -1   -1    0    0    0  501 -0.00000000000E+00  0.00000000000E+00  0.11993715653E+03  0.11993715653E+03  0.00000000000E+00 0.  1.
          1   -1    0    0  502    0  0.00000000000E+00 -0.00000000000E+00 -0.41311264969E+04  0.41311264969E+04  0.00000000000E+00 0. -1.
          6    1    1    2  502    0  0.54735734805E+03 -0.22934903426E+03 -0.30237607315E+04  0.30862459408E+04  0.17200000000E+03 0. -1.
         -6    1    1    2    0  501 -0.54735734805E+03  0.22934903426E+03 -0.98742860892E+03  0.11648177126E+04  0.17200000000E+03 0.  1.
</event>
<event>
 4    1  0.3169553E-002  0.1732874E+03  0.7818608E-02  0.1174462E+00
         -1   -1    0    0    0  501 -0.00000000000E+00  0.00000000000E+00  0.34999688591E+02  0.34999688591E+02  0.00000000000E+00 0.  1.
          1   -1    0    0  502    0  0.00000000000E+00 -0.00000000000E+00 -0.87038299953E+03  0.87038299953E+03  0.00000000000E+00 0. -1.
          6    1    1    2  502    0  0.19655951197E+02  0.76272144664E+01 -0.36362103905E+03  0.40280118031E+03  0.17200000000E+03 0. -1.
         -6    1    1    2    0  501 -0.19655951197E+02 -0.76272144664E+01 -0.47176227189E+03  0.50258150782E+03  0.17200000000E+03 0. -1.
</event>
<event>
 4    1  0.3169553E-002  0.4913429E+03  0.7818608E-02  0.1016064E+00
         -2   -1    0    0    0  501 -0.00000000000E+00  0.00000000000E+00  0.67186725342E+03  0.67186725342E+03  0.00000000000E+00 0.  1.
          2   -1    0    0  502    0  0.00000000000E+00 -0.00000000000E+00 -0.54291283767E+03  0.54291283767E+03  0.00000000000E+00 0. -1.
          6    1    1    2  502    0 -0.72275025048E+02  0.45454388081E+03 -0.28872720470E+03  0.56989579535E+03  0.17200000000E+03 0. -1.
         -6    1    1    2    0  501  0.72275025048E+02 -0.45454388081E+03  0.41768162045E+03  0.64488429574E+03  0.17200000000E+03 0.  1.
</event>
<event>
 4    1  0.3169553E-002  0.2235988E+03  0.7818608E-02  0.1131228E+00
         -1   -1    0    0    0  501 -0.00000000000E+00  0.00000000000E+00  0.24798883555E+02  0.24798883555E+02  0.00000000000E+00 0.  1.
          1   -1    0    0  502    0  0.00000000000E+00 -0.00000000000E+00 -0.26215657991E+04  0.26215657991E+04  0.00000000000E+00 0. -1.
          6    1    1    2  502    0 -0.94858832536E+01 -0.14255673229E+03 -0.66247710282E+03  0.69919404722E+03  0.17200000000E+03 0.  1.
         -6    1    1    2    0  501  0.94858832536E+01  0.14255673229E+03 -0.19342898128E+04  0.19471706355E+04  0.17200000000E+03 0. -1.
</event>
<event>
 4    1  0.3169553E-002  0.1932353E+03  0.7818608E-02  0.1155575E+00
          3   -1    0    0  502    0  0.00000000000E+00  0.00000000000E+00  0.19103670690E+03  0.19103670690E+03  0.00000000000E+00 0. -1.
         -3   -1    0    0    0  501 -0.00000000000E+00 -0.00000000000E+00 -0.20615346109E+03  0.20615346109E+03  0.00000000000E+00 0.  1.
          6    1    1    2  502    0  0.44523397267E+02  0.75983929697E+02 -0.52790571580E+02  0.20031658674E+03  0.17200000000E+03 0.  1.
         -6    1    1    2    0  501 -0.44523397267E+02 -0.75983929697E+02  0.37673817389E+02  0.19687358125E+03  0.17200000000E+03 0.  1.
</event>
<event>
 4    1  0.3169553E-002  0.6560140E+03  0.7818608E-02  0.9795559E-01
         -2   -1    0    0    0  501 -0.00000000000E+00  0.00000000000E+00  0.85687721398E+03  0.85687721398E+03  0.00000000000E+00 0.  1.
          2   -1    0    0  502    0  0.00000000000E+00 -0.00000000000E+00 -0.62714435793E+03  0.62714435793E+03  0.00000000000E+00 0. -1.
          6    1    1    2  502    0 -0.23500152862E+01  0.63305988023E+03 -0.21628201321E+03  0.69074759772E+03  0.17200000000E+03 0. -1.
         -6    1    1    2    0  501  0.23500152862E+01 -0.63305988023E+03  0.44601486925E+03  0.79327397418E+03  0.17200000000E+03 0.  1.
</event>
<event>
 4    1  0.3169553E-002  0.4181209E+03  0.7818608E-02  0.1037680E+00
          2   -1    0    0  502    0  0.00000000000E+00  0.00000000000E+00  0.16734204334E+04  0.16734204334E+04  0.00000000000E+00 0. -1.
         -2   -1    0    0    0  501 -0.00000000000E+00 -0.00000000000E+00 -0.11184757205E+03  0.11184757205E+03  0.00000000000E+00 0.  1.
          6    1    1    2  502    0  0.23622284603E+03 -0.29906497901E+03  0.10100138319E+04  0.10931390741E+04  0.17200000000E+03 0. -1.
         -6    1    1    2    0  501 -0.23622284603E+03  0.29906497901E+03  0.55155902938E+03  0.69212893130E+03  0.17200000000E+03 0.  1.
</event>
<event>
 4    1  0.3169553E-002  0.3906291E+03  0.7818608E-02  0.1047074E+00
          3   -1    0    0  502    0  0.00000000000E+00  0.00000000000E+00  0.31022779409E+03  0.31022779409E+03  0.00000000000E+00 0. -1.
         -3   -1    0    0    0  501 -0.00000000000E+00 -0.00000000000E+00 -0.50765645373E+03  0.50765645373E+03  0.00000000000E+00 0.  1.
          6    1    1    2  502    0  0.24427104195E+03  0.25167192184E+03 -0.26595634036E+02  0.39153342888E+03  0.17200000000E+03 0. -1.
         -6    1    1    2    0  501 -0.24427104195E+03 -0.25167192184E+03 -0.17083302560E+03  0.42635081894E+03  0.17200000000E+03 0.  1.
</event>
<event>
 4    1  0.3169553E-002  0.4303017E+03  0.7818608E-02  0.1033765E+00
         -1   -1    0    0    0  501 -0.00000000000E+00  0.00000000000E+00  0.96563554758E+03  0.96563554758E+03  0.00000000000E+00 0.  1.
          1   -1    0    0  502    0  0.00000000000E+00 -0.00000000000E+00 -0.51856772323E+03  0.51856772323E+03  0.00000000000E+00 0. -1.
          6    1    1    2  502    0  0.16772565720E+03  0.35699250288E+03 -0.36560022182E+03  0.56464419362E+03  0.17200000000E+03 0. -1.
         -6    1    1    2    0  501 -0.16772565720E+03 -0.35699250288E+03  0.81266804616E+03  0.91955907719E+03  0.17200000000E+03 0.  1.
</event>
<event>
 4    1  0.3169553E-002  0.2634078E+03  0.7818608E-02  0.1105113E+00
         -1   -1    0    0    0  501 -0.00000000000E+00  0.00000000000E+00  0.77864744657E+02  0.77864744657E+02  0.00000000000E+00 0.  1.
          1   -1    0    0  502    0  0.00000000000E+00 -0.00000000000E+00 -0.10558878777E+04  0.10558878777E+04  0.00000000000E+00 0. -1.
          6    1    1    2  502    0 -0.19921340977E+03  0.10661919260E+02 -0.71297100178E+03  0.76007322577E+03  0.17200000000E+03 0. -1.
         -6    1    1    2    0  501  0.19921340977E+03 -0.10661919260E+02 -0.26505213131E+03  0.37367939663E+03  0.17200000000E+03 0.  1.
</event>
<event>
 4    1  0.3169553E-002  0.1917111E+03  0.7818608E-02  0.1156927E+00
         -2   -1    0    0    0  501 -0.00000000000E+00  0.00000000000E+00  0.20337708093E+03  0.20337708093E+03  0.00000000000E+00 0.  1.
          2   -1    0    0  502    0  0.00000000000E+00 -0.00000000000E+00 -0.18497419322E+03  0.18497419322E+03  0.00000000000E+00 0. -1.
          6    1    1    2  502    0 -0.84619803979E+02 -0.29389497415E+01 -0.20265701455E+02  0.19277927095E+03  0.17200000000E+03 0. -1.
         -6    1    1    2    0  501  0.84619803979E+02  0.29389497415E+01  0.38668589159E+02  0.19557200321E+03  0.17200000000E+03 0. -1.
</event>
<event>
 4    1  0.3169553E-002  0.1964247E+03  0.7818608E-02  0.1152791E+00
         -1   -1    0    0    0  501 -0.00000000000E+00  0.00000000000E+00  0.25860633079E+02  0.25860633079E+02  0.00000000000E+00 0.  1.
          1   -1    0    0  502    0  0.00000000000E+00 -0.00000000000E+00 -0.15584159814E+04  0.15584159814E+04  0.00000000000E+00 0. -1.
          6    1    1    2  502    0 -0.18835227549E+02  0.92972511515E+02 -0.60268120918E+03  0.63388271281E+03  0.17200000000E+03 0.  1.
         -6    1    1    2    0  501  0.18835227549E+02 -0.92972511515E+02 -0.92987413909E+03  0.95039390163E+03  0.17200000000E+03 0.  1.
</event>
<event>
 4    1  0.3169553E-002  0.2413333E+03  0.7818608E-02  0.1118908E+00
         -2   -1    0    0    0  501 -0.00000000000E+00  0.00000000000E+00  0.28159916524E+03  0.28159916524E+03  0.00000000000E+00 0.  1.
          2   -1    0    0  502    0  0.00000000000E+00 -0.00000000000E+00 -0.33845068270E+03  0.33845068270E+03  0.00000000000E+00 0. -1.
          6    1    1    2  502    0 -0.15620008719E+03 -0.65263175191E+02 -0.22176464812E+03  0.32775190073E+03  0.17200000000E+03 0. -1.
         -6    1    1    2    0  501  0.15620008719E+03  0.65263175191E+02  0.16491313067E+03  0.29229794721E+03  0.17200000000E+03 0.  1.
</event>
<event>
 4    1  0.3169553E-002  0.1835623E+03  0.7818608E-02  0.1164399E+00
          2   -1    0    0  502    0  0.00000000000E+00  0.00000000000E+00  0.17107015892E+04  0.17107015892E+04  0.00000000000E+00 0. -1.
         -2   -1    0    0    0  501 -0.00000000000E+00 -0.00000000000E+00 -0.19833945784E+02  0.19833945784E+02  0.00000000000E+00 0.  1.
          6    1    1    2  502    0 -0.63118348246E+02 -0.11277362601E+02  0.91742202118E+03  0.93560583032E+03  0.17200000000E+03 0. -1.
         -6    1    1    2    0  501  0.63118348246E+02  0.11277362601E+02  0.77344562225E+03  0.79492970467E+03  0.17200000000E+03 0.  1.
</event>
<event>
 4    1  0.3169553E-002  0.1928022E+03  0.7818608E-02  0.1155958E+00
         -2   -1    0    0    0  501 -0.00000000000E+00  0.00000000000E+00  0.14272932628E+03  0.14272932628E+03  0.00000000000E+00 0.  1.
          2   -1    0    0  502    0  0.00000000000E+00 -0.00000000000E+00 -0.30342689789E+03  0.30342689789E+03  0.00000000000E+00 0. -1.
          6    1    1    2  502    0  0.26543570760E+02 -0.82970561723E+02 -0.16431201699E+03  0.25332018117E+03  0.17200000000E+03 0. -1.
         -6    1    1    2    0  501 -0.26543570760E+02  0.82970561723E+02  0.36144453888E+01  0.19283604299E+03  0.17200000000E+03 0.  1.
</event>
<event>
 4    1  0.3169553E-002  0.5044734E+03  0.7818608E-02  0.1012618E+00
         -2   -1    0    0    0  501 -0.00000000000E+00  0.00000000000E+00  0.23110293369E+03  0.23110293369E+03  0.00000000000E+00 0.  1.
          2   -1    0    0  502    0  0.00000000000E+00 -0.00000000000E+00 -0.13203787499E+04  0.13203787499E+04  0.00000000000E+00 0. -1.
          6    1    1    2  502    0 -0.84645417139E+01  0.47417062900E+03 -0.86068678824E+03  0.99763479356E+03  0.17200000000E+03 0. -1.
         -6    1    1    2    0  501  0.84645417139E+01 -0.47417062900E+03 -0.22858902796E+03  0.55384689001E+03  0.17200000000E+03 0.  1.
</event>
<event>
 4    1  0.3169553E-002  0.2175000E+03  0.7818608E-02  0.1135761E+00
          1   -1    0    0  502    0  0.00000000000E+00  0.00000000000E+00  0.24134980682E+03  0.24134980682E+03  0.00000000000E+00 0. -1.
         -1   -1    0    0    0  501 -0.00000000000E+00 -0.00000000000E+00 -0.22039368768E+03  0.22039368768E+03  0.00000000000E+00 0.  1.
          6    1    1    2  502    0 -0.12825500215E+03 -0.35677980791E+02  0.87275574680E+02  0.23435718428E+03  0.17200000000E+03 0. -1.
         -6    1    1    2    0  501  0.12825500215E+03  0.35677980791E+02 -0.66319455537E+02  0.22738631021E+03  0.17200000000E+03 0.  1.
</event>
<event>
 4    1  0.3169553E-002  0.2611433E+03  0.7818608E-02  0.1106458E+00
         -2   -1    0    0    0  501 -0.00000000000E+00  0.00000000000E+00  0.35732910028E+02  0.35732910028E+02  0.00000000000E+00 0.  1.
          2   -1    0    0  502    0  0.00000000000E+00 -0.00000000000E+00 -0.21907881485E+04  0.21907881485E+04  0.00000000000E+00 0. -1.
          6    1    1    2  502    0 -0.36123094318E+02  0.19315005424E+03 -0.67790288692E+03  0.72646276263E+03  0.17200000000E+03 0.  1.
         -6    1    1    2    0  501  0.36123094318E+02 -0.19315005424E+03 -0.14771523516E+04  0.15000582959E+04  0.17200000000E+03 0.  1.
</event>
<event>
 4    1  0.3169553E-002  0.2115276E+03  0.7818608E-02  0.1140362E+00
          2   -1    0    0  502    0  0.00000000000E+00  0.00000000000E+00  0.20624362945E+03  0.20624362945E+03  0.00000000000E+00 0. -1.
         -2   -1    0    0    0  501 -0.00000000000E+00 -0.00000000000E+00 -0.21820912750E+03  0.21820912750E+03  0.00000000000E+00 0.  1.
          6    1    1    2  502    0  0.55254501063E+02 -0.11003125854E+03 -0.22123124466E+02  0.21268138231E+03  0.17200000000E+03 0.  1.
         -6    1    1    2    0  501 -0.55254501063E+02  0.11003125854E+03  0.10157626414E+02  0.21177137464E+03  0.17200000000E+03 0.  1.
</event>
<event>
 4    1  0.3169553E-002  0.1924987E+03  0.7818608E-02  0.1156227E+00
         -2   -1    0    0    0  501 -0.00000000000E+00  0.00000000000E+00  0.14188290201E+03  0.14188290201E+03  0.00000000000E+00 0.  1.
          2   -1    0    0  502    0  0.00000000000E+00 -0.00000000000E+00 -0.35760443726E+03  0.35760443726E+03  0.00000000000E+00 0. -1.
          6    1    1    2  502    0  0.31338919856E+02 -0.80558290067E+02 -0.23755056325E+03  0.30575486275E+03  0.17200000000E+03 0. -1.
         -6    1    1    2    0  501 -0.31338919856E+02  0.80558290067E+02  0.21829028004E+02  0.19373247652E+03  0.17200000000E+03 0.  1.
</event>
<event>
 4    1  0.3169553E-002  0.2322118E+03  0.7818608E-02  0.1125093E+00
          2   -1    0    0  502    0  0.00000000000E+00  0.00000000000E+00  0.29723371817E+04  0.29723371817E+04  0.00000000000E+00 0. -1.
         -2   -1    0    0    0  501 -0.00000000000E+00 -0.00000000000E+00 -0.49801258555E+02  0.49801258555E+02  0.00000000000E+00 0.  1.
          6    1    1    2  502    0  0.15031065635E+03 -0.41773558020E+02  0.26660785182E+04  0.26761720775E+04  0.17200000000E+03 0. -1.
         -6    1    1    2    0  501 -0.15031065635E+03  0.41773558020E+02  0.25645740497E+03  0.34596636271E+03  0.17200000000E+03 0.  1.
</event>
<event>
 4    1  0.3169553E-002  0.2066999E+03  0.7818608E-02  0.1144206E+00
          2   -1    0    0  502    0  0.00000000000E+00  0.00000000000E+00  0.17958759872E+04  0.17958759872E+04  0.00000000000E+00 0. -1.
         -2   -1    0    0    0  501 -0.00000000000E+00 -0.00000000000E+00 -0.25099143370E+02  0.25099143370E+02  0.00000000000E+00 0.  1.
          6    1    1    2  502    0 -0.10824426506E+03 -0.37736221901E+02  0.67749053342E+03  0.70832073684E+03  0.17200000000E+03 0.  1.
         -6    1    1    2    0  501  0.10824426506E+03  0.37736221901E+02  0.10932863104E+04  0.11126543938E+04  0.17200000000E+03 0.  1.
</event>
<event>
 4    1  0.3169553E-002  0.1819953E+03  0.7818608E-02  0.1165886E+00
          2   -1    0    0  502    0  0.00000000000E+00  0.00000000000E+00  0.66427349648E+03  0.66427349648E+03  0.00000000000E+00 0. -1.
         -2   -1    0    0    0  501 -0.00000000000E+00 -0.00000000000E+00 -0.71522761750E+02  0.71522761750E+02  0.00000000000E+00 0.  1.
          6    1    1    2  502    0  0.59404128425E+02  0.30724721632E+01  0.93915943883E+02  0.20479866961E+03  0.17200000000E+03 0.  1.
         -6    1    1    2    0  501 -0.59404128425E+02 -0.30724721632E+01  0.49883479085E+03  0.53099758862E+03  0.17200000000E+03 0. -1.
</event>
<event>
 4    1  0.3169553E-002  0.2089180E+03  0.7818608E-02  0.1142426E+00
          2   -1    0    0  502    0  0.00000000000E+00  0.00000000000E+00  0.40278740084E+03  0.40278740084E+03  0.00000000000E+00 0. -1.
         -2   -1    0    0    0  501 -0.00000000000E+00 -0.00000000000E+00 -0.14480575319E+03  0.14480575319E+03  0.00000000000E+00 0.  1.
          6    1    1    2  502    0  0.11482344342E+03 -0.29636027223E+02  0.26634712679E+03  0.33850776833E+03  0.17200000000E+03 0. -1.
         -6    1    1    2    0  501 -0.11482344342E+03  0.29636027223E+02 -0.83654791428E+01  0.20908538569E+03  0.17200000000E+03 0.  1.
</event>
<event>
 4    1  0.3169553E-002  0.2873094E+03  0.7818608E-02  0.1091762E+00
          2   -1    0    0  502    0  0.00000000000E+00  0.00000000000E+00  0.21602212920E+04  0.21602212920E+04  0.00000000000E+00 0. -1.
         -2   -1    0    0    0  501 -0.00000000000E+00 -0.00000000000E+00 -0.42303992528E+02  0.42303992528E+02  0.00000000000E+00 0.  1.
          6    1    1    2  502    0 -0.21720143574E+03 -0.76067303272E+02  0.14014579804E+04  0.14306051758E+04  0.17200000000E+03 0. -1.
         -6    1    1    2    0  501  0.21720143574E+03  0.76067303272E+02  0.71645931913E+03  0.77192010874E+03  0.17200000000E+03 0.  1.
</event>
<event>
 4    1  0.3169553E-002  0.2359428E+03  0.7818608E-02  0.1122525E+00
         -3   -1    0    0    0  501 -0.00000000000E+00  0.00000000000E+00  0.67078700267E+03  0.67078700267E+03  0.00000000000E+00 0.  1.
          3   -1    0    0  502    0  0.00000000000E+00 -0.00000000000E+00 -0.11893371339E+03  0.11893371339E+03  0.00000000000E+00 0. -1.
          6    1    1    2  502    0  0.21166007449E+02  0.16011559763E+03  0.58857050483E+02  0.24317310062E+03  0.17200000000E+03 0. -1.
         -6    1    1    2    0  501 -0.21166007449E+02 -0.16011559763E+03  0.49299623879E+03  0.54654761544E+03  0.17200000000E+03 0.  1.
</event>
<event>
 4    1  0.3169553E-002  0.4054289E+03  0.7818608E-02  0.1041916E+00
          2   -1    0    0  502    0  0.00000000000E+00  0.00000000000E+00  0.12948856225E+04  0.12948856225E+04  0.00000000000E+00 0. -1.
         -2   -1    0    0    0  501 -0.00000000000E+00 -0.00000000000E+00 -0.14509944262E+03  0.14509944262E+03  0.00000000000E+00 0.  1.
          6    1    1    2  502    0 -0.14947687881E+03 -0.33532863642E+03  0.32018205806E+03  0.51661318412E+03  0.17200000000E+03 0. -1.
         -6    1    1    2    0  501  0.14947687881E+03  0.33532863642E+03  0.82960412179E+03  0.92337188098E+03  0.17200000000E+03 0.  1.
</event>
<event>
 4    1  0.3169553E-002  0.1826602E+03  0.7818608E-02  0.1165253E+00
         -2   -1    0    0    0  501 -0.00000000000E+00  0.00000000000E+00  0.11957991350E+02  0.11957991350E+02  0.00000000000E+00 0.  1.
          2   -1    0    0  502    0  0.00000000000E+00 -0.00000000000E+00 -0.28835624910E+04  0.28835624910E+04  0.00000000000E+00 0. -1.
          6    1    1    2  502    0  0.15995343971E+02  0.59370829232E+02 -0.11752445271E+04  0.11893546338E+04  0.17200000000E+03 0. -1.
         -6    1    1    2    0  501 -0.15995343971E+02 -0.59370829232E+02 -0.16963599726E+04  0.17061658486E+04  0.17200000000E+03 0. -1.
</event>
<event>
 4    1  0.3169553E-002  0.3158623E+03  0.7818608E-02  0.1077570E+00
          1   -1    0    0  502    0  0.00000000000E+00  0.00000000000E+00  0.15883645988E+04  0.15883645988E+04  0.00000000000E+00 0. -1.
         -1   -1    0    0    0  501 -0.00000000000E+00 -0.00000000000E+00 -0.67233198662E+02  0.67233198662E+02  0.00000000000E+00 0.  1.
          6    1    1    2  502    0 -0.16981007116E+03 -0.20334580859E+03  0.97283332986E+03  0.10228263126E+04  0.17200000000E+03 0.  1.
         -6    1    1    2    0  501  0.16981007116E+03  0.20334580859E+03  0.54829807031E+03  0.63277148486E+03  0.17200000000E+03 0.  1.
</event>
<event>
 4    1  0.3169553E-002  0.3878952E+03  0.7818608E-02  0.1048054E+00
         -1   -1    0    0    0  501 -0.00000000000E+00  0.00000000000E+00  0.51110092636E+03  0.51110092636E+03  0.00000000000E+00 0.  1.
          1   -1    0    0  502    0  0.00000000000E+00 -0.00000000000E+00 -0.31676453697E+03  0.31676453697E+03  0.00000000000E+00 0. -1.
          6    1    1    2  502    0 -0.28805886391E+03  0.19468116783E+03 -0.12845029163E+02  0.38810779554E+03  0.17200000000E+03 0. -1.
         -6    1    1    2    0  501  0.28805886391E+03 -0.19468116783E+03  0.20718141855E+03  0.43975766779E+03  0.17200000000E+03 0.  1.
</event>
<event>
 4    1  0.3169553E-002  0.2193853E+03  0.7818608E-02  0.1134342E+00
         -1   -1    0    0    0  501 -0.00000000000E+00  0.00000000000E+00  0.29058077947E+02  0.29058077947E+02  0.00000000000E+00 0.  1.
          1   -1    0    0  502    0  0.00000000000E+00 -0.00000000000E+00 -0.18106324702E+04  0.18106324702E+04  0.00000000000E+00 0. -1.
          6    1    1    2  502    0 -0.57067362430E+00  0.13618224906E+03 -0.11593081043E+04  0.11798835584E+04  0.17200000000E+03 0. -1.
         -6    1    1    2    0  501  0.57067362430E+00 -0.13618224906E+03 -0.62226628793E+03  0.65980698975E+03  0.17200000000E+03 0.  1.
</event>
<event>
 4    1  0.3169553E-002  0.2792268E+03  0.7818608E-02  0.1096112E+00
          1   -1    0    0  502    0  0.00000000000E+00  0.00000000000E+00  0.12413410311E+03  0.12413410311E+03  0.00000000000E+00 0. -1.
         -1   -1    0    0    0  501 -0.00000000000E+00 -0.00000000000E+00 -0.67366080059E+03  0.67366080059E+03  0.00000000000E+00 0.  1.
          6    1    1    2  502    0 -0.11137697760E+03  0.18968067180E+03 -0.17101617090E+03  0.32743567170E+03  0.17200000000E+03 0. -1.
         -6    1    1    2    0  501  0.11137697760E+03 -0.18968067180E+03 -0.37851052658E+03  0.47035923200E+03  0.17200000000E+03 0.  1.
</event>
<event>
 4    1  0.3169553E-002  0.2298955E+03  0.7818608E-02  0.1126713E+00
          2   -1    0    0  502    0  0.00000000000E+00  0.00000000000E+00  0.11073538209E+04  0.11073538209E+04  0.00000000000E+00 0. -1.
         -2   -1    0    0    0  501 -0.00000000000E+00 -0.00000000000E+00 -0.83299347443E+02  0.83299347443E+02  0.00000000000E+00 0.  1.
          6    1    1    2  502    0  0.14488616298E+03 -0.47706711391E+02  0.90105789013E+03  0.92992325054E+03  0.17200000000E+03 0. -1.
         -6    1    1    2    0  501 -0.14488616298E+03  0.47706711391E+02  0.12299658336E+03  0.26072991783E+03  0.17200000000E+03 0.  1.
</event>
<event>
 4    1  0.3169553E-002  0.2523228E+03  0.7818608E-02  0.1111846E+00
         -2   -1    0    0    0  501 -0.00000000000E+00  0.00000000000E+00  0.74702740944E+02  0.74702740944E+02  0.00000000000E+00 0.  1.
          2   -1    0    0  502    0  0.00000000000E+00 -0.00000000000E+00 -0.17875366476E+04  0.17875366476E+04  0.00000000000E+00 0. -1.
          6    1    1    2  502    0 -0.10374935763E+03  0.15270516187E+03 -0.15299301335E+04  0.15505976296E+04  0.17200000000E+03 0. -1.
         -6    1    1    2    0  501  0.10374935763E+03 -0.15270516187E+03 -0.18290377322E+03  0.31164175896E+03  0.17200000000E+03 0.  1.
</event>
<event>
 4    1  0.3169553E-002  0.3525858E+03  0.7818608E-02  0.1061559E+00
         -1   -1    0    0    0  501 -0.00000000000E+00  0.00000000000E+00  0.14872959874E+03  0.14872959874E+03  0.00000000000E+00 0.  1.
          1   -1    0    0  502    0  0.00000000000E+00 -0.00000000000E+00 -0.11881596168E+04  0.11881596168E+04  0.00000000000E+00 0. -1.
          6    1    1    2  502    0 -0.18221390925E+03  0.24805406340E+03 -0.88370190957E+03  0.95144405620E+03  0.17200000000E+03 0. -1.
         -6    1    1    2    0  501  0.18221390925E+03 -0.24805406340E+03 -0.15572810851E+03  0.38544515936E+03  0.17200000000E+03 0.  1.
</event>
<event>
 4    1  0.3169553E-002  0.2593852E+03  0.7818608E-02  0.1107513E+00
         -1   -1    0    0    0  501 -0.00000000000E+00  0.00000000000E+00  0.69040184109E+02  0.69040184109E+02  0.00000000000E+00 0.  1.
          1   -1    0    0  502    0  0.00000000000E+00 -0.00000000000E+00 -0.97542992532E+03  0.97542992532E+03  0.00000000000E+00 0. -1.
          6    1    1    2  502    0  0.16375447768E+03 -0.10431265994E+03 -0.43719629923E+03  0.50835151622E+03  0.17200000000E+03 0. -1.
         -6    1    1    2    0  501 -0.16375447768E+03  0.10431265994E+03 -0.46919344198E+03  0.53611859321E+03  0.17200000000E+03 0. -1.
</event>
<event>
 4    1  0.3169553E-002  0.1842445E+03  0.7818608E-02  0.1163757E+00
         -2   -1    0    0    0  501 -0.00000000000E+00  0.00000000000E+00  0.20632877795E+02  0.20632877795E+02  0.00000000000E+00 0.  1.
          2   -1    0    0  502    0  0.00000000000E+00 -0.00000000000E+00 -0.28265399386E+04  0.28265399386E+04  0.00000000000E+00 0. -1.
          6    1    1    2  502    0 -0.62387319087E+02 -0.21676304167E+02 -0.23232681602E+04  0.23305623750E+04  0.17200000000E+03 0. -1.
         -6    1    1    2    0  501  0.62387319087E+02  0.21676304167E+02 -0.48263890065E+03  0.51661044140E+03  0.17200000000E+03 0.  1.
</event>
<event>
 4    1  0.3169553E-002  0.5485988E+03  0.7818608E-02  0.1001819E+00
          1   -1    0    0  502    0  0.00000000000E+00  0.00000000000E+00  0.87042281281E+03  0.87042281281E+03  0.00000000000E+00 0. -1.
         -1   -1    0    0    0  501 -0.00000000000E+00 -0.00000000000E+00 -0.36468404875E+03  0.36468404875E+03  0.00000000000E+00 0.  1.
          6    1    1    2  502    0 -0.11268001785E+03  0.50860581919E+03  0.39353242853E+03  0.67515067803E+03  0.17200000000E+03 0. -1.
         -6    1    1    2    0  501  0.11268001785E+03 -0.50860581919E+03  0.11220633553E+03  0.55995618353E+03  0.17200000000E+03 0.  1.
</event>
<event>
 4    1  0.3169553E-002  0.4249725E+03  0.7818608E-02  0.1035460E+00
         -2   -1    0    0    0  501 -0.00000000000E+00  0.00000000000E+00  0.24104289476E+03  0.24104289476E+03  0.00000000000E+00 0.  1.
          2   -1    0    0  502    0  0.00000000000E+00 -0.00000000000E+00 -0.74961004984E+03  0.74961004984E+03  0.00000000000E+00 0. -1.
          6    1    1    2  502    0  0.35699503601E+03 -0.15353231480E+03 -0.24344287235E+03  0.48976122705E+03  0.17200000000E+03 0. -1.
         -6    1    1    2    0  501 -0.35699503601E+03  0.15353231480E+03 -0.26512428273E+03  0.50089171756E+03  0.17200000000E+03 0.  1.
</event>
<event>
 4    1  0.3169553E-002  0.2073758E+03  0.7818608E-02  0.1143661E+00
          1   -1    0    0  502    0  0.00000000000E+00  0.00000000000E+00  0.18153394257E+03  0.18153394257E+03  0.00000000000E+00 0. -1.
         -1   -1    0    0    0  501 -0.00000000000E+00 -0.00000000000E+00 -0.26573066996E+03  0.26573066996E+03  0.00000000000E+00 0.  1.
          6    1    1    2  502    0  0.79001556059E+02 -0.84731736617E+02 -0.11576472092E+03  0.23749986034E+03  0.17200000000E+03 0. -1.
         -6    1    1    2    0  501 -0.79001556059E+02  0.84731736617E+02  0.31567993525E+02  0.20976475220E+03  0.17200000000E+03 0. -1.
</event>
<event>
 4    1  0.3169553E-002  0.2102705E+03  0.7818608E-02  0.1141352E+00
         -1   -1    0    0    0  501 -0.00000000000E+00  0.00000000000E+00  0.53917063296E+03  0.53917063296E+03  0.00000000000E+00 0.  1.
          1   -1    0    0  502    0  0.00000000000E+00 -0.00000000000E+00 -0.83043607085E+02  0.83043607085E+02  0.00000000000E+00 0. -1.
          6    1    1    2  502    0 -0.11600600616E+03  0.34238466006E+02  0.19323953905E+03  0.28557868525E+03  0.17200000000E+03 0. -1.
         -6    1    1    2    0  501  0.11600600616E+03 -0.34238466006E+02  0.26288748683E+03  0.33663555479E+03  0.17200000000E+03 0. -1.
</event>
<event>
 4    1  0.3169553E-002  0.2500447E+03  0.7818608E-02  0.1113277E+00
          1   -1    0    0  502    0  0.00000000000E+00  0.00000000000E+00  0.78071484996E+03  0.78071484996E+03  0.00000000000E+00 0. -1.
         -1   -1    0    0    0  501 -0.00000000000E+00 -0.00000000000E+00 -0.11378445525E+03  0.11378445525E+03  0.00000000000E+00 0.  1.
          6    1    1    2  502    0 -0.65534457399E+02  0.16924419760E+03  0.57687034966E+03  0.62873027909E+03  0.17200000000E+03 0. -1.
         -6    1    1    2    0  501  0.65534457399E+02 -0.16924419760E+03  0.90060045058E+02  0.26576902612E+03  0.17200000000E+03 0.  1.
</event>
<event>
 4    1  0.3169553E-002  0.3169865E+03  0.7818608E-02  0.1077045E+00
         -1   -1    0    0    0  501 -0.00000000000E+00  0.00000000000E+00  0.22479957950E+03  0.22479957950E+03  0.00000000000E+00 0.  1.
          1   -1    0    0  502    0  0.00000000000E+00 -0.00000000000E+00 -0.79539300795E+03  0.79539300795E+03  0.00000000000E+00 0. -1.
          6    1    1    2  502    0 -0.96997114639E+02  0.24796772631E+03 -0.62290243856E+03  0.69891908080E+03  0.17200000000E+03 0. -1.
         -6    1    1    2    0  501  0.96997114639E+02 -0.24796772631E+03  0.52309010114E+02  0.32127350666E+03  0.17200000000E+03 0.  1.
</event>
<event>
 4    1  0.3169553E-002  0.4074049E+03  0.7818608E-02  0.1041245E+00
          2   -1    0    0  502    0  0.00000000000E+00  0.00000000000E+00  0.55570872002E+03  0.55570872002E+03  0.00000000000E+00 0. -1.
         -2   -1    0    0    0  501 -0.00000000000E+00 -0.00000000000E+00 -0.30610676970E+03  0.30610676970E+03  0.00000000000E+00 0.  1.
          6    1    1    2  502    0  0.11374024516E+03  0.35136582614E+03  0.57679229168E+02  0.41146771517E+03  0.17200000000E+03 0. -1.
         -6    1    1    2    0  501 -0.11374024516E+03 -0.35136582614E+03  0.19192272116E+03  0.45034777455E+03  0.17200000000E+03 0.  1.
</event>
<event>
 4    1  0.3169553E-002  0.2211740E+03  0.7818608E-02  0.1133011E+00
         -2   -1    0    0    0  501 -0.00000000000E+00  0.00000000000E+00  0.43459967900E+02  0.43459967900E+02  0.00000000000E+00 0.  1.
          2   -1    0    0  502    0  0.00000000000E+00 -0.00000000000E+00 -0.12134995912E+04  0.12134995912E+04  0.00000000000E+00 0. -1.
          6    1    1    2  502    0  0.13724189093E+03  0.22329492931E+02 -0.41585935384E+03  0.47101692651E+03  0.17200000000E+03 0.  1.
         -6    1    1    2    0  501 -0.13724189093E+03 -0.22329492931E+02 -0.75418026941E+03  0.78594263255E+03  0.17200000000E+03 0.  1.
</event>
<event>
 4    1  0.3169553E-002  0.2680637E+03  0.7818608E-02  0.1102393E+00
         -2   -1    0    0    0  501 -0.00000000000E+00  0.00000000000E+00  0.66063158993E+03  0.66063158993E+03  0.00000000000E+00 0.  1.
          2   -1    0    0  502    0  0.00000000000E+00 -0.00000000000E+00 -0.13044572823E+03  0.13044572823E+03  0.00000000000E+00 0. -1.
          6    1    1    2  502    0  0.19981542405E+03 -0.48455426862E+02  0.10386430946E+03  0.28748204616E+03  0.17200000000E+03 0. -1.
         -6    1    1    2    0  501 -0.19981542405E+03  0.48455426862E+02  0.42632155224E+03  0.50359527200E+03  0.17200000000E+03 0.  1.
</event>
<event>
 4    1  0.3169553E-002  0.1891762E+03  0.7818608E-02  0.1159206E+00
         -1   -1    0    0    0  501 -0.00000000000E+00  0.00000000000E+00  0.49872828982E+02  0.49872828982E+02  0.00000000000E+00 0.  1.
          1   -1    0    0  502    0  0.00000000000E+00 -0.00000000000E+00 -0.71847496782E+03  0.71847496782E+03  0.00000000000E+00 0. -1.
          6    1    1    2  502    0 -0.40266847786E+01 -0.78660058810E+02 -0.32072306873E+03  0.37235857162E+03  0.17200000000E+03 0. -1.
         -6    1    1    2    0  501  0.40266847786E+01  0.78660058810E+02 -0.34787907011E+03  0.39598922519E+03  0.17200000000E+03 0.  1.
</event>
<event>
 4    1  0.3169553E-002  0.1937181E+03  0.7818608E-02  0.1155150E+00
         -1   -1    0    0    0  501 -0.00000000000E+00  0.00000000000E+00  0.14053960451E+03  0.14053960451E+03  0.00000000000E+00 0.  1.
          1   -1    0    0  502    0  0.00000000000E+00 -0.00000000000E+00 -0.32790269605E+03  0.32790269605E+03  0.00000000000E+00 0. -1.
          6    1    1    2  502    0  0.73963397771E+02 -0.49720505385E+02  0.72448878629E+01  0.19385355624E+03  0.17200000000E+03 0. -1.
         -6    1    1    2    0  501 -0.73963397771E+02  0.49720505385E+02 -0.19460797939E+03  0.27458874432E+03  0.17200000000E+03 0. -1.
</event>
<event>
 4    1  0.3169553E-002  0.3540456E+03  0.7818608E-02  0.1060967E+00
          1   -1    0    0  502    0  0.00000000000E+00  0.00000000000E+00  0.13125321527E+04  0.13125321527E+04  0.00000000000E+00 0. -1.
         -1   -1    0    0    0  501 -0.00000000000E+00 -0.00000000000E+00 -0.10539093800E+03  0.10539093800E+03  0.00000000000E+00 0.  1.
          6    1    1    2  502    0  0.29945432681E+03  0.78047565153E+02  0.82074807511E+03  0.89385441715E+03  0.17200000000E+03 0. -1.
         -6    1    1    2    0  501 -0.29945432681E+03 -0.78047565153E+02  0.38639313956E+03  0.52406867352E+03  0.17200000000E+03 0.  1.
</event>
<event>
 4    1  0.3169553E-002  0.2007150E+03  0.7818608E-02  0.1149137E+00
          1   -1    0    0  502    0  0.00000000000E+00  0.00000000000E+00  0.99886098223E+03  0.99886098223E+03  0.00000000000E+00 0. -1.
         -1   -1    0    0    0  501 -0.00000000000E+00 -0.00000000000E+00 -0.52471051269E+02  0.52471051269E+02  0.00000000000E+00 0.  1.
          6    1    1    2  502    0  0.96147447311E+02 -0.38185951900E+02  0.72602843140E+03  0.75326209366E+03  0.17200000000E+03 0. -1.
         -6    1    1    2    0  501 -0.96147447311E+02  0.38185951900E+02  0.22036149957E+03  0.29806993984E+03  0.17200000000E+03 0.  1.
</event>
<event>
 4    1  0.3169553E-002  0.1794646E+03  0.7818608E-02  0.1168322E+00
         -1   -1    0    0    0  501 -0.00000000000E+00  0.00000000000E+00  0.94565359796E+02  0.94565359796E+02  0.00000000000E+00 0.  1.
          1   -1    0    0  502    0  0.00000000000E+00 -0.00000000000E+00 -0.11965634391E+04  0.11965634391E+04  0.00000000000E+00 0. -1.
          6    1    1    2  502    0  0.45244981340E+02  0.24009347531E+02 -0.10970121658E+04  0.11115949123E+04  0.17200000000E+03 0. -1.
         -6    1    1    2    0  501 -0.45244981340E+02 -0.24009347531E+02 -0.49859134960E+01  0.17953388660E+03  0.17200000000E+03 0.  1.
</event>
<event>
 4    1  0.3169553E-002  0.1932815E+03  0.7818608E-02  0.1155534E+00
         -2   -1    0    0    0  501 -0.00000000000E+00  0.00000000000E+00  0.10625506433E+02  0.10625506433E+02  0.00000000000E+00 0.  1.
          2   -1    0    0  502    0  0.00000000000E+00 -0.00000000000E+00 -0.37174284253E+04  0.37174284253E+04  0.00000000000E+00 0. -1.
          6    1    1    2  502    0 -0.36247069290E+02  0.80373487328E+02 -0.14193444713E+04  0.14324442312E+04  0.17200000000E+03 0. -1.
         -6    1    1    2    0  501  0.36247069290E+02 -0.80373487328E+02 -0.22874584476E+04  0.22956097005E+04  0.17200000000E+03 0. -1.
</event>
<event>
 4    1  0.3169553E-002  0.5810031E+03  0.7818608E-02  0.9945622E-01
          2   -1    0    0  502    0  0.00000000000E+00  0.00000000000E+00  0.26036408330E+04  0.26036408330E+04  0.00000000000E+00 0. -1.
         -2   -1    0    0    0  501 -0.00000000000E+00 -0.00000000000E+00 -0.25124807816E+03  0.25124807816E+03  0.00000000000E+00 0.  1.
          6    1    1    2  502    0 -0.49051025569E+03  0.25957713912E+03  0.21692425410E+04  0.22457020737E+04  0.17200000000E+03 0. -1.
         -6    1    1    2    0  501  0.49051025569E+03 -0.25957713912E+03  0.18315021380E+03  0.60918683744E+03  0.17200000000E+03 0.  1.
</event>
<event>
 4    1  0.3169553E-002  0.3559371E+03  0.7818608E-02  0.1060204E+00
          1   -1    0    0  502    0  0.00000000000E+00  0.00000000000E+00  0.11313696180E+04  0.11313696180E+04  0.00000000000E+00 0. -1.
         -1   -1    0    0    0  501 -0.00000000000E+00 -0.00000000000E+00 -0.21234318360E+03  0.21234318360E+03  0.00000000000E+00 0.  1.
          6    1    1    2  502    0 -0.29265449525E+03  0.10705418456E+03  0.92140856630E+03  0.98776768426E+03  0.17200000000E+03 0. -1.
         -6    1    1    2    0  501  0.29265449525E+03 -0.10705418456E+03 -0.23821318687E+01  0.35594511737E+03  0.17200000000E+03 0.  1.
</event>
<event>
 4    1  0.3169553E-002  0.2305089E+03  0.7818608E-02  0.1126282E+00
          2   -1    0    0  502    0  0.00000000000E+00  0.00000000000E+00  0.65822618901E+03  0.65822618901E+03  0.00000000000E+00 0. -1.
         -2   -1    0    0    0  501 -0.00000000000E+00 -0.00000000000E+00 -0.84887522334E+02  0.84887522334E+02  0.00000000000E+00 0.  1.
          6    1    1    2  502    0  0.14913874937E+03 -0.36166302324E+02  0.36896106732E+03  0.43504785620E+03  0.17200000000E+03 0. -1.
         -6    1    1    2    0  501 -0.14913874937E+03  0.36166302324E+02  0.20437759936E+03  0.30806585515E+03  0.17200000000E+03 0.  1.
</event>
<event>
 4    1  0.3169553E-002  0.8207910E+03  0.7818608E-02  0.9530401E-01
         -2   -1    0    0    0  501 -0.00000000000E+00  0.00000000000E+00  0.64500851332E+03  0.64500851332E+03  0.00000000000E+00 0.  1.
          2   -1    0    0  502    0  0.00000000000E+00 -0.00000000000E+00 -0.10865526023E+04  0.10865526023E+04  0.00000000000E+00 0. -1.
          6    1    1    2  502    0 -0.38986286329E+03  0.70151328331E+03 -0.39113947158E+03  0.90922385860E+03  0.17200000000E+03 0. -1.
         -6    1    1    2    0  501  0.38986286329E+03 -0.70151328331E+03 -0.50404617404E+02  0.82233725702E+03  0.17200000000E+03 0.  1.
</event>
<event>
 4    1  0.3169553E-002  0.2065406E+03  0.7818608E-02  0.1144335E+00
          1   -1    0    0  502    0  0.00000000000E+00  0.00000000000E+00  0.43596619657E+03  0.43596619657E+03  0.00000000000E+00 0. -1.
         -1   -1    0    0    0  501 -0.00000000000E+00 -0.00000000000E+00 -0.11202028683E+03  0.11202028683E+03  0.00000000000E+00 0.  1.
          6    1    1    2  502    0  0.83192814560E+02 -0.78447333890E+02  0.64521101860E+02  0.21638392078E+03  0.17200000000E+03 0. -1.
         -6    1    1    2    0  501 -0.83192814560E+02  0.78447333890E+02  0.25942480788E+03  0.33160256262E+03  0.17200000000E+03 0.  1.
</event>
<event>
 4    1  0.3169553E-002  0.1787635E+03  0.7818608E-02  0.1169005E+00
          1   -1    0    0  502    0  0.00000000000E+00  0.00000000000E+00  0.82223621003E+02  0.82223621003E+02  0.00000000000E+00 0. -1.
         -1   -1    0    0    0  501 -0.00000000000E+00 -0.00000000000E+00 -0.40936204447E+03  0.40936204447E+03  0.00000000000E+00 0.  1.
          6    1    1    2  502    0 -0.44416116659E+02 -0.19990316155E+02 -0.10828486351E+03  0.20900243019E+03  0.17200000000E+03 0. -1.
         -6    1    1    2    0  501  0.44416116659E+02  0.19990316155E+02 -0.21885355996E+03  0.28258323529E+03  0.17200000000E+03 0.  1.
</event>
<event>
 4    1  0.3169553E-002  0.1986303E+03  0.7818608E-02  0.1150900E+00
         -4   -1    0    0    0  501 -0.00000000000E+00  0.00000000000E+00  0.14780258568E+03  0.14780258568E+03  0.00000000000E+00 0.  1.
          4   -1    0    0  502    0  0.00000000000E+00 -0.00000000000E+00 -0.38760994142E+03  0.38760994142E+03  0.00000000000E+00 0. -1.
          6    1    1    2  502    0  0.61744426015E+01 -0.99155787834E+02 -0.26927452478E+03  0.33460837362E+03  0.17200000000E+03 0. -1.
         -6    1    1    2    0  501 -0.61744426015E+01  0.99155787834E+02  0.29467169049E+02  0.20080415348E+03  0.17200000000E+03 0.  1.
</event>
<event>
 4    1  0.3169553E-002  0.2224531E+03  0.7818608E-02  0.1132067E+00
          2   -1    0    0  502    0  0.00000000000E+00  0.00000000000E+00  0.13362327436E+04  0.13362327436E+04  0.00000000000E+00 0. -1.
         -2   -1    0    0    0  501 -0.00000000000E+00 -0.00000000000E+00 -0.37134560072E+02  0.37134560072E+02  0.00000000000E+00 0.  1.
          6    1    1    2  502    0  0.35895413357E+02 -0.13642915259E+03  0.61372899868E+03  0.65280064200E+03  0.17200000000E+03 0. -1.
         -6    1    1    2    0  501 -0.35895413357E+02  0.13642915259E+03  0.68536918488E+03  0.72056666171E+03  0.17200000000E+03 0.  1.
</event>
<event>
 4    1  0.3169553E-002  0.1733823E+03  0.7818608E-02  0.1174366E+00
          2   -1    0    0  502    0  0.00000000000E+00  0.00000000000E+00  0.47140163403E+03  0.47140163403E+03  0.00000000000E+00 0. -1.
         -2   -1    0    0    0  501 -0.00000000000E+00 -0.00000000000E+00 -0.66539133042E+02  0.66539133042E+02  0.00000000000E+00 0.  1.
          6    1    1    2  502    0 -0.20552744835E+02  0.74160079312E+01  0.25729887139E+03  0.31026459951E+03  0.17200000000E+03 0. -1.
         -6    1    1    2    0  501  0.20552744835E+02 -0.74160079312E+01  0.14756362960E+03  0.22767616756E+03  0.17200000000E+03 0.  1.
</event>
<event>
 4    1  0.3169553E-002  0.3286618E+03  0.7818608E-02  0.1071731E+00
         -1   -1    0    0    0  501 -0.00000000000E+00  0.00000000000E+00  0.18642969206E+03  0.18642969206E+03  0.00000000000E+00 0.  1.
          1   -1    0    0  502    0  0.00000000000E+00 -0.00000000000E+00 -0.79529269054E+03  0.79529269054E+03  0.00000000000E+00 0. -1.
          6    1    1    2  502    0 -0.20613051704E+03 -0.18959104293E+03 -0.56017685186E+03  0.64947414034E+03  0.17200000000E+03 0. -1.
         -6    1    1    2    0  501  0.20613051704E+03  0.18959104293E+03 -0.48686146624E+02  0.33224824226E+03  0.17200000000E+03 0.  1.
</event>
<event>
 4    1  0.3169553E-002  0.2055172E+03  0.7818608E-02  0.1145166E+00
         -1   -1    0    0    0  501 -0.00000000000E+00  0.00000000000E+00  0.31985325751E+02  0.31985325751E+02  0.00000000000E+00 0.  1.
          1   -1    0    0  502    0  0.00000000000E+00 -0.00000000000E+00 -0.13336604551E+04  0.13336604551E+04  0.00000000000E+00 0. -1.
          6    1    1    2  502    0  0.32567768486E+02  0.10766912140E+03 -0.58306224414E+03  0.61822235465E+03  0.17200000000E+03 0.  1.
         -6    1    1    2    0  501 -0.32567768486E+02 -0.10766912140E+03 -0.71861288525E+03  0.74742342624E+03  0.17200000000E+03 0. -1.
</event>
<event>
 4    1  0.3169553E-002  0.1890510E+03  0.7818608E-02  0.1159320E+00
         -1   -1    0    0    0  501 -0.00000000000E+00  0.00000000000E+00  0.84964456118E+02  0.84964456118E+02  0.00000000000E+00 0.  1.
          1   -1    0    0  502    0  0.00000000000E+00 -0.00000000000E+00 -0.42450559040E+03  0.42450559040E+03  0.00000000000E+00 0. -1.
          6    1    1    2  502    0  0.55844487943E+02  0.55114938962E+02 -0.19404872254E+03  0.27091542970E+03  0.17200000000E+03 0. -1.
         -6    1    1    2    0  501 -0.55844487943E+02 -0.55114938962E+02 -0.14549241174E+03  0.23855461682E+03  0.17200000000E+03 0.  1.
</event>
<event>
 4    1  0.3169553E-002  0.2635130E+03  0.7818608E-02  0.1105051E+00
         -1   -1    0    0    0  501 -0.00000000000E+00  0.00000000000E+00  0.20368506185E+03  0.20368506185E+03  0.00000000000E+00 0.  1.
          1   -1    0    0  502    0  0.00000000000E+00 -0.00000000000E+00 -0.34770709058E+03  0.34770709058E+03  0.00000000000E+00 0. -1.
          6    1    1    2  502    0 -0.91730789842E+01 -0.19942654103E+03 -0.11054618476E+03  0.28576135080E+03  0.17200000000E+03 0. -1.
         -6    1    1    2    0  501  0.91730789842E+01  0.19942654103E+03 -0.33475843970E+02  0.26563080163E+03  0.17200000000E+03 0.  1.
</event>
<event>
 4    1  0.3169553E-002  0.2192175E+03  0.7818608E-02  0.1134468E+00
         -1   -1    0    0    0  501 -0.00000000000E+00  0.00000000000E+00  0.52442068541E+03  0.52442068541E+03  0.00000000000E+00 0.  1.
          1   -1    0    0  502    0  0.00000000000E+00 -0.00000000000E+00 -0.14438350587E+03  0.14438350587E+03  0.00000000000E+00 0. -1.
          6    1    1    2  502    0  0.13570265042E+03  0.75578454217E+01  0.39213757514E+03  0.44925294456E+03  0.17200000000E+03 0.  1.
         -6    1    1    2    0  501 -0.13570265042E+03 -0.75578454217E+01 -0.12100395603E+02  0.21955124671E+03  0.17200000000E+03 0. -1.
</event>
<event>
 4    1  0.3169553E-002  0.2343165E+03  0.7818608E-02  0.1123638E+00
         -2   -1    0    0    0  501 -0.00000000000E+00  0.00000000000E+00  0.14063471626E+03  0.14063471626E+03  0.00000000000E+00 0.  1.
          2   -1    0    0  502    0  0.00000000000E+00 -0.00000000000E+00 -0.50459032579E+03  0.50459032579E+03  0.00000000000E+00 0. -1.
          6    1    1    2  502    0  0.10905265359E+03 -0.11587809083E+03 -0.33544683058E+03  0.40918063167E+03  0.17200000000E+03 0. -1.
         -6    1    1    2    0  501 -0.10905265359E+03  0.11587809083E+03 -0.28508778949E+02  0.23604441037E+03  0.17200000000E+03 0.  1.
</event>
<event>
 4    1  0.3169553E-002  0.4015268E+03  0.7818608E-02  0.1043252E+00
         -2   -1    0    0    0  501 -0.00000000000E+00  0.00000000000E+00  0.47407690744E+03  0.47407690744E+03  0.00000000000E+00 0.  1.
          2   -1    0    0  502    0  0.00000000000E+00 -0.00000000000E+00 -0.75321851818E+03  0.75321851818E+03  0.00000000000E+00 0. -1.
          6    1    1    2  502    0 -0.19460935915E+03 -0.30621388311E+03 -0.59404249493E+03  0.71701480505E+03  0.17200000000E+03 0. -1.
         -6    1    1    2    0  501  0.19460935915E+03  0.30621388311E+03  0.31490088418E+03  0.51028062057E+03  0.17200000000E+03 0.  1.
</event>
<event>
 4    1  0.3169553E-002  0.2887894E+03  0.7818608E-02  0.1090983E+00
          2   -1    0    0  502    0  0.00000000000E+00  0.00000000000E+00  0.30072013017E+03  0.30072013017E+03  0.00000000000E+00 0. -1.
         -2   -1    0    0    0  501 -0.00000000000E+00 -0.00000000000E+00 -0.28257257061E+03  0.28257257061E+03  0.00000000000E+00 0.  1.
          6    1    1    2  502    0 -0.88240529597E+02  0.21454348005E+03 -0.30643864816E+02  0.29041064434E+03  0.17200000000E+03 0. -1.
         -6    1    1    2    0  501  0.88240529597E+02 -0.21454348005E+03  0.48791424372E+02  0.29288205644E+03  0.17200000000E+03 0.  1.
</event>
<event>
 4    1  0.3169553E-002  0.2618523E+03  0.7818608E-02  0.1106035E+00
          2   -1    0    0  502    0  0.00000000000E+00  0.00000000000E+00  0.82695508738E+02  0.82695508738E+02  0.00000000000E+00 0. -1.
         -2   -1    0    0    0  501 -0.00000000000E+00 -0.00000000000E+00 -0.92853144104E+03  0.92853144104E+03  0.00000000000E+00 0.  1.
          6    1    1    2  502    0  0.85372458211E+02  0.17802856338E+03 -0.58833581125E+03  0.64397643808E+03  0.17200000000E+03 0. -1.
         -6    1    1    2    0  501 -0.85372458211E+02 -0.17802856338E+03 -0.25750012105E+03  0.36725051170E+03  0.17200000000E+03 0.  1.
</event>
<event>
 4    1  0.3169553E-002  0.1742584E+03  0.7818608E-02  0.1173478E+00
          2   -1    0    0  502    0  0.00000000000E+00  0.00000000000E+00  0.21031458809E+04  0.21031458809E+04  0.00000000000E+00 0. -1.
         -2   -1    0    0    0  501 -0.00000000000E+00 -0.00000000000E+00 -0.17569848228E+02  0.17569848228E+02  0.00000000000E+00 0.  1.
          6    1    1    2  502    0  0.27660700622E+02  0.41072250179E+01  0.14904432239E+04  0.15005955443E+04  0.17200000000E+03 0. -1.
         -6    1    1    2    0  501 -0.27660700622E+02 -0.41072250179E+01  0.59513280875E+03  0.62012018489E+03  0.17200000000E+03 0.  1.
</event>
<event>
 4    1  0.3169553E-002  0.2626642E+03  0.7818608E-02  0.1105553E+00
         -2   -1    0    0    0  501 -0.00000000000E+00  0.00000000000E+00  0.26606601616E+03  0.26606601616E+03  0.00000000000E+00 0.  1.
          2   -1    0    0  502    0  0.00000000000E+00 -0.00000000000E+00 -0.85056602785E+03  0.85056602785E+03  0.00000000000E+00 0. -1.
          6    1    1    2  502    0 -0.16849494623E+02 -0.19779931540E+03 -0.75774540110E+03  0.80197915654E+03  0.17200000000E+03 0. -1.
         -6    1    1    2    0  501  0.16849494623E+02  0.19779931540E+03  0.17324538941E+03  0.31465288747E+03  0.17200000000E+03 0.  1.
</event>
<event>
 4    1  0.3169553E-002  0.2213802E+03  0.7818608E-02  0.1132858E+00
          1   -1    0    0  502    0  0.00000000000E+00  0.00000000000E+00  0.16473549063E+03  0.16473549063E+03  0.00000000000E+00 0. -1.
         -1   -1    0    0    0  501 -0.00000000000E+00 -0.00000000000E+00 -0.55739513524E+03  0.55739513524E+03  0.00000000000E+00 0.  1.
          6    1    1    2  502    0 -0.13414163956E+03  0.37831291983E+02  0.50218096631E+02  0.22700450072E+03  0.17200000000E+03 0. -1.
         -6    1    1    2    0  501  0.13414163956E+03 -0.37831291983E+02 -0.44287774124E+03  0.49512612515E+03  0.17200000000E+03 0.  1.
</event>
<event>
 4    1  0.3169553E-002  0.2212222E+03  0.7818608E-02  0.1132975E+00
          2   -1    0    0  502    0  0.00000000000E+00  0.00000000000E+00  0.26743397383E+03  0.26743397383E+03  0.00000000000E+00 0. -1.
         -2   -1    0    0    0  501 -0.00000000000E+00 -0.00000000000E+00 -0.19186402788E+03  0.19186402788E+03  0.00000000000E+00 0.  1.
          6    1    1    2  502    0 -0.52751455232E+02 -0.12873441163E+03  0.87157900500E+02  0.23777250553E+03  0.17200000000E+03 0.  1.
         -6    1    1    2    0  501  0.52751455232E+02  0.12873441163E+03 -0.11587954552E+02  0.22152549618E+03  0.17200000000E+03 0.  1.
</event>
<event>
 4    1  0.3169553E-002  0.3082335E+03  0.7818608E-02  0.1081196E+00
          2   -1    0    0  502    0  0.00000000000E+00  0.00000000000E+00  0.19134184592E+04  0.19134184592E+04  0.00000000000E+00 0. -1.
         -2   -1    0    0    0  501 -0.00000000000E+00 -0.00000000000E+00 -0.68529478786E+02  0.68529478786E+02  0.00000000000E+00 0.  1.
          6    1    1    2  502    0 -0.93287810483E+02 -0.23816227455E+03  0.40235448704E+03  0.50685009406E+03  0.17200000000E+03 0. -1.
         -6    1    1    2    0  501  0.93287810483E+02  0.23816227455E+03  0.14425344934E+04  0.14750978440E+04  0.17200000000E+03 0.  1.
</event>
<event>
 4    1  0.3169553E-002  0.2503285E+03  0.7818608E-02  0.1113097E+00
          2   -1    0    0  502    0  0.00000000000E+00  0.00000000000E+00  0.33252953962E+03  0.33252953962E+03  0.00000000000E+00 0. -1.
         -2   -1    0    0    0  501 -0.00000000000E+00 -0.00000000000E+00 -0.19805110862E+03  0.19805110862E+03  0.00000000000E+00 0.  1.
          6    1    1    2  502    0 -0.55709729485E+02  0.17313803328E+03  0.88206976375E+01  0.25048384625E+03  0.17200000000E+03 0. -1.
         -6    1    1    2    0  501  0.55709729485E+02 -0.17313803328E+03  0.12565773336E+03  0.28009680198E+03  0.17200000000E+03 0.  1.
</event>
<event>
 4    1  0.3169553E-002  0.2237040E+03  0.7818608E-02  0.1131151E+00
          2   -1    0    0  502    0  0.00000000000E+00  0.00000000000E+00  0.11128979514E+04  0.11128979514E+04  0.00000000000E+00 0. -1.
         -2   -1    0    0    0  501 -0.00000000000E+00 -0.00000000000E+00 -0.79535764599E+02  0.79535764599E+02  0.00000000000E+00 0.  1.
          6    1    1    2  502    0  0.13278894540E+03  0.53165718432E+02  0.90974755798E+03  0.93684796893E+03  0.17200000000E+03 0. -1.
         -6    1    1    2    0  501 -0.13278894540E+03 -0.53165718432E+02  0.12361462879E+03  0.25558574703E+03  0.17200000000E+03 0.  1.
</event>
<event>
 4    1  0.3169553E-002  0.2268657E+03  0.7818608E-02  0.1128865E+00
         -4   -1    0    0    0  501 -0.00000000000E+00  0.00000000000E+00  0.45161547688E+02  0.45161547688E+02  0.00000000000E+00 0.  1.
          4   -1    0    0  502    0  0.00000000000E+00 -0.00000000000E+00 -0.11447968827E+04  0.11447968827E+04  0.00000000000E+00 0. -1.
          6    1    1    2  502    0 -0.51119663125E+02  0.13881944491E+03 -0.58973756305E+03  0.63186901452E+03  0.17200000000E+03 0. -1.
         -6    1    1    2    0  501  0.51119663125E+02 -0.13881944491E+03 -0.50989777192E+03  0.55808941582E+03  0.17200000000E+03 0.  1.
</event>
<event>
 4    1  0.3169553E-002  0.2165047E+03  0.7818608E-02  0.1136516E+00
          3   -1    0    0  502    0  0.00000000000E+00  0.00000000000E+00  0.10561607161E+03  0.10561607161E+03  0.00000000000E+00 0. -1.
         -3   -1    0    0    0  501 -0.00000000000E+00 -0.00000000000E+00 -0.60232009726E+03  0.60232009726E+03  0.00000000000E+00 0.  1.
          6    1    1    2  502    0  0.12900615346E+03  0.25449782665E+02 -0.66771857257E+02  0.22656734096E+03  0.17200000000E+03 0. -1.
         -6    1    1    2    0  501 -0.12900615346E+03 -0.25449782665E+02 -0.42993216839E+03  0.48136882792E+03  0.17200000000E+03 0.  1.
</event>
<event>
 4    1  0.3169553E-002  0.2009763E+03  0.7818608E-02  0.1148918E+00
         -1   -1    0    0    0  501 -0.00000000000E+00  0.00000000000E+00  0.30695647695E+03  0.30695647695E+03  0.00000000000E+00 0.  1.
          1   -1    0    0  502    0  0.00000000000E+00 -0.00000000000E+00 -0.41689364957E+03  0.41689364957E+03  0.00000000000E+00 0. -1.
          6    1    1    2  502    0  0.62610852453E+02  0.82990035611E+02 -0.35437562673E+03  0.40739851458E+03  0.17200000000E+03 0. -1.
         -6    1    1    2    0  501 -0.62610852453E+02 -0.82990035611E+02  0.24443845411E+03  0.31645161195E+03  0.17200000000E+03 0.  1.
</event>
<event>
 4    1  0.3169553E-002  0.2246707E+03  0.7818608E-02  0.1130448E+00
         -2   -1    0    0    0  501 -0.00000000000E+00  0.00000000000E+00  0.26981318510E+02  0.26981318510E+02  0.00000000000E+00 0.  1.
          2   -1    0    0  502    0  0.00000000000E+00 -0.00000000000E+00 -0.18977225114E+04  0.18977225114E+04  0.00000000000E+00 0. -1.
          6    1    1    2  502    0  0.79935544765E+02 -0.12042930607E+03 -0.82076704288E+03  0.85096148430E+03  0.17200000000E+03 0. -1.
         -6    1    1    2    0  501 -0.79935544765E+02  0.12042930607E+03 -0.10499741500E+04  0.10737423456E+04  0.17200000000E+03 0.  1.
</event>
<event>
 4    1  0.3169553E-002  0.1784956E+03  0.7818608E-02  0.1169267E+00
          2   -1    0    0  502    0  0.00000000000E+00  0.00000000000E+00  0.14936364697E+04  0.14936364697E+04  0.00000000000E+00 0. -1.
         -2   -1    0    0    0  501 -0.00000000000E+00 -0.00000000000E+00 -0.21332483352E+02  0.21332483352E+02  0.00000000000E+00 0.  1.
          6    1    1    2  502    0 -0.46761017140E+02 -0.94922114348E+01  0.72974390122E+03  0.75125685099E+03  0.17200000000E+03 0. -1.
         -6    1    1    2    0  501  0.46761017140E+02  0.94922114348E+01  0.74256008517E+03  0.76371210210E+03  0.17200000000E+03 0. -1.
</event>
<event>
 4    1  0.3169553E-002  0.1889495E+03  0.7818608E-02  0.1159412E+00
         -2   -1    0    0    0  501 -0.00000000000E+00  0.00000000000E+00  0.12399900248E+03  0.12399900248E+03  0.00000000000E+00 0.  1.
          2   -1    0    0  502    0  0.00000000000E+00 -0.00000000000E+00 -0.29459588649E+03  0.29459588649E+03  0.00000000000E+00 0. -1.
          6    1    1    2  502    0  0.77759867424E+02  0.84453215659E+01 -0.53794015914E+02  0.19645792574E+03  0.17200000000E+03 0. -1.
         -6    1    1    2    0  501 -0.77759867424E+02 -0.84453215659E+01 -0.11680286809E+03  0.22213696323E+03  0.17200000000E+03 0. -1.
</event>
<event>
 4    1  0.3169553E-002  0.3695575E+03  0.7818608E-02  0.1054862E+00
         -2   -1    0    0    0  501 -0.00000000000E+00  0.00000000000E+00  0.73244314567E+02  0.73244314567E+02  0.00000000000E+00 0.  1.
          2   -1    0    0  502    0  0.00000000000E+00 -0.00000000000E+00 -0.20097040779E+04  0.20097040779E+04  0.00000000000E+00 0. -1.
          6    1    1    2  502    0 -0.28322651143E+03  0.16361998659E+03 -0.68840037949E+03  0.78132441359E+03  0.17200000000E+03 0.  1.
         -6    1    1    2    0  501  0.28322651143E+03 -0.16361998659E+03 -0.12480593838E+04  0.13016239789E+04  0.17200000000E+03 0.  1.
</event>
<event>
 4    1  0.3169553E-002  0.4021811E+03  0.7818608E-02  0.1043027E+00
         -4   -1    0    0    0  501 -0.00000000000E+00  0.00000000000E+00  0.26525390383E+03  0.26525390383E+03  0.00000000000E+00 0.  1.
          4   -1    0    0  502    0  0.00000000000E+00 -0.00000000000E+00 -0.71798649678E+03  0.71798649678E+03  0.00000000000E+00 0. -1.
          6    1    1    2  502    0 -0.35699332861E+03 -0.68712707320E+02 -0.41720850639E+03  0.57949340861E+03  0.17200000000E+03 0. -1.
         -6    1    1    2    0  501  0.35699332861E+03  0.68712707320E+02 -0.35524086557E+02  0.40374699199E+03  0.17200000000E+03 0.  1.
</event>
<event>
 4    1  0.3169553E-002  0.3228230E+03  0.7818608E-02  0.1074357E+00
         -1   -1    0    0    0  501 -0.00000000000E+00  0.00000000000E+00  0.13409845040E+03  0.13409845040E+03  0.00000000000E+00 0.  1.
          1   -1    0    0  502    0  0.00000000000E+00 -0.00000000000E+00 -0.10762130849E+04  0.10762130849E+04  0.00000000000E+00 0. -1.
          6    1    1    2  502    0 -0.22501441485E+03 -0.15491674079E+03 -0.15205116896E+03  0.35683923754E+03  0.17200000000E+03 0. -1.
         -6    1    1    2    0  501  0.22501441485E+03  0.15491674079E+03 -0.79006346557E+03  0.85347229779E+03  0.17200000000E+03 0.  1.
</event>
<event>
 4    1  0.3169553E-002  0.1979009E+03  0.7818608E-02  0.1151522E+00
          1   -1    0    0  502    0  0.00000000000E+00  0.00000000000E+00  0.26773894913E+03  0.26773894913E+03  0.00000000000E+00 0. -1.
         -1   -1    0    0    0  501 -0.00000000000E+00 -0.00000000000E+00 -0.15303140252E+03  0.15303140252E+03  0.00000000000E+00 0.  1.
          6    1    1    2  502    0  0.89743956603E+02 -0.39074052025E+02  0.13162840268E+02  0.19833814472E+03  0.17200000000E+03 0. -1.
         -6    1    1    2    0  501 -0.89743956603E+02  0.39074052025E+02  0.10154470634E+03  0.22243220692E+03  0.17200000000E+03 0.  1.
</event>
<event>
 4    1  0.3169553E-002  0.1844281E+03  0.7818608E-02  0.1163585E+00
          2   -1    0    0  502    0  0.00000000000E+00  0.00000000000E+00  0.28777539328E+04  0.28777539328E+04  0.00000000000E+00 0. -1.
         -2   -1    0    0    0  501 -0.00000000000E+00 -0.00000000000E+00 -0.21440605625E+02  0.21440605625E+02  0.00000000000E+00 0.  1.
          6    1    1    2  502    0 -0.65115846133E+02  0.13770805030E+02  0.23992043933E+04  0.24062824916E+04  0.17200000000E+03 0. -1.
         -6    1    1    2    0  501  0.65115846133E+02 -0.13770805030E+02  0.45710893387E+03  0.49291204683E+03  0.17200000000E+03 0.  1.
</event>
<event>
 4    1  0.3169553E-002  0.3577436E+03  0.7818608E-02  0.1059481E+00
          2   -1    0    0  502    0  0.00000000000E+00  0.00000000000E+00  0.83500232816E+03  0.83500232816E+03  0.00000000000E+00 0. -1.
         -2   -1    0    0    0  501 -0.00000000000E+00 -0.00000000000E+00 -0.16117216953E+03  0.16117216953E+03  0.00000000000E+00 0.  1.
          6    1    1    2  502    0  0.28435174188E+03  0.13244078783E+03  0.44720719726E+03  0.57269080023E+03  0.17200000000E+03 0. -1.
         -6    1    1    2    0  501 -0.28435174188E+03 -0.13244078783E+03  0.22662296137E+03  0.42348369746E+03  0.17200000000E+03 0.  1.
</event>
<event>
 4    1  0.3169553E-002  0.2917560E+03  0.7818608E-02  0.1089436E+00
         -1   -1    0    0    0  501 -0.00000000000E+00  0.00000000000E+00  0.10775336554E+03  0.10775336554E+03  0.00000000000E+00 0.  1.
          1   -1    0    0  502    0  0.00000000000E+00 -0.00000000000E+00 -0.18732697733E+04  0.18732697733E+04  0.00000000000E+00 0. -1.
          6    1    1    2  502    0  0.52531122238E+02  0.22973471105E+03 -0.16359999892E+04  0.16618115179E+04  0.17200000000E+03 0. -1.
         -6    1    1    2    0  501 -0.52531122238E+02 -0.22973471105E+03 -0.12951641853E+03  0.31921162093E+03  0.17200000000E+03 0.  1.
</event>
<event>
 4    1  0.3169553E-002  0.2224312E+03  0.7818608E-02  0.1132083E+00
         -2   -1    0    0    0  501 -0.00000000000E+00  0.00000000000E+00  0.98470527626E+02  0.98470527626E+02  0.00000000000E+00 0.  1.
          2   -1    0    0  502    0  0.00000000000E+00 -0.00000000000E+00 -0.80376816105E+03  0.80376816105E+03  0.00000000000E+00 0. -1.
          6    1    1    2  502    0 -0.12914518224E+03 -0.56684557116E+02 -0.76435070634E+02  0.23519765546E+03  0.17200000000E+03 0.  1.
         -6    1    1    2    0  501  0.12914518224E+03  0.56684557116E+02 -0.62886256279E+03  0.66704103321E+03  0.17200000000E+03 0. -1.
</event>
<event>
 4    1  0.3169553E-002  0.3308823E+03  0.7818608E-02  0.1070747E+00
          2   -1    0    0  502    0  0.00000000000E+00  0.00000000000E+00  0.12977177853E+04  0.12977177853E+04  0.00000000000E+00 0. -1.
         -2   -1    0    0    0  501 -0.00000000000E+00 -0.00000000000E+00 -0.13106381743E+03  0.13106381743E+03  0.00000000000E+00 0.  1.
          6    1    1    2  502    0 -0.24792502060E+03  0.13576550694E+03  0.10097526610E+04  0.10625834203E+04  0.17200000000E+03 0. -1.
         -6    1    1    2    0  501  0.24792502060E+03 -0.13576550694E+03  0.15690130689E+03  0.36619818244E+03  0.17200000000E+03 0.  1.
</event>
<event>
 4    1  0.3169553E-002  0.2457504E+03  0.7818608E-02  0.1116020E+00
         -2   -1    0    0    0  501 -0.00000000000E+00  0.00000000000E+00  0.14032776402E+03  0.14032776402E+03  0.00000000000E+00 0.  1.
          2   -1    0    0  502    0  0.00000000000E+00 -0.00000000000E+00 -0.43079072438E+03  0.43079072438E+03  0.00000000000E+00 0. -1.
          6    1    1    2  502    0  0.55471722798E+02 -0.16652966900E+03 -0.13633641692E+03  0.28103533811E+03  0.17200000000E+03 0.  1.
         -6    1    1    2    0  501 -0.55471722798E+02  0.16652966900E+03 -0.15412654343E+03  0.29008315028E+03  0.17200000000E+03 0.  1.
</event>
<event>
 4    1  0.3169553E-002  0.1723570E+03  0.7818608E-02  0.1175412E+00
          2   -1    0    0  502    0  0.00000000000E+00  0.00000000000E+00  0.82040203360E+03  0.82040203360E+03  0.00000000000E+00 0. -1.
         -2   -1    0    0    0  501 -0.00000000000E+00 -0.00000000000E+00 -0.46655333466E+02  0.46655333466E+02  0.00000000000E+00 0.  1.
          6    1    1    2  502    0 -0.10516329847E+02  0.35110492868E+01  0.59200100337E+03  0.61658098305E+03  0.17200000000E+03 0. -1.
         -6    1    1    2    0  501  0.10516329847E+02 -0.35110492868E+01  0.18174569677E+03  0.25047638402E+03  0.17200000000E+03 0.  1.
</event>
<event>
 4    1  0.3169553E-002  0.1803349E+03  0.7818608E-02  0.1167479E+00
         -1   -1    0    0    0  501 -0.00000000000E+00  0.00000000000E+00  0.83742689505E+02  0.83742689505E+02  0.00000000000E+00 0.  1.
          1   -1    0    0  502    0  0.00000000000E+00 -0.00000000000E+00 -0.11513898279E+04  0.11513898279E+04  0.00000000000E+00 0. -1.
          6    1    1    2  502    0  0.17279846769E+02 -0.51362144485E+02 -0.10365696845E+04  0.10521394270E+04  0.17200000000E+03 0. -1.
         -6    1    1    2    0  501 -0.17279846769E+02  0.51362144485E+02 -0.31077453859E+02  0.18299309039E+03  0.17200000000E+03 0.  1.
</event>
<event>
 4    1  0.3169553E-002  0.1983099E+03  0.7818608E-02  0.1151173E+00
         -1   -1    0    0    0  501 -0.00000000000E+00  0.00000000000E+00  0.85550794113E+02  0.85550794113E+02  0.00000000000E+00 0.  1.
          1   -1    0    0  502    0  0.00000000000E+00 -0.00000000000E+00 -0.62547052302E+03  0.62547052302E+03  0.00000000000E+00 0. -1.
          6    1    1    2  502    0  0.78082625136E+02 -0.60381385828E+02 -0.45298743411E+03  0.49449410872E+03  0.17200000000E+03 0. -1.
         -6    1    1    2    0  501 -0.78082625136E+02  0.60381385828E+02 -0.86932294800E+02  0.21652720841E+03  0.17200000000E+03 0.  1.
</event>
<event>
 4    1  0.3169553E-002  0.4276143E+03  0.7818608E-02  0.1034616E+00
          2   -1    0    0  502    0  0.00000000000E+00  0.00000000000E+00  0.21241648753E+04  0.21241648753E+04  0.00000000000E+00 0. -1.
         -2   -1    0    0    0  501 -0.00000000000E+00 -0.00000000000E+00 -0.86411201492E+02  0.86411201492E+02  0.00000000000E+00 0.  1.
          6    1    1    2  502    0  0.35831439549E+03  0.15773649481E+03  0.95073571261E+03  0.10424741738E+04  0.17200000000E+03 0. -1.
         -6    1    1    2    0  501 -0.35831439549E+03 -0.15773649481E+03  0.10870179612E+04  0.11681019030E+04  0.17200000000E+03 0.  1.
</event>
<event>
 4    1  0.3169553E-002  0.1066714E+04  0.7818608E-02  0.9238256E-01
          2   -1    0    0  502    0  0.00000000000E+00  0.00000000000E+00  0.12172244237E+04  0.12172244237E+04  0.00000000000E+00 0. -1.
         -2   -1    0    0    0  501 -0.00000000000E+00 -0.00000000000E+00 -0.19249884255E+04  0.19249884255E+04  0.00000000000E+00 0.  1.
          6    1    1    2  502    0 -0.19609343426E+03 -0.10343321100E+04  0.77291892379E+03  0.13173014884E+04  0.17200000000E+03 0. -1.
         -6    1    1    2    0  501  0.19609343426E+03  0.10343321100E+04 -0.14806829255E+04  0.18249113608E+04  0.17200000000E+03 0.  1.
</event>
<event>
 4    1  0.3169553E-002  0.5467930E+03  0.7818608E-02  0.1002239E+00
          2   -1    0    0  502    0  0.00000000000E+00  0.00000000000E+00  0.25576834086E+04  0.25576834086E+04  0.00000000000E+00 0. -1.
         -2   -1    0    0    0  501 -0.00000000000E+00 -0.00000000000E+00 -0.15547551565E+03  0.15547551565E+03  0.00000000000E+00 0.  1.
          6    1    1    2  502    0 -0.96176949982E+02  0.51004761048E+03  0.18768654953E+04  0.19548930043E+04  0.17200000000E+03 0. -1.
         -6    1    1    2    0  501  0.96176949982E+02 -0.51004761048E+03  0.52534239767E+03  0.75826592001E+03  0.17200000000E+03 0.  1.
</event>
<event>
 4    1  0.3169553E-002  0.2333589E+03  0.7818608E-02  0.1124298E+00
          2   -1    0    0  502    0  0.00000000000E+00  0.00000000000E+00  0.19855691130E+04  0.19855691130E+04  0.00000000000E+00 0. -1.
         -2   -1    0    0    0  501 -0.00000000000E+00 -0.00000000000E+00 -0.27466461526E+02  0.27466461526E+02  0.00000000000E+00 0.  1.
          6    1    1    2  502    0  0.70146644560E+02  0.14125089365E+03  0.10176471454E+04  0.10440603810E+04  0.17200000000E+03 0. -1.
         -6    1    1    2    0  501 -0.70146644560E+02 -0.14125089365E+03  0.94045550605E+03  0.96897519347E+03  0.17200000000E+03 0.  1.
</event>
<event>
 4    1  0.3169553E-002  0.1897818E+03  0.7818608E-02  0.1158658E+00
         -1   -1    0    0    0  501 -0.00000000000E+00  0.00000000000E+00  0.51155051412E+03  0.51155051412E+03  0.00000000000E+00 0.  1.
          1   -1    0    0  502    0  0.00000000000E+00 -0.00000000000E+00 -0.73903907461E+02  0.73903907461E+02  0.00000000000E+00 0. -1.
          6    1    1    2  502    0 -0.66201934477E+02 -0.45281670212E+02  0.28249175228E+03  0.34032148903E+03  0.17200000000E+03 0.  1.
         -6    1    1    2    0  501  0.66201934477E+02  0.45281670212E+02  0.15515485438E+03  0.24513293255E+03  0.17200000000E+03 0. -1.
</event>
<event>
 4    1  0.3169553E-002  0.3957490E+03  0.7818608E-02  0.1045262E+00
          2   -1    0    0  502    0  0.00000000000E+00  0.00000000000E+00  0.48264702926E+03  0.48264702926E+03  0.00000000000E+00 0. -1.
         -2   -1    0    0    0  501 -0.00000000000E+00 -0.00000000000E+00 -0.39962313894E+03  0.39962313894E+03  0.00000000000E+00 0.  1.
          6    1    1    2  502    0  0.22934263064E+03 -0.27282821863E+03  0.23278034361E+03  0.45913393197E+03  0.17200000000E+03 0. -1.
         -6    1    1    2    0  501 -0.22934263064E+03  0.27282821863E+03 -0.14975645329E+03  0.42313623623E+03  0.17200000000E+03 0.  1.
</event>
<event>
 4    1  0.3169553E-002  0.2108885E+03  0.7818608E-02  0.1140864E+00
         -1   -1    0    0    0  501 -0.00000000000E+00  0.00000000000E+00  0.74722451932E+03  0.74722451932E+03  0.00000000000E+00 0.  1.
          1   -1    0    0  502    0  0.00000000000E+00 -0.00000000000E+00 -0.81050734473E+02  0.81050734473E+02  0.00000000000E+00 0. -1.
          6    1    1    2  502    0  0.12041872848E+03  0.19730375072E+02  0.11963154081E+03  0.24245754974E+03  0.17200000000E+03 0. -1.
         -6    1    1    2    0  501 -0.12041872848E+03 -0.19730375072E+02  0.54654224404E+03  0.58581770406E+03  0.17200000000E+03 0.  1.
</event>
<event>
 4    1  0.3169553E-002  0.2649476E+03  0.7818608E-02  0.1104207E+00
          2   -1    0    0  502    0  0.00000000000E+00  0.00000000000E+00  0.67136188475E+03  0.67136188475E+03  0.00000000000E+00 0. -1.
         -2   -1    0    0    0  501 -0.00000000000E+00 -0.00000000000E+00 -0.20471831946E+03  0.20471831946E+03  0.00000000000E+00 0.  1.
          6    1    1    2  502    0 -0.91210916802E+02  0.17970471689E+03  0.53971578933E+03  0.60124067550E+03  0.17200000000E+03 0. -1.
         -6    1    1    2    0  501  0.91210916802E+02 -0.17970471689E+03 -0.73072224043E+02  0.27483952871E+03  0.17200000000E+03 0.  1.
</event>
<event>
 4    1  0.3169553E-002  0.2396987E+03  0.7818608E-02  0.1119994E+00
          1   -1    0    0  502    0  0.00000000000E+00  0.00000000000E+00  0.12660657425E+04  0.12660657425E+04  0.00000000000E+00 0. -1.
         -1   -1    0    0    0  501 -0.00000000000E+00 -0.00000000000E+00 -0.46205336841E+02  0.46205336841E+02  0.00000000000E+00 0.  1.
          6    1    1    2  502    0 -0.69866662250E+02  0.15162494809E+03  0.69756356704E+03  0.73759772602E+03  0.17200000000E+03 0. -1.
         -6    1    1    2    0  501  0.69866662250E+02 -0.15162494809E+03  0.52229683859E+03  0.57467335329E+03  0.17200000000E+03 0.  1.
</event>
<event>
 4    1  0.3169553E-002  0.2207287E+03  0.7818608E-02  0.1133341E+00
          1   -1    0    0  502    0  0.00000000000E+00  0.00000000000E+00  0.37046407004E+03  0.37046407004E+03  0.00000000000E+00 0. -1.
         -1   -1    0    0    0  501 -0.00000000000E+00 -0.00000000000E+00 -0.25695265540E+03  0.25695265540E+03  0.00000000000E+00 0.  1.
          6    1    1    2  502    0 -0.46250028088E+02 -0.13037680364E+03  0.27594301533E+03  0.35336344425E+03  0.17200000000E+03 0. -1.
         -6    1    1    2    0  501  0.46250028088E+02  0.13037680364E+03 -0.16243160069E+03  0.27405328118E+03  0.17200000000E+03 0.  1.
</event>
<event>
 4    1  0.3169553E-002  0.1966031E+03  0.7818608E-02  0.1152637E+00
         -2   -1    0    0    0  501 -0.00000000000E+00  0.00000000000E+00  0.22705156642E+02  0.22705156642E+02  0.00000000000E+00 0.  1.
          2   -1    0    0  502    0  0.00000000000E+00 -0.00000000000E+00 -0.28715960600E+04  0.28715960600E+04  0.00000000000E+00 0. -1.
          6    1    1    2  502    0 -0.79011608774E+02  0.53159573921E+02 -0.23478663268E+04  0.23560834160E+04  0.17200000000E+03 0. -1.
         -6    1    1    2    0  501  0.79011608774E+02 -0.53159573921E+02 -0.50102457665E+03  0.53821780073E+03  0.17200000000E+03 0.  1.
</event>
<event>
 4    1  0.3169553E-002  0.1908903E+03  0.7818608E-02  0.1157661E+00
          2   -1    0    0  502    0  0.00000000000E+00  0.00000000000E+00  0.57222165637E+02  0.57222165637E+02  0.00000000000E+00 0. -1.
         -2   -1    0    0    0  501 -0.00000000000E+00 -0.00000000000E+00 -0.89778746004E+03  0.89778746004E+03  0.00000000000E+00 0.  1.
          6    1    1    2  502    0 -0.82393752205E+02  0.81465141348E+01 -0.16282813929E+03  0.25090256882E+03  0.17200000000E+03 0.  1.
         -6    1    1    2    0  501  0.82393752205E+02 -0.81465141348E+01 -0.67773715511E+03  0.70410705686E+03  0.17200000000E+03 0.  1.
</event>
<event>
 4    1  0.3169553E-002  0.2088830E+03  0.7818608E-02  0.1142454E+00
         -2   -1    0    0    0  501 -0.00000000000E+00  0.00000000000E+00  0.63408310265E+02  0.63408310265E+02  0.00000000000E+00 0.  1.
          2   -1    0    0  502    0  0.00000000000E+00 -0.00000000000E+00 -0.76363503968E+03  0.76363503968E+03  0.00000000000E+00 0. -1.
          6    1    1    2  502    0 -0.76723935613E+01  0.11827608259E+03 -0.48015773065E+03  0.52362538483E+03  0.17200000000E+03 0. -1.
         -6    1    1    2    0  501  0.76723935613E+01 -0.11827608259E+03 -0.22006899877E+03  0.30341796512E+03  0.17200000000E+03 0.  1.
</event>
<event>
 4    1  0.3169553E-002  0.2017572E+03  0.7818608E-02  0.1148265E+00
         -1   -1    0    0    0  501 -0.00000000000E+00  0.00000000000E+00  0.48641282346E+02  0.48641282346E+02  0.00000000000E+00 0.  1.
          1   -1    0    0  502    0  0.00000000000E+00 -0.00000000000E+00 -0.20714425944E+04  0.20714425944E+04  0.00000000000E+00 0. -1.
          6    1    1    2  502    0 -0.92652180357E+02  0.50374148625E+02 -0.18297646902E+04  0.18408543676E+04  0.17200000000E+03 0. -1.
         -6    1    1    2    0  501  0.92652180357E+02 -0.50374148625E+02 -0.19303662184E+03  0.27922950909E+03  0.17200000000E+03 0.  1.
</event>
<event>
 4    1  0.3169553E-002  0.2594877E+03  0.7818608E-02  0.1107451E+00
         -1   -1    0    0    0  501 -0.00000000000E+00  0.00000000000E+00  0.50599126323E+03  0.50599126323E+03  0.00000000000E+00 0.  1.
          1   -1    0    0  502    0  0.00000000000E+00 -0.00000000000E+00 -0.13434980819E+03  0.13434980819E+03  0.00000000000E+00 0. -1.
          6    1    1    2  502    0 -0.17951993287E+03 -0.74313392294E+02  0.15461112136E+03  0.30205708967E+03  0.17200000000E+03 0. -1.
         -6    1    1    2    0  501  0.17951993287E+03  0.74313392294E+02  0.21703033368E+03  0.33828398176E+03  0.17200000000E+03 0.  1.
</event>
<event>
 4    1  0.3169553E-002  0.2111259E+03  0.7818608E-02  0.1140677E+00
         -2   -1    0    0    0  501 -0.00000000000E+00  0.00000000000E+00  0.29317588155E+02  0.29317588155E+02  0.00000000000E+00 0.  1.
          2   -1    0    0  502    0  0.00000000000E+00 -0.00000000000E+00 -0.17157639664E+04  0.17157639664E+04  0.00000000000E+00 0. -1.
          6    1    1    2  502    0 -0.58970533763E+01 -0.12229219687E+03 -0.11376590694E+04  0.11570835384E+04  0.17200000000E+03 0. -1.
         -6    1    1    2    0  501  0.58970533763E+01  0.12229219687E+03 -0.54878730891E+03  0.58799801622E+03  0.17200000000E+03 0.  1.
</event>
<event>
 4    1  0.3169553E-002  0.3948125E+03  0.7818608E-02  0.1045591E+00
         -2   -1    0    0    0  501 -0.00000000000E+00  0.00000000000E+00  0.37226829720E+03  0.37226829720E+03  0.00000000000E+00 0.  1.
          2   -1    0    0  502    0  0.00000000000E+00 -0.00000000000E+00 -0.64833318085E+03  0.64833318085E+03  0.00000000000E+00 0. -1.
          6    1    1    2  502    0 -0.35060170098E+03  0.58063168437E+02 -0.44171768908E+03  0.59244527267E+03  0.17200000000E+03 0. -1.
         -6    1    1    2    0  501  0.35060170098E+03 -0.58063168437E+02  0.16565280543E+03  0.42815620538E+03  0.17200000000E+03 0.  1.
</event>
<event>
 4    1  0.3169553E-002  0.4437943E+03  0.7818608E-02  0.1029589E+00
          2   -1    0    0  502    0  0.00000000000E+00  0.00000000000E+00  0.46175996490E+03  0.46175996490E+03  0.00000000000E+00 0. -1.
         -2   -1    0    0    0  501 -0.00000000000E+00 -0.00000000000E+00 -0.64245642791E+03  0.64245642791E+03  0.00000000000E+00 0.  1.
          6    1    1    2  502    0 -0.11180581934E+03  0.39353372854E+03  0.22973118045E+03  0.49972967893E+03  0.17200000000E+03 0. -1.
         -6    1    1    2    0  501  0.11180581934E+03 -0.39353372854E+03 -0.41042764346E+03  0.60448671388E+03  0.17200000000E+03 0.  1.
</event>
<event>
 4    1  0.3169553E-002  0.1990546E+03  0.7818608E-02  0.1150539E+00
          1   -1    0    0  502    0  0.00000000000E+00  0.00000000000E+00  0.65913630839E+02  0.65913630839E+02  0.00000000000E+00 0. -1.
         -1   -1    0    0    0  501 -0.00000000000E+00 -0.00000000000E+00 -0.89343387790E+03  0.89343387790E+03  0.00000000000E+00 0.  1.
          6    1    1    2  502    0  0.66613702165E+02 -0.74842222551E+02 -0.13939360982E+03  0.24300889295E+03  0.17200000000E+03 0. -1.
         -6    1    1    2    0  501 -0.66613702165E+02  0.74842222551E+02 -0.68812663724E+03  0.71633861579E+03  0.17200000000E+03 0.  1.
</event>
<event>
 4    1  0.3169553E-002  0.3621116E+03  0.7818608E-02  0.1057751E+00
         -1   -1    0    0    0  501 -0.00000000000E+00  0.00000000000E+00  0.11499821318E+03  0.11499821318E+03  0.00000000000E+00 0.  1.
          1   -1    0    0  502    0  0.00000000000E+00 -0.00000000000E+00 -0.11404290716E+04  0.11404290716E+04  0.00000000000E+00 0. -1.
          6    1    1    2  502    0 -0.85089721485E+02 -0.30708397344E+03 -0.52093333430E+03  0.63442601320E+03  0.17200000000E+03 0. -1.
         -6    1    1    2    0  501  0.85089721485E+02  0.30708397344E+03 -0.50449752410E+03  0.62100127155E+03  0.17200000000E+03 0.  1.
</event>
<event>
 4    1  0.3169553E-002  0.2481421E+03  0.7818608E-02  0.1114485E+00
         -1   -1    0    0    0  501 -0.00000000000E+00  0.00000000000E+00  0.12362269511E+03  0.12362269511E+03  0.00000000000E+00 0.  1.
          1   -1    0    0  502    0  0.00000000000E+00 -0.00000000000E+00 -0.79302910912E+03  0.79302910912E+03  0.00000000000E+00 0. -1.
          6    1    1    2  502    0  0.29623480812E+02 -0.17638862608E+03 -0.61421514933E+03  0.66244603380E+03  0.17200000000E+03 0. -1.
         -6    1    1    2    0  501 -0.29623480812E+02  0.17638862608E+03 -0.55191264680E+02  0.25420577044E+03  0.17200000000E+03 0.  1.
</event>
<event>
 4    1  0.3169553E-002  0.2472622E+03  0.7818608E-02  0.1115047E+00
          2   -1    0    0  502    0  0.00000000000E+00  0.00000000000E+00  0.47959272404E+03  0.47959272404E+03  0.00000000000E+00 0. -1.
         -2   -1    0    0    0  501 -0.00000000000E+00 -0.00000000000E+00 -0.27422669942E+03  0.27422669942E+03  0.00000000000E+00 0.  1.
          6    1    1    2  502    0 -0.13021781494E+03 -0.12082190823E+03  0.37840171237E+03  0.45202485414E+03  0.17200000000E+03 0. -1.
         -6    1    1    2    0  501  0.13021781494E+03  0.12082190823E+03 -0.17303568775E+03  0.30179456932E+03  0.17200000000E+03 0.  1.
</event>
<event>
 4    1  0.3169553E-002  0.5010626E+03  0.7818608E-02  0.1013502E+00
          2   -1    0    0  502    0  0.00000000000E+00  0.00000000000E+00  0.17266890775E+04  0.17266890775E+04  0.00000000000E+00 0. -1.
         -2   -1    0    0    0  501 -0.00000000000E+00 -0.00000000000E+00 -0.37600040716E+03  0.37600040716E+03  0.00000000000E+00 0.  1.
          6    1    1    2  502    0 -0.41954959207E+03 -0.21320841744E+03  0.14986845628E+04  0.15802275495E+04  0.17200000000E+03 0. -1.
         -6    1    1    2    0  501  0.41954959207E+03  0.21320841744E+03 -0.14799589247E+03  0.52246193514E+03  0.17200000000E+03 0.  1.
</event>
<event>
 4    1  0.3169553E-002  0.1737982E+03  0.7818608E-02  0.1173944E+00
         -2   -1    0    0    0  501 -0.00000000000E+00  0.00000000000E+00  0.50957272425E+02  0.50957272425E+02  0.00000000000E+00 0.  1.
          2   -1    0    0  502    0  0.00000000000E+00 -0.00000000000E+00 -0.90295993897E+03  0.90295993897E+03  0.00000000000E+00 0. -1.
          6    1    1    2  502    0  0.72045355395E+01 -0.23873114949E+02 -0.70555283666E+03  0.72664340379E+03  0.17200000000E+03 0. -1.
         -6    1    1    2    0  501 -0.72045355395E+01  0.23873114949E+02 -0.14644982988E+03  0.22727380760E+03  0.17200000000E+03 0.  1.
</event>
<event>
 4    1  0.3169553E-002  0.1731844E+03  0.7818608E-02  0.1174567E+00
         -1   -1    0    0    0  501 -0.00000000000E+00  0.00000000000E+00  0.53337447283E+02  0.53337447283E+02  0.00000000000E+00 0.  1.
          1   -1    0    0  502    0  0.00000000000E+00 -0.00000000000E+00 -0.10265348832E+04  0.10265348832E+04  0.00000000000E+00 0. -1.
          6    1    1    2  502    0 -0.15998057628E+02  0.12364930434E+02 -0.84968853956E+03  0.86715825754E+03  0.17200000000E+03 0. -1.
         -6    1    1    2    0  501  0.15998057628E+02 -0.12364930434E+02 -0.12350889637E+03  0.21271407296E+03  0.17200000000E+03 0.  1.
</event>
<event>
 4    1  0.3169553E-002  0.2359253E+03  0.7818608E-02  0.1122537E+00
         -2   -1    0    0    0  501 -0.00000000000E+00  0.00000000000E+00  0.59774951497E+02  0.59774951497E+02  0.00000000000E+00 0.  1.
          2   -1    0    0  502    0  0.00000000000E+00 -0.00000000000E+00 -0.25350347186E+04  0.25350347186E+04  0.00000000000E+00 0. -1.
          6    1    1    2  502    0  0.14519042211E+03  0.70685974240E+02 -0.22696000500E+04  0.22818293434E+04  0.17200000000E+03 0. -1.
         -6    1    1    2    0  501 -0.14519042211E+03 -0.70685974240E+02 -0.20565971706E+03  0.31298032661E+03  0.17200000000E+03 0.  1.
</event>
<event>
 4    1  0.3169553E-002  0.2013010E+03  0.7818608E-02  0.1148646E+00
         -2   -1    0    0    0  501 -0.00000000000E+00  0.00000000000E+00  0.69879750499E+02  0.69879750499E+02  0.00000000000E+00 0.  1.
          2   -1    0    0  502    0  0.00000000000E+00 -0.00000000000E+00 -0.62606662139E+03  0.62606662139E+03  0.00000000000E+00 0. -1.
          6    1    1    2  502    0 -0.13955747483E+02 -0.10364998198E+03 -0.37260377908E+03  0.42350402340E+03  0.17200000000E+03 0. -1.
         -6    1    1    2    0  501  0.13955747483E+02  0.10364998198E+03 -0.18358309181E+03  0.27244234849E+03  0.17200000000E+03 0.  1.
</event>
<event>
 4    1  0.3169553E-002  0.3925614E+03  0.7818608E-02  0.1046386E+00
         -2   -1    0    0    0  501 -0.00000000000E+00  0.00000000000E+00  0.50427217533E+03  0.50427217533E+03  0.00000000000E+00 0.  1.
          2   -1    0    0  502    0  0.00000000000E+00 -0.00000000000E+00 -0.39259793605E+03  0.39259793605E+03  0.00000000000E+00 0. -1.
          6    1    1    2  502    0  0.24253612020E+03 -0.25631365292E+03 -0.15526158113E+03  0.42214999331E+03  0.17200000000E+03 0. -1.
         -6    1    1    2    0  501 -0.24253612020E+03  0.25631365292E+03  0.26693582041E+03  0.47472011807E+03  0.17200000000E+03 0.  1.
</event>
<event>
 4    1  0.3169553E-002  0.1875057E+03  0.7818608E-02  0.1160730E+00
         -1   -1    0    0    0  501 -0.00000000000E+00  0.00000000000E+00  0.13771008134E+03  0.13771008134E+03  0.00000000000E+00 0.  1.
          1   -1    0    0  502    0  0.00000000000E+00 -0.00000000000E+00 -0.30619852881E+03  0.30619852881E+03  0.00000000000E+00 0. -1.
          6    1    1    2  502    0 -0.79487690319E-02  0.74661788733E+02 -0.17473070221E+03  0.25629904615E+03  0.17200000000E+03 0. -1.
         -6    1    1    2    0  501  0.79487690319E-02 -0.74661788733E+02  0.62422547458E+01  0.18760956400E+03  0.17200000000E+03 0.  1.
</event>
<event>
 4    1  0.3169553E-002  0.1860361E+03  0.7818608E-02  0.1162086E+00
          2   -1    0    0  502    0  0.00000000000E+00  0.00000000000E+00  0.16412469044E+03  0.16412469044E+03  0.00000000000E+00 0. -1.
         -2   -1    0    0    0  501 -0.00000000000E+00 -0.00000000000E+00 -0.30755965560E+03  0.30755965560E+03  0.00000000000E+00 0.  1.
          6    1    1    2  502    0  0.63042224921E+02 -0.32421081576E+02  0.60515650835E+02  0.19563126705E+03  0.17200000000E+03 0. -1.
         -6    1    1    2    0  501 -0.63042224921E+02  0.32421081576E+02 -0.20395061600E+03  0.27605307899E+03  0.17200000000E+03 0.  1.
</event>
<event>
 4    1  0.3169553E-002  0.2840819E+03  0.7818608E-02  0.1093480E+00
          2   -1    0    0  502    0  0.00000000000E+00  0.00000000000E+00  0.70089003309E+03  0.70089003309E+03  0.00000000000E+00 0. -1.
         -2   -1    0    0    0  501 -0.00000000000E+00 -0.00000000000E+00 -0.11517138078E+03  0.11517138078E+03  0.00000000000E+00 0.  1.
          6    1    1    2  502    0 -0.16330799369E+03  0.15636188835E+03  0.29927098742E+03  0.41263260274E+03  0.17200000000E+03 0. -1.
         -6    1    1    2    0  501  0.16330799369E+03 -0.15636188835E+03  0.28644766488E+03  0.40342881113E+03  0.17200000000E+03 0.  1.
</event>
<event>
 4    1  0.3169553E-002  0.2028389E+03  0.7818608E-02  0.1147366E+00
          2   -1    0    0  502    0  0.00000000000E+00  0.00000000000E+00  0.42683453486E+03  0.42683453486E+03  0.00000000000E+00 0. -1.
         -2   -1    0    0    0  501 -0.00000000000E+00 -0.00000000000E+00 -0.13152363032E+03  0.13152363032E+03  0.00000000000E+00 0.  1.
          6    1    1    2  502    0  0.38575256747E+02  0.10035724463E+03  0.33684048562E+01  0.20286688526E+03  0.17200000000E+03 0. -1.
         -6    1    1    2    0  501 -0.38575256747E+02 -0.10035724463E+03  0.29194249968E+03  0.35549127992E+03  0.17200000000E+03 0. -1.
</event>
<event>
 4    1  0.3169553E-002  0.1766331E+03  0.7818608E-02  0.1171102E+00
         -2   -1    0    0    0  501 -0.00000000000E+00  0.00000000000E+00  0.12822472796E+02  0.12822472796E+02  0.00000000000E+00 0.  1.
          2   -1    0    0  502    0  0.00000000000E+00 -0.00000000000E+00 -0.24386801740E+04  0.24386801740E+04  0.00000000000E+00 0. -1.
          6    1    1    2  502    0 -0.23231545454E+01 -0.40123148095E+02 -0.11546671389E+04  0.11680990821E+04  0.17200000000E+03 0.  1.
         -6    1    1    2    0  501  0.23231545454E+01  0.40123148095E+02 -0.12711905623E+04  0.12834035646E+04  0.17200000000E+03 0.  1.
</event>
<event>
 4    1  0.3169553E-002  0.2052173E+03  0.7818608E-02  0.1145410E+00
         -2   -1    0    0    0  501 -0.00000000000E+00  0.00000000000E+00  0.16848511716E+03  0.16848511716E+03  0.00000000000E+00 0.  1.
          2   -1    0    0  502    0  0.00000000000E+00 -0.00000000000E+00 -0.54400254692E+03  0.54400254692E+03  0.00000000000E+00 0. -1.
          6    1    1    2  502    0 -0.59349182312E+02 -0.94909435858E+02 -0.44966974415E+03  0.49428433645E+03  0.17200000000E+03 0. -1.
         -6    1    1    2    0  501  0.59349182312E+02  0.94909435858E+02  0.74152314389E+02  0.21820332762E+03  0.17200000000E+03 0.  1.
</event>
<event>
 4    1  0.3169553E-002  0.2684188E+03  0.7818608E-02  0.1102188E+00
          1   -1    0    0  502    0  0.00000000000E+00  0.00000000000E+00  0.32535874569E+03  0.32535874569E+03  0.00000000000E+00 0. -1.
         -1   -1    0    0    0  501 -0.00000000000E+00 -0.00000000000E+00 -0.23044764425E+03  0.23044764425E+03  0.00000000000E+00 0.  1.
          6    1    1    2  502    0  0.73826761584E+02  0.19239094602E+03  0.10238713746E+03  0.28728347108E+03  0.17200000000E+03 0. -1.
         -6    1    1    2    0  501 -0.73826761584E+02 -0.19239094602E+03 -0.74760360335E+01  0.26852291886E+03  0.17200000000E+03 0. -1.
</event>
<event>
 4    1  0.3169553E-002  0.2084133E+03  0.7818608E-02  0.1142829E+00
          1   -1    0    0  502    0  0.00000000000E+00  0.00000000000E+00  0.58586248358E+03  0.58586248358E+03  0.00000000000E+00 0. -1.
         -1   -1    0    0    0  501 -0.00000000000E+00 -0.00000000000E+00 -0.76278104392E+02  0.76278104392E+02  0.00000000000E+00 0.  1.
          6    1    1    2  502    0  0.36737553486E+01 -0.11763756284E+03  0.19936897620E+03  0.28841650670E+03  0.17200000000E+03 0.  1.
         -6    1    1    2    0  501 -0.36737553486E+01  0.11763756284E+03  0.31021540299E+03  0.37372408127E+03  0.17200000000E+03 0. -1.
</event>
<event>
 4    1  0.3169553E-002  0.2704168E+03  0.7818608E-02  0.1101041E+00
          2   -1    0    0  502    0  0.00000000000E+00  0.00000000000E+00  0.16914998696E+04  0.16914998696E+04  0.00000000000E+00 0. -1.
         -2   -1    0    0    0  501 -0.00000000000E+00 -0.00000000000E+00 -0.10753272630E+03  0.10753272630E+03  0.00000000000E+00 0.  1.
          6    1    1    2  502    0 -0.40663811190E+02 -0.20466486837E+03  0.14875682040E+04  0.15119472264E+04  0.17200000000E+03 0. -1.
         -6    1    1    2    0  501  0.40663811190E+02  0.20466486837E+03  0.96398939319E+02  0.28708536951E+03  0.17200000000E+03 0.  1.
</event>
<event>
 4    1  0.3169553E-002  0.1936381E+03  0.7818608E-02  0.1155220E+00
         -2   -1    0    0    0  501 -0.00000000000E+00  0.00000000000E+00  0.12922571359E+03  0.12922571359E+03  0.00000000000E+00 0.  1.
          2   -1    0    0  502    0  0.00000000000E+00 -0.00000000000E+00 -0.13313474517E+04  0.13313474517E+04  0.00000000000E+00 0. -1.
          6    1    1    2  502    0  0.31039207796E+02  0.83356336448E+02 -0.12468827562E+04  0.12618289579E+04  0.17200000000E+03 0. -1.
         -6    1    1    2    0  501 -0.31039207796E+02 -0.83356336448E+02  0.44761018062E+02  0.19874420742E+03  0.17200000000E+03 0.  1.
</event>
<event>
 4    1  0.3169553E-002  0.2363541E+03  0.7818608E-02  0.1122246E+00
         -2   -1    0    0    0  501 -0.00000000000E+00  0.00000000000E+00  0.97099360805E+02  0.97099360805E+02  0.00000000000E+00 0.  1.
          2   -1    0    0  502    0  0.00000000000E+00 -0.00000000000E+00 -0.18951993932E+04  0.18951993932E+04  0.00000000000E+00 0. -1.
          6    1    1    2  502    0 -0.16051667826E+03 -0.22663720114E+02 -0.17303620420E+04  0.17464295132E+04  0.17200000000E+03 0. -1.
         -6    1    1    2    0  501  0.16051667826E+03  0.22663720114E+02 -0.67737990346E+02  0.24586924075E+03  0.17200000000E+03 0.  1.
</event>
<event>
 4    1  0.3169553E-002  0.2445481E+03  0.7818608E-02  0.1116800E+00
         -1   -1    0    0    0  501 -0.00000000000E+00  0.00000000000E+00  0.10017317844E+04  0.10017317844E+04  0.00000000000E+00 0.  1.
          1   -1    0    0  502    0  0.00000000000E+00 -0.00000000000E+00 -0.60365358187E+02  0.60365358187E+02  0.00000000000E+00 0. -1.
          6    1    1    2  502    0 -0.17376731094E+03 -0.49708303991E+01  0.52641946456E+03  0.58044917105E+03  0.17200000000E+03 0. -1.
         -6    1    1    2    0  501  0.17376731094E+03  0.49708303991E+01  0.41494696169E+03  0.48164797157E+03  0.17200000000E+03 0.  1.
</event>
<event>
 4    1  0.3169553E-002  0.4358471E+03  0.7818608E-02  0.1032029E+00
          2   -1    0    0  502    0  0.00000000000E+00  0.00000000000E+00  0.12482517856E+04  0.12482517856E+04  0.00000000000E+00 0. -1.
         -2   -1    0    0    0  501 -0.00000000000E+00 -0.00000000000E+00 -0.33487747586E+03  0.33487747586E+03  0.00000000000E+00 0.  1.
          6    1    1    2  502    0 -0.40031271586E+03  0.11330644748E+02  0.10413509009E+04  0.11288819038E+04  0.17200000000E+03 0. -1.
         -6    1    1    2    0  501  0.40031271586E+03 -0.11330644748E+02 -0.12797659119E+03  0.45424735760E+03  0.17200000000E+03 0.  1.
</event>
<event>
 4    1  0.3169553E-002  0.3446349E+03  0.7818608E-02  0.1064839E+00
          2   -1    0    0  502    0  0.00000000000E+00  0.00000000000E+00  0.47758522781E+03  0.47758522781E+03  0.00000000000E+00 0. -1.
         -2   -1    0    0    0  501 -0.00000000000E+00 -0.00000000000E+00 -0.29949530738E+03  0.29949530738E+03  0.00000000000E+00 0.  1.
          6    1    1    2  502    0 -0.46211578728E+02  0.29504862444E+03  0.24906446351E+03  0.42521324976E+03  0.17200000000E+03 0.  1.
         -6    1    1    2    0  501  0.46211578728E+02 -0.29504862444E+03 -0.70974543069E+02  0.35186728543E+03  0.17200000000E+03 0.  1.
</event>
<event>
 4    1  0.3169553E-002  0.1823231E+03  0.7818608E-02  0.1165573E+00
         -1   -1    0    0    0  501 -0.00000000000E+00  0.00000000000E+00  0.39305130904E+03  0.39305130904E+03  0.00000000000E+00 0.  1.
          1   -1    0    0  502    0  0.00000000000E+00 -0.00000000000E+00 -0.10594283083E+03  0.10594283083E+03  0.00000000000E+00 0. -1.
          6    1    1    2  502    0 -0.70238955891E+01  0.60069754636E+02  0.31500721249E+02  0.18502433886E+03  0.17200000000E+03 0.  1.
         -6    1    1    2    0  501  0.70238955891E+01 -0.60069754636E+02  0.25560775696E+03  0.31396980101E+03  0.17200000000E+03 0.  1.
</event>
<event>
 4    1  0.3169553E-002  0.1975493E+03  0.7818608E-02  0.1151823E+00
         -2   -1    0    0    0  501 -0.00000000000E+00  0.00000000000E+00  0.21021786477E+03  0.21021786477E+03  0.00000000000E+00 0.  1.
          2   -1    0    0  502    0  0.00000000000E+00 -0.00000000000E+00 -0.19616941319E+03  0.19616941319E+03  0.00000000000E+00 0. -1.
          6    1    1    2  502    0  0.23985707098E+02 -0.94161588723E+02 -0.40042147634E+02  0.20156659575E+03  0.17200000000E+03 0.  1.
         -6    1    1    2    0  501 -0.23985707098E+02  0.94161588723E+02  0.54090599211E+02  0.20482068220E+03  0.17200000000E+03 0.  1.
</event>
<event>
 4    1  0.3169553E-002  0.4104458E+03  0.7818608E-02  0.1040221E+00
         -1   -1    0    0    0  501 -0.00000000000E+00  0.00000000000E+00  0.13521610550E+04  0.13521610550E+04  0.00000000000E+00 0.  1.
          1   -1    0    0  502    0  0.00000000000E+00 -0.00000000000E+00 -0.30773465754E+03  0.30773465754E+03  0.00000000000E+00 0. -1.
          6    1    1    2  502    0 -0.33954555835E+03  0.15359232352E+03 -0.11805169952E+03  0.42708546193E+03  0.17200000000E+03 0. -1.
         -6    1    1    2    0  501  0.33954555835E+03 -0.15359232352E+03  0.11624780970E+04  0.12328102506E+04  0.17200000000E+03 0.  1.
</event>
<event>
 4    1  0.3169553E-002  0.3298544E+03  0.7818608E-02  0.1071201E+00
         -2   -1    0    0    0  501 -0.00000000000E+00  0.00000000000E+00  0.16421958808E+03  0.16421958808E+03  0.00000000000E+00 0.  1.
          2   -1    0    0  502    0  0.00000000000E+00 -0.00000000000E+00 -0.75750604387E+03  0.75750604387E+03  0.00000000000E+00 0. -1.
          6    1    1    2  502    0  0.26079266178E+03 -0.10586356024E+03 -0.45981194237E+03  0.56588950174E+03  0.17200000000E+03 0. -1.
         -6    1    1    2    0  501 -0.26079266178E+03  0.10586356024E+03 -0.13347451342E+03  0.35583613021E+03  0.17200000000E+03 0.  1.
</event>
<event>
 4    1  0.3169553E-002  0.1863978E+03  0.7818608E-02  0.1161751E+00
          2   -1    0    0  502    0  0.00000000000E+00  0.00000000000E+00  0.10602645216E+03  0.10602645216E+03  0.00000000000E+00 0. -1.
         -2   -1    0    0    0  501 -0.00000000000E+00 -0.00000000000E+00 -0.33221067085E+03  0.33221067085E+03  0.00000000000E+00 0.  1.
          6    1    1    2  502    0 -0.62486488491E+02  0.35434329939E+02 -0.87540543197E+02  0.20593081286E+03  0.17200000000E+03 0. -1.
         -6    1    1    2    0  501  0.62486488491E+02 -0.35434329939E+02 -0.13864367549E+03  0.23230631015E+03  0.17200000000E+03 0.  1.
</event>
<event>
 4    1  0.3169553E-002  0.3821828E+03  0.7818608E-02  0.1050130E+00
         -2   -1    0    0    0  501 -0.00000000000E+00  0.00000000000E+00  0.99165126451E+02  0.99165126451E+02  0.00000000000E+00 0.  1.
          2   -1    0    0  502    0  0.00000000000E+00 -0.00000000000E+00 -0.39854265150E+04  0.39854265150E+04  0.00000000000E+00 0. -1.
          6    1    1    2  502    0 -0.16476254957E+03  0.29888620170E+03 -0.35646930644E+04  0.35851220764E+04  0.17200000000E+03 0. -1.
         -6    1    1    2    0  501  0.16476254957E+03 -0.29888620170E+03 -0.32156832413E+03  0.49946956503E+03  0.17200000000E+03 0.  1.
</event>
<event>
 4    1  0.3169553E-002  0.1878541E+03  0.7818608E-02  0.1160411E+00
         -1   -1    0    0    0  501 -0.00000000000E+00  0.00000000000E+00  0.13783104580E+03  0.13783104580E+03  0.00000000000E+00 0.  1.
          1   -1    0    0  502    0  0.00000000000E+00 -0.00000000000E+00 -0.27113258966E+03  0.27113258966E+03  0.00000000000E+00 0. -1.
          6    1    1    2  502    0 -0.75490147270E+02 -0.25284206157E+01 -0.11490785973E+03  0.22021119743E+03  0.17200000000E+03 0. -1.
         -6    1    1    2    0  501  0.75490147270E+02  0.25284206157E+01 -0.18393684127E+02  0.18875243803E+03  0.17200000000E+03 0.  1.
</event>
<event>
 4    1  0.3169553E-002  0.1785955E+03  0.7818608E-02  0.1169169E+00
         -4   -1    0    0    0  501 -0.00000000000E+00  0.00000000000E+00  0.10618395413E+03  0.10618395413E+03  0.00000000000E+00 0.  1.
          4   -1    0    0  502    0  0.00000000000E+00 -0.00000000000E+00 -0.34175223146E+03  0.34175223146E+03  0.00000000000E+00 0. -1.
          6    1    1    2  502    0  0.35150563103E+02 -0.32814246488E+02 -0.19570349609E+03  0.26494564582E+03  0.17200000000E+03 0. -1.
         -6    1    1    2    0  501 -0.35150563103E+02  0.32814246488E+02 -0.39864781236E+02  0.18299053976E+03  0.17200000000E+03 0.  1.
</event>
<event>
 4    1  0.3169553E-002  0.5154163E+03  0.7818608E-02  0.1009832E+00
          2   -1    0    0  502    0  0.00000000000E+00  0.00000000000E+00  0.43059207438E+04  0.43059207438E+04  0.00000000000E+00 0. -1.
         -2   -1    0    0    0  501 -0.00000000000E+00 -0.00000000000E+00 -0.90135730207E+02  0.90135730207E+02  0.00000000000E+00 0.  1.
          6    1    1    2  502    0 -0.80913345217E+02  0.47908553487E+03  0.33425738952E+04  0.33820783794E+04  0.17200000000E+03 0. -1.
         -6    1    1    2    0  501  0.80913345217E+02 -0.47908553487E+03  0.87321111835E+03  0.10139780946E+04  0.17200000000E+03 0.  1.
</event>
<event>
 4    1  0.3169553E-002  0.2774422E+03  0.7818608E-02  0.1097094E+00
          4   -1    0    0  502    0  0.00000000000E+00  0.00000000000E+00  0.25831702045E+03  0.25831702045E+03  0.00000000000E+00 0. -1.
         -4   -1    0    0    0  501 -0.00000000000E+00 -0.00000000000E+00 -0.31982471661E+03  0.31982471661E+03  0.00000000000E+00 0.  1.
          6    1    1    2  502    0 -0.71966357143E+02 -0.20545322649E+03  0.44788015033E+02  0.28103407467E+03  0.17200000000E+03 0. -1.
         -6    1    1    2    0  501  0.71966357143E+02  0.20545322649E+03 -0.10629571119E+03  0.29710766239E+03  0.17200000000E+03 0.  1.
</event>
<event>
 4    1  0.3169553E-002  0.2102842E+03  0.7818608E-02  0.1141341E+00
          1   -1    0    0  502    0  0.00000000000E+00  0.00000000000E+00  0.16570107410E+04  0.16570107410E+04  0.00000000000E+00 0. -1.
         -1   -1    0    0    0  501 -0.00000000000E+00 -0.00000000000E+00 -0.34502129752E+02  0.34502129752E+02  0.00000000000E+00 0.  1.
          6    1    1    2  502    0  0.11669210850E+03  0.31912405980E+02  0.12137956625E+04  0.12318763575E+04  0.17200000000E+03 0. -1.
         -6    1    1    2    0  501 -0.11669210850E+03 -0.31912405980E+02  0.40871294867E+03  0.45963651318E+03  0.17200000000E+03 0.  1.
</event>
<event>
 4    1  0.3169553E-002  0.2463369E+03  0.7818608E-02  0.1115642E+00
         -2   -1    0    0    0  501 -0.00000000000E+00  0.00000000000E+00  0.80907583916E+02  0.80907583916E+02  0.00000000000E+00 0.  1.
          2   -1    0    0  502    0  0.00000000000E+00 -0.00000000000E+00 -0.82667113321E+03  0.82667113321E+03  0.00000000000E+00 0. -1.
          6    1    1    2  502    0 -0.12167740154E+03  0.12764202614E+03 -0.51106719972E+03  0.56733725377E+03  0.17200000000E+03 0.  1.
         -6    1    1    2    0  501  0.12167740154E+03 -0.12764202614E+03 -0.23469634958E+03  0.34024146336E+03  0.17200000000E+03 0.  1.
</event>
<event>
 4    1  0.3169553E-002  0.1832054E+03  0.7818608E-02  0.1164736E+00
         -2   -1    0    0    0  501 -0.00000000000E+00  0.00000000000E+00  0.39502003934E+02  0.39502003934E+02  0.00000000000E+00 0.  1.
          2   -1    0    0  502    0  0.00000000000E+00 -0.00000000000E+00 -0.13487292460E+04  0.13487292460E+04  0.00000000000E+00 0. -1.
          6    1    1    2  502    0  0.40339932994E+02  0.48506822779E+02 -0.10768341835E+04  0.10923076860E+04  0.17200000000E+03 0. -1.
         -6    1    1    2    0  501 -0.40339932994E+02 -0.48506822779E+02 -0.23239305859E+03  0.29592356400E+03  0.17200000000E+03 0.  1.
</event>
<event>
 4    1  0.3169553E-002  0.2700320E+03  0.7818608E-02  0.1101261E+00
         -1   -1    0    0    0  501 -0.00000000000E+00  0.00000000000E+00  0.10953527103E+03  0.10953527103E+03  0.00000000000E+00 0.  1.
          1   -1    0    0  502    0  0.00000000000E+00 -0.00000000000E+00 -0.66631110870E+03  0.66631110870E+03  0.00000000000E+00 0. -1.
          6    1    1    2  502    0  0.20668000527E+03  0.24832705715E+02 -0.29016596688E+03  0.39637554943E+03  0.17200000000E+03 0.  1.
         -6    1    1    2    0  501 -0.20668000527E+03 -0.24832705715E+02 -0.26660987078E+03  0.37947083030E+03  0.17200000000E+03 0.  1.
</event>
<event>
 4    1  0.3169553E-002  0.2851689E+03  0.7818608E-02  0.1092899E+00
          2   -1    0    0  502    0  0.00000000000E+00  0.00000000000E+00  0.93304198260E+03  0.93304198260E+03  0.00000000000E+00 0. -1.
         -2   -1    0    0    0  501 -0.00000000000E+00 -0.00000000000E+00 -0.15185480349E+03  0.15185480349E+03  0.00000000000E+00 0.  1.
          6    1    1    2  502    0  0.75939160755E+01 -0.22733160563E+03  0.74466287755E+03  0.79739834943E+03  0.17200000000E+03 0. -1.
         -6    1    1    2    0  501 -0.75939160755E+01  0.22733160563E+03  0.36524301565E+02  0.28749843666E+03  0.17200000000E+03 0.  1.
</event>
<event>
 4    1  0.3169553E-002  0.2384794E+03  0.7818608E-02  0.1120810E+00
          2   -1    0    0  502    0  0.00000000000E+00  0.00000000000E+00  0.13825830723E+04  0.13825830723E+04  0.00000000000E+00 0. -1.
         -2   -1    0    0    0  501 -0.00000000000E+00 -0.00000000000E+00 -0.66727778876E+02  0.66727778876E+02  0.00000000000E+00 0.  1.
          6    1    1    2  502    0  0.78648725286E+02  0.14526798174E+03  0.11067121301E+04  0.11321149002E+04  0.17200000000E+03 0. -1.
         -6    1    1    2    0  501 -0.78648725286E+02 -0.14526798174E+03  0.20914316333E+03  0.31719595092E+03  0.17200000000E+03 0.  1.
</event>
<event>
 4    1  0.3169553E-002  0.3609125E+03  0.7818608E-02  0.1058223E+00
          2   -1    0    0  502    0  0.00000000000E+00  0.00000000000E+00  0.41538668662E+03  0.41538668662E+03  0.00000000000E+00 0. -1.
         -2   -1    0    0    0  501 -0.00000000000E+00 -0.00000000000E+00 -0.42926933603E+03  0.42926933603E+03  0.00000000000E+00 0.  1.
          6    1    1    2  502    0  0.16628691103E+03  0.27022681033E+03 -0.22618522154E+03  0.42593147365E+03  0.17200000000E+03 0. -1.
         -6    1    1    2    0  501 -0.16628691103E+03 -0.27022681033E+03  0.21230257213E+03  0.41872454900E+03  0.17200000000E+03 0. -1.
</event>
<event>
 4    1  0.3169553E-002  0.2539955E+03  0.7818608E-02  0.1110805E+00
         -2   -1    0    0    0  501 -0.00000000000E+00  0.00000000000E+00  0.58394689795E+03  0.58394689795E+03  0.00000000000E+00 0.  1.
          2   -1    0    0  502    0  0.00000000000E+00 -0.00000000000E+00 -0.38994229319E+03  0.38994229319E+03  0.00000000000E+00 0. -1.
          6    1    1    2  502    0  0.18543981599E+03 -0.23276266353E+02 -0.31522995998E+03  0.40482544089E+03  0.17200000000E+03 0. -1.
         -6    1    1    2    0  501 -0.18543981599E+03  0.23276266353E+02  0.50923456473E+03  0.56906375025E+03  0.17200000000E+03 0.  1.
</event>
<event>
 4    1  0.3169553E-002  0.2094240E+03  0.7818608E-02  0.1142023E+00
          2   -1    0    0  502    0  0.00000000000E+00  0.00000000000E+00  0.62723801846E+03  0.62723801846E+03  0.00000000000E+00 0. -1.
         -2   -1    0    0    0  501 -0.00000000000E+00 -0.00000000000E+00 -0.84016586274E+02  0.84016586274E+02  0.00000000000E+00 0.  1.
          6    1    1    2  502    0  0.31550165417E+02  0.11523453738E+03  0.41726463367E+03  0.46687063096E+03  0.17200000000E+03 0. -1.
         -6    1    1    2    0  501 -0.31550165417E+02 -0.11523453738E+03  0.12595679851E+03  0.24438397377E+03  0.17200000000E+03 0.  1.
</event>
<event>
 4    1  0.3169553E-002  0.2211181E+03  0.7818608E-02  0.1133052E+00
          2   -1    0    0  502    0  0.00000000000E+00  0.00000000000E+00  0.15369643814E+04  0.15369643814E+04  0.00000000000E+00 0. -1.
         -2   -1    0    0    0  501 -0.00000000000E+00 -0.00000000000E+00 -0.31848547930E+02  0.31848547930E+02  0.00000000000E+00 0.  1.
          6    1    1    2  502    0  0.28851967521E+02 -0.13592923713E+03  0.77929926510E+03  0.81006205819E+03  0.17200000000E+03 0.  1.
         -6    1    1    2    0  501 -0.28851967521E+02  0.13592923713E+03  0.72581656839E+03  0.75875087116E+03  0.17200000000E+03 0. -1.
</event>
<event>
 4    1  0.3169553E-002  0.3905184E+03  0.7818608E-02  0.1047113E+00
         -2   -1    0    0    0  501 -0.00000000000E+00  0.00000000000E+00  0.20191098117E+03  0.20191098117E+03  0.00000000000E+00 0.  1.
          2   -1    0    0  502    0  0.00000000000E+00 -0.00000000000E+00 -0.18179315986E+04  0.18179315986E+04  0.00000000000E+00 0. -1.
          6    1    1    2  502    0  0.98013699565E+02  0.33662132731E+03 -0.15801375361E+04  0.16276790950E+04  0.17200000000E+03 0. -1.
         -6    1    1    2    0  501 -0.98013699565E+02 -0.33662132731E+03 -0.35883081383E+02  0.39216348483E+03  0.17200000000E+03 0.  1.
</event>
<event>
 4    1  0.3169553E-002  0.1804360E+03  0.7818608E-02  0.1167382E+00
         -1   -1    0    0    0  501 -0.00000000000E+00  0.00000000000E+00  0.39081135013E+02  0.39081135013E+02  0.00000000000E+00 0.  1.
          1   -1    0    0  502    0  0.00000000000E+00 -0.00000000000E+00 -0.11523048705E+04  0.11523048705E+04  0.00000000000E+00 0. -1.
          6    1    1    2  502    0 -0.14986747775E+02 -0.52426590834E+02 -0.24306898997E+03  0.30272047159E+03  0.17200000000E+03 0.  1.
         -6    1    1    2    0  501  0.14986747775E+02  0.52426590834E+02 -0.87015474556E+03  0.88866553397E+03  0.17200000000E+03 0. -1.
</event>
<event>
 4    1  0.3169553E-002  0.1905451E+03  0.7818608E-02  0.1157971E+00
         -2   -1    0    0    0  501 -0.00000000000E+00  0.00000000000E+00  0.66732345183E+02  0.66732345183E+02  0.00000000000E+00 0.  1.
          2   -1    0    0  502    0  0.00000000000E+00 -0.00000000000E+00 -0.57660527932E+03  0.57660527932E+03  0.00000000000E+00 0. -1.
          6    1    1    2  502    0 -0.37408921007E+02  0.72965707034E+02 -0.17853328671E+03  0.26111598234E+03  0.17200000000E+03 0.  1.
         -6    1    1    2    0  501  0.37408921007E+02 -0.72965707034E+02 -0.33133964743E+03  0.38222164215E+03  0.17200000000E+03 0. -1.
</event>
<event>
 4    1  0.3169553E-002  0.2073701E+03  0.7818608E-02  0.1143666E+00
          2   -1    0    0  502    0  0.00000000000E+00  0.00000000000E+00  0.28007154174E+04  0.28007154174E+04  0.00000000000E+00 0. -1.
         -2   -1    0    0    0  501 -0.00000000000E+00 -0.00000000000E+00 -0.20105418008E+02  0.20105418008E+02  0.00000000000E+00 0.  1.
          6    1    1    2  502    0 -0.97650886235E+02 -0.62311140584E+02  0.70466288723E+03  0.73454214206E+03  0.17200000000E+03 0.  1.
         -6    1    1    2    0  501  0.97650886235E+02  0.62311140584E+02  0.20759471122E+04  0.20862786934E+04  0.17200000000E+03 0. -1.
</event>
<event>
 4    1  0.3169553E-002  0.3607521E+03  0.7818608E-02  0.1058286E+00
          1   -1    0    0  502    0  0.00000000000E+00  0.00000000000E+00  0.57503087171E+03  0.57503087171E+03  0.00000000000E+00 0. -1.
         -1   -1    0    0    0  501 -0.00000000000E+00 -0.00000000000E+00 -0.25172993220E+03  0.25172993220E+03  0.00000000000E+00 0.  1.
          6    1    1    2  502    0 -0.31503321343E+03 -0.36223999074E+02  0.29298157804E+03  0.46473681665E+03  0.17200000000E+03 0. -1.
         -6    1    1    2    0  501  0.31503321343E+03  0.36223999074E+02  0.30319361465E+02  0.36202398726E+03  0.17200000000E+03 0.  1.
</event>
<event>
 4    1  0.3169553E-002  0.2316187E+03  0.7818608E-02  0.1125506E+00
          1   -1    0    0  502    0  0.00000000000E+00  0.00000000000E+00  0.17218350440E+04  0.17218350440E+04  0.00000000000E+00 0. -1.
         -1   -1    0    0    0  501 -0.00000000000E+00 -0.00000000000E+00 -0.36961556330E+02  0.36961556330E+02  0.00000000000E+00 0.  1.
          6    1    1    2  502    0 -0.11127483584E+03 -0.10807920231E+03  0.11909307073E+04  0.12132448857E+04  0.17200000000E+03 0. -1.
         -6    1    1    2    0  501  0.11127483584E+03  0.10807920231E+03  0.49394278030E+03  0.54555171457E+03  0.17200000000E+03 0.  1.
</event>
<event>
 4    1  0.3169553E-002  0.4610377E+03  0.7818608E-02  0.1024481E+00
          2   -1    0    0  502    0  0.00000000000E+00  0.00000000000E+00  0.54472285958E+03  0.54472285958E+03  0.00000000000E+00 0. -1.
         -2   -1    0    0    0  501 -0.00000000000E+00 -0.00000000000E+00 -0.51827709785E+03  0.51827709785E+03  0.00000000000E+00 0.  1.
          6    1    1    2  502    0  0.92153572061E+02 -0.41770736703E+03  0.27742897885E+03  0.53807300957E+03  0.17200000000E+03 0. -1.
         -6    1    1    2    0  501 -0.92153572061E+02  0.41770736703E+03 -0.25098321713E+03  0.52492694787E+03  0.17200000000E+03 0.  1.
</event>
<event>
 4    1  0.3169553E-002  0.3276249E+03  0.7818608E-02  0.1072193E+00
          1   -1    0    0  502    0  0.00000000000E+00  0.00000000000E+00  0.22876588243E+03  0.22876588243E+03  0.00000000000E+00 0. -1.
         -1   -1    0    0    0  501 -0.00000000000E+00 -0.00000000000E+00 -0.49740634911E+03  0.49740634911E+03  0.00000000000E+00 0.  1.
          6    1    1    2  502    0 -0.23547447715E+03  0.14935138283E+03 -0.47865263653E+02  0.33110292721E+03  0.17200000000E+03 0. -1.
         -6    1    1    2    0  501  0.23547447715E+03 -0.14935138283E+03 -0.22077520303E+03  0.39506930432E+03  0.17200000000E+03 0.  1.
</event>
<event>
 4    1  0.3169553E-002  0.2159850E+03  0.7818608E-02  0.1136912E+00
          2   -1    0    0  502    0  0.00000000000E+00  0.00000000000E+00  0.12096866221E+04  0.12096866221E+04  0.00000000000E+00 0. -1.
         -2   -1    0    0    0  501 -0.00000000000E+00 -0.00000000000E+00 -0.41848942612E+02  0.41848942612E+02  0.00000000000E+00 0.  1.
          6    1    1    2  502    0  0.95499639296E+02  0.89136596895E+02  0.75925875564E+03  0.78938163903E+03  0.17200000000E+03 0. -1.
         -6    1    1    2    0  501 -0.95499639296E+02 -0.89136596895E+02  0.40857892380E+03  0.46215392564E+03  0.17200000000E+03 0.  1.
</event>
<event>
 4    1  0.3169553E-002  0.2132585E+03  0.7818608E-02  0.1139011E+00
          1   -1    0    0  502    0  0.00000000000E+00  0.00000000000E+00  0.38670658998E+03  0.38670658998E+03  0.00000000000E+00 0. -1.
         -1   -1    0    0    0  501 -0.00000000000E+00 -0.00000000000E+00 -0.13011756209E+03  0.13011756209E+03  0.00000000000E+00 0.  1.
          6    1    1    2  502    0 -0.46351083427E+02  0.11724662789E+03  0.48164990600E+02  0.21862996365E+03  0.17200000000E+03 0.  1.
         -6    1    1    2    0  501  0.46351083427E+02 -0.11724662789E+03  0.20842403729E+03  0.29819418842E+03  0.17200000000E+03 0. -1.
</event>
<event>
 4    1  0.3169553E-002  0.1737848E+03  0.7818608E-02  0.1173957E+00
          2   -1    0    0  502    0  0.00000000000E+00  0.00000000000E+00  0.14469260496E+03  0.14469260496E+03  0.00000000000E+00 0. -1.
         -2   -1    0    0    0  501 -0.00000000000E+00 -0.00000000000E+00 -0.39562788524E+03  0.39562788524E+03  0.00000000000E+00 0.  1.
          6    1    1    2  502    0 -0.14497528621E+02  0.20173898733E+02  0.60220594256E+02  0.18392303961E+03  0.17200000000E+03 0. -1.
         -6    1    1    2    0  501  0.14497528621E+02 -0.20173898733E+02 -0.31115587454E+03  0.35639745059E+03  0.17200000000E+03 0.  1.
</event>
<event>
 4    1  0.3169553E-002  0.3264636E+03  0.7818608E-02  0.1072712E+00
         -1   -1    0    0    0  501 -0.00000000000E+00  0.00000000000E+00  0.81279517626E+03  0.81279517626E+03  0.00000000000E+00 0.  1.
          1   -1    0    0  502    0  0.00000000000E+00 -0.00000000000E+00 -0.13662856595E+03  0.13662856595E+03  0.00000000000E+00 0. -1.
          6    1    1    2  502    0  0.21513173980E+03  0.17525065288E+03  0.24281510495E+03  0.40686316126E+03  0.17200000000E+03 0. -1.
         -6    1    1    2    0  501 -0.21513173980E+03 -0.17525065288E+03  0.43335150536E+03  0.54256058095E+03  0.17200000000E+03 0.  1.
</event>
<event>
 4    1  0.3169553E-002  0.1827732E+03  0.7818608E-02  0.1165146E+00
          2   -1    0    0  502    0  0.00000000000E+00  0.00000000000E+00  0.95970024589E+03  0.95970024589E+03  0.00000000000E+00 0. -1.
         -2   -1    0    0    0  501 -0.00000000000E+00 -0.00000000000E+00 -0.34809871232E+02  0.34809871232E+02  0.00000000000E+00 0.  1.
          6    1    1    2  502    0  0.86829297498E+01  0.61209940658E+02  0.45973568796E+03  0.49473523514E+03  0.17200000000E+03 0.  1.
         -6    1    1    2    0  501 -0.86829297498E+01 -0.61209940658E+02  0.46515468670E+03  0.49977488198E+03  0.17200000000E+03 0. -1.
</event>
<event>
 4    1  0.3169553E-002  0.2185698E+03  0.7818608E-02  0.1134954E+00
         -2   -1    0    0    0  501 -0.00000000000E+00  0.00000000000E+00  0.15058217008E+03  0.15058217008E+03  0.00000000000E+00 0.  1.
          2   -1    0    0  502    0  0.00000000000E+00 -0.00000000000E+00 -0.33278105542E+03  0.33278105542E+03  0.00000000000E+00 0. -1.
          6    1    1    2  502    0  0.15539180875E+02 -0.13396752628E+03 -0.14330440591E+03  0.26135974631E+03  0.17200000000E+03 0. -1.
         -6    1    1    2    0  501 -0.15539180875E+02  0.13396752628E+03 -0.38894479438E+02  0.22200347919E+03  0.17200000000E+03 0.  1.
</event>
<event>
 4    1  0.3169553E-002  0.1846378E+03  0.7818608E-02  0.1163389E+00
          2   -1    0    0  502    0  0.00000000000E+00  0.00000000000E+00  0.18828249441E+04  0.18828249441E+04  0.00000000000E+00 0. -1.
         -2   -1    0    0    0  501 -0.00000000000E+00 -0.00000000000E+00 -0.21679997797E+02  0.21679997797E+02  0.00000000000E+00 0.  1.
          6    1    1    2  502    0  0.86676092945E+01  0.66573239125E+02  0.54395881062E+03  0.57444086839E+03  0.17200000000E+03 0.  1.
         -6    1    1    2    0  501 -0.86676092945E+01 -0.66573239125E+02  0.13171861357E+04  0.13300640735E+04  0.17200000000E+03 0.  1.
</event>
<event>
 4    1  0.3169553E-002  0.3271846E+03  0.7818608E-02  0.1072389E+00
          1   -1    0    0  502    0  0.00000000000E+00  0.00000000000E+00  0.17499624831E+03  0.17499624831E+03  0.00000000000E+00 0. -1.
         -1   -1    0    0    0  501 -0.00000000000E+00 -0.00000000000E+00 -0.88511911554E+03  0.88511911554E+03  0.00000000000E+00 0.  1.
          6    1    1    2  502    0 -0.76148291346E+02 -0.26770734767E+03 -0.60472846159E+02  0.33272624092E+03  0.17200000000E+03 0. -1.
         -6    1    1    2    0  501  0.76148291346E+02  0.26770734767E+03 -0.64965002107E+03  0.72738912293E+03  0.17200000000E+03 0.  1.
</event>
<event>
 4    1  0.3169553E-002  0.1956494E+03  0.7818608E-02  0.1153462E+00
          1   -1    0    0  502    0  0.00000000000E+00  0.00000000000E+00  0.23634999684E+04  0.23634999684E+04  0.00000000000E+00 0. -1.
         -1   -1    0    0    0  501 -0.00000000000E+00 -0.00000000000E+00 -0.29281759515E+02  0.29281759515E+02  0.00000000000E+00 0.  1.
          6    1    1    2  502    0 -0.78724959274E+02 -0.49970604778E+02  0.19669027273E+04  0.19766094756E+04  0.17200000000E+03 0. -1.
         -6    1    1    2    0  501  0.78724959274E+02  0.49970604778E+02  0.36731548166E+03  0.41617225235E+03  0.17200000000E+03 0.  1.
</event>
<event>
 4    1  0.3169553E-002  0.2343056E+03  0.7818608E-02  0.1123645E+00
          1   -1    0    0  502    0  0.00000000000E+00  0.00000000000E+00  0.19486168738E+03  0.19486168738E+03  0.00000000000E+00 0. -1.
         -1   -1    0    0    0  501 -0.00000000000E+00 -0.00000000000E+00 -0.42973693466E+03  0.42973693466E+03  0.00000000000E+00 0.  1.
          6    1    1    2  502    0 -0.93706232104E+02 -0.12858561171E+03  0.65838203727E+02  0.24337992223E+03  0.17200000000E+03 0. -1.
         -6    1    1    2    0  501  0.93706232104E+02  0.12858561171E+03 -0.30071345101E+03  0.38121869982E+03  0.17200000000E+03 0.  1.
</event>
<event>
 4    1  0.3169553E-002  0.2063926E+03  0.7818608E-02  0.1144455E+00
         -2   -1    0    0    0  501 -0.00000000000E+00  0.00000000000E+00  0.22913232547E+03  0.22913232547E+03  0.00000000000E+00 0.  1.
          2   -1    0    0  502    0  0.00000000000E+00 -0.00000000000E+00 -0.21453869305E+03  0.21453869305E+03  0.00000000000E+00 0. -1.
          6    1    1    2  502    0 -0.10563895861E+03 -0.43061917334E+02 -0.73739819922E+02  0.21916997820E+03  0.17200000000E+03 0.  1.
         -6    1    1    2    0  501  0.10563895861E+03  0.43061917334E+02  0.88333452339E+02  0.22450104032E+03  0.17200000000E+03 0.  1.
</event>
<event>
 4    1  0.3169553E-002  0.2264496E+03  0.7818608E-02  0.1129164E+00
         -2   -1    0    0    0  501 -0.00000000000E+00  0.00000000000E+00  0.34467906877E+02  0.34467906877E+02  0.00000000000E+00 0.  1.
          2   -1    0    0  502    0  0.00000000000E+00 -0.00000000000E+00 -0.23940068279E+04  0.23940068279E+04  0.00000000000E+00 0. -1.
          6    1    1    2  502    0  0.86995253110E+02  0.11885807389E+03 -0.19268510355E+04  0.19401119372E+04  0.17200000000E+03 0. -1.
         -6    1    1    2    0  501 -0.86995253110E+02 -0.11885807389E+03 -0.43268788548E+03  0.48836279755E+03  0.17200000000E+03 0.  1.
</event>
<event>
 4    1  0.3169553E-002  0.2044112E+03  0.7818608E-02  0.1146070E+00
         -2   -1    0    0    0  501 -0.00000000000E+00  0.00000000000E+00  0.11756950719E+03  0.11756950719E+03  0.00000000000E+00 0.  1.
          2   -1    0    0  502    0  0.00000000000E+00 -0.00000000000E+00 -0.10799306356E+04  0.10799306356E+04  0.00000000000E+00 0. -1.
          6    1    1    2  502    0  0.81188429335E+01  0.11015463178E+03 -0.97161013362E+03  0.99287975619E+03  0.17200000000E+03 0. -1.
         -6    1    1    2    0  501 -0.81188429335E+01 -0.11015463178E+03  0.92490052070E+01  0.20462038659E+03  0.17200000000E+03 0.  1.
</event>
<event>
 4    1  0.3169553E-002  0.4179223E+03  0.7818608E-02  0.1037745E+00
          1   -1    0    0  502    0  0.00000000000E+00  0.00000000000E+00  0.95734080057E+03  0.95734080057E+03  0.00000000000E+00 0. -1.
         -1   -1    0    0    0  501 -0.00000000000E+00 -0.00000000000E+00 -0.29553402966E+03  0.29553402966E+03  0.00000000000E+00 0.  1.
          6    1    1    2  502    0  0.24403773300E+03 -0.29243910758E+03  0.71841987577E+03  0.83113546710E+03  0.17200000000E+03 0. -1.
         -6    1    1    2    0  501 -0.24403773300E+03  0.29243910758E+03 -0.56613104857E+02  0.42173936313E+03  0.17200000000E+03 0.  1.
</event>
<event>
 4    1  0.3169553E-002  0.1858160E+03  0.7818608E-02  0.1162290E+00
         -1   -1    0    0    0  501 -0.00000000000E+00  0.00000000000E+00  0.47915361812E+03  0.47915361812E+03  0.00000000000E+00 0.  1.
          1   -1    0    0  502    0  0.00000000000E+00 -0.00000000000E+00 -0.72617151422E+02  0.72617151422E+02  0.00000000000E+00 0. -1.
          6    1    1    2  502    0 -0.26668722316E+02  0.65056658834E+02  0.22744368958E+03  0.29369750005E+03  0.17200000000E+03 0. -1.
         -6    1    1    2    0  501  0.26668722316E+02 -0.65056658834E+02  0.17909277713E+03  0.25807326949E+03  0.17200000000E+03 0. -1.
</event>
<event>
 4    1  0.3169553E-002  0.2634937E+03  0.7818608E-02  0.1105062E+00
          2   -1    0    0  502    0  0.00000000000E+00  0.00000000000E+00  0.19945647185E+04  0.19945647185E+04  0.00000000000E+00 0. -1.
         -2   -1    0    0    0  501 -0.00000000000E+00 -0.00000000000E+00 -0.37166892405E+02  0.37166892405E+02  0.00000000000E+00 0.  1.
          6    1    1    2  502    0  0.10846956737E+03 -0.16756868896E+03  0.12345664348E+04  0.12623720507E+04  0.17200000000E+03 0. -1.
         -6    1    1    2    0  501 -0.10846956737E+03  0.16756868896E+03  0.72283139131E+03  0.76935956017E+03  0.17200000000E+03 0.  1.
</event>
<event>
 4    1  0.3169553E-002  0.1729202E+03  0.7818608E-02  0.1174836E+00
         -3   -1    0    0    0  501 -0.00000000000E+00  0.00000000000E+00  0.69964933638E+02  0.69964933638E+02  0.00000000000E+00 0.  1.
          3   -1    0    0  502    0  0.00000000000E+00 -0.00000000000E+00 -0.48739449284E+03  0.48739449284E+03  0.00000000000E+00 0. -1.
          6    1    1    2  502    0  0.13288300787E+02  0.11866322479E+02 -0.30650709774E+03  0.35192043066E+03  0.17200000000E+03 0. -1.
         -6    1    1    2    0  501 -0.13288300787E+02 -0.11866322479E+02 -0.11092246145E+03  0.20543899582E+03  0.17200000000E+03 0.  1.
</event>
<event>
 4    1  0.3169553E-002  0.1777054E+03  0.7818608E-02  0.1170042E+00
          2   -1    0    0  502    0  0.00000000000E+00  0.00000000000E+00  0.18900221095E+04  0.18900221095E+04  0.00000000000E+00 0. -1.
         -2   -1    0    0    0  501 -0.00000000000E+00 -0.00000000000E+00 -0.23640896175E+02  0.23640896175E+02  0.00000000000E+00 0.  1.
          6    1    1    2  502    0 -0.26552119443E+02 -0.35919471584E+02  0.41504874577E+03  0.45149162212E+03  0.17200000000E+03 0.  1.
         -6    1    1    2    0  501  0.26552119443E+02  0.35919471584E+02  0.14513324676E+04  0.14621713836E+04  0.17200000000E+03 0. -1.
</event>
<event>
 4    1  0.3169553E-002  0.2454560E+03  0.7818608E-02  0.1116211E+00
         -2   -1    0    0    0  501 -0.00000000000E+00  0.00000000000E+00  0.69042854654E+02  0.69042854654E+02  0.00000000000E+00 0.  1.
          2   -1    0    0  502    0  0.00000000000E+00 -0.00000000000E+00 -0.19840355325E+04  0.19840355325E+04  0.00000000000E+00 0. -1.
          6    1    1    2  502    0  0.10081242169E+03 -0.14318345326E+03 -0.17258085119E+04  0.17431763150E+04  0.17200000000E+03 0. -1.
         -6    1    1    2    0  501 -0.10081242169E+03  0.14318345326E+03 -0.18918416600E+03  0.30990207214E+03  0.17200000000E+03 0.  1.
</event>
<event>
 4    1  0.3169553E-002  0.2082145E+03  0.7818608E-02  0.1142988E+00
         -2   -1    0    0    0  501 -0.00000000000E+00  0.00000000000E+00  0.27003454420E+02  0.27003454420E+02  0.00000000000E+00 0.  1.
          2   -1    0    0  502    0  0.00000000000E+00 -0.00000000000E+00 -0.17662583170E+04  0.17662583170E+04  0.00000000000E+00 0. -1.
          6    1    1    2  502    0 -0.97369093640E+02 -0.65486842812E+02 -0.11401554666E+04  0.11590115422E+04  0.17200000000E+03 0. -1.
         -6    1    1    2    0  501  0.97369093640E+02  0.65486842812E+02 -0.59909939596E+03  0.63425022918E+03  0.17200000000E+03 0.  1.
</event>
<event>
 4    1  0.3169553E-002  0.2138199E+03  0.7818608E-02  0.1138576E+00
          2   -1    0    0  502    0  0.00000000000E+00  0.00000000000E+00  0.16657795462E+04  0.16657795462E+04  0.00000000000E+00 0. -1.
         -2   -1    0    0    0  501 -0.00000000000E+00 -0.00000000000E+00 -0.42968710304E+02  0.42968710304E+02  0.00000000000E+00 0.  1.
          6    1    1    2  502    0  0.12320238890E+03 -0.30921358783E+02  0.13249237205E+04  0.13420662518E+04  0.17200000000E+03 0. -1.
         -6    1    1    2    0  501 -0.12320238890E+03  0.30921358783E+02  0.29788711539E+03  0.36668200471E+03  0.17200000000E+03 0.  1.
</event>
<event>
 4    1  0.3169553E-002  0.4750888E+03  0.7818608E-02  0.1020494E+00
         -1   -1    0    0    0  501 -0.00000000000E+00  0.00000000000E+00  0.16310460523E+03  0.16310460523E+03  0.00000000000E+00 0.  1.
          1   -1    0    0  502    0  0.00000000000E+00 -0.00000000000E+00 -0.13969201597E+04  0.13969201597E+04  0.00000000000E+00 0. -1.
          6    1    1    2  502    0  0.43888289384E+03  0.59221193580E+02 -0.69240966733E+03  0.83972643860E+03  0.17200000000E+03 0. -1.
         -6    1    1    2    0  501 -0.43888289384E+03 -0.59221193580E+02 -0.54140588712E+03  0.72029832631E+03  0.17200000000E+03 0.  1.
</event>
<event>
 4    1  0.3169553E-002  0.4440903E+03  0.7818608E-02  0.1029499E+00
         -1   -1    0    0    0  501 -0.00000000000E+00  0.00000000000E+00  0.12304443285E+04  0.12304443285E+04  0.00000000000E+00 0.  1.
          1   -1    0    0  502    0  0.00000000000E+00 -0.00000000000E+00 -0.16117309993E+03  0.16117309993E+03  0.00000000000E+00 0. -1.
          6    1    1    2  502    0  0.14110745444E+02  0.40918583633E+03  0.58641846190E+03  0.73559688298E+03  0.17200000000E+03 0. -1.
         -6    1    1    2    0  501 -0.14110745444E+02 -0.40918583633E+03  0.48285276672E+03  0.65602054550E+03  0.17200000000E+03 0. -1.
</event>
<event>
 4    1  0.3169553E-002  0.2587615E+03  0.7818608E-02  0.1107890E+00
         -2   -1    0    0    0  501 -0.00000000000E+00  0.00000000000E+00  0.12503830478E+03  0.12503830478E+03  0.00000000000E+00 0.  1.
          2   -1    0    0  502    0  0.00000000000E+00 -0.00000000000E+00 -0.90876832817E+03  0.90876832817E+03  0.00000000000E+00 0. -1.
          6    1    1    2  502    0  0.10764880484E+03 -0.16057779873E+03 -0.72314538436E+03  0.76804735632E+03  0.17200000000E+03 0. -1.
         -6    1    1    2    0  501 -0.10764880484E+03  0.16057779873E+03 -0.60584639023E+02  0.26575927663E+03  0.17200000000E+03 0.  1.
</event>
<event>
 4    1  0.3169553E-002  0.1975381E+03  0.7818608E-02  0.1151833E+00
         -2   -1    0    0    0  501 -0.00000000000E+00  0.00000000000E+00  0.18751655974E+03  0.18751655974E+03  0.00000000000E+00 0.  1.
          2   -1    0    0  502    0  0.00000000000E+00 -0.00000000000E+00 -0.30348378883E+03  0.30348378883E+03  0.00000000000E+00 0. -1.
          6    1    1    2  502    0  0.39163678443E+02  0.88901779833E+02 -0.19561959303E+03  0.27800781526E+03  0.17200000000E+03 0. -1.
         -6    1    1    2    0  501 -0.39163678443E+02 -0.88901779833E+02  0.79652363942E+02  0.21299253332E+03  0.17200000000E+03 0.  1.
</event>
<event>
 4    1  0.3169553E-002  0.2485908E+03  0.7818608E-02  0.1114199E+00
          1   -1    0    0  502    0  0.00000000000E+00  0.00000000000E+00  0.33769849386E+03  0.33769849386E+03  0.00000000000E+00 0. -1.
         -1   -1    0    0    0  501 -0.00000000000E+00 -0.00000000000E+00 -0.18353662840E+03  0.18353662840E+03  0.00000000000E+00 0.  1.
          6    1    1    2  502    0 -0.95307591845E+02  0.15208508129E+03  0.91228068311E+02  0.26480175502E+03  0.17200000000E+03 0.  1.
         -6    1    1    2    0  501  0.95307591845E+02 -0.15208508129E+03  0.62933797152E+02  0.25643336725E+03  0.17200000000E+03 0.  1.
</event>
<event>
 4    1  0.3169553E-002  0.1728209E+03  0.7818608E-02  0.1174938E+00
          1   -1    0    0  502    0  0.00000000000E+00  0.00000000000E+00  0.27997954272E+02  0.27997954272E+02  0.00000000000E+00 0. -1.
         -1   -1    0    0    0  501 -0.00000000000E+00 -0.00000000000E+00 -0.11912935225E+04  0.11912935225E+04  0.00000000000E+00 0.  1.
          6    1    1    2  502    0 -0.10093845230E+00 -0.16824216501E+02 -0.77875991780E+03  0.79770550582E+03  0.17200000000E+03 0.  1.
         -6    1    1    2    0  501  0.10093845230E+00  0.16824216501E+02 -0.38453565042E+03  0.42158597094E+03  0.17200000000E+03 0. -1.
</event>
<event>
 4    1  0.3169553E-002  0.1965700E+03  0.7818608E-02  0.1152666E+00
         -2   -1    0    0    0  501 -0.00000000000E+00  0.00000000000E+00  0.11174482474E+03  0.11174482474E+03  0.00000000000E+00 0.  1.
          2   -1    0    0  502    0  0.00000000000E+00 -0.00000000000E+00 -0.37009565618E+03  0.37009565618E+03  0.00000000000E+00 0. -1.
          6    1    1    2  502    0  0.94127781220E+02  0.13990167246E+02 -0.19092133481E+03  0.27402686011E+03  0.17200000000E+03 0. -1.
         -6    1    1    2    0  501 -0.94127781220E+02 -0.13990167246E+02 -0.67429496632E+02  0.20781362081E+03  0.17200000000E+03 0.  1.
</event>
<event>
 4    1  0.3169553E-002  0.1944906E+03  0.7818608E-02  0.1154472E+00
         -2   -1    0    0    0  501 -0.00000000000E+00  0.00000000000E+00  0.25647744138E+02  0.25647744138E+02  0.00000000000E+00 0.  1.
          2   -1    0    0  502    0  0.00000000000E+00 -0.00000000000E+00 -0.15376006668E+04  0.15376006668E+04  0.00000000000E+00 0. -1.
          6    1    1    2  502    0 -0.84086757228E+02  0.34234458519E+02 -0.59807554211E+03  0.62890455155E+03  0.17200000000E+03 0. -1.
         -6    1    1    2    0  501  0.84086757228E+02 -0.34234458519E+02 -0.91387738060E+03  0.93434385943E+03  0.17200000000E+03 0.  1.
</event>
<event>
 4    1  0.3169553E-002  0.3860406E+03  0.7818608E-02  0.1048723E+00
         -1   -1    0    0    0  501 -0.00000000000E+00  0.00000000000E+00  0.15301746207E+03  0.15301746207E+03  0.00000000000E+00 0.  1.
          1   -1    0    0  502    0  0.00000000000E+00 -0.00000000000E+00 -0.23397760834E+04  0.23397760834E+04  0.00000000000E+00 0. -1.
          6    1    1    2  502    0  0.17521527725E+03 -0.29789760897E+03 -0.20456732092E+04  0.20817795891E+04  0.17200000000E+03 0. -1.
         -6    1    1    2    0  501 -0.17521527725E+03  0.29789760897E+03 -0.14108541214E+03  0.41101395637E+03  0.17200000000E+03 0.  1.
</event>
<event>
 4    1  0.3169553E-002  0.1948016E+03  0.7818608E-02  0.1154201E+00
          2   -1    0    0  502    0  0.00000000000E+00  0.00000000000E+00  0.38014922169E+03  0.38014922169E+03  0.00000000000E+00 0. -1.
         -2   -1    0    0    0  501 -0.00000000000E+00 -0.00000000000E+00 -0.10285410141E+03  0.10285410141E+03  0.00000000000E+00 0.  1.
          6    1    1    2  502    0 -0.51738771381E+02  0.75410653197E+02  0.97190008916E+02  0.21770063140E+03  0.17200000000E+03 0.  1.
         -6    1    1    2    0  501  0.51738771381E+02 -0.75410653197E+02  0.18010511137E+03  0.26530269170E+03  0.17200000000E+03 0. -1.
</event>
<event>
 4    1  0.3169553E-002  0.4831690E+03  0.7818608E-02  0.1018268E+00
          2   -1    0    0  502    0  0.00000000000E+00  0.00000000000E+00  0.13578535666E+04  0.13578535666E+04  0.00000000000E+00 0. -1.
         -2   -1    0    0    0  501 -0.00000000000E+00 -0.00000000000E+00 -0.36476717831E+03  0.36476717831E+03  0.00000000000E+00 0.  1.
          6    1    1    2  502    0 -0.35583825107E+03  0.27793416940E+03  0.11227965804E+04  0.12223438242E+04  0.17200000000E+03 0. -1.
         -6    1    1    2    0  501  0.35583825107E+03 -0.27793416940E+03 -0.12971019217E+03  0.50027692071E+03  0.17200000000E+03 0.  1.
</event>
<event>
 4    1  0.3169553E-002  0.2225724E+03  0.7818608E-02  0.1131980E+00
         -2   -1    0    0    0  501 -0.00000000000E+00  0.00000000000E+00  0.13564655174E+03  0.13564655174E+03  0.00000000000E+00 0.  1.
          2   -1    0    0  502    0  0.00000000000E+00 -0.00000000000E+00 -0.36544501383E+03  0.36544501383E+03  0.00000000000E+00 0. -1.
          6    1    1    2  502    0 -0.13253783983E+03  0.48869041418E+02 -0.12135322560E+03  0.25350555725E+03  0.17200000000E+03 0. -1.
         -6    1    1    2    0  501  0.13253783983E+03 -0.48869041418E+02 -0.10844523650E+03  0.24758600832E+03  0.17200000000E+03 0.  1.
</event>
<event>
 4    1  0.3169553E-002  0.2408680E+03  0.7818608E-02  0.1119216E+00
          1   -1    0    0  502    0  0.00000000000E+00  0.00000000000E+00  0.37488532528E+03  0.37488532528E+03  0.00000000000E+00 0. -1.
         -1   -1    0    0    0  501 -0.00000000000E+00 -0.00000000000E+00 -0.41304111470E+03  0.41304111470E+03  0.00000000000E+00 0.  1.
          6    1    1    2  502    0  0.14949295460E+03  0.78007937853E+02  0.29245583413E+03  0.37887702063E+03  0.17200000000E+03 0. -1.
         -6    1    1    2    0  501 -0.14949295460E+03 -0.78007937853E+02 -0.33061162355E+03  0.40904941935E+03  0.17200000000E+03 0.  1.
</event>
<event>
 4    1  0.3169553E-002  0.5417044E+03  0.7818608E-02  0.1003432E+00
          2   -1    0    0  502    0  0.00000000000E+00  0.00000000000E+00  0.42242148824E+04  0.42242148824E+04  0.00000000000E+00 0. -1.
         -2   -1    0    0    0  501 -0.00000000000E+00 -0.00000000000E+00 -0.79685549979E+02  0.79685549979E+02  0.00000000000E+00 0.  1.
          6    1    1    2  502    0 -0.18839152797E+03 -0.47787891616E+03  0.28428781633E+04  0.28940283132E+04  0.17200000000E+03 0. -1.
         -6    1    1    2    0  501  0.18839152797E+03  0.47787891616E+03  0.13016511691E+04  0.14098721192E+04  0.17200000000E+03 0.  1.
</event>
<event>
 4    1  0.3169553E-002  0.1901099E+03  0.7818608E-02  0.1158362E+00
          1   -1    0    0  502    0  0.00000000000E+00  0.00000000000E+00  0.56029276089E+03  0.56029276089E+03  0.00000000000E+00 0. -1.
         -1   -1    0    0    0  501 -0.00000000000E+00 -0.00000000000E+00 -0.65315665695E+02  0.65315665695E+02  0.00000000000E+00 0.  1.
          6    1    1    2  502    0  0.75994540405E+02  0.27975190921E+02  0.28233338680E+03  0.34037321102E+03  0.17200000000E+03 0. -1.
         -6    1    1    2    0  501 -0.75994540405E+02 -0.27975190921E+02  0.21264370840E+03  0.28523521557E+03  0.17200000000E+03 0.  1.
</event>
<event>
 4    1  0.3169553E-002  0.2367213E+03  0.7818608E-02  0.1121996E+00
         -2   -1    0    0    0  501 -0.00000000000E+00  0.00000000000E+00  0.58569053793E+02  0.58569053793E+02  0.00000000000E+00 0.  1.
          2   -1    0    0  502    0  0.00000000000E+00 -0.00000000000E+00 -0.11848044872E+04  0.11848044872E+04  0.00000000000E+00 0. -1.
          6    1    1    2  502    0 -0.15541937023E+03  0.47935345570E+02 -0.29037651366E+03  0.37464049125E+03  0.17200000000E+03 0.  1.
         -6    1    1    2    0  501  0.15541937023E+03 -0.47935345570E+02 -0.83585891979E+03  0.86873304979E+03  0.17200000000E+03 0.  1.
</event>
<event>
 4    1  0.3169553E-002  0.2892638E+03  0.7818608E-02  0.1090734E+00
          2   -1    0    0  502    0  0.00000000000E+00  0.00000000000E+00  0.82948122601E+03  0.82948122601E+03  0.00000000000E+00 0. -1.
         -2   -1    0    0    0  501 -0.00000000000E+00 -0.00000000000E+00 -0.10273393924E+03  0.10273393924E+03  0.00000000000E+00 0.  1.
          6    1    1    2  502    0  0.16127762203E+03 -0.16756816123E+03  0.30066718154E+03  0.41722213997E+03  0.17200000000E+03 0. -1.
         -6    1    1    2    0  501 -0.16127762203E+03  0.16756816123E+03  0.42608010523E+03  0.51499302529E+03  0.17200000000E+03 0. -1.
</event>
<event>
 4    1  0.3169553E-002  0.1881445E+03  0.7818608E-02  0.1160146E+00
         -1   -1    0    0    0  501 -0.00000000000E+00  0.00000000000E+00  0.73304889160E+03  0.73304889160E+03  0.00000000000E+00 0.  1.
          1   -1    0    0  502    0  0.00000000000E+00 -0.00000000000E+00 -0.10796816922E+03  0.10796816922E+03  0.00000000000E+00 0. -1.
          6    1    1    2  502    0  0.57980382095E+02 -0.49523832875E+02 -0.94675271243E-01  0.18814447559E+03  0.17200000000E+03 0. -1.
         -6    1    1    2    0  501 -0.57980382095E+02  0.49523832875E+02  0.62517539765E+03  0.65287258524E+03  0.17200000000E+03 0.  1.
</event>
<event>
 4    1  0.3169553E-002  0.2132204E+03  0.7818608E-02  0.1139041E+00
          2   -1    0    0  502    0  0.00000000000E+00  0.00000000000E+00  0.23621995002E+03  0.23621995002E+03  0.00000000000E+00 0. -1.
         -2   -1    0    0    0  501 -0.00000000000E+00 -0.00000000000E+00 -0.22092950812E+03  0.22092950812E+03  0.00000000000E+00 0.  1.
          6    1    1    2  502    0  0.43406149829E+02  0.11829989657E+03  0.89697215736E+02  0.23131915157E+03  0.17200000000E+03 0.  1.
         -6    1    1    2    0  501 -0.43406149829E+02 -0.11829989657E+03 -0.74406773841E+02  0.22583030657E+03  0.17200000000E+03 0.  1.
</event>
<event>
 4    1  0.3169553E-002  0.1942386E+03  0.7818608E-02  0.1154693E+00
         -1   -1    0    0    0  501 -0.00000000000E+00  0.00000000000E+00  0.13757475083E+03  0.13757475083E+03  0.00000000000E+00 0.  1.
          1   -1    0    0  502    0  0.00000000000E+00 -0.00000000000E+00 -0.30478290747E+03  0.30478290747E+03  0.00000000000E+00 0. -1.
          6    1    1    2  502    0  0.17200632884E+02 -0.88593381827E+02 -0.13588332725E+02  0.19471335820E+03  0.17200000000E+03 0.  1.
         -6    1    1    2    0  501 -0.17200632884E+02  0.88593381827E+02 -0.15361982391E+03  0.24764430010E+03  0.17200000000E+03 0. -1.
</event>
<event>
 4    1  0.3169553E-002  0.3068183E+03  0.7818608E-02  0.1081881E+00
          2   -1    0    0  502    0  0.00000000000E+00  0.00000000000E+00  0.10508717960E+04  0.10508717960E+04  0.00000000000E+00 0. -1.
         -2   -1    0    0    0  501 -0.00000000000E+00 -0.00000000000E+00 -0.92183379946E+02  0.92183379946E+02  0.00000000000E+00 0.  1.
          6    1    1    2  502    0  0.21545917948E+03  0.13465072238E+03  0.57538362895E+03  0.65207652582E+03  0.17200000000E+03 0. -1.
         -6    1    1    2    0  501 -0.21545917948E+03 -0.13465072238E+03  0.38330478706E+03  0.49097865009E+03  0.17200000000E+03 0.  1.
</event>
<event>
 4    1  0.3169553E-002  0.2215651E+03  0.7818608E-02  0.1132722E+00
         -2   -1    0    0    0  501 -0.00000000000E+00  0.00000000000E+00  0.33021648226E+02  0.33021648226E+02  0.00000000000E+00 0.  1.
          2   -1    0    0  502    0  0.00000000000E+00 -0.00000000000E+00 -0.14983232970E+04  0.14983232970E+04  0.00000000000E+00 0. -1.
          6    1    1    2  502    0  0.10679461576E+03  0.90011063724E+02 -0.66501953769E+03  0.70095796383E+03  0.17200000000E+03 0. -1.
         -6    1    1    2    0  501 -0.10679461576E+03 -0.90011063724E+02 -0.80028211105E+03  0.83038698136E+03  0.17200000000E+03 0.  1.
</event>
<event>
 4    1  0.3169553E-002  0.2590372E+03  0.7818608E-02  0.1107723E+00
          2   -1    0    0  502    0  0.00000000000E+00  0.00000000000E+00  0.15147533150E+03  0.15147533150E+03  0.00000000000E+00 0. -1.
         -2   -1    0    0    0  501 -0.00000000000E+00 -0.00000000000E+00 -0.45961851612E+03  0.45961851612E+03  0.00000000000E+00 0.  1.
          6    1    1    2  502    0  0.17604014200E+02 -0.19288951206E+03 -0.21220962512E+03  0.33486294237E+03  0.17200000000E+03 0. -1.
         -6    1    1    2    0  501 -0.17604014200E+02  0.19288951206E+03 -0.95933559506E+02  0.27623090525E+03  0.17200000000E+03 0. -1.
</event>
<event>
 4    1  0.3169553E-002  0.1803401E+03  0.7818608E-02  0.1167474E+00
          2   -1    0    0  502    0  0.00000000000E+00  0.00000000000E+00  0.55060969237E+03  0.55060969237E+03  0.00000000000E+00 0. -1.
         -2   -1    0    0    0  501 -0.00000000000E+00 -0.00000000000E+00 -0.99419943300E+02  0.99419943300E+02  0.00000000000E+00 0.  1.
          6    1    1    2  502    0 -0.53124773942E+02 -0.10785267517E+02  0.43265998938E+03  0.46874004524E+03  0.17200000000E+03 0. -1.
         -6    1    1    2    0  501  0.53124773942E+02  0.10785267517E+02  0.18529759684E+02  0.18128959042E+03  0.17200000000E+03 0.  1.
</event>
<event>
 4    1  0.3169553E-002  0.1912012E+03  0.7818608E-02  0.1157382E+00
         -2   -1    0    0    0  501 -0.00000000000E+00  0.00000000000E+00  0.10547048262E+02  0.10547048262E+02  0.00000000000E+00 0.  1.
          2   -1    0    0  502    0  0.00000000000E+00 -0.00000000000E+00 -0.34933862078E+04  0.34933862078E+04  0.00000000000E+00 0. -1.
          6    1    1    2  502    0  0.63130564079E+02  0.54666413151E+02 -0.18960515387E+04  0.19056676841E+04  0.17200000000E+03 0. -1.
         -6    1    1    2    0  501 -0.63130564079E+02 -0.54666413151E+02 -0.15867876208E+04  0.15982655719E+04  0.17200000000E+03 0.  1.
</event>
<event>
 4    1  0.3169553E-002  0.2132628E+03  0.7818608E-02  0.1139008E+00
          2   -1    0    0  502    0  0.00000000000E+00  0.00000000000E+00  0.93473132176E+03  0.93473132176E+03  0.00000000000E+00 0. -1.
         -2   -1    0    0    0  501 -0.00000000000E+00 -0.00000000000E+00 -0.48657606721E+02  0.48657606721E+02  0.00000000000E+00 0.  1.
          6    1    1    2  502    0  0.12608318552E+03 -0.21241756115E+00  0.44100815682E+03  0.48986652179E+03  0.17200000000E+03 0. -1.
         -6    1    1    2    0  501 -0.12608318552E+03  0.21241756115E+00  0.44506555822E+03  0.49352240669E+03  0.17200000000E+03 0. -1.
</event>
<event>
 4    1  0.3169553E-002  0.8448101E+03  0.7818608E-02  0.9497329E-01
          2   -1    0    0  502    0  0.00000000000E+00  0.00000000000E+00  0.44594612586E+03  0.44594612586E+03  0.00000000000E+00 0. -1.
         -2   -1    0    0    0  501 -0.00000000000E+00 -0.00000000000E+00 -0.18968095369E+04  0.18968095369E+04  0.00000000000E+00 0.  1.
          6    1    1    2  502    0  0.42439430034E+03 -0.70993628190E+03 -0.26239893413E+03  0.88462265806E+03  0.17200000000E+03 0. -1.
         -6    1    1    2    0  501 -0.42439430034E+03  0.70993628190E+03 -0.11884644769E+04  0.14581330047E+04  0.17200000000E+03 0.  1.
</event>
<event>
 4    1  0.3169553E-002  0.4398974E+03  0.7818608E-02  0.1030778E+00
          2   -1    0    0  502    0  0.00000000000E+00  0.00000000000E+00  0.10455325882E+04  0.10455325882E+04  0.00000000000E+00 0. -1.
         -2   -1    0    0    0  501 -0.00000000000E+00 -0.00000000000E+00 -0.36248078701E+03  0.36248078701E+03  0.00000000000E+00 0.  1.
          6    1    1    2  502    0  0.33108935775E+03 -0.23303558567E+03  0.83402908670E+03  0.94292855746E+03  0.17200000000E+03 0. -1.
         -6    1    1    2    0  501 -0.33108935775E+03  0.23303558567E+03 -0.15097728548E+03  0.46508481779E+03  0.17200000000E+03 0.  1.
</event>
<event>
 4    1  0.3169553E-002  0.3023875E+03  0.7818608E-02  0.1084053E+00
          2   -1    0    0  502    0  0.00000000000E+00  0.00000000000E+00  0.24916132141E+04  0.24916132141E+04  0.00000000000E+00 0. -1.
         -2   -1    0    0    0  501 -0.00000000000E+00 -0.00000000000E+00 -0.44318289261E+02  0.44318289261E+02  0.00000000000E+00 0.  1.
          6    1    1    2  502    0  0.23795332492E+03  0.72335533123E+02  0.69788399361E+03  0.76057891289E+03  0.17200000000E+03 0. -1.
         -6    1    1    2    0  501 -0.23795332492E+03 -0.72335533123E+02  0.17494109312E+04  0.17753525905E+04  0.17200000000E+03 0.  1.
</event>
<event>
 4    1  0.3169553E-002  0.3555142E+03  0.7818608E-02  0.1060374E+00
          2   -1    0    0  502    0  0.00000000000E+00  0.00000000000E+00  0.83351426511E+03  0.83351426511E+03  0.00000000000E+00 0. -1.
         -2   -1    0    0    0  501 -0.00000000000E+00 -0.00000000000E+00 -0.20327040977E+03  0.20327040977E+03  0.00000000000E+00 0.  1.
          6    1    1    2  502    0 -0.27568480659E+03 -0.14423673238E+03  0.57639414290E+03  0.67721529481E+03  0.17200000000E+03 0. -1.
         -6    1    1    2    0  501  0.27568480659E+03  0.14423673238E+03  0.53849712434E+02  0.35956938007E+03  0.17200000000E+03 0.  1.
</event>
<event>
 4    1  0.3169553E-002  0.2402394E+03  0.7818608E-02  0.1119633E+00
          2   -1    0    0  502    0  0.00000000000E+00  0.00000000000E+00  0.29155500360E+04  0.29155500360E+04  0.00000000000E+00 0. -1.
         -2   -1    0    0    0  501 -0.00000000000E+00 -0.00000000000E+00 -0.20252187242E+02  0.20252187242E+02  0.00000000000E+00 0.  1.
          6    1    1    2  502    0 -0.44849891827E+02 -0.16161522143E+03  0.16680603416E+04  0.16852715793E+04  0.17200000000E+03 0. -1.
         -6    1    1    2    0  501  0.44849891827E+02  0.16161522143E+03  0.12272375071E+04  0.12505306439E+04  0.17200000000E+03 0.  1.
</event>
<event>
 4    1  0.3169553E-002  0.2200032E+03  0.7818608E-02  0.1133881E+00
          2   -1    0    0  502    0  0.00000000000E+00  0.00000000000E+00  0.96124651707E+03  0.96124651707E+03  0.00000000000E+00 0. -1.
         -2   -1    0    0    0  501 -0.00000000000E+00 -0.00000000000E+00 -0.86261878334E+02  0.86261878334E+02  0.00000000000E+00 0.  1.
          6    1    1    2  502    0 -0.10718782936E+03  0.85604702779E+02  0.77541749932E+03  0.80602338313E+03  0.17200000000E+03 0. -1.
         -6    1    1    2    0  501  0.10718782936E+03 -0.85604702779E+02  0.99567139417E+02  0.24148501227E+03  0.17200000000E+03 0.  1.
</event>
<event>
 4    1  0.3169553E-002  0.1875445E+03  0.7818608E-02  0.1160695E+00
          2   -1    0    0  502    0  0.00000000000E+00  0.00000000000E+00  0.11208077386E+04  0.11208077386E+04  0.00000000000E+00 0. -1.
         -2   -1    0    0    0  501 -0.00000000000E+00 -0.00000000000E+00 -0.32474066040E+02  0.32474066040E+02  0.00000000000E+00 0.  1.
          6    1    1    2  502    0 -0.47848981638E+02  0.57440549533E+02  0.43841076252E+03  0.47684057972E+03  0.17200000000E+03 0.  1.
         -6    1    1    2    0  501  0.47848981638E+02 -0.57440549533E+02  0.64992291000E+03  0.67644122488E+03  0.17200000000E+03 0. -1.
</event>
<event>
 4    1  0.3169553E-002  0.2023970E+03  0.7818608E-02  0.1147732E+00
         -1   -1    0    0    0  501 -0.00000000000E+00  0.00000000000E+00  0.34975214462E+02  0.34975214462E+02  0.00000000000E+00 0.  1.
          1   -1    0    0  502    0  0.00000000000E+00 -0.00000000000E+00 -0.17951306232E+04  0.17951306232E+04  0.00000000000E+00 0. -1.
          6    1    1    2  502    0  0.10640716590E+03 -0.76184305615E+01 -0.14195272940E+04  0.14338836298E+04  0.17200000000E+03 0. -1.
         -6    1    1    2    0  501 -0.10640716590E+03  0.76184305615E+01 -0.34062811471E+03  0.39622220782E+03  0.17200000000E+03 0.  1.
</event>
<event>
 4    1  0.3169553E-002  0.1741253E+03  0.7818608E-02  0.1173613E+00
         -2   -1    0    0    0  501 -0.00000000000E+00  0.00000000000E+00  0.36752765559E+02  0.36752765559E+02  0.00000000000E+00 0.  1.
          2   -1    0    0  502    0  0.00000000000E+00 -0.00000000000E+00 -0.15918068159E+04  0.15918068159E+04  0.00000000000E+00 0. -1.
          6    1    1    2  502    0  0.17537817534E+02 -0.20689227725E+02 -0.13427012418E+04  0.13539446975E+04  0.17200000000E+03 0. -1.
         -6    1    1    2    0  501 -0.17537817534E+02  0.20689227725E+02 -0.21235280852E+03  0.27461488393E+03  0.17200000000E+03 0.  1.
</event>
<event>
 4    1  0.3169553E-002  0.4554266E+03  0.7818608E-02  0.1026116E+00
         -2   -1    0    0    0  501 -0.00000000000E+00  0.00000000000E+00  0.15229038977E+03  0.15229038977E+03  0.00000000000E+00 0.  1.
          2   -1    0    0  502    0  0.00000000000E+00 -0.00000000000E+00 -0.13759301975E+04  0.13759301975E+04  0.00000000000E+00 0. -1.
          6    1    1    2  502    0  0.26289224196E+03  0.32972272495E+03 -0.68881453641E+03  0.82575957264E+03  0.17200000000E+03 0.  1.
         -6    1    1    2    0  501 -0.26289224196E+03 -0.32972272495E+03 -0.53482527136E+03  0.70246101467E+03  0.17200000000E+03 0.  1.
</event>
<event>
 4    1  0.3169553E-002  0.2719431E+03  0.7818608E-02  0.1100173E+00
          2   -1    0    0  502    0  0.00000000000E+00  0.00000000000E+00  0.94835096804E+03  0.94835096804E+03  0.00000000000E+00 0. -1.
         -2   -1    0    0    0  501 -0.00000000000E+00 -0.00000000000E+00 -0.80258635905E+02  0.80258635905E+02  0.00000000000E+00 0.  1.
          6    1    1    2  502    0 -0.20492741442E+03  0.48721902977E+02  0.52069161899E+03  0.58742900090E+03  0.17200000000E+03 0. -1.
         -6    1    1    2    0  501  0.20492741442E+03 -0.48721902977E+02  0.34740071315E+03  0.44118060305E+03  0.17200000000E+03 0.  1.
</event>
<event>
 4    1  0.3169553E-002  0.1882743E+03  0.7818608E-02  0.1160027E+00
          3   -1    0    0  502    0  0.00000000000E+00  0.00000000000E+00  0.82270567054E+03  0.82270567054E+03  0.00000000000E+00 0. -1.
         -3   -1    0    0    0  501 -0.00000000000E+00 -0.00000000000E+00 -0.85952803076E+02  0.85952803076E+02  0.00000000000E+00 0.  1.
          6    1    1    2  502    0  0.71127081594E+02 -0.28357850933E+02  0.68922521394E+03  0.71447786878E+03  0.17200000000E+03 0. -1.
         -6    1    1    2    0  501 -0.71127081594E+02  0.28357850933E+02  0.47527653526E+02  0.19418060484E+03  0.17200000000E+03 0.  1.
</event>
<event>
 4    1  0.3169553E-002  0.3847549E+03  0.7818608E-02  0.1049190E+00
          2   -1    0    0  502    0  0.00000000000E+00  0.00000000000E+00  0.22750336166E+04  0.22750336166E+04  0.00000000000E+00 0. -1.
         -2   -1    0    0    0  501 -0.00000000000E+00 -0.00000000000E+00 -0.66611557285E+02  0.66611557285E+02  0.00000000000E+00 0.  1.
          6    1    1    2  502    0 -0.33427558057E+03  0.81928039988E+02  0.92609604309E+03  0.10028410884E+04  0.17200000000E+03 0. -1.
         -6    1    1    2    0  501  0.33427558057E+03 -0.81928039988E+02  0.12823260163E+04  0.13388040856E+04  0.17200000000E+03 0.  1.
</event>
<event>
 4    1  0.3169553E-002  0.4375952E+03  0.7818608E-02  0.1031487E+00
          2   -1    0    0  502    0  0.00000000000E+00  0.00000000000E+00  0.12296268206E+04  0.12296268206E+04  0.00000000000E+00 0. -1.
         -2   -1    0    0    0  501 -0.00000000000E+00 -0.00000000000E+00 -0.15667992839E+03  0.15667992839E+03  0.00000000000E+00 0.  1.
          6    1    1    2  502    0 -0.39881608450E+03 -0.53397410830E+02  0.59045075461E+03  0.73492968804E+03  0.17200000000E+03 0.  1.
         -6    1    1    2    0  501  0.39881608450E+03  0.53397410830E+02  0.48249613757E+03  0.65137706093E+03  0.17200000000E+03 0. -1.
</event>
<event>
 4    1  0.3169553E-002  0.1909570E+03  0.7818608E-02  0.1157601E+00
         -1   -1    0    0    0  501 -0.00000000000E+00  0.00000000000E+00  0.22637616225E+03  0.22637616225E+03  0.00000000000E+00 0.  1.
          1   -1    0    0  502    0  0.00000000000E+00 -0.00000000000E+00 -0.30756574664E+03  0.30756574664E+03  0.00000000000E+00 0. -1.
          6    1    1    2  502    0 -0.65942860294E+02  0.50320196281E+02  0.14364918484E+03  0.23895537509E+03  0.17200000000E+03 0.  1.
         -6    1    1    2    0  501  0.65942860294E+02 -0.50320196281E+02 -0.22483876923E+03  0.29498653381E+03  0.17200000000E+03 0. -1.
</event>
<event>
 4    1  0.3169553E-002  0.1837914E+03  0.7818608E-02  0.1164183E+00
          2   -1    0    0  502    0  0.00000000000E+00  0.00000000000E+00  0.17531996188E+04  0.17531996188E+04  0.00000000000E+00 0. -1.
         -2   -1    0    0    0  501 -0.00000000000E+00 -0.00000000000E+00 -0.19812742723E+02  0.19812742723E+02  0.00000000000E+00 0.  1.
          6    1    1    2  502    0 -0.20816324082E+02 -0.61334682599E+02  0.71959080078E+03  0.74269117620E+03  0.17200000000E+03 0.  1.
         -6    1    1    2    0  501  0.20816324082E+02  0.61334682599E+02  0.10137960753E+04  0.10303211853E+04  0.17200000000E+03 0. -1.
</event>
<event>
 4    1  0.3169553E-002  0.2365297E+03  0.7818608E-02  0.1122126E+00
         -2   -1    0    0    0  501 -0.00000000000E+00  0.00000000000E+00  0.92578137189E+02  0.92578137189E+02  0.00000000000E+00 0.  1.
          2   -1    0    0  502    0  0.00000000000E+00 -0.00000000000E+00 -0.63095088644E+03  0.63095088644E+03  0.00000000000E+00 0. -1.
          6    1    1    2  502    0 -0.10580826408E+03  0.12315394660E+03 -0.34351707896E+03  0.41707345498E+03  0.17200000000E+03 0. -1.
         -6    1    1    2    0  501  0.10580826408E+03 -0.12315394660E+03 -0.19485567029E+03  0.30645556865E+03  0.17200000000E+03 0. -1.
</event>
<event>
 4    1  0.3169553E-002  0.2129856E+03  0.7818608E-02  0.1139223E+00
          1   -1    0    0  502    0  0.00000000000E+00  0.00000000000E+00  0.95237116076E+02  0.95237116076E+02  0.00000000000E+00 0. -1.
         -1   -1    0    0    0  501 -0.00000000000E+00 -0.00000000000E+00 -0.48094453158E+03  0.48094453158E+03  0.00000000000E+00 0.  1.
          6    1    1    2  502    0  0.34840535138E+02 -0.12068556406E+03 -0.16458865459E+03  0.26916963700E+03  0.17200000000E+03 0.  1.
         -6    1    1    2    0  501 -0.34840535138E+02  0.12068556406E+03 -0.22111876091E+03  0.30701201066E+03  0.17200000000E+03 0.  1.
</event>
<event>
 4    1  0.3169553E-002  0.4264850E+03  0.7818608E-02  0.1034976E+00
         -1   -1    0    0    0  501 -0.00000000000E+00  0.00000000000E+00  0.79092787216E+02  0.79092787216E+02  0.00000000000E+00 0.  1.
          1   -1    0    0  502    0  0.00000000000E+00 -0.00000000000E+00 -0.23361649697E+04  0.23361649697E+04  0.00000000000E+00 0. -1.
          6    1    1    2  502    0 -0.38357069860E+03  0.71965042593E+02 -0.12794180544E+04  0.13486289357E+04  0.17200000000E+03 0. -1.
         -6    1    1    2    0  501  0.38357069860E+03 -0.71965042593E+02 -0.97765412807E+03  0.10666288212E+04  0.17200000000E+03 0.  1.
</event>
<event>
 4    1  0.3169553E-002  0.2060855E+03  0.7818608E-02  0.1144704E+00
          2   -1    0    0  502    0  0.00000000000E+00  0.00000000000E+00  0.16739730085E+03  0.16739730085E+03  0.00000000000E+00 0. -1.
         -2   -1    0    0    0  501 -0.00000000000E+00 -0.00000000000E+00 -0.29118687741E+03  0.29118687741E+03  0.00000000000E+00 0.  1.
          6    1    1    2  502    0 -0.86423430699E+02 -0.73608665877E+02  0.20358743000E+02  0.20708868507E+03  0.17200000000E+03 0. -1.
         -6    1    1    2    0  501  0.86423430699E+02  0.73608665877E+02 -0.14414831956E+03  0.25149549320E+03  0.17200000000E+03 0. -1.
</event>
<event>
 4    1  0.3169553E-002  0.1930950E+03  0.7818608E-02  0.1155699E+00
         -1   -1    0    0    0  501 -0.00000000000E+00  0.00000000000E+00  0.10597581058E+03  0.10597581058E+03  0.00000000000E+00 0.  1.
          1   -1    0    0  502    0  0.00000000000E+00 -0.00000000000E+00 -0.65867685154E+03  0.65867685154E+03  0.00000000000E+00 0. -1.
          6    1    1    2  502    0 -0.87656131273E+02  0.42519633641E+01 -0.53730061680E+03  0.57094450637E+03  0.17200000000E+03 0. -1.
         -6    1    1    2    0  501  0.87656131273E+02 -0.42519633641E+01 -0.15400424167E+02  0.19370815576E+03  0.17200000000E+03 0.  1.
</event>
<event>
 4    1  0.3169553E-002  0.1746551E+03  0.7818608E-02  0.1173078E+00
          2   -1    0    0  502    0  0.00000000000E+00  0.00000000000E+00  0.24408967714E+04  0.24408967714E+04  0.00000000000E+00 0. -1.
         -2   -1    0    0    0  501 -0.00000000000E+00 -0.00000000000E+00 -0.15695283108E+02  0.15695283108E+02  0.00000000000E+00 0.  1.
          6    1    1    2  502    0 -0.29733837828E+02  0.60249737459E+01  0.17670510301E+04  0.17756614948E+04  0.17200000000E+03 0. -1.
         -6    1    1    2    0  501  0.29733837828E+02 -0.60249737459E+01  0.65815045826E+03  0.68093055969E+03  0.17200000000E+03 0.  1.
</event>
<event>
 4    1  0.3169553E-002  0.1930345E+03  0.7818608E-02  0.1155753E+00
          1   -1    0    0  502    0  0.00000000000E+00  0.00000000000E+00  0.66513884513E+03  0.66513884513E+03  0.00000000000E+00 0. -1.
         -1   -1    0    0    0  501 -0.00000000000E+00 -0.00000000000E+00 -0.62657897513E+02  0.62657897513E+02  0.00000000000E+00 0.  1.
          6    1    1    2  502    0 -0.76637446135E+02  0.42485366567E+02  0.41966649747E+03  0.46193319173E+03  0.17200000000E+03 0. -1.
         -6    1    1    2    0  501  0.76637446135E+02 -0.42485366567E+02  0.18281445015E+03  0.26586355092E+03  0.17200000000E+03 0. -1.
</event>
<event>
 4    1  0.3169553E-002  0.1783116E+03  0.7818608E-02  0.1169447E+00
         -2   -1    0    0    0  501 -0.00000000000E+00  0.00000000000E+00  0.33240412492E+02  0.33240412492E+02  0.00000000000E+00 0.  1.
          2   -1    0    0  502    0  0.00000000000E+00 -0.00000000000E+00 -0.15006777614E+04  0.15006777614E+04  0.00000000000E+00 0. -1.
          6    1    1    2  502    0  0.23734197228E+02  0.40592092262E+02 -0.11955591161E+04  0.12087831196E+04  0.17200000000E+03 0. -1.
         -6    1    1    2    0  501 -0.23734197228E+02 -0.40592092262E+02 -0.27187823280E+03  0.32513505431E+03  0.17200000000E+03 0.  1.
</event>
<event>
 4    1  0.3169553E-002  0.1772582E+03  0.7818608E-02  0.1170483E+00
          3   -1    0    0  502    0  0.00000000000E+00  0.00000000000E+00  0.12304524195E+03  0.12304524195E+03  0.00000000000E+00 0. -1.
         -3   -1    0    0    0  501 -0.00000000000E+00 -0.00000000000E+00 -0.26134474078E+03  0.26134474078E+03  0.00000000000E+00 0.  1.
          6    1    1    2  502    0  0.28842050738E+02 -0.31695393531E+02 -0.98241326428E+02  0.20266183676E+03  0.17200000000E+03 0.  1.
         -6    1    1    2    0  501 -0.28842050738E+02  0.31695393531E+02 -0.40058172402E+02  0.18172814597E+03  0.17200000000E+03 0. -1.
</event>
<event>
 4    1  0.3169553E-002  0.3804965E+03  0.7818608E-02  0.1050750E+00
         -1   -1    0    0    0  501 -0.00000000000E+00  0.00000000000E+00  0.62044478201E+03  0.62044478201E+03  0.00000000000E+00 0.  1.
          1   -1    0    0  502    0  0.00000000000E+00 -0.00000000000E+00 -0.35130413485E+03  0.35130413485E+03  0.00000000000E+00 0. -1.
          6    1    1    2  502    0 -0.21655861038E+03  0.26133491444E+03 -0.14697516942E+03  0.40789615058E+03  0.17200000000E+03 0. -1.
         -6    1    1    2    0  501  0.21655861038E+03 -0.26133491444E+03  0.41611581657E+03  0.56385276627E+03  0.17200000000E+03 0.  1.
</event>
<event>
 4    1  0.3169553E-002  0.1888035E+03  0.7818608E-02  0.1159545E+00
          1   -1    0    0  502    0  0.00000000000E+00  0.00000000000E+00  0.12116462159E+04  0.12116462159E+04  0.00000000000E+00 0. -1.
         -1   -1    0    0    0  501 -0.00000000000E+00 -0.00000000000E+00 -0.33891051961E+02  0.33891051961E+02  0.00000000000E+00 0.  1.
          6    1    1    2  502    0 -0.67997858493E+02  0.37934902538E+02  0.81507294455E+03  0.83665445109E+03  0.17200000000E+03 0. -1.
         -6    1    1    2    0  501  0.67997858493E+02 -0.37934902538E+02  0.36268221940E+03  0.40888281678E+03  0.17200000000E+03 0.  1.
</event>
<event>
 4    1  0.3169553E-002  0.2581860E+03  0.7818608E-02  0.1108238E+00
          2   -1    0    0  502    0  0.00000000000E+00  0.00000000000E+00  0.39063908485E+03  0.39063908485E+03  0.00000000000E+00 0. -1.
         -2   -1    0    0    0  501 -0.00000000000E+00 -0.00000000000E+00 -0.18044934048E+03  0.18044934048E+03  0.00000000000E+00 0.  1.
          6    1    1    2  502    0 -0.87985156875E+02 -0.17127356825E+03  0.38531089764E+02  0.26104533685E+03  0.17200000000E+03 0. -1.
         -6    1    1    2    0  501  0.87985156875E+02  0.17127356825E+03  0.17165865461E+03  0.31004308848E+03  0.17200000000E+03 0.  1.
</event>
<event>
 4    1  0.3169553E-002  0.2465880E+03  0.7818608E-02  0.1115480E+00
          4   -1    0    0  502    0  0.00000000000E+00  0.00000000000E+00  0.63686412294E+02  0.63686412294E+02  0.00000000000E+00 0. -1.
         -4   -1    0    0    0  501 -0.00000000000E+00 -0.00000000000E+00 -0.96564664307E+03  0.96564664307E+03  0.00000000000E+00 0.  1.
          6    1    1    2  502    0  0.48882738364E+02 -0.16980018380E+03 -0.39634862853E+03  0.46679530831E+03  0.17200000000E+03 0. -1.
         -6    1    1    2    0  501 -0.48882738364E+02  0.16980018380E+03 -0.50561160225E+03  0.56253774705E+03  0.17200000000E+03 0.  1.
</event>
<event>
 4    1  0.3169553E-002  0.1738573E+03  0.7818608E-02  0.1173884E+00
          2   -1    0    0  502    0  0.00000000000E+00  0.00000000000E+00  0.72175764586E+02  0.72175764586E+02  0.00000000000E+00 0. -1.
         -2   -1    0    0    0  501 -0.00000000000E+00 -0.00000000000E+00 -0.93510000168E+03  0.93510000168E+03  0.00000000000E+00 0.  1.
          6    1    1    2  502    0  0.18488632947E+02 -0.17335392824E+02 -0.57226203814E+02  0.18303328603E+03  0.17200000000E+03 0. -1.
         -6    1    1    2    0  501 -0.18488632947E+02  0.17335392824E+02 -0.80569803328E+03  0.82424248023E+03  0.17200000000E+03 0.  1.
</event>
<event>
 4    1  0.3169553E-002  0.6261913E+03  0.7818608E-02  0.9852509E-01
          2   -1    0    0  502    0  0.00000000000E+00  0.00000000000E+00  0.18412217221E+04  0.18412217221E+04  0.00000000000E+00 0. -1.
         -2   -1    0    0    0  501 -0.00000000000E+00 -0.00000000000E+00 -0.25921301031E+03  0.25921301031E+03  0.00000000000E+00 0.  1.
          6    1    1    2  502    0  0.14138880395E+03 -0.58526981816E+03  0.12346108660E+04  0.13843336102E+04  0.17200000000E+03 0. -1.
         -6    1    1    2    0  501 -0.14138880395E+03  0.58526981816E+03  0.34739784576E+03  0.71610112216E+03  0.17200000000E+03 0.  1.
</event>
<event>
 4    1  0.3169553E-002  0.1731967E+03  0.7818608E-02  0.1174555E+00
         -2   -1    0    0    0  501 -0.00000000000E+00  0.00000000000E+00  0.30866789380E+02  0.30866789380E+02  0.00000000000E+00 0.  1.
          2   -1    0    0  502    0  0.00000000000E+00 -0.00000000000E+00 -0.15021774091E+04  0.15021774091E+04  0.00000000000E+00 0. -1.
          6    1    1    2  502    0 -0.19709990109E+02  0.49611898223E+01 -0.11911115028E+04  0.12036376985E+04  0.17200000000E+03 0. -1.
         -6    1    1    2    0  501  0.19709990109E+02 -0.49611898223E+01 -0.28019911691E+03  0.32940649999E+03  0.17200000000E+03 0.  1.
</event>
<event>
 4    1  0.3169553E-002  0.1758940E+03  0.7818608E-02  0.1171837E+00
         -2   -1    0    0    0  501 -0.00000000000E+00  0.00000000000E+00  0.43187596446E+02  0.43187596446E+02  0.00000000000E+00 0.  1.
          2   -1    0    0  502    0  0.00000000000E+00 -0.00000000000E+00 -0.73431102292E+03  0.73431102292E+03  0.00000000000E+00 0. -1.
          6    1    1    2  502    0 -0.35337874593E+02  0.10293165123E+02 -0.28481307516E+03  0.33474946216E+03  0.17200000000E+03 0.  1.
         -6    1    1    2    0  501  0.35337874593E+02 -0.10293165123E+02 -0.40631035131E+03  0.44274915721E+03  0.17200000000E+03 0. -1.
</event>
<event>
 4    1  0.3169553E-002  0.4007338E+03  0.7818608E-02  0.1043526E+00
         -1   -1    0    0    0  501 -0.00000000000E+00  0.00000000000E+00  0.90357024957E+02  0.90357024957E+02  0.00000000000E+00 0.  1.
          1   -1    0    0  502    0  0.00000000000E+00 -0.00000000000E+00 -0.22470296743E+04  0.22470296743E+04  0.00000000000E+00 0. -1.
          6    1    1    2  502    0  0.27830698586E+03  0.23140621503E+03 -0.16127040883E+04  0.16617466989E+04  0.17200000000E+03 0. -1.
         -6    1    1    2    0  501 -0.27830698586E+03 -0.23140621503E+03 -0.54396856101E+03  0.67564000037E+03  0.17200000000E+03 0.  1.
</event>
<event>
 4    1  0.3169553E-002  0.2005042E+03  0.7818608E-02  0.1149314E+00
          1   -1    0    0  502    0  0.00000000000E+00  0.00000000000E+00  0.23447845083E+02  0.23447845083E+02  0.00000000000E+00 0. -1.
         -1   -1    0    0    0  501 -0.00000000000E+00 -0.00000000000E+00 -0.19112085523E+04  0.19112085523E+04  0.00000000000E+00 0.  1.
          6    1    1    2  502    0 -0.94616510758E+02  0.40812457112E+02 -0.12541952982E+04  0.12701211702E+04  0.17200000000E+03 0.  1.
         -6    1    1    2    0  501  0.94616510758E+02 -0.40812457112E+02 -0.63356540894E+03  0.66453522719E+03  0.17200000000E+03 0. -1.
</event>
<event>
 4    1  0.3169553E-002  0.2069541E+03  0.7818608E-02  0.1144001E+00
         -2   -1    0    0    0  501 -0.00000000000E+00  0.00000000000E+00  0.18842193325E+03  0.18842193325E+03  0.00000000000E+00 0.  1.
          2   -1    0    0  502    0  0.00000000000E+00 -0.00000000000E+00 -0.29570446740E+03  0.29570446740E+03  0.00000000000E+00 0. -1.
          6    1    1    2  502    0  0.33259449867E+02  0.11018087408E+03  0.62774884791E+02  0.21626535131E+03  0.17200000000E+03 0.  1.
         -6    1    1    2    0  501 -0.33259449867E+02 -0.11018087408E+03 -0.17005741893E+03  0.26786104934E+03  0.17200000000E+03 0. -1.
</event>
<event>
 4    1  0.3169553E-002  0.2771578E+03  0.7818608E-02  0.1097251E+00
         -1   -1    0    0    0  501 -0.00000000000E+00  0.00000000000E+00  0.64752841495E+02  0.64752841495E+02  0.00000000000E+00 0.  1.
          1   -1    0    0  502    0  0.00000000000E+00 -0.00000000000E+00 -0.12558442027E+04  0.12558442027E+04  0.00000000000E+00 0. -1.
          6    1    1    2  502    0  0.72940207290E+02 -0.20472467941E+03 -0.75092549515E+03  0.80044085819E+03  0.17200000000E+03 0. -1.
         -6    1    1    2    0  501 -0.72940207290E+02  0.20472467941E+03 -0.44016586608E+03  0.52015618602E+03  0.17200000000E+03 0.  1.
</event>
<event>
 4    1  0.3169553E-002  0.2005369E+03  0.7818608E-02  0.1149287E+00
         -2   -1    0    0    0  501 -0.00000000000E+00  0.00000000000E+00  0.16286126928E+03  0.16286126928E+03  0.00000000000E+00 0.  1.
          2   -1    0    0  502    0  0.00000000000E+00 -0.00000000000E+00 -0.77081515432E+03  0.77081515432E+03  0.00000000000E+00 0. -1.
          6    1    1    2  502    0  0.81931879671E+02 -0.62595548857E+02 -0.68884341375E+03  0.71744009109E+03  0.17200000000E+03 0. -1.
         -6    1    1    2    0  501 -0.81931879671E+02  0.62595548857E+02  0.80889528710E+02  0.21623633251E+03  0.17200000000E+03 0.  1.
</event>
<event>
 4    1  0.3169553E-002  0.2489841E+03  0.7818608E-02  0.1113949E+00
          1   -1    0    0  502    0  0.00000000000E+00  0.00000000000E+00  0.26029811751E+03  0.26029811751E+03  0.00000000000E+00 0. -1.
         -1   -1    0    0    0  501 -0.00000000000E+00 -0.00000000000E+00 -0.36136184886E+03  0.36136184886E+03  0.00000000000E+00 0.  1.
          6    1    1    2  502    0  0.17976599250E+03  0.96580924590E+01  0.13095994862E+03  0.28132472154E+03  0.17200000000E+03 0. -1.
         -6    1    1    2    0  501 -0.17976599250E+03 -0.96580924590E+01 -0.23202367996E+03  0.34033524483E+03  0.17200000000E+03 0.  1.
</event>
<event>
 4    1  0.3169553E-002  0.2561654E+03  0.7818608E-02  0.1109469E+00
          2   -1    0    0  502    0  0.00000000000E+00  0.00000000000E+00  0.20577755814E+03  0.20577755814E+03  0.00000000000E+00 0. -1.
         -2   -1    0    0    0  501 -0.00000000000E+00 -0.00000000000E+00 -0.32283353098E+03  0.32283353098E+03  0.00000000000E+00 0.  1.
          6    1    1    2  502    0 -0.90016424767E+02 -0.16713388740E+03 -0.87734695841E+02  0.27077309671E+03  0.17200000000E+03 0.  1.
         -6    1    1    2    0  501  0.90016424767E+02  0.16713388740E+03 -0.29321277008E+02  0.25783799241E+03  0.17200000000E+03 0. -1.
</event>
<event>
 4    1  0.3169553E-002  0.1751269E+03  0.7818608E-02  0.1172604E+00
          2   -1    0    0  502    0  0.00000000000E+00  0.00000000000E+00  0.23524309170E+04  0.23524309170E+04  0.00000000000E+00 0. -1.
         -2   -1    0    0    0  501 -0.00000000000E+00 -0.00000000000E+00 -0.21697787552E+02  0.21697787552E+02  0.00000000000E+00 0.  1.
          6    1    1    2  502    0  0.14424699677E+02 -0.29620162661E+02  0.19153244438E+04  0.19233141061E+04  0.17200000000E+03 0. -1.
         -6    1    1    2    0  501 -0.14424699677E+02  0.29620162661E+02  0.41540868563E+03  0.45081459836E+03  0.17200000000E+03 0.  1.
</event>
<event>
 4    1  0.3169553E-002  0.3188460E+03  0.7818608E-02  0.1076182E+00
          1   -1    0    0  502    0  0.00000000000E+00  0.00000000000E+00  0.47361269693E+03  0.47361269693E+03  0.00000000000E+00 0. -1.
         -1   -1    0    0    0  501 -0.00000000000E+00 -0.00000000000E+00 -0.30110792674E+03  0.30110792674E+03  0.00000000000E+00 0.  1.
          6    1    1    2  502    0 -0.24248377458E+03  0.11524058939E+03  0.29381390516E+03  0.43357742704E+03  0.17200000000E+03 0. -1.
         -6    1    1    2    0  501  0.24248377458E+03 -0.11524058939E+03 -0.12130913497E+03  0.34114319663E+03  0.17200000000E+03 0.  1.
</event>
<event>
 4    1  0.3169553E-002  0.3559497E+03  0.7818608E-02  0.1060199E+00
         -2   -1    0    0    0  501 -0.00000000000E+00  0.00000000000E+00  0.58487271299E+03  0.58487271299E+03  0.00000000000E+00 0.  1.
          2   -1    0    0  502    0  0.00000000000E+00 -0.00000000000E+00 -0.23377332490E+03  0.23377332490E+03  0.00000000000E+00 0. -1.
          6    1    1    2  502    0  0.24811890355E+03 -0.18855552609E+03  0.64700248550E+02  0.36178211520E+03  0.17200000000E+03 0. -1.
         -6    1    1    2    0  501 -0.24811890355E+03  0.18855552609E+03  0.28639913955E+03  0.45686392269E+03  0.17200000000E+03 0.  1.
</event>
<event>
 4    1  0.3169553E-002  0.4748737E+03  0.7818608E-02  0.1020554E+00
         -2   -1    0    0    0  501 -0.00000000000E+00  0.00000000000E+00  0.19895963863E+03  0.19895963863E+03  0.00000000000E+00 0.  1.
          2   -1    0    0  502    0  0.00000000000E+00 -0.00000000000E+00 -0.12303356036E+04  0.12303356036E+04  0.00000000000E+00 0. -1.
          6    1    1    2  502    0  0.36577599125E+03 -0.24925676924E+03 -0.31511381829E+03  0.56991379283E+03  0.17200000000E+03 0. -1.
         -6    1    1    2    0  501 -0.36577599125E+03  0.24925676924E+03 -0.71626214665E+03  0.85938144936E+03  0.17200000000E+03 0.  1.
</event>
<event>
 4    1  0.3169553E-002  0.2022131E+03  0.7818608E-02  0.1147885E+00
          2   -1    0    0  502    0  0.00000000000E+00  0.00000000000E+00  0.59941462239E+03  0.59941462239E+03  0.00000000000E+00 0. -1.
         -2   -1    0    0    0  501 -0.00000000000E+00 -0.00000000000E+00 -0.99908913658E+02  0.99908913658E+02  0.00000000000E+00 0.  1.
          6    1    1    2  502    0 -0.23322932093E+02 -0.10374088545E+03  0.44668736438E+03  0.49032614857E+03  0.17200000000E+03 0. -1.
         -6    1    1    2    0  501  0.23322932093E+02  0.10374088545E+03  0.52818344357E+02  0.20899738748E+03  0.17200000000E+03 0.  1.
</event>
<event>
 4    1  0.3169553E-002  0.1863973E+03  0.7818608E-02  0.1161751E+00
          1   -1    0    0  502    0  0.00000000000E+00  0.00000000000E+00  0.67920399491E+03  0.67920399491E+03  0.00000000000E+00 0. -1.
         -1   -1    0    0    0  501 -0.00000000000E+00 -0.00000000000E+00 -0.63492176818E+02  0.63492176818E+02  0.00000000000E+00 0.  1.
          6    1    1    2  502    0 -0.59566444105E+02 -0.40147003179E+02  0.47155568299E+03  0.50705887753E+03  0.17200000000E+03 0. -1.
         -6    1    1    2    0  501  0.59566444105E+02  0.40147003179E+02  0.14415613511E+03  0.23563729420E+03  0.17200000000E+03 0.  1.
</event>
<event>
 4    1  0.3169553E-002  0.1755025E+03  0.7818608E-02  0.1172228E+00
         -2   -1    0    0    0  501 -0.00000000000E+00  0.00000000000E+00  0.24371273577E+02  0.24371273577E+02  0.00000000000E+00 0.  1.
          2   -1    0    0  502    0  0.00000000000E+00 -0.00000000000E+00 -0.12766278460E+04  0.12766278460E+04  0.00000000000E+00 0. -1.
          6    1    1    2  502    0 -0.33565365247E+02 -0.95134053098E+01 -0.69125945952E+03  0.71319056290E+03  0.17200000000E+03 0.  1.
         -6    1    1    2    0  501  0.33565365247E+02  0.95134053098E+01 -0.56099711292E+03  0.58780855670E+03  0.17200000000E+03 0.  1.
</event>
<event>
 4    1  0.3169553E-002  0.3242839E+03  0.7818608E-02  0.1073694E+00
         -1   -1    0    0    0  501 -0.00000000000E+00  0.00000000000E+00  0.12098241414E+04  0.12098241414E+04  0.00000000000E+00 0.  1.
          1   -1    0    0  502    0  0.00000000000E+00 -0.00000000000E+00 -0.33939259146E+03  0.33939259146E+03  0.00000000000E+00 0. -1.
          6    1    1    2  502    0 -0.25764900793E+03  0.95880429484E+02 -0.23287671868E+03  0.39923881844E+03  0.17200000000E+03 0. -1.
         -6    1    1    2    0  501  0.25764900793E+03 -0.95880429484E+02  0.11033082686E+04  0.11499779144E+04  0.17200000000E+03 0.  1.
</event>
<event>
 4    1  0.3169553E-002  0.3073894E+03  0.7818608E-02  0.1081604E+00
          2   -1    0    0  502    0  0.00000000000E+00  0.00000000000E+00  0.27341308460E+04  0.27341308460E+04  0.00000000000E+00 0. -1.
         -2   -1    0    0    0  501 -0.00000000000E+00 -0.00000000000E+00 -0.34718619212E+02  0.34718619212E+02  0.00000000000E+00 0.  1.
          6    1    1    2  502    0  0.48577527928E+02 -0.25008897900E+03  0.12557756817E+04  0.12928498894E+04  0.17200000000E+03 0. -1.
         -6    1    1    2    0  501 -0.48577527928E+02  0.25008897900E+03  0.14436365451E+04  0.14759995758E+04  0.17200000000E+03 0.  1.
</event>
<event>
 4    1  0.3169553E-002  0.1984795E+03  0.7818608E-02  0.1151028E+00
          2   -1    0    0  502    0  0.00000000000E+00  0.00000000000E+00  0.68009984869E+03  0.68009984869E+03  0.00000000000E+00 0. -1.
         -2   -1    0    0    0  501 -0.00000000000E+00 -0.00000000000E+00 -0.87547904369E+02  0.87547904369E+02  0.00000000000E+00 0.  1.
          6    1    1    2  502    0  0.47912561608E+01  0.98930027719E+02  0.51954589763E+03  0.55616728263E+03  0.17200000000E+03 0. -1.
         -6    1    1    2    0  501 -0.47912561608E+01 -0.98930027719E+02  0.73006046688E+02  0.21148047043E+03  0.17200000000E+03 0.  1.
</event>
<event>
 4    1  0.3169553E-002  0.3421236E+03  0.7818608E-02  0.1065895E+00
         -2   -1    0    0    0  501 -0.00000000000E+00  0.00000000000E+00  0.84587387130E+02  0.84587387130E+02  0.00000000000E+00 0.  1.
          2   -1    0    0  502    0  0.00000000000E+00 -0.00000000000E+00 -0.13886817721E+04  0.13886817721E+04  0.00000000000E+00 0. -1.
          6    1    1    2  502    0  0.16148856624E+03  0.24776193680E+03 -0.60818725064E+03  0.69781105336E+03  0.17200000000E+03 0. -1.
         -6    1    1    2    0  501 -0.16148856624E+03 -0.24776193680E+03 -0.69590713436E+03  0.77545810590E+03  0.17200000000E+03 0.  1.
</event>
<event>
 4    1  0.3169553E-002  0.6779394E+03  0.7818608E-02  0.9755721E-01
          2   -1    0    0  502    0  0.00000000000E+00  0.00000000000E+00  0.18182269193E+04  0.18182269193E+04  0.00000000000E+00 0. -1.
         -2   -1    0    0    0  501 -0.00000000000E+00 -0.00000000000E+00 -0.50717525206E+03  0.50717525206E+03  0.00000000000E+00 0.  1.
          6    1    1    2  502    0  0.29125260821E+03 -0.58752849853E+03  0.14789963426E+04  0.16269701902E+04  0.17200000000E+03 0. -1.
         -6    1    1    2    0  501 -0.29125260821E+03  0.58752849853E+03 -0.16794467534E+03  0.69843198119E+03  0.17200000000E+03 0.  1.
</event>
<event>
 4    1  0.3169553E-002  0.2057255E+03  0.7818608E-02  0.1144996E+00
         -2   -1    0    0    0  501 -0.00000000000E+00  0.00000000000E+00  0.10294943087E+03  0.10294943087E+03  0.00000000000E+00 0.  1.
          2   -1    0    0  502    0  0.00000000000E+00 -0.00000000000E+00 -0.74583850229E+03  0.74583850229E+03  0.00000000000E+00 0. -1.
          6    1    1    2  502    0  0.50560277020E+02 -0.10090915599E+03 -0.60575743145E+03  0.63973827862E+03  0.17200000000E+03 0. -1.
         -6    1    1    2    0  501 -0.50560277020E+02  0.10090915599E+03 -0.37131639962E+02  0.20904965454E+03  0.17200000000E+03 0.  1.
</event>
<event>
 4    1  0.3169553E-002  0.2276742E+03  0.7818608E-02  0.1128288E+00
          1   -1    0    0  502    0  0.00000000000E+00  0.00000000000E+00  0.26411919596E+02  0.26411919596E+02  0.00000000000E+00 0. -1.
         -1   -1    0    0    0  501 -0.00000000000E+00 -0.00000000000E+00 -0.19672193019E+04  0.19672193019E+04  0.00000000000E+00 0.  1.
          6    1    1    2  502    0 -0.94789003563E+02  0.11518059537E+03 -0.10188075572E+04  0.10439369537E+04  0.17200000000E+03 0. -1.
         -6    1    1    2    0  501  0.94789003563E+02 -0.11518059537E+03 -0.92199982510E+03  0.94969426777E+03  0.17200000000E+03 0.  1.
</event>
<event>
 4    1  0.3169553E-002  0.8146795E+03  0.7818608E-02  0.9539009E-01
         -1   -1    0    0    0  501 -0.00000000000E+00  0.00000000000E+00  0.10523102661E+04  0.10523102661E+04  0.00000000000E+00 0.  1.
          1   -1    0    0  502    0  0.00000000000E+00 -0.00000000000E+00 -0.79725355488E+03  0.79725355488E+03  0.00000000000E+00 0. -1.
          6    1    1    2  502    0  0.36526360987E+03 -0.70760237717E+03 -0.29514510838E+03  0.86649481468E+03  0.17200000000E+03 0. -1.
         -6    1    1    2    0  501 -0.36526360987E+03  0.70760237717E+03  0.55020181964E+03  0.98306900633E+03  0.17200000000E+03 0.  1.
</event>
<event>
 4    1  0.3169553E-002  0.1723111E+03  0.7818608E-02  0.1175459E+00
          2   -1    0    0  502    0  0.00000000000E+00  0.00000000000E+00  0.13144096309E+04  0.13144096309E+04  0.00000000000E+00 0. -1.
         -2   -1    0    0    0  501 -0.00000000000E+00 -0.00000000000E+00 -0.29633691229E+02  0.29633691229E+02  0.00000000000E+00 0.  1.
          6    1    1    2  502    0  0.98560169497E+01  0.31570161132E+01  0.31472790024E+03  0.35881019914E+03  0.17200000000E+03 0.  1.
         -6    1    1    2    0  501 -0.98560169497E+01 -0.31570161132E+01  0.97004803939E+03  0.98523312294E+03  0.17200000000E+03 0. -1.
</event>
<event>
 4    1  0.3169553E-002  0.1752867E+03  0.7818608E-02  0.1172444E+00
         -4   -1    0    0    0  501 -0.00000000000E+00  0.00000000000E+00  0.43882665229E+03  0.43882665229E+03  0.00000000000E+00 0.  1.
          4   -1    0    0  502    0  0.00000000000E+00 -0.00000000000E+00 -0.72536926841E+02  0.72536926841E+02  0.00000000000E+00 0. -1.
          6    1    1    2  502    0 -0.16221942234E+02 -0.29635716697E+02  0.13549142077E+03  0.22154762968E+03  0.17200000000E+03 0. -1.
         -6    1    1    2    0  501  0.16221942234E+02  0.29635716697E+02  0.23079830469E+03  0.28981594946E+03  0.17200000000E+03 0.  1.
</event>
<event>
 4    1  0.3169553E-002  0.2213833E+03  0.7818608E-02  0.1132856E+00
         -2   -1    0    0    0  501 -0.00000000000E+00  0.00000000000E+00  0.51427442795E+02  0.51427442795E+02  0.00000000000E+00 0.  1.
          2   -1    0    0  502    0  0.00000000000E+00 -0.00000000000E+00 -0.13367143124E+04  0.13367143124E+04  0.00000000000E+00 0. -1.
          6    1    1    2  502    0  0.13632799801E+03 -0.29003895088E+02 -0.10145093436E+04  0.10383832420E+04  0.17200000000E+03 0. -1.
         -6    1    1    2    0  501 -0.13632799801E+03  0.29003895088E+02 -0.27077752596E+03  0.34975851318E+03  0.17200000000E+03 0.  1.
</event>
<event>
 4    1  0.3169553E-002  0.2784325E+03  0.7818608E-02  0.1096548E+00
          1   -1    0    0  502    0  0.00000000000E+00  0.00000000000E+00  0.62758633569E+03  0.62758633569E+03  0.00000000000E+00 0. -1.
         -1   -1    0    0    0  501 -0.00000000000E+00 -0.00000000000E+00 -0.22601889058E+03  0.22601889058E+03  0.00000000000E+00 0.  1.
          6    1    1    2  502    0 -0.15438588366E+03  0.15525995017E+03  0.48819034141E+03  0.56200930833E+03  0.17200000000E+03 0. -1.
         -6    1    1    2    0  501  0.15438588366E+03 -0.15525995017E+03 -0.86622896300E+02  0.29159591795E+03  0.17200000000E+03 0.  1.
</event>
<event>
 4    1  0.3169553E-002  0.1812632E+03  0.7818608E-02  0.1166586E+00
          1   -1    0    0  502    0  0.00000000000E+00  0.00000000000E+00  0.17446870797E+04  0.17446870797E+04  0.00000000000E+00 0. -1.
         -1   -1    0    0    0  501 -0.00000000000E+00 -0.00000000000E+00 -0.74352975414E+02  0.74352975414E+02  0.00000000000E+00 0.  1.
          6    1    1    2  502    0 -0.24608196965E+02  0.51640757863E+02  0.16211095502E+04  0.16312119743E+04  0.17200000000E+03 0. -1.
         -6    1    1    2    0  501  0.24608196965E+02 -0.51640757863E+02  0.49224554084E+02  0.18782808085E+03  0.17200000000E+03 0.  1.
</event>
<event>
 4    1  0.3169553E-002  0.1991269E+03  0.7818608E-02  0.1150478E+00
         -1   -1    0    0    0  501 -0.00000000000E+00  0.00000000000E+00  0.20197243225E+03  0.20197243225E+03  0.00000000000E+00 0.  1.
          1   -1    0    0  502    0  0.00000000000E+00 -0.00000000000E+00 -0.36290304140E+03  0.36290304140E+03  0.00000000000E+00 0. -1.
          6    1    1    2  502    0 -0.47190000459E+02 -0.88547296364E+02 -0.27182079524E+03  0.33695409860E+03  0.17200000000E+03 0. -1.
         -6    1    1    2    0  501  0.47190000459E+02  0.88547296364E+02  0.11089018609E+03  0.22792137506E+03  0.17200000000E+03 0.  1.
</event>
<event>
 4    1  0.3169553E-002  0.1965856E+03  0.7818608E-02  0.1152652E+00
          2   -1    0    0  502    0  0.00000000000E+00  0.00000000000E+00  0.10397118892E+04  0.10397118892E+04  0.00000000000E+00 0. -1.
         -2   -1    0    0    0  501 -0.00000000000E+00 -0.00000000000E+00 -0.72206458829E+02  0.72206458829E+02  0.00000000000E+00 0.  1.
          6    1    1    2  502    0 -0.56598888097E+02 -0.76540526326E+02  0.87102480578E+03  0.89293342338E+03  0.17200000000E+03 0. -1.
         -6    1    1    2    0  501  0.56598888097E+02  0.76540526326E+02  0.96480624597E+02  0.21898492466E+03  0.17200000000E+03 0.  1.
</event>
<event>
 4    1  0.3169553E-002  0.3054485E+03  0.7818608E-02  0.1082548E+00
          4   -1    0    0  502    0  0.00000000000E+00  0.00000000000E+00  0.15657301578E+03  0.15657301578E+03  0.00000000000E+00 0. -1.
         -4   -1    0    0    0  501 -0.00000000000E+00 -0.00000000000E+00 -0.74552982211E+03  0.74552982211E+03  0.00000000000E+00 0.  1.
          6    1    1    2  502    0 -0.16406844346E+03 -0.19182367567E+03 -0.92394742489E+02  0.31911685184E+03  0.17200000000E+03 0. -1.
         -6    1    1    2    0  501  0.16406844346E+03  0.19182367567E+03 -0.49656206384E+03  0.58298598605E+03  0.17200000000E+03 0.  1.
</event>
<event>
 4    1  0.3169553E-002  0.2694213E+03  0.7818608E-02  0.1101611E+00
         -2   -1    0    0    0  501 -0.00000000000E+00  0.00000000000E+00  0.26574064721E+03  0.26574064721E+03  0.00000000000E+00 0.  1.
          2   -1    0    0  502    0  0.00000000000E+00 -0.00000000000E+00 -0.31264367037E+03  0.31264367037E+03  0.00000000000E+00 0. -1.
          6    1    1    2  502    0 -0.75210832005E+02  0.19325416269E+03 -0.12623166062E+03  0.29752692784E+03  0.17200000000E+03 0. -1.
         -6    1    1    2    0  501  0.75210832005E+02 -0.19325416269E+03  0.79328637465E+02  0.28085738974E+03  0.17200000000E+03 0.  1.
</event>
<event>
 4    1  0.3169553E-002  0.2309698E+03  0.7818608E-02  0.1125959E+00
          2   -1    0    0  502    0  0.00000000000E+00  0.00000000000E+00  0.17714081557E+04  0.17714081557E+04  0.00000000000E+00 0. -1.
         -2   -1    0    0    0  501 -0.00000000000E+00 -0.00000000000E+00 -0.51448983453E+02  0.51448983453E+02  0.00000000000E+00 0.  1.
          6    1    1    2  502    0 -0.13443748318E+03 -0.75429406228E+02  0.14468794857E+04  0.14651987163E+04  0.17200000000E+03 0. -1.
         -6    1    1    2    0  501  0.13443748318E+03  0.75429406228E+02  0.27307968655E+03  0.35765842282E+03  0.17200000000E+03 0.  1.
</event>
<event>
 4    1  0.3169553E-002  0.1992672E+03  0.7818608E-02  0.1150359E+00
          2   -1    0    0  502    0  0.00000000000E+00  0.00000000000E+00  0.86565454555E+03  0.86565454555E+03  0.00000000000E+00 0. -1.
         -2   -1    0    0    0  501 -0.00000000000E+00 -0.00000000000E+00 -0.48263971425E+02  0.48263971425E+02  0.00000000000E+00 0.  1.
          6    1    1    2  502    0 -0.27679760901E+01 -0.10057708368E+03  0.51047060469E+03  0.54798508165E+03  0.17200000000E+03 0. -1.
         -6    1    1    2    0  501  0.27679760901E+01  0.10057708368E+03  0.30691996943E+03  0.36593343533E+03  0.17200000000E+03 0. -1.
</event>
<event>
 4    1  0.3169553E-002  0.6207054E+03  0.7818608E-02  0.9863356E-01
         -2   -1    0    0    0  501 -0.00000000000E+00  0.00000000000E+00  0.47958499214E+03  0.47958499214E+03  0.00000000000E+00 0.  1.
          2   -1    0    0  502    0  0.00000000000E+00 -0.00000000000E+00 -0.10197480320E+04  0.10197480320E+04  0.00000000000E+00 0. -1.
          6    1    1    2  502    0  0.59631221594E+03  0.10147427150E+02 -0.61542162546E+03  0.87408180752E+03  0.17200000000E+03 0. -1.
         -6    1    1    2    0  501 -0.59631221594E+03 -0.10147427150E+02  0.75258585627E+02  0.62525121660E+03  0.17200000000E+03 0.  1.
</event>
<event>
 4    1  0.3169553E-002  0.2966962E+03  0.7818608E-02  0.1086904E+00
         -1   -1    0    0    0  501 -0.00000000000E+00  0.00000000000E+00  0.54620457779E+02  0.54620457779E+02  0.00000000000E+00 0.  1.
          1   -1    0    0  502    0  0.00000000000E+00 -0.00000000000E+00 -0.18071725781E+04  0.18071725781E+04  0.00000000000E+00 0. -1.
          6    1    1    2  502    0  0.16676284243E+03  0.17502797403E+03 -0.11824785090E+04  0.12191325037E+04  0.17200000000E+03 0. -1.
         -6    1    1    2    0  501 -0.16676284243E+03 -0.17502797403E+03 -0.57007361131E+03  0.64266053218E+03  0.17200000000E+03 0.  1.
</event>
<event>
 4    1  0.3169553E-002  0.3529556E+03  0.7818608E-02  0.1061408E+00
          2   -1    0    0  502    0  0.00000000000E+00  0.00000000000E+00  0.75707285316E+03  0.75707285316E+03  0.00000000000E+00 0. -1.
         -2   -1    0    0    0  501 -0.00000000000E+00 -0.00000000000E+00 -0.33616074966E+03  0.33616074966E+03  0.00000000000E+00 0.  1.
          6    1    1    2  502    0  0.26414822578E+03 -0.15880617511E+03  0.60100859046E+03  0.69698566144E+03  0.17200000000E+03 0. -1.
         -6    1    1    2    0  501 -0.26414822578E+03  0.15880617511E+03 -0.18009648697E+03  0.39624794139E+03  0.17200000000E+03 0.  1.
</event>
<event>
 4    1  0.3169553E-002  0.4109445E+03  0.7818608E-02  0.1040055E+00
         -3   -1    0    0    0  501 -0.00000000000E+00  0.00000000000E+00  0.19673035166E+03  0.19673035166E+03  0.00000000000E+00 0.  1.
          3   -1    0    0  502    0  0.00000000000E+00 -0.00000000000E+00 -0.96582200676E+03  0.96582200676E+03  0.00000000000E+00 0. -1.
          6    1    1    2  502    0 -0.85296608953E+02 -0.36333983384E+03 -0.57839320437E+03  0.70951676880E+03  0.17200000000E+03 0. -1.
         -6    1    1    2    0  501  0.85296608953E+02  0.36333983384E+03 -0.19069845073E+03  0.45303558962E+03  0.17200000000E+03 0.  1.
</event>
<event>
 4    1  0.3169553E-002  0.2009015E+03  0.7818608E-02  0.1148981E+00
          2   -1    0    0  502    0  0.00000000000E+00  0.00000000000E+00  0.66361724264E+03  0.66361724264E+03  0.00000000000E+00 0. -1.
         -2   -1    0    0    0  501 -0.00000000000E+00 -0.00000000000E+00 -0.60855971616E+02  0.60855971616E+02  0.00000000000E+00 0.  1.
          6    1    1    2  502    0 -0.31093638031E+02 -0.99048524701E+02  0.29261517747E+03  0.35494375140E+03  0.17200000000E+03 0. -1.
         -6    1    1    2    0  501  0.31093638031E+02  0.99048524701E+02  0.31014609355E+03  0.36952946285E+03  0.17200000000E+03 0. -1.
</event>
<event>
 4    1  0.3169553E-002  0.2400324E+03  0.7818608E-02  0.1119771E+00
          1   -1    0    0  502    0  0.00000000000E+00  0.00000000000E+00  0.49075083903E+03  0.49075083903E+03  0.00000000000E+00 0. -1.
         -1   -1    0    0    0  501 -0.00000000000E+00 -0.00000000000E+00 -0.14560597957E+03  0.14560597957E+03  0.00000000000E+00 0.  1.
          6    1    1    2  502    0  0.14893708693E+03  0.76480702925E+02  0.31260518958E+03  0.39412886006E+03  0.17200000000E+03 0. -1.
         -6    1    1    2    0  501 -0.14893708693E+03 -0.76480702925E+02  0.32539669880E+02  0.24222795854E+03  0.17200000000E+03 0.  1.
</event>
<event>
 4    1  0.3169553E-002  0.2039702E+03  0.7818608E-02  0.1146432E+00
          4   -1    0    0  502    0  0.00000000000E+00  0.00000000000E+00  0.51579289996E+03  0.51579289996E+03  0.00000000000E+00 0. -1.
         -4   -1    0    0    0  501 -0.00000000000E+00 -0.00000000000E+00 -0.80703391425E+02  0.80703391425E+02  0.00000000000E+00 0.  1.
          6    1    1    2  502    0 -0.10318311097E+03  0.37055408368E+02  0.22446005128E+03  0.30329222262E+03  0.17200000000E+03 0.  1.
         -6    1    1    2    0  501  0.10318311097E+03 -0.37055408368E+02  0.21062945725E+03  0.29320406877E+03  0.17200000000E+03 0. -1.
</event>
<event>
 4    1  0.3169553E-002  0.1961381E+03  0.7818608E-02  0.1153039E+00
         -2   -1    0    0    0  501 -0.00000000000E+00  0.00000000000E+00  0.25397229023E+02  0.25397229023E+02  0.00000000000E+00 0.  1.
          2   -1    0    0  502    0  0.00000000000E+00 -0.00000000000E+00 -0.16218827753E+04  0.16218827753E+04  0.00000000000E+00 0. -1.
          6    1    1    2  502    0  0.31228618552E+02 -0.88943345865E+02 -0.58654640886E+03  0.61847136970E+03  0.17200000000E+03 0.  1.
         -6    1    1    2    0  501 -0.31228618552E+02  0.88943345865E+02 -0.10099391374E+04  0.10288086346E+04  0.17200000000E+03 0. -1.
</event>
<event>
 4    1  0.3169553E-002  0.2488021E+03  0.7818608E-02  0.1114064E+00
         -1   -1    0    0    0  501 -0.00000000000E+00  0.00000000000E+00  0.52351056598E+03  0.52351056598E+03  0.00000000000E+00 0.  1.
          1   -1    0    0  502    0  0.00000000000E+00 -0.00000000000E+00 -0.22412601514E+03  0.22412601514E+03  0.00000000000E+00 0. -1.
          6    1    1    2  502    0  0.15170518041E+03  0.96457368514E+02 -0.10724288733E+03  0.27093084466E+03  0.17200000000E+03 0. -1.
         -6    1    1    2    0  501 -0.15170518041E+03 -0.96457368514E+02  0.40662743817E+03  0.47670573646E+03  0.17200000000E+03 0.  1.
</event>
<event>
 4    1  0.3169553E-002  0.2050270E+03  0.7818608E-02  0.1145566E+00
         -2   -1    0    0    0  501 -0.00000000000E+00  0.00000000000E+00  0.14624155751E+03  0.14624155751E+03  0.00000000000E+00 0.  1.
          2   -1    0    0  502    0  0.00000000000E+00 -0.00000000000E+00 -0.60915032004E+03  0.60915032004E+03  0.00000000000E+00 0. -1.
          6    1    1    2  502    0  0.51543823481E+02 -0.98971267051E+02 -0.50593438293E+03  0.54589896251E+03  0.17200000000E+03 0. -1.
         -6    1    1    2    0  501 -0.51543823481E+02  0.98971267051E+02  0.43025620403E+02  0.20949291504E+03  0.17200000000E+03 0.  1.
</event>
<event>
 4    1  0.3169553E-002  0.3084919E+03  0.7818608E-02  0.1081071E+00
         -2   -1    0    0    0  501 -0.00000000000E+00  0.00000000000E+00  0.22684275291E+03  0.22684275291E+03  0.00000000000E+00 0.  1.
          2   -1    0    0  502    0  0.00000000000E+00 -0.00000000000E+00 -0.18097293731E+04  0.18097293731E+04  0.00000000000E+00 0. -1.
          6    1    1    2  502    0  0.19341068162E+03  0.16785572466E+03 -0.16839296915E+04  0.17119539837E+04  0.17200000000E+03 0. -1.
         -6    1    1    2    0  501 -0.19341068162E+03 -0.16785572466E+03  0.10104307138E+03  0.32461814235E+03  0.17200000000E+03 0.  1.
</event>
<event>
 4    1  0.3169553E-002  0.4510297E+03  0.7818608E-02  0.1027415E+00
         -2   -1    0    0    0  501 -0.00000000000E+00  0.00000000000E+00  0.13926153368E+03  0.13926153368E+03  0.00000000000E+00 0.  1.
          2   -1    0    0  502    0  0.00000000000E+00 -0.00000000000E+00 -0.19023683912E+04  0.19023683912E+04  0.00000000000E+00 0. -1.
          6    1    1    2  502    0 -0.32056951502E+03  0.26660632578E+03 -0.13733869571E+04  0.14455516182E+04  0.17200000000E+03 0. -1.
         -6    1    1    2    0  501  0.32056951502E+03 -0.26660632578E+03 -0.38971990033E+03  0.59607830662E+03  0.17200000000E+03 0.  1.
</event>
<event>
 4    1  0.3169553E-002  0.2041457E+03  0.7818608E-02  0.1146288E+00
         -1   -1    0    0    0  501 -0.00000000000E+00  0.00000000000E+00  0.47161886720E+02  0.47161886720E+02  0.00000000000E+00 0.  1.
          1   -1    0    0  502    0  0.00000000000E+00 -0.00000000000E+00 -0.14950783595E+04  0.14950783595E+04  0.00000000000E+00 0. -1.
          6    1    1    2  502    0 -0.94030431933E+02  0.57006423468E+02 -0.23083391512E+03  0.30815540043E+03  0.17200000000E+03 0.  1.
         -6    1    1    2    0  501  0.94030431933E+02 -0.57006423468E+02 -0.12170825577E+04  0.12340848458E+04  0.17200000000E+03 0. -1.
</event>
<event>
 4    1  0.3169553E-002  0.3118734E+03  0.7818608E-02  0.1079451E+00
          1   -1    0    0  502    0  0.00000000000E+00  0.00000000000E+00  0.22426890403E+03  0.22426890403E+03  0.00000000000E+00 0. -1.
         -1   -1    0    0    0  501 -0.00000000000E+00 -0.00000000000E+00 -0.43478884327E+03  0.43478884327E+03  0.00000000000E+00 0.  1.
          6    1    1    2  502    0 -0.14833763050E+03 -0.21372175718E+03 -0.12176346742E+03  0.33480051391E+03  0.17200000000E+03 0. -1.
         -6    1    1    2    0  501  0.14833763050E+03  0.21372175718E+03 -0.88756471825E+02  0.32425723339E+03  0.17200000000E+03 0. -1.
</event>
<event>
 4    1  0.3169553E-002  0.2652330E+03  0.7818608E-02  0.1104039E+00
          1   -1    0    0  502    0  0.00000000000E+00  0.00000000000E+00  0.27926527007E+03  0.27926527007E+03  0.00000000000E+00 0. -1.
         -1   -1    0    0    0  501 -0.00000000000E+00 -0.00000000000E+00 -0.58456788501E+03  0.58456788501E+03  0.00000000000E+00 0.  1.
          6    1    1    2  502    0  0.45986252327E+02 -0.19659556475E+03  0.17317340876E+03  0.31676107871E+03  0.17200000000E+03 0. -1.
         -6    1    1    2    0  501 -0.45986252327E+02  0.19659556475E+03 -0.47847602370E+03  0.54707207637E+03  0.17200000000E+03 0.  1.
</event>
<event>
 4    1  0.3169553E-002  0.1876666E+03  0.7818608E-02  0.1160583E+00
          2   -1    0    0  502    0  0.00000000000E+00  0.00000000000E+00  0.17903217543E+04  0.17903217543E+04  0.00000000000E+00 0. -1.
         -2   -1    0    0    0  501 -0.00000000000E+00 -0.00000000000E+00 -0.21316982997E+02  0.21316982997E+02  0.00000000000E+00 0.  1.
          6    1    1    2  502    0  0.43449401084E+02 -0.61211996019E+02  0.11361499113E+04  0.11515447798E+04  0.17200000000E+03 0. -1.
         -6    1    1    2    0  501 -0.43449401084E+02  0.61211996019E+02  0.63285486004E+03  0.66009395754E+03  0.17200000000E+03 0.  1.
</event>
<event>
 4    1  0.3169553E-002  0.2012819E+03  0.7818608E-02  0.1148662E+00
         -1   -1    0    0    0  501 -0.00000000000E+00  0.00000000000E+00  0.32668534290E+03  0.32668534290E+03  0.00000000000E+00 0.  1.
          1   -1    0    0  502    0  0.00000000000E+00 -0.00000000000E+00 -0.12402281425E+03  0.12402281425E+03  0.00000000000E+00 0. -1.
          6    1    1    2  502    0  0.43455271640E+02  0.95089593134E+02  0.10293198802E+03  0.22607384969E+03  0.17200000000E+03 0. -1.
         -6    1    1    2    0  501 -0.43455271640E+02 -0.95089593134E+02  0.99730540625E+02  0.22463430746E+03  0.17200000000E+03 0. -1.
</event>
<event>
 4    1  0.3169553E-002  0.9361624E+03  0.7818608E-02  0.9381472E-01
         -2   -1    0    0    0  501 -0.00000000000E+00  0.00000000000E+00  0.79448583264E+03  0.79448583264E+03  0.00000000000E+00 0.  1.
          2   -1    0    0  502    0  0.00000000000E+00 -0.00000000000E+00 -0.33049540383E+04  0.33049540383E+04  0.00000000000E+00 0. -1.
          6    1    1    2  502    0  0.44685312456E+01 -0.92021522147E+03 -0.29282718549E+04  0.30742765129E+04  0.17200000000E+03 0. -1.
         -6    1    1    2    0  501 -0.44685312456E+01  0.92021522147E+03  0.41780364915E+03  0.10251633581E+04  0.17200000000E+03 0.  1.
</event>
<event>
 4    1  0.3169553E-002  0.1792234E+03  0.7818608E-02  0.1168557E+00
         -2   -1    0    0    0  501 -0.00000000000E+00  0.00000000000E+00  0.22434462390E+02  0.22434462390E+02  0.00000000000E+00 0.  1.
          2   -1    0    0  502    0  0.00000000000E+00 -0.00000000000E+00 -0.18738372672E+04  0.18738372672E+04  0.00000000000E+00 0. -1.
          6    1    1    2  502    0  0.19653708616E+02 -0.46376213258E+02 -0.13862210197E+04  0.13977588264E+04  0.17200000000E+03 0. -1.
         -6    1    1    2    0  501 -0.19653708616E+02  0.46376213258E+02 -0.46518178518E+03  0.49851290322E+03  0.17200000000E+03 0.  1.
</event>
<event>
 4    1  0.3169553E-002  0.2645535E+03  0.7818608E-02  0.1104438E+00
          2   -1    0    0  502    0  0.00000000000E+00  0.00000000000E+00  0.33772130284E+04  0.33772130284E+04  0.00000000000E+00 0. -1.
         -2   -1    0    0    0  501 -0.00000000000E+00 -0.00000000000E+00 -0.27898317669E+02  0.27898317669E+02  0.00000000000E+00 0.  1.
          6    1    1    2  502    0 -0.88065108939E+02  0.18069059177E+03  0.25380530329E+04  0.25518036271E+04  0.17200000000E+03 0. -1.
         -6    1    1    2    0  501  0.88065108939E+02 -0.18069059177E+03  0.81126167779E+03  0.85330771895E+03  0.17200000000E+03 0.  1.
</event>
<event>
 4    1  0.3169553E-002  0.1962547E+03  0.7818608E-02  0.1152938E+00
          1   -1    0    0  502    0  0.00000000000E+00  0.00000000000E+00  0.51080847588E+03  0.51080847588E+03  0.00000000000E+00 0. -1.
         -1   -1    0    0    0  501 -0.00000000000E+00 -0.00000000000E+00 -0.76572699998E+02  0.76572699998E+02  0.00000000000E+00 0.  1.
          6    1    1    2  502    0 -0.34246412253E+02 -0.88085657958E+02  0.25343448925E+03  0.32053851599E+03  0.17200000000E+03 0. -1.
         -6    1    1    2    0  501  0.34246412253E+02  0.88085657958E+02  0.18080128663E+03  0.26684265989E+03  0.17200000000E+03 0.  1.
</event>
<event>
 4    1  0.3169553E-002  0.1831783E+03  0.7818608E-02  0.1164762E+00
          2   -1    0    0  502    0  0.00000000000E+00  0.00000000000E+00  0.93898016330E+03  0.93898016330E+03  0.00000000000E+00 0. -1.
         -2   -1    0    0    0  501 -0.00000000000E+00 -0.00000000000E+00 -0.46356456475E+02  0.46356456475E+02  0.00000000000E+00 0.  1.
          6    1    1    2  502    0 -0.32606322898E+02 -0.53917829572E+02  0.21048413578E+03  0.27903024219E+03  0.17200000000E+03 0.  1.
         -6    1    1    2    0  501  0.32606322898E+02  0.53917829572E+02  0.68213957105E+03  0.70630637759E+03  0.17200000000E+03 0.  1.
</event>
<event>
 4    1  0.3169553E-002  0.1828140E+03  0.7818608E-02  0.1165107E+00
          1   -1    0    0  502    0  0.00000000000E+00  0.00000000000E+00  0.68017443852E+03  0.68017443852E+03  0.00000000000E+00 0. -1.
         -1   -1    0    0    0  501 -0.00000000000E+00 -0.00000000000E+00 -0.49773846437E+02  0.49773846437E+02  0.00000000000E+00 0.  1.
          6    1    1    2  502    0  0.45122363086E+02 -0.42437409934E+02  0.27387989737E+03  0.32928886953E+03  0.17200000000E+03 0.  1.
         -6    1    1    2    0  501 -0.45122363086E+02  0.42437409934E+02  0.35652069471E+03  0.40065941543E+03  0.17200000000E+03 0.  1.
</event>
<event>
 4    1  0.3169553E-002  0.3351191E+03  0.7818608E-02  0.1068894E+00
         -2   -1    0    0    0  501 -0.00000000000E+00  0.00000000000E+00  0.39339198256E+02  0.39339198256E+02  0.00000000000E+00 0.  1.
          2   -1    0    0  502    0  0.00000000000E+00 -0.00000000000E+00 -0.33934396192E+04  0.33934396192E+04  0.00000000000E+00 0. -1.
          6    1    1    2  502    0 -0.20769617389E+03 -0.19895504289E+03 -0.23608869443E+04  0.23845527827E+04  0.17200000000E+03 0. -1.
         -6    1    1    2    0  501  0.20769617389E+03  0.19895504289E+03 -0.99321347665E+03  0.10482260348E+04  0.17200000000E+03 0.  1.
</event>
<event>
 4    1  0.3169553E-002  0.2150409E+03  0.7818608E-02  0.1137635E+00
          1   -1    0    0  502    0  0.00000000000E+00  0.00000000000E+00  0.98004637527E+02  0.98004637527E+02  0.00000000000E+00 0. -1.
         -1   -1    0    0    0  501 -0.00000000000E+00 -0.00000000000E+00 -0.47431501586E+03  0.47431501586E+03  0.00000000000E+00 0.  1.
          6    1    1    2  502    0  0.11632640895E+03  0.55917564610E+02 -0.20882208858E+03  0.29974868162E+03  0.17200000000E+03 0.  1.
         -6    1    1    2    0  501 -0.11632640895E+03 -0.55917564610E+02 -0.16748828975E+03  0.27257097178E+03  0.17200000000E+03 0. -1.
</event>
<event>
 4    1  0.3169553E-002  0.1801341E+03  0.7818608E-02  0.1167673E+00
          2   -1    0    0  502    0  0.00000000000E+00  0.00000000000E+00  0.11519947285E+04  0.11519947285E+04  0.00000000000E+00 0. -1.
         -2   -1    0    0    0  501 -0.00000000000E+00 -0.00000000000E+00 -0.28580790065E+02  0.28580790065E+02  0.00000000000E+00 0.  1.
          6    1    1    2  502    0  0.51939805283E+02 -0.12904881912E+02  0.63272959492E+03  0.65787158294E+03  0.17200000000E+03 0.  1.
         -6    1    1    2    0  501 -0.51939805283E+02  0.12904881912E+02  0.49068434355E+03  0.52270393566E+03  0.17200000000E+03 0. -1.
</event>
<event>
 4    1  0.3169553E-002  0.1807657E+03  0.7818608E-02  0.1167064E+00
          2   -1    0    0  502    0  0.00000000000E+00  0.00000000000E+00  0.11188407855E+04  0.11188407855E+04  0.00000000000E+00 0. -1.
         -2   -1    0    0    0  501 -0.00000000000E+00 -0.00000000000E+00 -0.29501225686E+02  0.29501225686E+02  0.00000000000E+00 0.  1.
          6    1    1    2  502    0 -0.54389237260E+02  0.11578225197E+02  0.48717807181E+03  0.51963325344E+03  0.17200000000E+03 0.  1.
         -6    1    1    2    0  501  0.54389237260E+02 -0.11578225197E+02  0.60216148797E+03  0.62870875771E+03  0.17200000000E+03 0. -1.
</event>
<event>
 4    1  0.3169553E-002  0.4998154E+03  0.7818608E-02  0.1013827E+00
          1   -1    0    0  502    0  0.00000000000E+00  0.00000000000E+00  0.11630944277E+04  0.11630944277E+04  0.00000000000E+00 0. -1.
         -1   -1    0    0    0  501 -0.00000000000E+00 -0.00000000000E+00 -0.34421761535E+03  0.34421761535E+03  0.00000000000E+00 0.  1.
          6    1    1    2  502    0 -0.43734378764E+03  0.17018185375E+03  0.87158332287E+03  0.10047253061E+04  0.17200000000E+03 0. -1.
         -6    1    1    2    0  501  0.43734378764E+03 -0.17018185375E+03 -0.52706510525E+02  0.50258673698E+03  0.17200000000E+03 0.  1.
</event>
<event>
 4    1  0.3169553E-002  0.6207903E+03  0.7818608E-02  0.9863187E-01
          2   -1    0    0  502    0  0.00000000000E+00  0.00000000000E+00  0.91976257788E+03  0.91976257788E+03  0.00000000000E+00 0. -1.
         -2   -1    0    0    0  501 -0.00000000000E+00 -0.00000000000E+00 -0.42006069679E+03  0.42006069679E+03  0.00000000000E+00 0.  1.
          6    1    1    2  502    0 -0.18820610484E+03  0.56601686293E+03  0.28351243025E+03  0.68246606152E+03  0.17200000000E+03 0.  1.
         -6    1    1    2    0  501  0.18820610484E+03 -0.56601686293E+03  0.21618945084E+03  0.65735721315E+03  0.17200000000E+03 0.  1.
</event>
<event>
 4    1  0.3169553E-002  0.2050095E+03  0.7818608E-02  0.1145580E+00
          4   -1    0    0  502    0  0.00000000000E+00  0.00000000000E+00  0.79472772580E+02  0.79472772580E+02  0.00000000000E+00 0. -1.
         -4   -1    0    0    0  501 -0.00000000000E+00 -0.00000000000E+00 -0.54015830096E+03  0.54015830096E+03  0.00000000000E+00 0.  1.
          6    1    1    2  502    0  0.10317282406E+03 -0.42429455654E+02 -0.27517705506E+03  0.34314909582E+03  0.17200000000E+03 0.  1.
         -6    1    1    2    0  501 -0.10317282406E+03  0.42429455654E+02 -0.18550847333E+03  0.27648197773E+03  0.17200000000E+03 0. -1.
</event>
<event>
 4    1  0.3169553E-002  0.1777080E+03  0.7818608E-02  0.1170040E+00
         -2   -1    0    0    0  501 -0.00000000000E+00  0.00000000000E+00  0.57275528483E+02  0.57275528483E+02  0.00000000000E+00 0.  1.
          2   -1    0    0  502    0  0.00000000000E+00 -0.00000000000E+00 -0.67006251007E+03  0.67006251007E+03  0.00000000000E+00 0. -1.
          6    1    1    2  502    0  0.39417236385E+02 -0.21033860675E+02 -0.45945149022E+03  0.49262136950E+03  0.17200000000E+03 0. -1.
         -6    1    1    2    0  501 -0.39417236385E+02  0.21033860675E+02 -0.15333549136E+03  0.23471666905E+03  0.17200000000E+03 0.  1.
</event>
<event>
 4    1  0.3169553E-002  0.1798517E+03  0.7818608E-02  0.1167947E+00
         -2   -1    0    0    0  501 -0.00000000000E+00  0.00000000000E+00  0.41814164086E+02  0.41814164086E+02  0.00000000000E+00 0.  1.
          2   -1    0    0  502    0  0.00000000000E+00 -0.00000000000E+00 -0.77605790680E+03  0.77605790680E+03  0.00000000000E+00 0. -1.
          6    1    1    2  502    0 -0.36764786333E+02 -0.37563059931E+02 -0.39022569544E+03  0.42967746783E+03  0.17200000000E+03 0.  1.
         -6    1    1    2    0  501  0.36764786333E+02  0.37563059931E+02 -0.34401804728E+03  0.38819460305E+03  0.17200000000E+03 0.  1.
</event>
<event>
 4    1  0.3169553E-002  0.2881586E+03  0.7818608E-02  0.1091314E+00
         -1   -1    0    0    0  501 -0.00000000000E+00  0.00000000000E+00  0.90847686461E+03  0.90847686461E+03  0.00000000000E+00 0.  1.
          1   -1    0    0  502    0  0.00000000000E+00 -0.00000000000E+00 -0.10752786555E+03  0.10752786555E+03  0.00000000000E+00 0. -1.
          6    1    1    2  502    0 -0.21527813787E+03 -0.84301408668E+02  0.20373819980E+03  0.35290885255E+03  0.17200000000E+03 0. -1.
         -6    1    1    2    0  501  0.21527813787E+03  0.84301408668E+02  0.59721079926E+03  0.66309587761E+03  0.17200000000E+03 0.  1.
</event>
<event>
 4    1  0.3169553E-002  0.5675015E+03  0.7818608E-02  0.9975223E-01
         -2   -1    0    0    0  501 -0.00000000000E+00  0.00000000000E+00  0.73640783813E+03  0.73640783813E+03  0.00000000000E+00 0.  1.
          2   -1    0    0  502    0  0.00000000000E+00 -0.00000000000E+00 -0.58216637768E+03  0.58216637768E+03  0.00000000000E+00 0. -1.
          6    1    1    2  502    0 -0.47719419922E+03 -0.25447919823E+03 -0.25171592979E+03  0.62082112997E+03  0.17200000000E+03 0. -1.
         -6    1    1    2    0  501  0.47719419922E+03  0.25447919823E+03  0.40595739025E+03  0.69775308584E+03  0.17200000000E+03 0.  1.
</event>
<event>
 4    1  0.3169553E-002  0.1938330E+03  0.7818608E-02  0.1155049E+00
         -2   -1    0    0    0  501 -0.00000000000E+00  0.00000000000E+00  0.19747710158E+02  0.19747710158E+02  0.00000000000E+00 0.  1.
          2   -1    0    0  502    0  0.00000000000E+00 -0.00000000000E+00 -0.19498039316E+04  0.19498039316E+04  0.00000000000E+00 0. -1.
          6    1    1    2  502    0 -0.63375102038E+02  0.63014447331E+02 -0.81173942316E+03  0.83456103147E+03  0.17200000000E+03 0.  1.
         -6    1    1    2    0  501  0.63375102038E+02 -0.63014447331E+02 -0.11183167983E+04  0.11349906103E+04  0.17200000000E+03 0. -1.
</event>
<event>
 4    1  0.3169553E-002  0.3578373E+03  0.7818608E-02  0.1059443E+00
          2   -1    0    0  502    0  0.00000000000E+00  0.00000000000E+00  0.75022057713E+03  0.75022057713E+03  0.00000000000E+00 0. -1.
         -2   -1    0    0    0  501 -0.00000000000E+00 -0.00000000000E+00 -0.18423118474E+03  0.18423118474E+03  0.00000000000E+00 0.  1.
          6    1    1    2  502    0 -0.27666975926E+03 -0.14804511507E+03  0.40971227427E+03  0.54397762773E+03  0.17200000000E+03 0. -1.
         -6    1    1    2    0  501  0.27666975926E+03  0.14804511507E+03  0.15627711812E+03  0.39047413414E+03  0.17200000000E+03 0.  1.
</event>
<event>
 4    1  0.3169553E-002  0.2317215E+03  0.7818608E-02  0.1125434E+00
          2   -1    0    0  502    0  0.00000000000E+00  0.00000000000E+00  0.22293386530E+04  0.22293386530E+04  0.00000000000E+00 0. -1.
         -2   -1    0    0    0  501 -0.00000000000E+00 -0.00000000000E+00 -0.40309148946E+02  0.40309148946E+02  0.00000000000E+00 0.  1.
          6    1    1    2  502    0 -0.88209059247E+02 -0.12778897996E+03  0.18144611726E+04  0.18291976953E+04  0.17200000000E+03 0. -1.
         -6    1    1    2    0  501  0.88209059247E+02  0.12778897996E+03  0.37456833142E+03  0.44045010663E+03  0.17200000000E+03 0.  1.
</event>
<event>
 4    1  0.3169553E-002  0.1744037E+03  0.7818608E-02  0.1173332E+00
          1   -1    0    0  502    0  0.00000000000E+00  0.00000000000E+00  0.54072028254E+02  0.54072028254E+02  0.00000000000E+00 0. -1.
         -1   -1    0    0    0  501 -0.00000000000E+00 -0.00000000000E+00 -0.63022509424E+03  0.63022509424E+03  0.00000000000E+00 0.  1.
          6    1    1    2  502    0  0.27859485592E+02 -0.75166974651E+01 -0.40022008873E+03  0.43656931993E+03  0.17200000000E+03 0.  1.
         -6    1    1    2    0  501 -0.27859485592E+02  0.75166974651E+01 -0.17593297725E+03  0.24772780257E+03  0.17200000000E+03 0.  1.
</event>
<event>
 4    1  0.3169553E-002  0.1882312E+03  0.7818608E-02  0.1160066E+00
         -1   -1    0    0    0  501 -0.00000000000E+00  0.00000000000E+00  0.11986735152E+03  0.11986735152E+03  0.00000000000E+00 0.  1.
          1   -1    0    0  502    0  0.00000000000E+00 -0.00000000000E+00 -0.29560424430E+03  0.29560424430E+03  0.00000000000E+00 0. -1.
          6    1    1    2  502    0 -0.25259804339E+02  0.72172974808E+02 -0.86194103238E+02  0.20702758135E+03  0.17200000000E+03 0.  1.
         -6    1    1    2    0  501  0.25259804339E+02 -0.72172974808E+02 -0.89542789541E+02  0.20844401447E+03  0.17200000000E+03 0.  1.
</event>
<event>
 4    1  0.3169553E-002  0.3438326E+03  0.7818608E-02  0.1065175E+00
         -1   -1    0    0    0  501 -0.00000000000E+00  0.00000000000E+00  0.56442378403E+03  0.56442378403E+03  0.00000000000E+00 0.  1.
          1   -1    0    0  502    0  0.00000000000E+00 -0.00000000000E+00 -0.23369537874E+03  0.23369537874E+03  0.00000000000E+00 0. -1.
          6    1    1    2  502    0  0.18796161247E+03 -0.23088370945E+03  0.36838267970E+02  0.34580039479E+03  0.17200000000E+03 0. -1.
         -6    1    1    2    0  501 -0.18796161247E+03  0.23088370945E+03  0.29389013732E+03  0.45231876798E+03  0.17200000000E+03 0.  1.
</event>
<event>
 4    1  0.3169553E-002  0.2195716E+03  0.7818608E-02  0.1134203E+00
         -1   -1    0    0    0  501 -0.00000000000E+00  0.00000000000E+00  0.89582566801E+02  0.89582566801E+02  0.00000000000E+00 0.  1.
          1   -1    0    0  502    0  0.00000000000E+00 -0.00000000000E+00 -0.86106653362E+03  0.86106653362E+03  0.00000000000E+00 0. -1.
          6    1    1    2  502    0 -0.12125258938E+03  0.62653928056E+02 -0.67681078713E+03  0.71153675008E+03  0.17200000000E+03 0. -1.
         -6    1    1    2    0  501  0.12125258938E+03 -0.62653928056E+02 -0.94673179681E+02  0.23911235034E+03  0.17200000000E+03 0.  1.
</event>
<event>
 4    1  0.3169553E-002  0.2154548E+03  0.7818608E-02  0.1137318E+00
         -2   -1    0    0    0  501 -0.00000000000E+00  0.00000000000E+00  0.45695387102E+02  0.45695387102E+02  0.00000000000E+00 0.  1.
          2   -1    0    0  502    0  0.00000000000E+00 -0.00000000000E+00 -0.21997511570E+04  0.21997511570E+04  0.00000000000E+00 0. -1.
          6    1    1    2  502    0 -0.73617163388E+02  0.10685170413E+03 -0.25338453424E+03  0.33260260915E+03  0.17200000000E+03 0.  1.
         -6    1    1    2    0  501  0.73617163388E+02 -0.10685170413E+03 -0.19006712356E+04  0.19128439349E+04  0.17200000000E+03 0. -1.
</event>
<event>
 4    1  0.3169553E-002  0.2569997E+03  0.7818608E-02  0.1108959E+00
          1   -1    0    0  502    0  0.00000000000E+00  0.00000000000E+00  0.17145895477E+04  0.17145895477E+04  0.00000000000E+00 0. -1.
         -1   -1    0    0    0  501 -0.00000000000E+00 -0.00000000000E+00 -0.41766074603E+02  0.41766074603E+02  0.00000000000E+00 0.  1.
          6    1    1    2  502    0  0.54736877146E+02 -0.18294458795E+03  0.59165293387E+03  0.64505971982E+03  0.17200000000E+03 0. -1.
         -6    1    1    2    0  501 -0.54736877146E+02  0.18294458795E+03  0.10811705392E+04  0.11112959025E+04  0.17200000000E+03 0.  1.
</event>
<event>
 4    1  0.3169553E-002  0.3127100E+03  0.7818608E-02  0.1079054E+00
         -2   -1    0    0    0  501 -0.00000000000E+00  0.00000000000E+00  0.23061915795E+03  0.23061915795E+03  0.00000000000E+00 0.  1.
          2   -1    0    0  502    0  0.00000000000E+00 -0.00000000000E+00 -0.60083195209E+03  0.60083195209E+03  0.00000000000E+00 0. -1.
          6    1    1    2  502    0 -0.59591019419E+02 -0.25426842396E+03 -0.41062582821E+03  0.51614057369E+03  0.17200000000E+03 0. -1.
         -6    1    1    2    0  501  0.59591019419E+02  0.25426842396E+03  0.40413034061E+02  0.31531053636E+03  0.17200000000E+03 0.  1.
</event>
<event>
 4    1  0.3169553E-002  0.9634411E+03  0.7818608E-02  0.9349577E-01
          2   -1    0    0  502    0  0.00000000000E+00  0.00000000000E+00  0.14375032344E+04  0.14375032344E+04  0.00000000000E+00 0. -1.
         -2   -1    0    0    0  501 -0.00000000000E+00 -0.00000000000E+00 -0.77719010075E+03  0.77719010075E+03  0.00000000000E+00 0.  1.
          6    1    1    2  502    0 -0.70452830830E+03 -0.63425116927E+03  0.78560609475E+03  0.12431394206E+04  0.17200000000E+03 0. -1.
         -6    1    1    2    0  501  0.70452830830E+03  0.63425116927E+03 -0.12529296105E+03  0.97155391462E+03  0.17200000000E+03 0.  1.
</event>
<event>
 4    1  0.3169553E-002  0.5173507E+03  0.7818608E-02  0.1009347E+00
         -1   -1    0    0    0  501 -0.00000000000E+00  0.00000000000E+00  0.65385629084E+03  0.65385629084E+03  0.00000000000E+00 0.  1.
          1   -1    0    0  502    0  0.00000000000E+00 -0.00000000000E+00 -0.41115431941E+03  0.41115431941E+03  0.00000000000E+00 0. -1.
          6    1    1    2  502    0  0.21001934149E+02 -0.48746967263E+03  0.15669126793E+03  0.54055889265E+03  0.17200000000E+03 0. -1.
         -6    1    1    2    0  501 -0.21001934149E+02  0.48746967263E+03  0.86010703501E+02  0.52445171760E+03  0.17200000000E+03 0.  1.
</event>
<event>
 4    1  0.3169553E-002  0.6148802E+03  0.7818608E-02  0.9875006E-01
         -2   -1    0    0    0  501 -0.00000000000E+00  0.00000000000E+00  0.34718119032E+03  0.34718119032E+03  0.00000000000E+00 0.  1.
          2   -1    0    0  502    0  0.00000000000E+00 -0.00000000000E+00 -0.19324260412E+04  0.19324260412E+04  0.00000000000E+00 0. -1.
          6    1    1    2  502    0  0.37144010898E+03  0.45883107274E+03 -0.15456381182E+04  0.16634527045E+04  0.17200000000E+03 0. -1.
         -6    1    1    2    0  501 -0.37144010898E+03 -0.45883107274E+03 -0.39606732716E+02  0.61615452700E+03  0.17200000000E+03 0.  1.
</event>
<event>
 4    1  0.3169553E-002  0.1976808E+03  0.7818608E-02  0.1151711E+00
          4   -1    0    0  502    0  0.00000000000E+00  0.00000000000E+00  0.98178859332E+03  0.98178859332E+03  0.00000000000E+00 0. -1.
         -4   -1    0    0    0  501 -0.00000000000E+00 -0.00000000000E+00 -0.47342140466E+02  0.47342140466E+02  0.00000000000E+00 0.  1.
          6    1    1    2  502    0 -0.21820812310E+02  0.94960684486E+02  0.26187508193E+03  0.32811010040E+03  0.17200000000E+03 0.  1.
         -6    1    1    2    0  501  0.21820812310E+02 -0.94960684486E+02  0.67257137091E+03  0.70102063338E+03  0.17200000000E+03 0. -1.
</event>
<event>
 4    1  0.3169553E-002  0.1772635E+03  0.7818608E-02  0.1170478E+00
          2   -1    0    0  502    0  0.00000000000E+00  0.00000000000E+00  0.26844366218E+04  0.26844366218E+04  0.00000000000E+00 0. -1.
         -2   -1    0    0    0  501 -0.00000000000E+00 -0.00000000000E+00 -0.18555783973E+02  0.18555783973E+02  0.00000000000E+00 0.  1.
          6    1    1    2  502    0 -0.23102185463E+02  0.36119808640E+02  0.21541107651E+04  0.21613920375E+04  0.17200000000E+03 0. -1.
         -6    1    1    2    0  501  0.23102185463E+02 -0.36119808640E+02  0.51177007273E+03  0.54160036825E+03  0.17200000000E+03 0.  1.
</event>
<event>
 4    1  0.3169553E-002  0.2278674E+03  0.7818608E-02  0.1128150E+00
          3   -1    0    0  502    0  0.00000000000E+00  0.00000000000E+00  0.26367254505E+03  0.26367254505E+03  0.00000000000E+00 0. -1.
         -3   -1    0    0    0  501 -0.00000000000E+00 -0.00000000000E+00 -0.45186835043E+03  0.45186835043E+03  0.00000000000E+00 0.  1.
          6    1    1    2  502    0 -0.95142599352E+02 -0.11527116597E+03  0.17463501291E+03  0.28709047990E+03  0.17200000000E+03 0. -1.
         -6    1    1    2    0  501  0.95142599352E+02  0.11527116597E+03 -0.36283081829E+03  0.42845041558E+03  0.17200000000E+03 0.  1.
</event>
<event>
 4    1  0.3169553E-002  0.2398917E+03  0.7818608E-02  0.1119865E+00
         -1   -1    0    0    0  501 -0.00000000000E+00  0.00000000000E+00  0.47469436562E+02  0.47469436562E+02  0.00000000000E+00 0.  1.
          1   -1    0    0  502    0  0.00000000000E+00 -0.00000000000E+00 -0.12543954370E+04  0.12543954370E+04  0.00000000000E+00 0. -1.
          6    1    1    2  502    0 -0.90817592480E+02 -0.14041438886E+03 -0.72268190690E+03  0.76145727015E+03  0.17200000000E+03 0. -1.
         -6    1    1    2    0  501  0.90817592480E+02  0.14041438886E+03 -0.48424409359E+03  0.54040760346E+03  0.17200000000E+03 0.  1.
</event>
<event>
 4    1  0.3169553E-002  0.1833759E+03  0.7818608E-02  0.1164575E+00
          2   -1    0    0  502    0  0.00000000000E+00  0.00000000000E+00  0.28855579238E+03  0.28855579238E+03  0.00000000000E+00 0. -1.
         -2   -1    0    0    0  501 -0.00000000000E+00 -0.00000000000E+00 -0.12239005499E+03  0.12239005499E+03  0.00000000000E+00 0.  1.
          6    1    1    2  502    0 -0.21607961319E+02 -0.59798125487E+02  0.12802603473E+03  0.22364566925E+03  0.17200000000E+03 0. -1.
         -6    1    1    2    0  501  0.21607961319E+02  0.59798125487E+02  0.38139702664E+02  0.18730017812E+03  0.17200000000E+03 0.  1.
</event>
<event>
 4    1  0.3169553E-002  0.2042951E+03  0.7818608E-02  0.1146165E+00
         -3   -1    0    0    0  501 -0.00000000000E+00  0.00000000000E+00  0.11933052953E+03  0.11933052953E+03  0.00000000000E+00 0.  1.
          3   -1    0    0  502    0  0.00000000000E+00 -0.00000000000E+00 -0.41037458162E+03  0.41037458162E+03  0.00000000000E+00 0. -1.
          6    1    1    2  502    0  0.10861628394E+03  0.18841395922E+02 -0.24731528725E+03  0.32078239766E+03  0.17200000000E+03 0. -1.
         -6    1    1    2    0  501 -0.10861628394E+03 -0.18841395922E+02 -0.43728764835E+02  0.20892271349E+03  0.17200000000E+03 0.  1.
</event>
<event>
 4    1  0.3169553E-002  0.1767475E+03  0.7818608E-02  0.1170989E+00
          3   -1    0    0  502    0  0.00000000000E+00  0.00000000000E+00  0.50762897496E+02  0.50762897496E+02  0.00000000000E+00 0. -1.
         -3   -1    0    0    0  501 -0.00000000000E+00 -0.00000000000E+00 -0.97423255161E+03  0.97423255161E+03  0.00000000000E+00 0.  1.
          6    1    1    2  502    0  0.28041010566E+02  0.29485027939E+02 -0.15070329636E+03  0.23227386568E+03  0.17200000000E+03 0. -1.
         -6    1    1    2    0  501 -0.28041010566E+02 -0.29485027939E+02 -0.77276635776E+03  0.79272158343E+03  0.17200000000E+03 0.  1.
</event>
<event>
 4    1  0.3169553E-002  0.2669749E+03  0.7818608E-02  0.1103024E+00
          2   -1    0    0  502    0  0.00000000000E+00  0.00000000000E+00  0.22650763535E+04  0.22650763535E+04  0.00000000000E+00 0. -1.
         -2   -1    0    0    0  501 -0.00000000000E+00 -0.00000000000E+00 -0.70285310972E+02  0.70285310972E+02  0.00000000000E+00 0.  1.
          6    1    1    2  502    0  0.49889005526E+02 -0.19799671645E+03  0.19651743684E+04  0.19832261371E+04  0.17200000000E+03 0. -1.
         -6    1    1    2    0  501 -0.49889005526E+02  0.19799671645E+03  0.22961667407E+03  0.35213552733E+03  0.17200000000E+03 0.  1.
</event>
<event>
 4    1  0.3169553E-002  0.2776487E+03  0.7818608E-02  0.1096980E+00
         -2   -1    0    0    0  501 -0.00000000000E+00  0.00000000000E+00  0.33759763914E+02  0.33759763914E+02  0.00000000000E+00 0.  1.
          2   -1    0    0  502    0  0.00000000000E+00 -0.00000000000E+00 -0.23494282143E+04  0.23494282143E+04  0.00000000000E+00 0. -1.
          6    1    1    2  502    0 -0.20115604638E+03 -0.83910810428E+02 -0.13575180971E+04  0.13856204975E+04  0.17200000000E+03 0. -1.
         -6    1    1    2    0  501  0.20115604638E+03  0.83910810428E+02 -0.95815035322E+03  0.99756748067E+03  0.17200000000E+03 0.  1.
</event>
<event>
 4    1  0.3169553E-002  0.3416264E+03  0.7818608E-02  0.1066105E+00
         -2   -1    0    0    0  501 -0.00000000000E+00  0.00000000000E+00  0.11167381654E+03  0.11167381654E+03  0.00000000000E+00 0.  1.
          2   -1    0    0  502    0  0.00000000000E+00 -0.00000000000E+00 -0.13820142720E+04  0.13820142720E+04  0.00000000000E+00 0. -1.
          6    1    1    2  502    0  0.32963190551E+02 -0.29332242942E+03 -0.10039296225E+04  0.10604637224E+04  0.17200000000E+03 0. -1.
         -6    1    1    2    0  501 -0.32963190551E+02  0.29332242942E+03 -0.26641083299E+03  0.43322436620E+03  0.17200000000E+03 0.  1.
</event>
<event>
 4    1  0.3169553E-002  0.1893813E+03  0.7818608E-02  0.1159021E+00
         -2   -1    0    0    0  501 -0.00000000000E+00  0.00000000000E+00  0.24008314166E+03  0.24008314166E+03  0.00000000000E+00 0.  1.
          2   -1    0    0  502    0  0.00000000000E+00 -0.00000000000E+00 -0.26353808076E+03  0.26353808076E+03  0.00000000000E+00 0. -1.
          6    1    1    2  502    0  0.79023006008E+02 -0.60533638683E+01 -0.17745418482E+03  0.25952893173E+03  0.17200000000E+03 0. -1.
         -6    1    1    2    0  501 -0.79023006008E+02  0.60533638683E+01  0.15399924572E+03  0.24409229069E+03  0.17200000000E+03 0.  1.
</event>
<event>
 4    1  0.3169553E-002  0.2700957E+03  0.7818608E-02  0.1101225E+00
          4   -1    0    0  502    0  0.00000000000E+00  0.00000000000E+00  0.10887179600E+04  0.10887179600E+04  0.00000000000E+00 0. -1.
         -4   -1    0    0    0  501 -0.00000000000E+00 -0.00000000000E+00 -0.10866501696E+03  0.10866501696E+03  0.00000000000E+00 0.  1.
          6    1    1    2  502    0 -0.25423055868E+02 -0.20669143637E+03  0.86071377271E+03  0.90209748928E+03  0.17200000000E+03 0. -1.
         -6    1    1    2    0  501  0.25423055868E+02  0.20669143637E+03  0.11933917029E+03  0.29528548763E+03  0.17200000000E+03 0.  1.
</event>
<event>
 4    1  0.3169553E-002  0.1915445E+03  0.7818608E-02  0.1157076E+00
          2   -1    0    0  502    0  0.00000000000E+00  0.00000000000E+00  0.24108177576E+03  0.24108177576E+03  0.00000000000E+00 0. -1.
         -2   -1    0    0    0  501 -0.00000000000E+00 -0.00000000000E+00 -0.33855759831E+03  0.33855759831E+03  0.00000000000E+00 0.  1.
          6    1    1    2  502    0 -0.84292971662E+02  0.88705777785E-01  0.16629318215E+03  0.25365869859E+03  0.17200000000E+03 0. -1.
         -6    1    1    2    0  501  0.84292971662E+02 -0.88705777785E-01 -0.26376900471E+03  0.32598067548E+03  0.17200000000E+03 0.  1.
</event>
<event>
 4    1  0.3169553E-002  0.2455496E+03  0.7818608E-02  0.1116150E+00
          2   -1    0    0  502    0  0.00000000000E+00  0.00000000000E+00  0.72326624868E+03  0.72326624868E+03  0.00000000000E+00 0. -1.
         -2   -1    0    0    0  501 -0.00000000000E+00 -0.00000000000E+00 -0.98735793178E+02  0.98735793178E+02  0.00000000000E+00 0.  1.
          6    1    1    2  502    0 -0.17263600482E+03 -0.30123735859E+02  0.15009813212E+03  0.28779172832E+03  0.17200000000E+03 0.  1.
         -6    1    1    2    0  501  0.17263600482E+03  0.30123735859E+02  0.47443232339E+03  0.53421031354E+03  0.17200000000E+03 0. -1.
</event>
<event>
 4    1  0.3169553E-002  0.1978280E+03  0.7818608E-02  0.1151585E+00
         -2   -1    0    0    0  501 -0.00000000000E+00  0.00000000000E+00  0.77214368593E+03  0.77214368593E+03  0.00000000000E+00 0.  1.
          2   -1    0    0  502    0  0.00000000000E+00 -0.00000000000E+00 -0.95893168119E+02  0.95893168119E+02  0.00000000000E+00 0. -1.
          6    1    1    2  502    0  0.50538208196E+02 -0.83652880220E+02  0.40119979229E+02  0.20185521442E+03  0.17200000000E+03 0. -1.
         -6    1    1    2    0  501 -0.50538208196E+02  0.83652880220E+02  0.63613053858E+03  0.66618163962E+03  0.17200000000E+03 0.  1.
</event>
<event>
 4    1  0.3169553E-002  0.5175473E+03  0.7818608E-02  0.1009298E+00
          2   -1    0    0  502    0  0.00000000000E+00  0.00000000000E+00  0.27005068254E+04  0.27005068254E+04  0.00000000000E+00 0. -1.
         -2   -1    0    0    0  501 -0.00000000000E+00 -0.00000000000E+00 -0.22832945589E+03  0.22832945589E+03  0.00000000000E+00 0.  1.
          6    1    1    2  502    0  0.41837312052E+03 -0.25146588357E+03  0.23374216968E+04  0.23940332803E+04  0.17200000000E+03 0. -1.
         -6    1    1    2    0  501 -0.41837312052E+03  0.25146588357E+03  0.13475567277E+03  0.53480300104E+03  0.17200000000E+03 0.  1.
</event>
<event>
 4    1  0.3169553E-002  0.1864553E+03  0.7818608E-02  0.1161698E+00
          2   -1    0    0  502    0  0.00000000000E+00  0.00000000000E+00  0.10480191381E+04  0.10480191381E+04  0.00000000000E+00 0. -1.
         -2   -1    0    0    0  501 -0.00000000000E+00 -0.00000000000E+00 -0.33287281181E+02  0.33287281181E+02  0.00000000000E+00 0.  1.
          6    1    1    2  502    0 -0.68812178722E+02 -0.21129915077E+02  0.47564105242E+03  0.51088159098E+03  0.17200000000E+03 0.  1.
         -6    1    1    2    0  501  0.68812178722E+02  0.21129915077E+02  0.53909080450E+03  0.57042482830E+03  0.17200000000E+03 0. -1.
</event>
<event>
 4    1  0.3169553E-002  0.2102279E+03  0.7818608E-02  0.1141386E+00
          1   -1    0    0  502    0  0.00000000000E+00  0.00000000000E+00  0.12785863302E+04  0.12785863302E+04  0.00000000000E+00 0. -1.
         -1   -1    0    0    0  501 -0.00000000000E+00 -0.00000000000E+00 -0.35159946187E+02  0.35159946187E+02  0.00000000000E+00 0.  1.
          6    1    1    2  502    0  0.12081555517E+03 -0.39180034622E+01  0.53634568051E+03  0.57607502820E+03  0.17200000000E+03 0.  1.
         -6    1    1    2    0  501 -0.12081555517E+03  0.39180034622E+01  0.70708070349E+03  0.73767124816E+03  0.17200000000E+03 0. -1.
</event>
<event>
 4    1  0.3169553E-002  0.3574967E+03  0.7818608E-02  0.1059579E+00
          2   -1    0    0  502    0  0.00000000000E+00  0.00000000000E+00  0.43450683870E+03  0.43450683870E+03  0.00000000000E+00 0. -1.
         -2   -1    0    0    0  501 -0.00000000000E+00 -0.00000000000E+00 -0.47296838424E+03  0.47296838424E+03  0.00000000000E+00 0.  1.
          6    1    1    2  502    0  0.22460389329E+03 -0.21857029983E+03  0.25977450550E+03  0.44191252364E+03  0.17200000000E+03 0. -1.
         -6    1    1    2    0  501 -0.22460389329E+03  0.21857029983E+03 -0.29823605103E+03  0.46556269930E+03  0.17200000000E+03 0.  1.
</event>
<event>
 4    1  0.3169553E-002  0.2619998E+03  0.7818608E-02  0.1105948E+00
         -1   -1    0    0    0  501 -0.00000000000E+00  0.00000000000E+00  0.10236434612E+03  0.10236434612E+03  0.00000000000E+00 0.  1.
          1   -1    0    0  502    0  0.00000000000E+00 -0.00000000000E+00 -0.78562160029E+03  0.78562160029E+03  0.00000000000E+00 0. -1.
          6    1    1    2  502    0 -0.25285805023E+01 -0.19761958334E+03 -0.51152702432E+03  0.57472061912E+03  0.17200000000E+03 0. -1.
         -6    1    1    2    0  501  0.25285805023E+01  0.19761958334E+03 -0.17173022985E+03  0.31326532729E+03  0.17200000000E+03 0.  1.
</event>
<event>
 4    1  0.3169553E-002  0.1740443E+03  0.7818608E-02  0.1173695E+00
         -2   -1    0    0    0  501 -0.00000000000E+00  0.00000000000E+00  0.13509093979E+03  0.13509093979E+03  0.00000000000E+00 0.  1.
          2   -1    0    0  502    0  0.00000000000E+00 -0.00000000000E+00 -0.23972891926E+03  0.23972891926E+03  0.00000000000E+00 0. -1.
          6    1    1    2  502    0  0.25756788818E+02 -0.66328592505E+01 -0.99971596484E+02  0.20071304665E+03  0.17200000000E+03 0. -1.
         -6    1    1    2    0  501 -0.25756788818E+02  0.66328592505E+01 -0.46663829886E+01  0.17410681239E+03  0.17200000000E+03 0.  1.
</event>
<event>
 4    1  0.3169553E-002  0.2047939E+03  0.7818608E-02  0.1145756E+00
          1   -1    0    0  502    0  0.00000000000E+00  0.00000000000E+00  0.54894200157E+03  0.54894200157E+03  0.00000000000E+00 0. -1.
         -1   -1    0    0    0  501 -0.00000000000E+00 -0.00000000000E+00 -0.94185032052E+02  0.94185032052E+02  0.00000000000E+00 0.  1.
          6    1    1    2  502    0 -0.18336225277E+02 -0.10963722755E+03  0.36710302182E+03  0.42036313760E+03  0.17200000000E+03 0. -1.
         -6    1    1    2    0  501  0.18336225277E+02  0.10963722755E+03  0.87653947695E+02  0.22276389602E+03  0.17200000000E+03 0.  1.
</event>
<event>
 4    1  0.3169553E-002  0.3857076E+03  0.7818608E-02  0.1048844E+00
          2   -1    0    0  502    0  0.00000000000E+00  0.00000000000E+00  0.10092757875E+04  0.10092757875E+04  0.00000000000E+00 0. -1.
         -2   -1    0    0    0  501 -0.00000000000E+00 -0.00000000000E+00 -0.20500527570E+03  0.20500527570E+03  0.00000000000E+00 0.  1.
          6    1    1    2  502    0 -0.27164579754E+03 -0.21306082236E+03  0.72396505226E+03  0.82030223103E+03  0.17200000000E+03 0. -1.
         -6    1    1    2    0  501  0.27164579754E+03  0.21306082236E+03  0.80305459517E+02  0.39397883214E+03  0.17200000000E+03 0.  1.
</event>
<event>
 4    1  0.3169553E-002  0.2031060E+03  0.7818608E-02  0.1147145E+00
          2   -1    0    0  502    0  0.00000000000E+00  0.00000000000E+00  0.46587877766E+03  0.46587877766E+03  0.00000000000E+00 0. -1.
         -2   -1    0    0    0  501 -0.00000000000E+00 -0.00000000000E+00 -0.88749553201E+02  0.88749553201E+02  0.00000000000E+00 0.  1.
          6    1    1    2  502    0 -0.60985851942E+02  0.89155926411E+02  0.20182091674E+03  0.28632802131E+03  0.17200000000E+03 0.  1.
         -6    1    1    2    0  501  0.60985851942E+02 -0.89155926411E+02  0.17530830772E+03  0.26830030955E+03  0.17200000000E+03 0. -1.
</event>
<event>
 4    1  0.3169553E-002  0.1855830E+03  0.7818608E-02  0.1162507E+00
          2   -1    0    0  502    0  0.00000000000E+00  0.00000000000E+00  0.21333308669E+04  0.21333308669E+04  0.00000000000E+00 0. -1.
         -2   -1    0    0    0  501 -0.00000000000E+00 -0.00000000000E+00 -0.20999439196E+02  0.20999439196E+02  0.00000000000E+00 0.  1.
          6    1    1    2  502    0  0.66492764602E+02  0.20874935387E+02  0.53822383666E+03  0.56932060302E+03  0.17200000000E+03 0.  1.
         -6    1    1    2    0  501 -0.66492764602E+02 -0.20874935387E+02  0.15741075911E+04  0.15850097031E+04  0.17200000000E+03 0. -1.
</event>
<event>
 4    1  0.3169553E-002  0.1877487E+03  0.7818608E-02  0.1160508E+00
          2   -1    0    0  502    0  0.00000000000E+00  0.00000000000E+00  0.32701474667E+03  0.32701474667E+03  0.00000000000E+00 0. -1.
         -2   -1    0    0    0  501 -0.00000000000E+00 -0.00000000000E+00 -0.16358310261E+03  0.16358310261E+03  0.00000000000E+00 0.  1.
          6    1    1    2  502    0  0.34009658000E+02 -0.67148451460E+02  0.22497053614E+03  0.29302101205E+03  0.17200000000E+03 0. -1.
         -6    1    1    2    0  501 -0.34009658000E+02  0.67148451460E+02 -0.61538892076E+02  0.19757683723E+03  0.17200000000E+03 0.  1.
</event>
<event>
 4    1  0.3169553E-002  0.2603422E+03  0.7818608E-02  0.1106938E+00
          1   -1    0    0  502    0  0.00000000000E+00  0.00000000000E+00  0.55921695161E+03  0.55921695161E+03  0.00000000000E+00 0. -1.
         -1   -1    0    0    0  501 -0.00000000000E+00 -0.00000000000E+00 -0.16996795301E+03  0.16996795301E+03  0.00000000000E+00 0.  1.
          6    1    1    2  502    0 -0.17061692175E+03  0.95309507401E+02  0.38991625836E+03  0.46884189736E+03  0.17200000000E+03 0. -1.
         -6    1    1    2    0  501  0.17061692175E+03 -0.95309507401E+02 -0.66725976074E+00  0.26034300725E+03  0.17200000000E+03 0.  1.
</event>
<event>
 4    1  0.3169553E-002  0.2500075E+03  0.7818608E-02  0.1113300E+00
          3   -1    0    0  502    0  0.00000000000E+00  0.00000000000E+00  0.64539903912E+03  0.64539903912E+03  0.00000000000E+00 0. -1.
         -3   -1    0    0    0  501 -0.00000000000E+00 -0.00000000000E+00 -0.11364029859E+03  0.11364029859E+03  0.00000000000E+00 0.  1.
          6    1    1    2  502    0  0.16271453079E+03  0.80272878490E+02  0.41178105107E+03  0.48173373099E+03  0.17200000000E+03 0. -1.
         -6    1    1    2    0  501 -0.16271453079E+03 -0.80272878490E+02  0.11997768946E+03  0.27730560672E+03  0.17200000000E+03 0.  1.
</event>
<event>
 4    1  0.3169553E-002  0.1956949E+03  0.7818608E-02  0.1153423E+00
          2   -1    0    0  502    0  0.00000000000E+00  0.00000000000E+00  0.41891873495E+03  0.41891873495E+03  0.00000000000E+00 0. -1.
         -2   -1    0    0    0  501 -0.00000000000E+00 -0.00000000000E+00 -0.74337343852E+03  0.74337343852E+03  0.00000000000E+00 0.  1.
          6    1    1    2  502    0 -0.89626924994E+02  0.26067237161E+02  0.38201324521E+03  0.42922092919E+03  0.17200000000E+03 0. -1.
         -6    1    1    2    0  501  0.89626924994E+02 -0.26067237161E+02 -0.70646794878E+03  0.73307124428E+03  0.17200000000E+03 0.  1.
</event>
<event>
 4    1  0.3169553E-002  0.1989168E+03  0.7818608E-02  0.1150656E+00
         -2   -1    0    0    0  501 -0.00000000000E+00  0.00000000000E+00  0.82990329085E+03  0.82990329085E+03  0.00000000000E+00 0.  1.
          2   -1    0    0  502    0  0.00000000000E+00 -0.00000000000E+00 -0.62420814241E+02  0.62420814241E+02  0.00000000000E+00 0. -1.
          6    1    1    2  502    0  0.99864915513E+02  0.33012937851E+01  0.16690983556E+03  0.25966669617E+03  0.17200000000E+03 0. -1.
         -6    1    1    2    0  501 -0.99864915513E+02 -0.33012937851E+01  0.60057264105E+03  0.63265740893E+03  0.17200000000E+03 0.  1.
</event>
<event>
 4    1  0.3169553E-002  0.2211867E+03  0.7818608E-02  0.1133001E+00
          1   -1    0    0  502    0  0.00000000000E+00  0.00000000000E+00  0.81470854699E+02  0.81470854699E+02  0.00000000000E+00 0. -1.
         -1   -1    0    0    0  501 -0.00000000000E+00 -0.00000000000E+00 -0.10628622738E+04  0.10628622738E+04  0.00000000000E+00 0.  1.
          6    1    1    2  502    0 -0.10411868876E+03 -0.92189283744E+02 -0.11332051799E+03  0.24852586422E+03  0.17200000000E+03 0. -1.
         -6    1    1    2    0  501  0.10411868876E+03  0.92189283744E+02 -0.86807090107E+03  0.89580726424E+03  0.17200000000E+03 0.  1.
</event>
<event>
 4    1  0.3169553E-002  0.1859364E+03  0.7818608E-02  0.1162178E+00
         -1   -1    0    0    0  501 -0.00000000000E+00  0.00000000000E+00  0.21093631296E+04  0.21093631296E+04  0.00000000000E+00 0.  1.
          1   -1    0    0  502    0  0.00000000000E+00 -0.00000000000E+00 -0.16504131168E+02  0.16504131168E+02  0.00000000000E+00 0. -1.
          6    1    1    2  502    0  0.18941970756E+01  0.70602771567E+02  0.11348437524E+04  0.11499750787E+04  0.17200000000E+03 0. -1.
         -6    1    1    2    0  501 -0.18941970756E+01 -0.70602771567E+02  0.95801524607E+03  0.97589218207E+03  0.17200000000E+03 0.  1.
</event>
<event>
 4    1  0.3169553E-002  0.1857122E+03  0.7818608E-02  0.1162386E+00
         -2   -1    0    0    0  501 -0.00000000000E+00  0.00000000000E+00  0.36326886042E+03  0.36326886042E+03  0.00000000000E+00 0.  1.
          2   -1    0    0  502    0  0.00000000000E+00 -0.00000000000E+00 -0.10568445802E+03  0.10568445802E+03  0.00000000000E+00 0. -1.
          6    1    1    2  502    0  0.68862322269E+02  0.12767173240E+02  0.54031900716E+02  0.19341268427E+03  0.17200000000E+03 0. -1.
         -6    1    1    2    0  501 -0.68862322269E+02 -0.12767173240E+02  0.20355250168E+03  0.27554063417E+03  0.17200000000E+03 0.  1.
</event>
<event>
 4    1  0.3169553E-002  0.2717274E+03  0.7818608E-02  0.1100295E+00
         -1   -1    0    0    0  501 -0.00000000000E+00  0.00000000000E+00  0.70403215811E+02  0.70403215811E+02  0.00000000000E+00 0.  1.
          1   -1    0    0  502    0  0.00000000000E+00 -0.00000000000E+00 -0.12063053412E+04  0.12063053412E+04  0.00000000000E+00 0. -1.
          6    1    1    2  502    0 -0.94934305505E+02 -0.18772128855E+03 -0.33725442908E+03  0.43310085946E+03  0.17200000000E+03 0. -1.
         -6    1    1    2    0  501  0.94934305505E+02  0.18772128855E+03 -0.79864769636E+03  0.84360769759E+03  0.17200000000E+03 0.  1.
</event>
<event>
 4    1  0.3169553E-002  0.2141378E+03  0.7818608E-02  0.1138331E+00
          2   -1    0    0  502    0  0.00000000000E+00  0.00000000000E+00  0.16379497654E+03  0.16379497654E+03  0.00000000000E+00 0. -1.
         -2   -1    0    0    0  501 -0.00000000000E+00 -0.00000000000E+00 -0.28019409441E+03  0.28019409441E+03  0.00000000000E+00 0.  1.
          6    1    1    2  502    0 -0.10434826878E+03 -0.73365047509E+02 -0.51695626147E+02  0.22028942134E+03  0.17200000000E+03 0. -1.
         -6    1    1    2    0  501  0.10434826878E+03  0.73365047509E+02 -0.64703491721E+02  0.22369964961E+03  0.17200000000E+03 0.  1.
</event>
<event>
 4    1  0.3169553E-002  0.1895783E+03  0.7818608E-02  0.1158842E+00
         -1   -1    0    0    0  501 -0.00000000000E+00  0.00000000000E+00  0.89282976083E+02  0.89282976083E+02  0.00000000000E+00 0.  1.
          1   -1    0    0  502    0  0.00000000000E+00 -0.00000000000E+00 -0.67740739938E+03  0.67740739938E+03  0.00000000000E+00 0. -1.
          6    1    1    2  502    0  0.79647770794E+02  0.34898517002E+01 -0.53825164416E+03  0.57066170267E+03  0.17200000000E+03 0. -1.
         -6    1    1    2    0  501 -0.79647770794E+02 -0.34898517002E+01 -0.49872779139E+02  0.19602867279E+03  0.17200000000E+03 0.  1.
</event>
<event>
 4    1  0.3169553E-002  0.3185155E+03  0.7818608E-02  0.1076335E+00
          1   -1    0    0  502    0  0.00000000000E+00  0.00000000000E+00  0.20340157591E+03  0.20340157591E+03  0.00000000000E+00 0. -1.
         -1   -1    0    0    0  501 -0.00000000000E+00 -0.00000000000E+00 -0.67751292697E+03  0.67751292697E+03  0.00000000000E+00 0.  1.
          6    1    1    2  502    0 -0.26361769428E+03  0.48722033525E+02 -0.10825611854E+02  0.31869941820E+03  0.17200000000E+03 0. -1.
         -6    1    1    2    0  501  0.26361769428E+03 -0.48722033525E+02 -0.46328573921E+03  0.56221508468E+03  0.17200000000E+03 0.  1.
</event>
<event>
 4    1  0.3169553E-002  0.3875372E+03  0.7818608E-02  0.1048183E+00
         -2   -1    0    0    0  501 -0.00000000000E+00  0.00000000000E+00  0.18326507626E+03  0.18326507626E+03  0.00000000000E+00 0.  1.
          2   -1    0    0  502    0  0.00000000000E+00 -0.00000000000E+00 -0.84691861227E+03  0.84691861227E+03  0.00000000000E+00 0. -1.
          6    1    1    2  502    0 -0.34440885903E+03  0.44537954879E+02 -0.42451277142E+03  0.57480099574E+03  0.17200000000E+03 0. -1.
         -6    1    1    2    0  501  0.34440885903E+03 -0.44537954879E+02 -0.23914076459E+03  0.45538269278E+03  0.17200000000E+03 0.  1.
</event>
<event>
 4    1  0.3169553E-002  0.1977188E+03  0.7818608E-02  0.1151678E+00
         -3   -1    0    0    0  501 -0.00000000000E+00  0.00000000000E+00  0.57373499751E+02  0.57373499751E+02  0.00000000000E+00 0.  1.
          3   -1    0    0  502    0  0.00000000000E+00 -0.00000000000E+00 -0.77873861171E+03  0.77873861171E+03  0.00000000000E+00 0. -1.
          6    1    1    2  502    0 -0.81931838631E+02 -0.52876253507E+02 -0.50850575651E+03  0.54559218173E+03  0.17200000000E+03 0. -1.
         -6    1    1    2    0  501  0.81931838631E+02  0.52876253507E+02 -0.21285935545E+03  0.29051992973E+03  0.17200000000E+03 0.  1.
</event>
<event>
 4    1  0.3169553E-002  0.1800949E+03  0.7818608E-02  0.1167711E+00
         -2   -1    0    0    0  501 -0.00000000000E+00  0.00000000000E+00  0.50429900261E+02  0.50429900261E+02  0.00000000000E+00 0.  1.
          2   -1    0    0  502    0  0.00000000000E+00 -0.00000000000E+00 -0.89773149431E+03  0.89773149431E+03  0.00000000000E+00 0. -1.
          6    1    1    2  502    0  0.48613430738E+02  0.22066135588E+02 -0.17119273131E+03  0.24847762725E+03  0.17200000000E+03 0.  1.
         -6    1    1    2    0  501 -0.48613430738E+02 -0.22066135588E+02 -0.67610886274E+03  0.69968376733E+03  0.17200000000E+03 0. -1.
</event>
<event>
 4    1  0.3169553E-002  0.6767716E+03  0.7818608E-02  0.9757802E-01
          1   -1    0    0  502    0  0.00000000000E+00  0.00000000000E+00  0.48630943335E+03  0.48630943335E+03  0.00000000000E+00 0. -1.
         -1   -1    0    0    0  501 -0.00000000000E+00 -0.00000000000E+00 -0.13319630147E+04  0.13319630147E+04  0.00000000000E+00 0.  1.
          6    1    1    2  502    0  0.16493670106E+03  0.63342852956E+03  0.69201836382E+02  0.68030045684E+03  0.17200000000E+03 0. -1.
         -6    1    1    2    0  501 -0.16493670106E+03 -0.63342852956E+03 -0.91485541768E+03  0.11379719912E+04  0.17200000000E+03 0.  1.
</event>
<event>
 4    1  0.3169553E-002  0.2451025E+03  0.7818608E-02  0.1116440E+00
         -2   -1    0    0    0  501 -0.00000000000E+00  0.00000000000E+00  0.55548881895E+02  0.55548881895E+02  0.00000000000E+00 0.  1.
          2   -1    0    0  502    0  0.00000000000E+00 -0.00000000000E+00 -0.29580109069E+04  0.29580109069E+04  0.00000000000E+00 0. -1.
          6    1    1    2  502    0 -0.25600745965E+02  0.17273050615E+03 -0.25110366763E+03  0.35089639190E+03  0.17200000000E+03 0.  1.
         -6    1    1    2    0  501  0.25600745965E+02 -0.17273050615E+03 -0.26513583574E+04  0.26626633969E+04  0.17200000000E+03 0. -1.
</event>
<event>
 4    1  0.3169553E-002  0.4989453E+03  0.7818608E-02  0.1014055E+00
         -1   -1    0    0    0  501 -0.00000000000E+00  0.00000000000E+00  0.11109221404E+04  0.11109221404E+04  0.00000000000E+00 0.  1.
          1   -1    0    0  502    0  0.00000000000E+00 -0.00000000000E+00 -0.50621290741E+03  0.50621290741E+03  0.00000000000E+00 0. -1.
          6    1    1    2  502    0 -0.46309535582E+03  0.70036794980E+02 -0.30127274617E+03  0.58284794657E+03  0.17200000000E+03 0. -1.
         -6    1    1    2    0  501  0.46309535582E+03 -0.70036794980E+02  0.90598197911E+03  0.10342871012E+04  0.17200000000E+03 0.  1.
</event>
<event>
 4    1  0.3169553E-002  0.3015195E+03  0.7818608E-02  0.1084484E+00
          1   -1    0    0  502    0  0.00000000000E+00  0.00000000000E+00  0.16115713279E+04  0.16115713279E+04  0.00000000000E+00 0. -1.
         -1   -1    0    0    0  501 -0.00000000000E+00 -0.00000000000E+00 -0.60543754815E+02  0.60543754815E+02  0.00000000000E+00 0.  1.
          6    1    1    2  502    0 -0.16604182912E+02 -0.24709166189E+03  0.99388865998E+03  0.10386186291E+04  0.17200000000E+03 0. -1.
         -6    1    1    2    0  501  0.16604182912E+02  0.24709166189E+03  0.55713891316E+03  0.63349645367E+03  0.17200000000E+03 0. -1.
</event>
<event>
 4    1  0.3169553E-002  0.2526008E+03  0.7818608E-02  0.1111672E+00
          2   -1    0    0  502    0  0.00000000000E+00  0.00000000000E+00  0.77445643956E+03  0.77445643956E+03  0.00000000000E+00 0. -1.
         -2   -1    0    0    0  501 -0.00000000000E+00 -0.00000000000E+00 -0.19398827816E+03  0.19398827816E+03  0.00000000000E+00 0.  1.
          6    1    1    2  502    0  0.38450418944E+02 -0.18095501505E+03  0.65750507476E+03  0.70435791721E+03  0.17200000000E+03 0. -1.
         -6    1    1    2    0  501 -0.38450418944E+02  0.18095501505E+03 -0.77036913363E+02  0.26408680052E+03  0.17200000000E+03 0.  1.
</event>
<event>
 4    1  0.3169553E-002  0.2861098E+03  0.7818608E-02  0.1092398E+00
         -1   -1    0    0    0  501 -0.00000000000E+00  0.00000000000E+00  0.18168433294E+03  0.18168433294E+03  0.00000000000E+00 0.  1.
          1   -1    0    0  502    0  0.00000000000E+00 -0.00000000000E+00 -0.54422170818E+03  0.54422170818E+03  0.00000000000E+00 0. -1.
          6    1    1    2  502    0  0.25360176755E+02  0.22722606675E+03 -0.33184429069E+03  0.43815460426E+03  0.17200000000E+03 0. -1.
         -6    1    1    2    0  501 -0.25360176755E+02 -0.22722606675E+03 -0.30693084552E+02  0.28775143686E+03  0.17200000000E+03 0.  1.
</event>
<event>
 4    1  0.3169553E-002  0.1988019E+03  0.7818608E-02  0.1150754E+00
          2   -1    0    0  502    0  0.00000000000E+00  0.00000000000E+00  0.46714494402E+03  0.46714494402E+03  0.00000000000E+00 0. -1.
         -2   -1    0    0    0  501 -0.00000000000E+00 -0.00000000000E+00 -0.87165619478E+02  0.87165619478E+02  0.00000000000E+00 0.  1.
          6    1    1    2  502    0 -0.40503967473E+02  0.91091270838E+02  0.23750493558E+03  0.30972695302E+03  0.17200000000E+03 0. -1.
         -6    1    1    2    0  501  0.40503967473E+02 -0.91091270838E+02  0.14247438897E+03  0.24458361048E+03  0.17200000000E+03 0.  1.
</event>
<event>
 4    1  0.3169553E-002  0.4049103E+03  0.7818608E-02  0.1042093E+00
          3   -1    0    0  502    0  0.00000000000E+00  0.00000000000E+00  0.25261751635E+03  0.25261751635E+03  0.00000000000E+00 0. -1.
         -3   -1    0    0    0  501 -0.00000000000E+00 -0.00000000000E+00 -0.93439443959E+03  0.93439443959E+03  0.00000000000E+00 0.  1.
          6    1    1    2  502    0  0.21967538270E+03  0.29344695314E+03 -0.12889986008E+02  0.40511546479E+03  0.17200000000E+03 0.  1.
         -6    1    1    2    0  501 -0.21967538270E+03 -0.29344695314E+03 -0.66888693723E+03  0.78189649115E+03  0.17200000000E+03 0.  1.
</event>
<event>
 4    1  0.3169553E-002  0.1773628E+03  0.7818608E-02  0.1170380E+00
          2   -1    0    0  502    0  0.00000000000E+00  0.00000000000E+00  0.14290361810E+03  0.14290361810E+03  0.00000000000E+00 0. -1.
         -2   -1    0    0    0  501 -0.00000000000E+00 -0.00000000000E+00 -0.26691918036E+03  0.26691918036E+03  0.00000000000E+00 0.  1.
          6    1    1    2  502    0 -0.30405668206E+02  0.30806608275E+02  0.23783500358E+02  0.17895029104E+03  0.17200000000E+03 0. -1.
         -6    1    1    2    0  501  0.30405668206E+02 -0.30806608275E+02 -0.14779906262E+03  0.23087250743E+03  0.17200000000E+03 0.  1.
</event>
<event>
 4    1  0.3169553E-002  0.1825469E+03  0.7818608E-02  0.1165361E+00
         -2   -1    0    0    0  501 -0.00000000000E+00  0.00000000000E+00  0.10040225496E+03  0.10040225496E+03  0.00000000000E+00 0.  1.
          2   -1    0    0  502    0  0.00000000000E+00 -0.00000000000E+00 -0.62545886613E+03  0.62545886613E+03  0.00000000000E+00 0. -1.
          6    1    1    2  502    0  0.61142897051E+02 -0.96687983319E+00 -0.51116924936E+03  0.54278668942E+03  0.17200000000E+03 0. -1.
         -6    1    1    2    0  501 -0.61142897051E+02  0.96687983319E+00 -0.13887361808E+02  0.18307443168E+03  0.17200000000E+03 0.  1.
</event>
<event>
 4    1  0.3169553E-002  0.8777163E+03  0.7818608E-02  0.9453874E-01
         -2   -1    0    0    0  501 -0.00000000000E+00  0.00000000000E+00  0.25107484038E+03  0.25107484038E+03  0.00000000000E+00 0.  1.
          2   -1    0    0  502    0  0.00000000000E+00 -0.00000000000E+00 -0.30823078572E+04  0.30823078572E+04  0.00000000000E+00 0. -1.
          6    1    1    2  502    0 -0.14963467432E+03 -0.84759150487E+03 -0.13034660009E+04  0.15714354935E+04  0.17200000000E+03 0. -1.
         -6    1    1    2    0  501  0.14963467432E+03  0.84759150487E+03 -0.15277670160E+04  0.17619472041E+04  0.17200000000E+03 0.  1.
</event>
<event>
 4    1  0.3169553E-002  0.2913320E+03  0.7818608E-02  0.1089656E+00
          2   -1    0    0  502    0  0.00000000000E+00  0.00000000000E+00  0.20981422594E+04  0.20981422594E+04  0.00000000000E+00 0. -1.
         -2   -1    0    0    0  501 -0.00000000000E+00 -0.00000000000E+00 -0.50625445259E+02  0.50625445259E+02  0.00000000000E+00 0.  1.
          6    1    1    2  502    0  0.20594823243E+03  0.11347099374E+03  0.54213662685E+03  0.61545630474E+03  0.17200000000E+03 0.  1.
         -6    1    1    2    0  501 -0.20594823243E+03 -0.11347099374E+03  0.15053801873E+04  0.15333113999E+04  0.17200000000E+03 0.  1.
</event>
<event>
 4    1  0.3169553E-002  0.1764890E+03  0.7818608E-02  0.1171245E+00
         -3   -1    0    0    0  501 -0.00000000000E+00  0.00000000000E+00  0.25851315238E+03  0.25851315238E+03  0.00000000000E+00 0.  1.
          3   -1    0    0  502    0  0.00000000000E+00 -0.00000000000E+00 -0.12521917475E+03  0.12521917475E+03  0.00000000000E+00 0. -1.
          6    1    1    2  502    0 -0.37310003384E+02 -0.13127288868E+02  0.29361855472E+02  0.17891473003E+03  0.17200000000E+03 0. -1.
         -6    1    1    2    0  501  0.37310003384E+02  0.13127288868E+02  0.10393212215E+03  0.20481759710E+03  0.17200000000E+03 0.  1.
</event>
<event>
 4    1  0.3169553E-002  0.2601120E+03  0.7818608E-02  0.1107076E+00
         -2   -1    0    0    0  501 -0.00000000000E+00  0.00000000000E+00  0.36217294382E+02  0.36217294382E+02  0.00000000000E+00 0.  1.
          2   -1    0    0  502    0  0.00000000000E+00 -0.00000000000E+00 -0.18783232990E+04  0.18783232990E+04  0.00000000000E+00 0. -1.
          6    1    1    2  502    0 -0.42447015097E+02  0.19045342879E+03 -0.99160615075E+03  0.10251541425E+04  0.17200000000E+03 0.  1.
         -6    1    1    2    0  501  0.42447015097E+02 -0.19045342879E+03 -0.85049985386E+03  0.88938645090E+03  0.17200000000E+03 0.  1.
</event>
<event>
 4    1  0.3169553E-002  0.1754115E+03  0.7818608E-02  0.1172319E+00
          1   -1    0    0  502    0  0.00000000000E+00  0.00000000000E+00  0.19176393219E+04  0.19176393219E+04  0.00000000000E+00 0. -1.
         -1   -1    0    0    0  501 -0.00000000000E+00 -0.00000000000E+00 -0.16469458012E+02  0.16469458012E+02  0.00000000000E+00 0.  1.
          6    1    1    2  502    0 -0.14178322513E+02 -0.31371335335E+02  0.11057706597E+04  0.11195972211E+04  0.17200000000E+03 0. -1.
         -6    1    1    2    0  501  0.14178322513E+02  0.31371335335E+02  0.79539920411E+03  0.81451155879E+03  0.17200000000E+03 0.  1.
</event>
<event>
 4    1  0.3169553E-002  0.1740139E+03  0.7818608E-02  0.1173725E+00
          2   -1    0    0  502    0  0.00000000000E+00  0.00000000000E+00  0.42901294079E+03  0.42901294079E+03  0.00000000000E+00 0. -1.
         -2   -1    0    0    0  501 -0.00000000000E+00 -0.00000000000E+00 -0.72730220786E+02  0.72730220786E+02  0.00000000000E+00 0.  1.
          6    1    1    2  502    0 -0.42754802770E+01  0.26049033542E+02  0.13503148147E+03  0.22025969415E+03  0.17200000000E+03 0.  1.
         -6    1    1    2    0  501  0.42754802770E+01 -0.26049033542E+02  0.22125123854E+03  0.28148346743E+03  0.17200000000E+03 0. -1.
</event>
<event>
 4    1  0.3169553E-002  0.4703415E+03  0.7818608E-02  0.1021824E+00
         -2   -1    0    0    0  501 -0.00000000000E+00  0.00000000000E+00  0.44883363909E+03  0.44883363909E+03  0.00000000000E+00 0.  1.
          2   -1    0    0  502    0  0.00000000000E+00 -0.00000000000E+00 -0.50552764111E+03  0.50552764111E+03  0.00000000000E+00 0. -1.
          6    1    1    2  502    0 -0.18758173637E+03 -0.39553787472E+03  0.47130124796E+02  0.47269690799E+03  0.17200000000E+03 0. -1.
         -6    1    1    2    0  501  0.18758173637E+03  0.39553787472E+03 -0.10382412682E+03  0.48166437222E+03  0.17200000000E+03 0. -1.
</event>
<event>
 4    1  0.3169553E-002  0.3153249E+03  0.7818608E-02  0.1077821E+00
         -2   -1    0    0    0  501 -0.00000000000E+00  0.00000000000E+00  0.69380128613E+02  0.69380128613E+02  0.00000000000E+00 0.  1.
          2   -1    0    0  502    0  0.00000000000E+00 -0.00000000000E+00 -0.14700442117E+04  0.14700442117E+04  0.00000000000E+00 0. -1.
          6    1    1    2  502    0  0.12265148659E+03  0.23409907056E+03 -0.82232736271E+03  0.88071110670E+03  0.17200000000E+03 0. -1.
         -6    1    1    2    0  501 -0.12265148659E+03 -0.23409907056E+03 -0.57833672036E+03  0.65871323360E+03  0.17200000000E+03 0.  1.
</event>
<event>
 4    1  0.3169553E-002  0.1954519E+03  0.7818608E-02  0.1153634E+00
          1   -1    0    0  502    0  0.00000000000E+00  0.00000000000E+00  0.53686993659E+03  0.53686993659E+03  0.00000000000E+00 0. -1.
         -1   -1    0    0    0  501 -0.00000000000E+00 -0.00000000000E+00 -0.12187925633E+03  0.12187925633E+03  0.00000000000E+00 0.  1.
          6    1    1    2  502    0  0.92598960164E+02 -0.65485195439E+01  0.41998083938E+03  0.46323358684E+03  0.17200000000E+03 0. -1.
         -6    1    1    2    0  501 -0.92598960164E+02  0.65485195439E+01 -0.49901591287E+01  0.19551560608E+03  0.17200000000E+03 0.  1.
</event>
<event>
 4    1  0.3169553E-002  0.4543823E+03  0.7818608E-02  0.1026423E+00
         -2   -1    0    0    0  501 -0.00000000000E+00  0.00000000000E+00  0.47835544239E+03  0.47835544239E+03  0.00000000000E+00 0.  1.
          2   -1    0    0  502    0  0.00000000000E+00 -0.00000000000E+00 -0.59489551334E+03  0.59489551334E+03  0.00000000000E+00 0. -1.
          6    1    1    2  502    0  0.17416487851E+03  0.38281307033E+03 -0.33941094710E+03  0.56715345607E+03  0.17200000000E+03 0. -1.
         -6    1    1    2    0  501 -0.17416487851E+03 -0.38281307033E+03  0.22287087615E+03  0.50609749966E+03  0.17200000000E+03 0.  1.
</event>
<event>
 4    1  0.3169553E-002  0.1823421E+03  0.7818608E-02  0.1165555E+00
         -2   -1    0    0    0  501 -0.00000000000E+00  0.00000000000E+00  0.47664198575E+02  0.47664198575E+02  0.00000000000E+00 0.  1.
          2   -1    0    0  502    0  0.00000000000E+00 -0.00000000000E+00 -0.74341790861E+03  0.74341790861E+03  0.00000000000E+00 0. -1.
          6    1    1    2  502    0  0.48841942803E+02  0.35764467514E+02 -0.24963812048E+03  0.30914045952E+03  0.17200000000E+03 0.  1.
         -6    1    1    2    0  501 -0.48841942803E+02 -0.35764467514E+02 -0.44611558955E+03  0.48194164767E+03  0.17200000000E+03 0. -1.
</event>
<event>
 4    1  0.3169553E-002  0.2827630E+03  0.7818608E-02  0.1094189E+00
          3   -1    0    0  502    0  0.00000000000E+00  0.00000000000E+00  0.81624013952E+03  0.81624013952E+03  0.00000000000E+00 0. -1.
         -3   -1    0    0    0  501 -0.00000000000E+00 -0.00000000000E+00 -0.11194547259E+03  0.11194547259E+03  0.00000000000E+00 0.  1.
          6    1    1    2  502    0  0.10976449539E+02 -0.22416606697E+03  0.51621226521E+03  0.58858305342E+03  0.17200000000E+03 0. -1.
         -6    1    1    2    0  501 -0.10976449539E+02  0.22416606697E+03  0.18808240173E+03  0.33960255869E+03  0.17200000000E+03 0.  1.
</event>
<event>
 4    1  0.3169553E-002  0.2057368E+03  0.7818608E-02  0.1144987E+00
          2   -1    0    0  502    0  0.00000000000E+00  0.00000000000E+00  0.99081332475E+03  0.99081332475E+03  0.00000000000E+00 0. -1.
         -2   -1    0    0    0  501 -0.00000000000E+00 -0.00000000000E+00 -0.55920493094E+03  0.55920493094E+03  0.00000000000E+00 0.  1.
          6    1    1    2  502    0  0.27301257531E+02 -0.10953665174E+03  0.96062210496E+03  0.98240646642E+03  0.17200000000E+03 0. -1.
         -6    1    1    2    0  501 -0.27301257531E+02  0.10953665174E+03 -0.52901371114E+03  0.56761178927E+03  0.17200000000E+03 0.  1.
</event>
<event>
 4    1  0.3169553E-002  0.3073322E+03  0.7818608E-02  0.1081632E+00
         -1   -1    0    0    0  501 -0.00000000000E+00  0.00000000000E+00  0.39308403247E+02  0.39308403247E+02  0.00000000000E+00 0.  1.
          1   -1    0    0  502    0  0.00000000000E+00 -0.00000000000E+00 -0.30537229395E+04  0.30537229395E+04  0.00000000000E+00 0. -1.
          6    1    1    2  502    0  0.24151239960E+03  0.80875382917E+02 -0.22211777115E+04  0.22423388443E+04  0.17200000000E+03 0. -1.
         -6    1    1    2    0  501 -0.24151239960E+03 -0.80875382917E+02 -0.79323682478E+03  0.85069249845E+03  0.17200000000E+03 0.  1.
</event>
<event>
 4    1  0.3169553E-002  0.1800906E+03  0.7818608E-02  0.1167715E+00
         -1   -1    0    0    0  501 -0.00000000000E+00  0.00000000000E+00  0.43626207319E+03  0.43626207319E+03  0.00000000000E+00 0.  1.
          1   -1    0    0  502    0  0.00000000000E+00 -0.00000000000E+00 -0.15016648781E+03  0.15016648781E+03  0.00000000000E+00 0. -1.
          6    1    1    2  502    0 -0.13931128799E+02  0.51522242800E+02 -0.65306858266E+02  0.19156618592E+03  0.17200000000E+03 0. -1.
         -6    1    1    2    0  501  0.13931128799E+02 -0.51522242800E+02  0.35140244364E+03  0.39486237508E+03  0.17200000000E+03 0.  1.
</event>
<event>
 4    1  0.3169553E-002  0.1776023E+03  0.7818608E-02  0.1170144E+00
         -2   -1    0    0    0  501 -0.00000000000E+00  0.00000000000E+00  0.16361083380E+03  0.16361083380E+03  0.00000000000E+00 0.  1.
          2   -1    0    0  502    0  0.00000000000E+00 -0.00000000000E+00 -0.33440310104E+03  0.33440310104E+03  0.00000000000E+00 0. -1.
          6    1    1    2  502    0  0.43456420169E+02 -0.83732047368E+01 -0.24743817589E+03  0.30457876140E+03  0.17200000000E+03 0. -1.
         -6    1    1    2    0  501 -0.43456420169E+02  0.83732047368E+01  0.76645908638E+02  0.19343517344E+03  0.17200000000E+03 0.  1.
</event>
<event>
 4    1  0.3169553E-002  0.4996300E+03  0.7818608E-02  0.1013876E+00
          1   -1    0    0  502    0  0.00000000000E+00  0.00000000000E+00  0.11137494856E+04  0.11137494856E+04  0.00000000000E+00 0. -1.
         -1   -1    0    0    0  501 -0.00000000000E+00 -0.00000000000E+00 -0.23831404596E+03  0.23831404596E+03  0.00000000000E+00 0.  1.
          6    1    1    2  502    0  0.11924729393E+03 -0.45368073305E+03  0.60261647896E+03  0.78280057829E+03  0.17200000000E+03 0. -1.
         -6    1    1    2    0  501 -0.11924729393E+03  0.45368073305E+03  0.27281896066E+03  0.56926295325E+03  0.17200000000E+03 0.  1.
</event>
<event>
 4    1  0.3169553E-002  0.1917963E+03  0.7818608E-02  0.1156851E+00
         -1   -1    0    0    0  501 -0.00000000000E+00  0.00000000000E+00  0.14436576388E+02  0.14436576388E+02  0.00000000000E+00 0.  1.
          1   -1    0    0  502    0  0.00000000000E+00 -0.00000000000E+00 -0.26416751379E+04  0.26416751379E+04  0.00000000000E+00 0. -1.
          6    1    1    2  502    0  0.47750077772E+02 -0.70155054888E+02 -0.10636635570E+04  0.10808172668E+04  0.17200000000E+03 0.  1.
         -6    1    1    2    0  501 -0.47750077772E+02  0.70155054888E+02 -0.15635750044E+04  0.15752944475E+04  0.17200000000E+03 0.  1.
</event>
<event>
 4    1  0.3169553E-002  0.4106737E+03  0.7818608E-02  0.1040145E+00
         -2   -1    0    0    0  501 -0.00000000000E+00  0.00000000000E+00  0.24345394612E+03  0.24345394612E+03  0.00000000000E+00 0.  1.
          2   -1    0    0  502    0  0.00000000000E+00 -0.00000000000E+00 -0.87816556851E+03  0.87816556851E+03  0.00000000000E+00 0. -1.
          6    1    1    2  502    0  0.28522426526E+03 -0.24024155245E+03 -0.57504705930E+03  0.70663427983E+03  0.17200000000E+03 0.  1.
         -6    1    1    2    0  501 -0.28522426526E+03  0.24024155245E+03 -0.59664563092E+02  0.41498523481E+03  0.17200000000E+03 0.  1.
</event>
<event>
 4    1  0.3169553E-002  0.3086581E+03  0.7818608E-02  0.1080991E+00
         -1   -1    0    0    0  501 -0.00000000000E+00  0.00000000000E+00  0.11063770488E+03  0.11063770488E+03  0.00000000000E+00 0.  1.
          1   -1    0    0  502    0  0.00000000000E+00 -0.00000000000E+00 -0.86689848271E+03  0.86689848271E+03  0.00000000000E+00 0. -1.
          6    1    1    2  502    0  0.22145122759E+03  0.12901612231E+03 -0.41811425260E+03  0.51970119707E+03  0.17200000000E+03 0.  1.
         -6    1    1    2    0  501 -0.22145122759E+03 -0.12901612231E+03 -0.33814652523E+03  0.45783499051E+03  0.17200000000E+03 0.  1.
</event>
<event>
 4    1  0.3169553E-002  0.1908224E+03  0.7818608E-02  0.1157722E+00
          1   -1    0    0  502    0  0.00000000000E+00  0.00000000000E+00  0.10928367517E+03  0.10928367517E+03  0.00000000000E+00 0. -1.
         -1   -1    0    0    0  501 -0.00000000000E+00 -0.00000000000E+00 -0.36362555487E+03  0.36362555487E+03  0.00000000000E+00 0.  1.
          6    1    1    2  502    0 -0.44326965602E+02  0.69744730298E+02 -0.58772334285E+02  0.19966821119E+03  0.17200000000E+03 0. -1.
         -6    1    1    2    0  501  0.44326965602E+02 -0.69744730298E+02 -0.19556954542E+03  0.27324101885E+03  0.17200000000E+03 0.  1.
</event>
<event>
 4    1  0.3169553E-002  0.1865030E+03  0.7818608E-02  0.1161654E+00
          2   -1    0    0  502    0  0.00000000000E+00  0.00000000000E+00  0.93949914004E+03  0.93949914004E+03  0.00000000000E+00 0. -1.
         -2   -1    0    0    0  501 -0.00000000000E+00 -0.00000000000E+00 -0.82156889020E+02  0.82156889020E+02  0.00000000000E+00 0.  1.
          6    1    1    2  502    0 -0.38853205852E+02 -0.60743660332E+02  0.80729031477E+03  0.82855356870E+03  0.17200000000E+03 0. -1.
         -6    1    1    2    0  501  0.38853205852E+02  0.60743660332E+02  0.50051936246E+02  0.19310246036E+03  0.17200000000E+03 0.  1.
</event>
<event>
 4    1  0.3169553E-002  0.2256404E+03  0.7818608E-02  0.1129746E+00
          1   -1    0    0  502    0  0.00000000000E+00  0.00000000000E+00  0.75343718303E+03  0.75343718303E+03  0.00000000000E+00 0. -1.
         -1   -1    0    0    0  501 -0.00000000000E+00 -0.00000000000E+00 -0.90138149217E+02  0.90138149217E+02  0.00000000000E+00 0.  1.
          6    1    1    2  502    0  0.99801956981E+02  0.10662620696E+03  0.12062221976E+03  0.25585796554E+03  0.17200000000E+03 0. -1.
         -6    1    1    2    0  501 -0.99801956981E+02 -0.10662620696E+03  0.54267681405E+03  0.58771736672E+03  0.17200000000E+03 0.  1.
</event>
<event>
 4    1  0.3169553E-002  0.2142166E+03  0.7818608E-02  0.1138270E+00
          1   -1    0    0  502    0  0.00000000000E+00  0.00000000000E+00  0.40637999437E+03  0.40637999437E+03  0.00000000000E+00 0. -1.
         -1   -1    0    0    0  501 -0.00000000000E+00 -0.00000000000E+00 -0.11606745538E+03  0.11606745538E+03  0.00000000000E+00 0.  1.
          6    1    1    2  502    0 -0.12541045210E+03  0.24019894263E+02  0.18816780101E+03  0.28512428545E+03  0.17200000000E+03 0. -1.
         -6    1    1    2    0  501  0.12541045210E+03 -0.24019894263E+02  0.10214473798E+03  0.23732316430E+03  0.17200000000E+03 0.  1.
</event>
<event>
 4    1  0.3169553E-002  0.2055423E+03  0.7818608E-02  0.1145145E+00
         -2   -1    0    0    0  501 -0.00000000000E+00  0.00000000000E+00  0.16624457022E+03  0.16624457022E+03  0.00000000000E+00 0.  1.
          2   -1    0    0  502    0  0.00000000000E+00 -0.00000000000E+00 -0.30139421959E+03  0.30139421959E+03  0.00000000000E+00 0. -1.
          6    1    1    2  502    0  0.34232565905E+02  0.10719968077E+03 -0.16016861773E+03  0.26057940485E+03  0.17200000000E+03 0. -1.
         -6    1    1    2    0  501 -0.34232565905E+02 -0.10719968077E+03  0.25018968356E+02  0.20705938497E+03  0.17200000000E+03 0.  1.
</event>
<event>
 4    1  0.3169553E-002  0.2769565E+03  0.7818608E-02  0.1097363E+00
         -2   -1    0    0    0  501 -0.00000000000E+00  0.00000000000E+00  0.46275208457E+03  0.46275208457E+03  0.00000000000E+00 0.  1.
          2   -1    0    0  502    0  0.00000000000E+00 -0.00000000000E+00 -0.19726756972E+03  0.19726756972E+03  0.00000000000E+00 0. -1.
          6    1    1    2  502    0  0.19020121779E+03  0.10461547960E+03  0.84989734822E+00  0.27695780210E+03  0.17200000000E+03 0. -1.
         -6    1    1    2    0  501 -0.19020121779E+03 -0.10461547960E+03  0.26463461750E+03  0.38306185219E+03  0.17200000000E+03 0.  1.
</event>
<event>
 4    1  0.3169553E-002  0.2191763E+03  0.7818608E-02  0.1134499E+00
          2   -1    0    0  502    0  0.00000000000E+00  0.00000000000E+00  0.43125151878E+03  0.43125151878E+03  0.00000000000E+00 0. -1.
         -2   -1    0    0    0  501 -0.00000000000E+00 -0.00000000000E+00 -0.13709495043E+03  0.13709495043E+03  0.00000000000E+00 0.  1.
          6    1    1    2  502    0  0.12824563927E+03 -0.44803199712E+02  0.27012159930E+03  0.34785621901E+03  0.17200000000E+03 0. -1.
         -6    1    1    2    0  501 -0.12824563927E+03  0.44803199712E+02  0.24034969054E+02  0.22049025020E+03  0.17200000000E+03 0.  1.
</event>
<event>
 4    1  0.3169553E-002  0.2073230E+03  0.7818608E-02  0.1143704E+00
         -2   -1    0    0    0  501 -0.00000000000E+00  0.00000000000E+00  0.33004984512E+02  0.33004984512E+02  0.00000000000E+00 0.  1.
          2   -1    0    0  502    0  0.00000000000E+00 -0.00000000000E+00 -0.26497181812E+04  0.26497181812E+04  0.00000000000E+00 0. -1.
          6    1    1    2  502    0 -0.14625778452E+02  0.11482548730E+03 -0.22648791156E+04  0.22743483054E+04  0.17200000000E+03 0. -1.
         -6    1    1    2    0  501  0.14625778452E+02 -0.11482548730E+03 -0.35183408106E+03  0.40837486030E+03  0.17200000000E+03 0.  1.
</event>
<event>
 4    1  0.3169553E-002  0.1935755E+03  0.7818608E-02  0.1155275E+00
         -1   -1    0    0    0  501 -0.00000000000E+00  0.00000000000E+00  0.33281565272E+03  0.33281565272E+03  0.00000000000E+00 0.  1.
          1   -1    0    0  502    0  0.00000000000E+00 -0.00000000000E+00 -0.15889690063E+03  0.15889690063E+03  0.00000000000E+00 0. -1.
          6    1    1    2  502    0  0.68320722733E+02  0.56742857702E+02  0.21968349280E+03  0.29280080270E+03  0.17200000000E+03 0.  1.
         -6    1    1    2    0  501 -0.68320722733E+02 -0.56742857702E+02 -0.45764740701E+02  0.19891175065E+03  0.17200000000E+03 0. -1.
</event>
<event>
 4    1  0.3169553E-002  0.2754242E+03  0.7818608E-02  0.1098215E+00
          1   -1    0    0  502    0  0.00000000000E+00  0.00000000000E+00  0.55240992614E+03  0.55240992614E+03  0.00000000000E+00 0. -1.
         -1   -1    0    0    0  501 -0.00000000000E+00 -0.00000000000E+00 -0.21892804753E+03  0.21892804753E+03  0.00000000000E+00 0.  1.
          6    1    1    2  502    0  0.87268696415E+02  0.19661809051E+03  0.40220409309E+03  0.48746962099E+03  0.17200000000E+03 0. -1.
         -6    1    1    2    0  501 -0.87268696415E+02 -0.19661809051E+03 -0.68722214485E+02  0.28386835268E+03  0.17200000000E+03 0.  1.
</event>
<event>
 4    1  0.3169553E-002  0.7611756E+03  0.7818608E-02  0.9617979E-01
          1   -1    0    0  502    0  0.00000000000E+00  0.00000000000E+00  0.44241732089E+03  0.44241732089E+03  0.00000000000E+00 0. -1.
         -1   -1    0    0    0  501 -0.00000000000E+00 -0.00000000000E+00 -0.13280058601E+04  0.13280058601E+04  0.00000000000E+00 0.  1.
          6    1    1    2  502    0 -0.53514544439E+03  0.51324811651E+03 -0.33857122509E+03  0.83307787764E+03  0.17200000000E+03 0. -1.
         -6    1    1    2    0  501  0.53514544439E+03 -0.51324811651E+03 -0.54701731409E+03  0.93734530333E+03  0.17200000000E+03 0.  1.
</event>
<event>
 4    1  0.3169553E-002  0.2404077E+03  0.7818608E-02  0.1119522E+00
          2   -1    0    0  502    0  0.00000000000E+00  0.00000000000E+00  0.41901240559E+03  0.41901240559E+03  0.00000000000E+00 0. -1.
         -2   -1    0    0    0  501 -0.00000000000E+00 -0.00000000000E+00 -0.24504730403E+03  0.24504730403E+03  0.00000000000E+00 0.  1.
          6    1    1    2  502    0  0.15166182939E+03  0.72184069111E+02  0.30650294788E+03  0.38953806924E+03  0.17200000000E+03 0. -1.
         -6    1    1    2    0  501 -0.15166182939E+03 -0.72184069111E+02 -0.13253784633E+03  0.27452164038E+03  0.17200000000E+03 0.  1.
</event>
<event>
 4    1  0.3169553E-002  0.3960501E+03  0.7818608E-02  0.1045156E+00
         -1   -1    0    0    0  501 -0.00000000000E+00  0.00000000000E+00  0.18423728933E+03  0.18423728933E+03  0.00000000000E+00 0.  1.
          1   -1    0    0  502    0  0.00000000000E+00 -0.00000000000E+00 -0.90961104108E+03  0.90961104108E+03  0.00000000000E+00 0. -1.
          6    1    1    2  502    0  0.33462532646E+03  0.12368319704E+03 -0.50106983771E+03  0.63869133750E+03  0.17200000000E+03 0. -1.
         -6    1    1    2    0  501 -0.33462532646E+03 -0.12368319704E+03 -0.22430391404E+03  0.45515699291E+03  0.17200000000E+03 0.  1.
</event>
<event>
 4    1  0.3169553E-002  0.2740555E+03  0.7818608E-02  0.1098981E+00
          3   -1    0    0  502    0  0.00000000000E+00  0.00000000000E+00  0.90538225386E+02  0.90538225386E+02  0.00000000000E+00 0. -1.
         -3   -1    0    0    0  501 -0.00000000000E+00 -0.00000000000E+00 -0.12199316265E+04  0.12199316265E+04  0.00000000000E+00 0.  1.
          6    1    1    2  502    0 -0.16697651301E+03 -0.13282038070E+03 -0.19404041477E+03  0.33579471704E+03  0.17200000000E+03 0.  1.
         -6    1    1    2    0  501  0.16697651301E+03  0.13282038070E+03 -0.93535298639E+03  0.97467513489E+03  0.17200000000E+03 0.  1.
</event>
<event>
 4    1  0.3169553E-002  0.2767688E+03  0.7818608E-02  0.1097467E+00
         -1   -1    0    0    0  501 -0.00000000000E+00  0.00000000000E+00  0.35313441760E+03  0.35313441760E+03  0.00000000000E+00 0.  1.
          1   -1    0    0  502    0  0.00000000000E+00 -0.00000000000E+00 -0.22741326111E+03  0.22741326111E+03  0.00000000000E+00 0. -1.
          6    1    1    2  502    0  0.92188437339E+02 -0.19626065193E+03  0.12522140553E+03  0.30377845855E+03  0.17200000000E+03 0. -1.
         -6    1    1    2    0  501 -0.92188437339E+02  0.19626065193E+03  0.49975096334E+00  0.27676922016E+03  0.17200000000E+03 0.  1.
</event>
<event>
 4    1  0.3169553E-002  0.2716217E+03  0.7818608E-02  0.1100355E+00
          1   -1    0    0  502    0  0.00000000000E+00  0.00000000000E+00  0.67886687706E+03  0.67886687706E+03  0.00000000000E+00 0. -1.
         -1   -1    0    0    0  501 -0.00000000000E+00 -0.00000000000E+00 -0.17178163862E+03  0.17178163862E+03  0.00000000000E+00 0.  1.
          6    1    1    2  502    0 -0.15335280568E+03 -0.14379593432E+03  0.51132703287E+03  0.57899368587E+03  0.17200000000E+03 0. -1.
         -6    1    1    2    0  501  0.15335280568E+03  0.14379593432E+03 -0.42417944336E+01  0.27165482980E+03  0.17200000000E+03 0.  1.
</event>
<event>
 4    1  0.3169553E-002  0.2627345E+03  0.7818608E-02  0.1105511E+00
         -2   -1    0    0    0  501 -0.00000000000E+00  0.00000000000E+00  0.39289794039E+02  0.39289794039E+02  0.00000000000E+00 0.  1.
          2   -1    0    0  502    0  0.00000000000E+00 -0.00000000000E+00 -0.17786665155E+04  0.17786665155E+04  0.00000000000E+00 0. -1.
          6    1    1    2  502    0 -0.14557546301E+03 -0.13510441407E+03 -0.76920339939E+03  0.81283656891E+03  0.17200000000E+03 0. -1.
         -6    1    1    2    0  501  0.14557546301E+03  0.13510441407E+03 -0.97017332204E+03  0.10051197406E+04  0.17200000000E+03 0.  1.
</event>
<event>
 4    1  0.3169553E-002  0.3028173E+03  0.7818608E-02  0.1083841E+00
          2   -1    0    0  502    0  0.00000000000E+00  0.00000000000E+00  0.20881001011E+04  0.20881001011E+04  0.00000000000E+00 0. -1.
         -2   -1    0    0    0  501 -0.00000000000E+00 -0.00000000000E+00 -0.45446568165E+02  0.45446568165E+02  0.00000000000E+00 0.  1.
          6    1    1    2  502    0  0.65479531895E+02  0.24047190267E+03  0.12171802242E+04  0.12542830635E+04  0.17200000000E+03 0. -1.
         -6    1    1    2    0  501 -0.65479531895E+02 -0.24047190267E+03  0.82547330868E+03  0.87926360576E+03  0.17200000000E+03 0. -1.
</event>
<event>
 4    1  0.3169553E-002  0.2000371E+03  0.7818608E-02  0.1149708E+00
          1   -1    0    0  502    0  0.00000000000E+00  0.00000000000E+00  0.82493432512E+03  0.82493432512E+03  0.00000000000E+00 0. -1.
         -1   -1    0    0    0  501 -0.00000000000E+00 -0.00000000000E+00 -0.56564471605E+02  0.56564471605E+02  0.00000000000E+00 0.  1.
          6    1    1    2  502    0 -0.67470951226E+02 -0.76671532833E+02  0.21783333309E+03  0.29574687523E+03  0.17200000000E+03 0.  1.
         -6    1    1    2    0  501  0.67470951226E+02  0.76671532833E+02  0.55053652042E+03  0.58575192149E+03  0.17200000000E+03 0. -1.
</event>
<event>
 4    1  0.3169553E-002  0.1913918E+03  0.7818608E-02  0.1157212E+00
         -2   -1    0    0    0  501 -0.00000000000E+00  0.00000000000E+00  0.93240039887E+02  0.93240039887E+02  0.00000000000E+00 0.  1.
          2   -1    0    0  502    0  0.00000000000E+00 -0.00000000000E+00 -0.41522822539E+03  0.41522822539E+03  0.00000000000E+00 0. -1.
          6    1    1    2  502    0  0.82355056350E+01  0.83540509164E+02 -0.21999355695E+03  0.29159561952E+03  0.17200000000E+03 0. -1.
         -6    1    1    2    0  501 -0.82355056350E+01 -0.83540509164E+02 -0.10199462856E+03  0.21687264576E+03  0.17200000000E+03 0.  1.
</event>
<event>
 4    1  0.3169553E-002  0.3172721E+03  0.7818608E-02  0.1076912E+00
         -2   -1    0    0    0  501 -0.00000000000E+00  0.00000000000E+00  0.11655000882E+03  0.11655000882E+03  0.00000000000E+00 0.  1.
          2   -1    0    0  502    0  0.00000000000E+00 -0.00000000000E+00 -0.93573448774E+03  0.93573448774E+03  0.00000000000E+00 0. -1.
          6    1    1    2  502    0 -0.37868912297E+02  0.26390061525E+03 -0.26358791771E+03  0.41248052028E+03  0.17200000000E+03 0. -1.
         -6    1    1    2    0  501  0.37868912297E+02 -0.26390061525E+03 -0.55559656121E+03  0.63980397628E+03  0.17200000000E+03 0.  1.
</event>
<event>
 4    1  0.3169553E-002  0.1881311E+03  0.7818608E-02  0.1160158E+00
         -2   -1    0    0    0  501 -0.00000000000E+00  0.00000000000E+00  0.17355047249E+03  0.17355047249E+03  0.00000000000E+00 0.  1.
          2   -1    0    0  502    0  0.00000000000E+00 -0.00000000000E+00 -0.10160401399E+04  0.10160401399E+04  0.00000000000E+00 0. -1.
          6    1    1    2  502    0 -0.33453560166E+02 -0.68484803834E+02 -0.95300741916E+03  0.97139922278E+03  0.17200000000E+03 0. -1.
         -6    1    1    2    0  501  0.33453560166E+02  0.68484803834E+02  0.11051775175E+03  0.21819138960E+03  0.17200000000E+03 0.  1.
</event>
<event>
 4    1  0.3169553E-002  0.3108742E+03  0.7818608E-02  0.1079928E+00
          2   -1    0    0  502    0  0.00000000000E+00  0.00000000000E+00  0.15229023410E+04  0.15229023410E+04  0.00000000000E+00 0. -1.
         -2   -1    0    0    0  501 -0.00000000000E+00 -0.00000000000E+00 -0.77863096225E+02  0.77863096225E+02  0.00000000000E+00 0.  1.
          6    1    1    2  502    0 -0.19107408064E+03 -0.17478405521E+03  0.10667632115E+04  0.11111374891E+04  0.17200000000E+03 0. -1.
         -6    1    1    2    0  501  0.19107408064E+03  0.17478405521E+03  0.37827603330E+03  0.48962794816E+03  0.17200000000E+03 0.  1.
</event>
<event>
 4    1  0.3169553E-002  0.2215021E+03  0.7818608E-02  0.1132768E+00
         -1   -1    0    0    0  501 -0.00000000000E+00  0.00000000000E+00  0.31489286438E+02  0.31489286438E+02  0.00000000000E+00 0.  1.
          1   -1    0    0  502    0  0.00000000000E+00 -0.00000000000E+00 -0.16202124419E+04  0.16202124419E+04  0.00000000000E+00 0. -1.
          6    1    1    2  502    0  0.11367718135E+02 -0.13910417895E+03 -0.95607041914E+03  0.98139382715E+03  0.17200000000E+03 0. -1.
         -6    1    1    2    0  501 -0.11367718135E+02  0.13910417895E+03 -0.63265273630E+03  0.67030790117E+03  0.17200000000E+03 0.  1.
</event>
<event>
 4    1  0.3169553E-002  0.2049244E+03  0.7818608E-02  0.1145650E+00
          2   -1    0    0  502    0  0.00000000000E+00  0.00000000000E+00  0.55150384967E+03  0.55150384967E+03  0.00000000000E+00 0. -1.
         -2   -1    0    0    0  501 -0.00000000000E+00 -0.00000000000E+00 -0.77935839393E+02  0.77935839393E+02  0.00000000000E+00 0.  1.
          6    1    1    2  502    0  0.10600754767E+03 -0.34240277545E+02  0.18907044256E+03  0.27882185893E+03  0.17200000000E+03 0. -1.
         -6    1    1    2    0  501 -0.10600754767E+03  0.34240277545E+02  0.28449756772E+03  0.35061783014E+03  0.17200000000E+03 0. -1.
</event>
<event>
 4    1  0.3169553E-002  0.2275224E+03  0.7818608E-02  0.1128396E+00
          2   -1    0    0  502    0  0.00000000000E+00  0.00000000000E+00  0.14512272712E+04  0.14512272712E+04  0.00000000000E+00 0. -1.
         -2   -1    0    0    0  501 -0.00000000000E+00 -0.00000000000E+00 -0.35684427268E+02  0.35684427268E+02  0.00000000000E+00 0.  1.
          6    1    1    2  502    0  0.12303123583E+03  0.83939054648E+02  0.72229544331E+03  0.75728274595E+03  0.17200000000E+03 0. -1.
         -6    1    1    2    0  501 -0.12303123583E+03 -0.83939054648E+02  0.69324740058E+03  0.72962895248E+03  0.17200000000E+03 0. -1.
</event>
<event>
 4    1  0.3169553E-002  0.2080913E+03  0.7818608E-02  0.1143086E+00
         -2   -1    0    0    0  501 -0.00000000000E+00  0.00000000000E+00  0.29297544455E+02  0.29297544455E+02  0.00000000000E+00 0.  1.
          2   -1    0    0  502    0  0.00000000000E+00 -0.00000000000E+00 -0.20789415476E+04  0.20789415476E+04  0.00000000000E+00 0. -1.
          6    1    1    2  502    0 -0.11692102393E+03 -0.68896345373E+01 -0.45808430332E+03  0.50313340363E+03  0.17200000000E+03 0.  1.
         -6    1    1    2    0  501  0.11692102393E+03  0.68896345373E+01 -0.15915596999E+04  0.16051056885E+04  0.17200000000E+03 0.  1.
</event>
<event>
 4    1  0.3169553E-002  0.2061318E+03  0.7818608E-02  0.1144666E+00
         -2   -1    0    0    0  501 -0.00000000000E+00  0.00000000000E+00  0.22527241426E+03  0.22527241426E+03  0.00000000000E+00 0.  1.
          2   -1    0    0  502    0  0.00000000000E+00 -0.00000000000E+00 -0.22159627443E+03  0.22159627443E+03  0.00000000000E+00 0. -1.
          6    1    1    2  502    0 -0.10145894281E+03 -0.51111550343E+02 -0.84357770353E+02  0.22272525917E+03  0.17200000000E+03 0. -1.
         -6    1    1    2    0  501  0.10145894281E+03  0.51111550343E+02  0.88033910190E+02  0.22414342952E+03  0.17200000000E+03 0.  1.
</event>
<event>
 4    1  0.3169553E-002  0.2328218E+03  0.7818608E-02  0.1124669E+00
         -2   -1    0    0    0  501 -0.00000000000E+00  0.00000000000E+00  0.97304130666E+02  0.97304130666E+02  0.00000000000E+00 0.  1.
          2   -1    0    0  502    0  0.00000000000E+00 -0.00000000000E+00 -0.16489762923E+04  0.16489762923E+04  0.00000000000E+00 0. -1.
          6    1    1    2  502    0 -0.15596292711E+03  0.17249412155E+02 -0.14863423348E+04  0.15044665211E+04  0.17200000000E+03 0. -1.
         -6    1    1    2    0  501  0.15596292711E+03 -0.17249412155E+02 -0.65329826793E+02  0.24181390184E+03  0.17200000000E+03 0.  1.
</event>
<event>
 4    1  0.3169553E-002  0.2100616E+03  0.7818608E-02  0.1141517E+00
         -2   -1    0    0    0  501 -0.00000000000E+00  0.00000000000E+00  0.55009475472E+02  0.55009475472E+02  0.00000000000E+00 0.  1.
          2   -1    0    0  502    0  0.00000000000E+00 -0.00000000000E+00 -0.83266674962E+03  0.83266674962E+03  0.00000000000E+00 0. -1.
          6    1    1    2  502    0  0.48628829976E+02  0.11034993915E+03 -0.47379662754E+03  0.51827513586E+03  0.17200000000E+03 0. -1.
         -6    1    1    2    0  501 -0.48628829976E+02 -0.11034993915E+03 -0.30386064661E+03  0.36940108924E+03  0.17200000000E+03 0. -1.
</event>
<event>
 4    1  0.3169553E-002  0.1891990E+03  0.7818608E-02  0.1159186E+00
         -2   -1    0    0    0  501 -0.00000000000E+00  0.00000000000E+00  0.21703760242E+03  0.21703760242E+03  0.00000000000E+00 0.  1.
          2   -1    0    0  502    0  0.00000000000E+00 -0.00000000000E+00 -0.10003353822E+04  0.10003353822E+04  0.00000000000E+00 0. -1.
          6    1    1    2  502    0  0.54129746673E+02  0.57290802035E+02 -0.94789780856E+03  0.96659532430E+03  0.17200000000E+03 0. -1.
         -6    1    1    2    0  501 -0.54129746673E+02 -0.57290802035E+02  0.16460002874E+03  0.25077766036E+03  0.17200000000E+03 0.  1.
</event>
<event>
 4    1  0.3169553E-002  0.1856894E+03  0.7818608E-02  0.1162408E+00
         -1   -1    0    0    0  501 -0.00000000000E+00  0.00000000000E+00  0.52080708255E+02  0.52080708255E+02  0.00000000000E+00 0.  1.
          1   -1    0    0  502    0  0.00000000000E+00 -0.00000000000E+00 -0.77502935059E+03  0.77502935059E+03  0.00000000000E+00 0. -1.
          6    1    1    2  502    0  0.55667836533E+02  0.42398665912E+02 -0.20358436497E+03  0.27554881338E+03  0.17200000000E+03 0.  1.
         -6    1    1    2    0  501 -0.55667836533E+02 -0.42398665912E+02 -0.51936427737E+03  0.55156124547E+03  0.17200000000E+03 0. -1.
</event>
<event>
 4    1  0.3169553E-002  0.6204955E+03  0.7818608E-02  0.9863774E-01
         -2   -1    0    0    0  501 -0.00000000000E+00  0.00000000000E+00  0.19982518470E+03  0.19982518470E+03  0.00000000000E+00 0.  1.
          2   -1    0    0  502    0  0.00000000000E+00 -0.00000000000E+00 -0.20844133109E+04  0.20844133109E+04  0.00000000000E+00 0. -1.
          6    1    1    2  502    0 -0.46234892032E+03 -0.37638301213E+03 -0.12563987141E+04  0.14012681487E+04  0.17200000000E+03 0. -1.
         -6    1    1    2    0  501  0.46234892032E+03  0.37638301213E+03 -0.62818941217E+03  0.88297034690E+03  0.17200000000E+03 0.  1.
</event>
<event>
 4    1  0.3169553E-002  0.1967027E+03  0.7818608E-02  0.1152551E+00
          2   -1    0    0  502    0  0.00000000000E+00  0.00000000000E+00  0.10816195764E+04  0.10816195764E+04  0.00000000000E+00 0. -1.
         -2   -1    0    0    0  501 -0.00000000000E+00 -0.00000000000E+00 -0.35774712113E+02  0.35774712113E+02  0.00000000000E+00 0.  1.
          6    1    1    2  502    0  0.20585207042E+02 -0.93189165407E+02  0.51829221653E+03  0.55436341241E+03  0.17200000000E+03 0. -1.
         -6    1    1    2    0  501 -0.20585207042E+02  0.93189165407E+02  0.52755264780E+03  0.56303087615E+03  0.17200000000E+03 0.  1.
</event>
<event>
 4    1  0.3169553E-002  0.2247440E+03  0.7818608E-02  0.1130395E+00
         -2   -1    0    0    0  501 -0.00000000000E+00  0.00000000000E+00  0.12922041818E+03  0.12922041818E+03  0.00000000000E+00 0.  1.
          2   -1    0    0  502    0  0.00000000000E+00 -0.00000000000E+00 -0.47170090137E+03  0.47170090137E+03  0.00000000000E+00 0. -1.
          6    1    1    2  502    0  0.12745962942E+03 -0.68409799213E+02 -0.29560930138E+03  0.37134177899E+03  0.17200000000E+03 0. -1.
         -6    1    1    2    0  501 -0.12745962942E+03  0.68409799213E+02 -0.46871181810E+02  0.22957954056E+03  0.17200000000E+03 0.  1.
</event>
<event>
 4    1  0.3169553E-002  0.2005196E+03  0.7818608E-02  0.1149301E+00
          2   -1    0    0  502    0  0.00000000000E+00  0.00000000000E+00  0.99732282700E+03  0.99732282700E+03  0.00000000000E+00 0. -1.
         -2   -1    0    0    0  501 -0.00000000000E+00 -0.00000000000E+00 -0.56870558552E+02  0.56870558552E+02  0.00000000000E+00 0.  1.
          6    1    1    2  502    0 -0.41413470322E+02 -0.94387729110E+02  0.75460981093E+03  0.78079708356E+03  0.17200000000E+03 0. -1.
         -6    1    1    2    0  501  0.41413470322E+02  0.94387729110E+02  0.18584245752E+03  0.27339630200E+03  0.17200000000E+03 0.  1.
</event>
<event>
 4    1  0.3169553E-002  0.2404422E+03  0.7818608E-02  0.1119499E+00
          2   -1    0    0  502    0  0.00000000000E+00  0.00000000000E+00  0.19793029637E+04  0.19793029637E+04  0.00000000000E+00 0. -1.
         -2   -1    0    0    0  501 -0.00000000000E+00 -0.00000000000E+00 -0.21603462054E+03  0.21603462054E+03  0.00000000000E+00 0.  1.
          6    1    1    2  502    0 -0.16801032648E+03 -0.99207670625E+00  0.19024054631E+04  0.19175398301E+04  0.17200000000E+03 0. -1.
         -6    1    1    2    0  501  0.16801032648E+03  0.99207670625E+00 -0.13913711998E+03  0.27779775409E+03  0.17200000000E+03 0.  1.
</event>
<event>
 4    1  0.3169553E-002  0.2073541E+03  0.7818608E-02  0.1143679E+00
         -2   -1    0    0    0  501 -0.00000000000E+00  0.00000000000E+00  0.50179984623E+02  0.50179984623E+02  0.00000000000E+00 0.  1.
          2   -1    0    0  502    0  0.00000000000E+00 -0.00000000000E+00 -0.95761442539E+03  0.95761442539E+03  0.00000000000E+00 0. -1.
          6    1    1    2  502    0  0.10970620408E+03  0.37097868669E+02 -0.61718941245E+03  0.65109021949E+03  0.17200000000E+03 0. -1.
         -6    1    1    2    0  501 -0.10970620408E+03 -0.37097868669E+02 -0.29024502832E+03  0.35670419052E+03  0.17200000000E+03 0. -1.
</event>
<event>
 4    1  0.3169553E-002  0.2663019E+03  0.7818608E-02  0.1103415E+00
         -2   -1    0    0    0  501 -0.00000000000E+00  0.00000000000E+00  0.72059452392E+02  0.72059452392E+02  0.00000000000E+00 0.  1.
          2   -1    0    0  502    0  0.00000000000E+00 -0.00000000000E+00 -0.22077052193E+04  0.22077052193E+04  0.00000000000E+00 0. -1.
          6    1    1    2  502    0 -0.20314504877E+03 -0.80503797326E+01 -0.19164222887E+04  0.19348361967E+04  0.17200000000E+03 0. -1.
         -6    1    1    2    0  501  0.20314504877E+03  0.80503797326E+01 -0.21922347818E+03  0.34492847496E+03  0.17200000000E+03 0.  1.
</event>
<event>
 4    1  0.3169553E-002  0.1949460E+03  0.7818608E-02  0.1154075E+00
          2   -1    0    0  502    0  0.00000000000E+00  0.00000000000E+00  0.33060546051E+03  0.33060546051E+03  0.00000000000E+00 0. -1.
         -2   -1    0    0    0  501 -0.00000000000E+00 -0.00000000000E+00 -0.61138881643E+03  0.61138881643E+03  0.00000000000E+00 0.  1.
          6    1    1    2  502    0  0.88006128942E+02  0.25977866392E+02  0.28402387478E+03  0.34449018813E+03  0.17200000000E+03 0. -1.
         -6    1    1    2    0  501 -0.88006128942E+02 -0.25977866392E+02 -0.56480723071E+03  0.59750408880E+03  0.17200000000E+03 0.  1.
</event>
<event>
 4    1  0.3169553E-002  0.2751102E+03  0.7818608E-02  0.1098390E+00
         -3   -1    0    0    0  501 -0.00000000000E+00  0.00000000000E+00  0.14806164803E+03  0.14806164803E+03  0.00000000000E+00 0.  1.
          3   -1    0    0  502    0  0.00000000000E+00 -0.00000000000E+00 -0.56441298907E+03  0.56441298907E+03  0.00000000000E+00 0. -1.
          6    1    1    2  502    0 -0.70889829106E+01 -0.21459587480E+03 -0.31758274172E+03  0.42017191839E+03  0.17200000000E+03 0. -1.
         -6    1    1    2    0  501  0.70889829106E+01  0.21459587480E+03 -0.98768599313E+02  0.29230271872E+03  0.17200000000E+03 0.  1.
</event>
<event>
 4    1  0.3169553E-002  0.3565340E+03  0.7818608E-02  0.1059965E+00
         -2   -1    0    0    0  501 -0.00000000000E+00  0.00000000000E+00  0.13216800345E+03  0.13216800345E+03  0.00000000000E+00 0.  1.
          2   -1    0    0  502    0  0.00000000000E+00 -0.00000000000E+00 -0.33324713407E+04  0.33324713407E+04  0.00000000000E+00 0. -1.
          6    1    1    2  502    0 -0.31007319472E+03  0.37243682300E+02 -0.30612598648E+04  0.30819520499E+04  0.17200000000E+03 0. -1.
         -6    1    1    2    0  501  0.31007319472E+03 -0.37243682300E+02 -0.13904347244E+03  0.38268729425E+03  0.17200000000E+03 0.  1.
</event>
<event>
 4    1  0.3169553E-002  0.1794094E+03  0.7818608E-02  0.1168376E+00
         -2   -1    0    0    0  501 -0.00000000000E+00  0.00000000000E+00  0.27852105872E+02  0.27852105872E+02  0.00000000000E+00 0.  1.
          2   -1    0    0  502    0  0.00000000000E+00 -0.00000000000E+00 -0.11852873781E+04  0.11852873781E+04  0.00000000000E+00 0. -1.
          6    1    1    2  502    0  0.23525000182E+02  0.45280205090E+02 -0.67460777735E+03  0.69805685719E+03  0.17200000000E+03 0.  1.
         -6    1    1    2    0  501 -0.23525000182E+02 -0.45280205090E+02 -0.48282749492E+03  0.51508262682E+03  0.17200000000E+03 0.  1.
</event>
<event>
 4    1  0.3169553E-002  0.1851180E+03  0.7818608E-02  0.1162940E+00
         -2   -1    0    0    0  501 -0.00000000000E+00  0.00000000000E+00  0.11222110601E+02  0.11222110601E+02  0.00000000000E+00 0.  1.
          2   -1    0    0  502    0  0.00000000000E+00 -0.00000000000E+00 -0.30544719854E+04  0.30544719854E+04  0.00000000000E+00 0. -1.
          6    1    1    2  502    0 -0.71955180139E+00  0.68440904302E+02 -0.14968598577E+04  0.15082632757E+04  0.17200000000E+03 0.  1.
         -6    1    1    2    0  501  0.71955180139E+00 -0.68440904302E+02 -0.15463900171E+04  0.15574308204E+04  0.17200000000E+03 0.  1.
</event>
<event>
 4    1  0.3169553E-002  0.1801394E+03  0.7818608E-02  0.1167668E+00
         -4   -1    0    0    0  501 -0.00000000000E+00  0.00000000000E+00  0.14328459694E+03  0.14328459694E+03  0.00000000000E+00 0.  1.
          4   -1    0    0  502    0  0.00000000000E+00 -0.00000000000E+00 -0.22757870545E+03  0.22757870545E+03  0.00000000000E+00 0. -1.
          6    1    1    2  502    0 -0.34507180952E+02  0.40932335376E+02 -0.29226289962E+02  0.18249487018E+03  0.17200000000E+03 0. -1.
         -6    1    1    2    0  501  0.34507180952E+02 -0.40932335376E+02 -0.55067818550E+02  0.18836843222E+03  0.17200000000E+03 0. -1.
</event>
<event>
 4    1  0.3169553E-002  0.1953463E+03  0.7818608E-02  0.1153726E+00
          4   -1    0    0  502    0  0.00000000000E+00  0.00000000000E+00  0.52965202079E+02  0.52965202079E+02  0.00000000000E+00 0. -1.
         -4   -1    0    0    0  501 -0.00000000000E+00 -0.00000000000E+00 -0.75384488055E+03  0.75384488055E+03  0.00000000000E+00 0.  1.
          6    1    1    2  502    0  0.85662241881E+02 -0.35187361851E+02 -0.26556684479E+03  0.32967547553E+03  0.17200000000E+03 0. -1.
         -6    1    1    2    0  501 -0.85662241881E+02  0.35187361851E+02 -0.43531283368E+03  0.47713460709E+03  0.17200000000E+03 0.  1.
</event>
<event>
 4    1  0.3169553E-002  0.1948588E+03  0.7818608E-02  0.1154151E+00
          2   -1    0    0  502    0  0.00000000000E+00  0.00000000000E+00  0.43546261962E+03  0.43546261962E+03  0.00000000000E+00 0. -1.
         -2   -1    0    0    0  501 -0.00000000000E+00 -0.00000000000E+00 -0.89984741022E+02  0.89984741022E+02  0.00000000000E+00 0.  1.
          6    1    1    2  502    0  0.81278841279E+02  0.42186568808E+02  0.21900192251E+03  0.29314126065E+03  0.17200000000E+03 0. -1.
         -6    1    1    2    0  501 -0.81278841279E+02 -0.42186568808E+02  0.12647595608E+03  0.23230609999E+03  0.17200000000E+03 0.  1.
</event>
<event>
 4    1  0.3169553E-002  0.1737826E+03  0.7818608E-02  0.1173960E+00
          1   -1    0    0  502    0  0.00000000000E+00  0.00000000000E+00  0.65341166630E+02  0.65341166630E+02  0.00000000000E+00 0. -1.
         -1   -1    0    0    0  501 -0.00000000000E+00 -0.00000000000E+00 -0.49096134931E+03  0.49096134931E+03  0.00000000000E+00 0.  1.
          6    1    1    2  502    0 -0.18744617368E+02 -0.16279991905E+02 -0.14548215147E+03  0.22663948291E+03  0.17200000000E+03 0. -1.
         -6    1    1    2    0  501  0.18744617368E+02  0.16279991905E+02 -0.28013803121E+03  0.32966303303E+03  0.17200000000E+03 0.  1.
</event>
<event>
 4    1  0.3169553E-002  0.1784333E+03  0.7818608E-02  0.1169328E+00
         -2   -1    0    0    0  501 -0.00000000000E+00  0.00000000000E+00  0.18481068846E+03  0.18481068846E+03  0.00000000000E+00 0.  1.
          2   -1    0    0  502    0  0.00000000000E+00 -0.00000000000E+00 -0.24510428218E+03  0.24510428218E+03  0.00000000000E+00 0. -1.
          6    1    1    2  502    0  0.34512302024E+02 -0.32608690421E+02  0.87026186329E+02  0.19852451433E+03  0.17200000000E+03 0.  1.
         -6    1    1    2    0  501 -0.34512302024E+02  0.32608690421E+02 -0.14731978004E+03  0.23139045632E+03  0.17200000000E+03 0. -1.
</event>
<event>
 4    1  0.3169553E-002  0.2134956E+03  0.7818608E-02  0.1138827E+00
          1   -1    0    0  502    0  0.00000000000E+00  0.00000000000E+00  0.21927532567E+04  0.21927532567E+04  0.00000000000E+00 0. -1.
         -1   -1    0    0    0  501 -0.00000000000E+00 -0.00000000000E+00 -0.21042253544E+02  0.21042253544E+02  0.00000000000E+00 0.  1.
          6    1    1    2  502    0 -0.30879581891E+02  0.12264924244E+03  0.96390225426E+03  0.98726285305E+03  0.17200000000E+03 0. -1.
         -6    1    1    2    0  501  0.30879581891E+02 -0.12264924244E+03  0.12078087489E+04  0.12265326572E+04  0.17200000000E+03 0.  1.
</event>
<event>
 4    1  0.3169553E-002  0.1889583E+03  0.7818608E-02  0.1159404E+00
         -2   -1    0    0    0  501 -0.00000000000E+00  0.00000000000E+00  0.36591706068E+02  0.36591706068E+02  0.00000000000E+00 0.  1.
          2   -1    0    0  502    0  0.00000000000E+00 -0.00000000000E+00 -0.11119843730E+04  0.11119843730E+04  0.00000000000E+00 0. -1.
          6    1    1    2  502    0 -0.45735316927E+02 -0.63478507660E+02 -0.33670130588E+03  0.38609974039E+03  0.17200000000E+03 0. -1.
         -6    1    1    2    0  501  0.45735316927E+02  0.63478507660E+02 -0.73869136103E+03  0.76247633866E+03  0.17200000000E+03 0. -1.
</event>
<event>
 4    1  0.3169553E-002  0.2494284E+03  0.7818608E-02  0.1113667E+00
         -2   -1    0    0    0  501 -0.00000000000E+00  0.00000000000E+00  0.77355407546E+02  0.77355407546E+02  0.00000000000E+00 0.  1.
          2   -1    0    0  502    0  0.00000000000E+00 -0.00000000000E+00 -0.13291976155E+04  0.13291976155E+04  0.00000000000E+00 0. -1.
          6    1    1    2  502    0 -0.10343479127E+03 -0.14809373956E+03 -0.10678798150E+04  0.10966229119E+04  0.17200000000E+03 0. -1.
         -6    1    1    2    0  501  0.10343479127E+03  0.14809373956E+03 -0.18396239297E+03  0.30993011111E+03  0.17200000000E+03 0.  1.
</event>
<event>
 4    1  0.3169553E-002  0.1748143E+03  0.7818608E-02  0.1172918E+00
         -1   -1    0    0    0  501 -0.00000000000E+00  0.00000000000E+00  0.12205585640E+03  0.12205585640E+03  0.00000000000E+00 0.  1.
          1   -1    0    0  502    0  0.00000000000E+00 -0.00000000000E+00 -0.28762754995E+03  0.28762754995E+03  0.00000000000E+00 0. -1.
          6    1    1    2  502    0  0.23815764472E+02 -0.20219804239E+02 -0.90689575883E+01  0.17504935622E+03  0.17200000000E+03 0.  1.
         -6    1    1    2    0  501 -0.23815764472E+02  0.20219804239E+02 -0.15650273596E+03  0.23463405013E+03  0.17200000000E+03 0. -1.
</event>
<event>
 4    1  0.3169553E-002  0.2844436E+03  0.7818608E-02  0.1093286E+00
          2   -1    0    0  502    0  0.00000000000E+00  0.00000000000E+00  0.48396621810E+03  0.48396621810E+03  0.00000000000E+00 0. -1.
         -2   -1    0    0    0  501 -0.00000000000E+00 -0.00000000000E+00 -0.17128714074E+03  0.17128714074E+03  0.00000000000E+00 0.  1.
          6    1    1    2  502    0 -0.19007224280E+03  0.12327483411E+03  0.20708905813E+03  0.35184374402E+03  0.17200000000E+03 0. -1.
         -6    1    1    2    0  501  0.19007224280E+03 -0.12327483411E+03  0.10559001923E+03  0.30340961483E+03  0.17200000000E+03 0.  1.
</event>
<event>
 4    1  0.3169553E-002  0.2110796E+03  0.7818608E-02  0.1140714E+00
         -2   -1    0    0    0  501 -0.00000000000E+00  0.00000000000E+00  0.25848627795E+03  0.25848627795E+03  0.00000000000E+00 0.  1.
          2   -1    0    0  502    0  0.00000000000E+00 -0.00000000000E+00 -0.20568244603E+03  0.20568244603E+03  0.00000000000E+00 0. -1.
          6    1    1    2  502    0  0.12016221816E+03  0.23057494056E+02 -0.67002518915E+02  0.22145867390E+03  0.17200000000E+03 0.  1.
         -6    1    1    2    0  501 -0.12016221816E+03 -0.23057494056E+02  0.11980635084E+03  0.24271005007E+03  0.17200000000E+03 0.  1.
</event>
<event>
 4    1  0.3169553E-002  0.3285981E+03  0.7818608E-02  0.1071759E+00
          2   -1    0    0  502    0  0.00000000000E+00  0.00000000000E+00  0.30152845515E+04  0.30152845515E+04  0.00000000000E+00 0. -1.
         -2   -1    0    0    0  501 -0.00000000000E+00 -0.00000000000E+00 -0.35953628574E+02  0.35953628574E+02  0.00000000000E+00 0.  1.
          6    1    1    2  502    0 -0.13802873828E+03  0.24359960812E+03  0.15861627020E+04  0.16198422203E+04  0.17200000000E+03 0.  1.
         -6    1    1    2    0  501  0.13802873828E+03 -0.24359960812E+03  0.13931682210E+04  0.14313959597E+04  0.17200000000E+03 0.  1.
</event>
<event>
 4    1  0.3169553E-002  0.2448333E+03  0.7818608E-02  0.1116614E+00
          2   -1    0    0  502    0  0.00000000000E+00  0.00000000000E+00  0.18950906924E+04  0.18950906924E+04  0.00000000000E+00 0. -1.
         -2   -1    0    0    0  501 -0.00000000000E+00 -0.00000000000E+00 -0.31649770161E+02  0.31649770161E+02  0.00000000000E+00 0.  1.
          6    1    1    2  502    0  0.39135018508E+02  0.16978743686E+03  0.90816416953E+03  0.94058783864E+03  0.17200000000E+03 0. -1.
         -6    1    1    2    0  501 -0.39135018508E+02 -0.16978743686E+03  0.95527675267E+03  0.98615262388E+03  0.17200000000E+03 0. -1.
</event>
<event>
 4    1  0.3169553E-002  0.2132314E+03  0.7818608E-02  0.1139032E+00
         -2   -1    0    0    0  501 -0.00000000000E+00  0.00000000000E+00  0.54929024527E+02  0.54929024527E+02  0.00000000000E+00 0.  1.
          2   -1    0    0  502    0  0.00000000000E+00 -0.00000000000E+00 -0.19790586678E+04  0.19790586678E+04  0.00000000000E+00 0. -1.
          6    1    1    2  502    0  0.21901672919E+02 -0.12411255408E+03 -0.17377482306E+04  0.17507816890E+04  0.17200000000E+03 0. -1.
         -6    1    1    2    0  501 -0.21901672919E+02  0.12411255408E+03 -0.18638141263E+03  0.28320600335E+03  0.17200000000E+03 0.  1.
</event>
<event>
 4    1  0.3169553E-002  0.2015502E+03  0.7818608E-02  0.1148438E+00
         -1   -1    0    0    0  501 -0.00000000000E+00  0.00000000000E+00  0.96208169385E+03  0.96208169385E+03  0.00000000000E+00 0.  1.
          1   -1    0    0  502    0  0.00000000000E+00 -0.00000000000E+00 -0.43836930837E+02  0.43836930837E+02  0.00000000000E+00 0. -1.
          6    1    1    2  502    0 -0.12546823887E+02 -0.10431236068E+03  0.55561255042E+03  0.59103959052E+03  0.17200000000E+03 0. -1.
         -6    1    1    2    0  501  0.12546823887E+02  0.10431236068E+03  0.36263221259E+03  0.41487903416E+03  0.17200000000E+03 0. -1.
</event>
<event>
 4    1  0.3169553E-002  0.1874826E+03  0.7818608E-02  0.1160752E+00
         -2   -1    0    0    0  501 -0.00000000000E+00  0.00000000000E+00  0.19770156394E+02  0.19770156394E+02  0.00000000000E+00 0.  1.
          2   -1    0    0  502    0  0.00000000000E+00 -0.00000000000E+00 -0.18091717152E+04  0.18091717152E+04  0.00000000000E+00 0. -1.
          6    1    1    2  502    0 -0.10748003097E+01 -0.74595943410E+02 -0.77450664373E+03  0.79687530464E+03  0.17200000000E+03 0. -1.
         -6    1    1    2    0  501  0.10748003097E+01  0.74595943410E+02 -0.10148949151E+04  0.10320665669E+04  0.17200000000E+03 0.  1.
</event>
<event>
 4    1  0.3169553E-002  0.7668482E+03  0.7818608E-02  0.9609283E-01
          2   -1    0    0  502    0  0.00000000000E+00  0.00000000000E+00  0.76654143831E+03  0.76654143831E+03  0.00000000000E+00 0. -1.
         -2   -1    0    0    0  501 -0.00000000000E+00 -0.00000000000E+00 -0.84623978741E+03  0.84623978741E+03  0.00000000000E+00 0.  1.
          6    1    1    2  502    0  0.56845553740E+03  0.48510877088E+03  0.20666664113E+03  0.79420861122E+03  0.17200000000E+03 0. -1.
         -6    1    1    2    0  501 -0.56845553740E+03 -0.48510877088E+03 -0.28636499023E+03  0.81857261450E+03  0.17200000000E+03 0.  1.
</event>
<event>
 4    1  0.3169553E-002  0.1012874E+04  0.7818608E-02  0.9294536E-01
         -1   -1    0    0    0  501 -0.00000000000E+00  0.00000000000E+00  0.12555379505E+04  0.12555379505E+04  0.00000000000E+00 0.  1.
          1   -1    0    0  502    0  0.00000000000E+00 -0.00000000000E+00 -0.81768133547E+03  0.81768133547E+03  0.00000000000E+00 0. -1.
          6    1    1    2  502    0 -0.72332779686E+03 -0.68784207496E+03  0.19155022083E+03  0.10308274875E+04  0.17200000000E+03 0. -1.
         -6    1    1    2    0  501  0.72332779686E+03  0.68784207496E+03  0.24630639422E+03  0.10423917985E+04  0.17200000000E+03 0.  1.
</event>
<event>
 4    1  0.3169553E-002  0.6035628E+03  0.7818608E-02  0.9898042E-01
         -2   -1    0    0    0  501 -0.00000000000E+00  0.00000000000E+00  0.52607764539E+03  0.52607764539E+03  0.00000000000E+00 0.  1.
          2   -1    0    0  502    0  0.00000000000E+00 -0.00000000000E+00 -0.70220573993E+03  0.70220573993E+03  0.00000000000E+00 0. -1.
          6    1    1    2  502    0 -0.28336039780E+03  0.50439169677E+03 -0.15715798023E+02  0.60376740979E+03  0.17200000000E+03 0. -1.
         -6    1    1    2    0  501  0.28336039780E+03 -0.50439169677E+03 -0.16041229652E+03  0.62451597553E+03  0.17200000000E+03 0.  1.
</event>
<event>
 4    1  0.3169553E-002  0.1804375E+03  0.7818608E-02  0.1167380E+00
         -1   -1    0    0    0  501 -0.00000000000E+00  0.00000000000E+00  0.10994922833E+04  0.10994922833E+04  0.00000000000E+00 0.  1.
          1   -1    0    0  502    0  0.00000000000E+00 -0.00000000000E+00 -0.42733201642E+02  0.42733201642E+02  0.00000000000E+00 0. -1.
          6    1    1    2  502    0 -0.13498653438E+02 -0.52834391951E+02  0.21190910387E+03  0.27832203456E+03  0.17200000000E+03 0. -1.
         -6    1    1    2    0  501  0.13498653438E+02  0.52834391951E+02  0.84484997780E+03  0.86390345039E+03  0.17200000000E+03 0.  1.
</event>
<event>
 4    1  0.3169553E-002  0.1830367E+03  0.7818608E-02  0.1164896E+00
         -1   -1    0    0    0  501 -0.00000000000E+00  0.00000000000E+00  0.16158825782E+03  0.16158825782E+03  0.00000000000E+00 0.  1.
          1   -1    0    0  502    0  0.00000000000E+00 -0.00000000000E+00 -0.23266890895E+03  0.23266890895E+03  0.00000000000E+00 0. -1.
          6    1    1    2  502    0 -0.38423838772E+02 -0.49416959926E+02  0.29511078546E+02  0.18540046136E+03  0.17200000000E+03 0.  1.
         -6    1    1    2    0  501  0.38423838772E+02  0.49416959926E+02 -0.10059172968E+03  0.20885670541E+03  0.17200000000E+03 0. -1.
</event>
<event>
 4    1  0.3169553E-002  0.2039841E+03  0.7818608E-02  0.1146420E+00
         -2   -1    0    0    0  501 -0.00000000000E+00  0.00000000000E+00  0.72002270284E+02  0.72002270284E+02  0.00000000000E+00 0.  1.
          2   -1    0    0  502    0  0.00000000000E+00 -0.00000000000E+00 -0.13119516706E+04  0.13119516706E+04  0.00000000000E+00 0. -1.
          6    1    1    2  502    0  0.90730194619E+02 -0.61591800885E+02 -0.11375797182E+04  0.11557236406E+04  0.17200000000E+03 0. -1.
         -6    1    1    2    0  501 -0.90730194619E+02  0.61591800885E+02 -0.10236968210E+03  0.22823030028E+03  0.17200000000E+03 0.  1.
</event>
<event>
 4    1  0.3169553E-002  0.2469139E+03  0.7818608E-02  0.1115271E+00
         -1   -1    0    0    0  501 -0.00000000000E+00  0.00000000000E+00  0.29742654970E+03  0.29742654970E+03  0.00000000000E+00 0.  1.
          1   -1    0    0  502    0  0.00000000000E+00 -0.00000000000E+00 -0.21403865182E+03  0.21403865182E+03  0.00000000000E+00 0. -1.
          6    1    1    2  502    0  0.17343956749E+03  0.36072132701E+02  0.94304485224E+02  0.26431007976E+03  0.17200000000E+03 0. -1.
         -6    1    1    2    0  501 -0.17343956749E+03 -0.36072132701E+02 -0.10916587342E+02  0.24715512175E+03  0.17200000000E+03 0.  1.
</event>
<event>
 4    1  0.3169553E-002  0.2948564E+03  0.7818608E-02  0.1087840E+00
          2   -1    0    0  502    0  0.00000000000E+00  0.00000000000E+00  0.32870086194E+04  0.32870086194E+04  0.00000000000E+00 0. -1.
         -2   -1    0    0    0  501 -0.00000000000E+00 -0.00000000000E+00 -0.26765733430E+02  0.26765733430E+02  0.00000000000E+00 0.  1.
          6    1    1    2  502    0 -0.19652664587E+03 -0.13687061336E+03  0.18101708629E+04  0.18340280370E+04  0.17200000000E+03 0. -1.
         -6    1    1    2    0  501  0.19652664587E+03  0.13687061336E+03  0.14500720231E+04  0.14797463159E+04  0.17200000000E+03 0.  1.
</event>
<event>
 4    1  0.3169553E-002  0.4768299E+03  0.7818608E-02  0.1020010E+00
          1   -1    0    0  502    0  0.00000000000E+00  0.00000000000E+00  0.13012865431E+04  0.13012865431E+04  0.00000000000E+00 0. -1.
         -1   -1    0    0    0  501 -0.00000000000E+00 -0.00000000000E+00 -0.29208112891E+03  0.29208112891E+03  0.00000000000E+00 0.  1.
          6    1    1    2  502    0  0.14309617812E+03  0.42107745382E+03  0.10095986982E+04  0.11165376257E+04  0.17200000000E+03 0. -1.
         -6    1    1    2    0  501 -0.14309617812E+03 -0.42107745382E+03 -0.39328405101E+00  0.47683004622E+03  0.17200000000E+03 0.  1.
</event>
<event>
 4    1  0.3169553E-002  0.2336063E+03  0.7818608E-02  0.1124127E+00
         -2   -1    0    0    0  501 -0.00000000000E+00  0.00000000000E+00  0.95714816637E+03  0.95714816637E+03  0.00000000000E+00 0.  1.
          2   -1    0    0  502    0  0.00000000000E+00 -0.00000000000E+00 -0.11128617101E+03  0.11128617101E+03  0.00000000000E+00 0. -1.
          6    1    1    2  502    0 -0.15074512852E+03  0.47579561735E+02  0.49868670225E+02  0.23886982383E+03  0.17200000000E+03 0. -1.
         -6    1    1    2    0  501  0.15074512852E+03 -0.47579561735E+02  0.79599332514E+03  0.82956451355E+03  0.17200000000E+03 0.  1.
</event>
<event>
 4    1  0.3169553E-002  0.2070241E+03  0.7818608E-02  0.1143944E+00
         -2   -1    0    0    0  501 -0.00000000000E+00  0.00000000000E+00  0.95408840172E+02  0.95408840172E+02  0.00000000000E+00 0.  1.
          2   -1    0    0  502    0  0.00000000000E+00 -0.00000000000E+00 -0.22156964746E+04  0.22156964746E+04  0.00000000000E+00 0. -1.
          6    1    1    2  502    0  0.32117850866E+02 -0.11065004768E+03 -0.20919289611E+04  0.21021478939E+04  0.17200000000E+03 0. -1.
         -6    1    1    2    0  501 -0.32117850866E+02  0.11065004768E+03 -0.28358673318E+02  0.20895742090E+03  0.17200000000E+03 0.  1.
</event>
<event>
 4    1  0.3169553E-002  0.4692532E+03  0.7818608E-02  0.1022131E+00
         -1   -1    0    0    0  501 -0.00000000000E+00  0.00000000000E+00  0.39824862193E+03  0.39824862193E+03  0.00000000000E+00 0.  1.
          1   -1    0    0  502    0  0.00000000000E+00 -0.00000000000E+00 -0.58191952135E+03  0.58191952135E+03  0.00000000000E+00 0. -1.
          6    1    1    2  502    0 -0.34649300012E+03  0.26562605865E+03 -0.20124464584E+03  0.51058594736E+03  0.17200000000E+03 0. -1.
         -6    1    1    2    0  501  0.34649300012E+03 -0.26562605865E+03  0.17573746419E+02  0.46958219592E+03  0.17200000000E+03 0.  1.
</event>
<event>
 4    1  0.3169553E-002  0.2758280E+03  0.7818608E-02  0.1097990E+00
          2   -1    0    0  502    0  0.00000000000E+00  0.00000000000E+00  0.52107445060E+03  0.52107445060E+03  0.00000000000E+00 0. -1.
         -2   -1    0    0    0  501 -0.00000000000E+00 -0.00000000000E+00 -0.27681718044E+03  0.27681718044E+03  0.00000000000E+00 0.  1.
          6    1    1    2  502    0 -0.96821486858E+02  0.19267246049E+03  0.39637215977E+03  0.48289954068E+03  0.17200000000E+03 0. -1.
         -6    1    1    2    0  501  0.96821486858E+02 -0.19267246049E+03 -0.15211488961E+03  0.31499209036E+03  0.17200000000E+03 0.  1.
</event>
<event>
 4    1  0.3169553E-002  0.2000409E+03  0.7818608E-02  0.1149705E+00
          2   -1    0    0  502    0  0.00000000000E+00  0.00000000000E+00  0.13571388280E+04  0.13571388280E+04  0.00000000000E+00 0. -1.
         -2   -1    0    0    0  501 -0.00000000000E+00 -0.00000000000E+00 -0.38033334966E+02  0.38033334966E+02  0.00000000000E+00 0.  1.
          6    1    1    2  502    0  0.38407199553E+02 -0.94642746459E+02  0.99025360877E+03  0.10102566862E+04  0.17200000000E+03 0. -1.
         -6    1    1    2    0  501 -0.38407199553E+02  0.94642746459E+02  0.32885188431E+03  0.38491547676E+03  0.17200000000E+03 0.  1.
</event>
<event>
 4    1  0.3169553E-002  0.2389951E+03  0.7818608E-02  0.1120464E+00
          2   -1    0    0  502    0  0.00000000000E+00  0.00000000000E+00  0.17364479956E+04  0.17364479956E+04  0.00000000000E+00 0. -1.
         -2   -1    0    0    0  501 -0.00000000000E+00 -0.00000000000E+00 -0.50929110926E+02  0.50929110926E+02  0.00000000000E+00 0.  1.
          6    1    1    2  502    0 -0.15588511429E+03  0.56872762936E+02  0.13745772025E+04  0.13951993283E+04  0.17200000000E+03 0. -1.
         -6    1    1    2    0  501  0.15588511429E+03 -0.56872762936E+02  0.31094168212E+03  0.39217777818E+03  0.17200000000E+03 0.  1.
</event>
<event>
 4    1  0.3169553E-002  0.1887505E+03  0.7818608E-02  0.1159593E+00
         -2   -1    0    0    0  501 -0.00000000000E+00  0.00000000000E+00  0.10216810390E+02  0.10216810390E+02  0.00000000000E+00 0.  1.
          2   -1    0    0  502    0  0.00000000000E+00 -0.00000000000E+00 -0.34884026532E+04  0.34884026532E+04  0.00000000000E+00 0. -1.
          6    1    1    2  502    0  0.77690164276E+02 -0.26417660806E+01 -0.17732744601E+04  0.17832916338E+04  0.17200000000E+03 0. -1.
         -6    1    1    2    0  501 -0.77690164276E+02  0.26417660806E+01 -0.17049113828E+04  0.17153278298E+04  0.17200000000E+03 0.  1.
</event>
<event>
 4    1  0.3169553E-002  0.2607196E+03  0.7818608E-02  0.1106712E+00
          3   -1    0    0  502    0  0.00000000000E+00  0.00000000000E+00  0.68998780007E+03  0.68998780007E+03  0.00000000000E+00 0. -1.
         -3   -1    0    0    0  501 -0.00000000000E+00 -0.00000000000E+00 -0.13958964211E+03  0.13958964211E+03  0.00000000000E+00 0.  1.
          6    1    1    2  502    0 -0.98893873213E+02  0.16914702890E+03  0.50019927067E+03  0.56406916767E+03  0.17200000000E+03 0. -1.
         -6    1    1    2    0  501  0.98893873213E+02 -0.16914702890E+03  0.50198887296E+02  0.26550827450E+03  0.17200000000E+03 0.  1.
</event>
<event>
 4    1  0.3169553E-002  0.3643729E+03  0.7818608E-02  0.1056866E+00
          2   -1    0    0  502    0  0.00000000000E+00  0.00000000000E+00  0.23882422703E+03  0.23882422703E+03  0.00000000000E+00 0. -1.
         -2   -1    0    0    0  501 -0.00000000000E+00 -0.00000000000E+00 -0.55634208011E+03  0.55634208011E+03  0.00000000000E+00 0.  1.
          6    1    1    2  502    0 -0.97894363448E+02 -0.30594161862E+03 -0.16968731794E+03  0.40194696947E+03  0.17200000000E+03 0. -1.
         -6    1    1    2    0  501  0.97894363448E+02  0.30594161862E+03 -0.14783053513E+03  0.39321933767E+03  0.17200000000E+03 0.  1.
</event>
<event>
 4    1  0.3169553E-002  0.2715894E+03  0.7818608E-02  0.1100373E+00
          1   -1    0    0  502    0  0.00000000000E+00  0.00000000000E+00  0.55366559381E+02  0.55366559381E+02  0.00000000000E+00 0. -1.
         -1   -1    0    0    0  501 -0.00000000000E+00 -0.00000000000E+00 -0.20772379818E+04  0.20772379818E+04  0.00000000000E+00 0.  1.
          6    1    1    2  502    0  0.12533538299E+03  0.16872417804E+03 -0.37235081437E+03  0.46087518424E+03  0.17200000000E+03 0. -1.
         -6    1    1    2    0  501 -0.12533538299E+03 -0.16872417804E+03 -0.16495206081E+04  0.16717293570E+04  0.17200000000E+03 0.  1.
</event>
<event>
 4    1  0.3169553E-002  0.3356632E+03  0.7818608E-02  0.1068658E+00
         -1   -1    0    0    0  501 -0.00000000000E+00  0.00000000000E+00  0.66653703986E+02  0.66653703986E+02  0.00000000000E+00 0.  1.
          1   -1    0    0  502    0  0.00000000000E+00 -0.00000000000E+00 -0.18002972526E+04  0.18002972526E+04  0.00000000000E+00 0. -1.
          6    1    1    2  502    0  0.28754648129E+03  0.20070615616E+02 -0.10974816346E+04  0.11476653462E+04  0.17200000000E+03 0. -1.
         -6    1    1    2    0  501 -0.28754648129E+03 -0.20070615616E+02 -0.63616191403E+03  0.71928561043E+03  0.17200000000E+03 0.  1.
</event>
<event>
 4    1  0.3169553E-002  0.1913427E+03  0.7818608E-02  0.1157256E+00
         -2   -1    0    0    0  501 -0.00000000000E+00  0.00000000000E+00  0.66628292970E+03  0.66628292970E+03  0.00000000000E+00 0.  1.
          2   -1    0    0  502    0  0.00000000000E+00 -0.00000000000E+00 -0.15178024043E+03  0.15178024043E+03  0.00000000000E+00 0. -1.
          6    1    1    2  502    0 -0.81990870387E+02  0.17479232036E+02 -0.69453424743E+02  0.20355786545E+03  0.17200000000E+03 0. -1.
         -6    1    1    2    0  501  0.81990870387E+02 -0.17479232036E+02  0.58395611402E+03  0.61450530468E+03  0.17200000000E+03 0.  1.
</event>
<event>
 4    1  0.3169553E-002  0.2823360E+03  0.7818608E-02  0.1094420E+00
         -1   -1    0    0    0  501 -0.00000000000E+00  0.00000000000E+00  0.17777184141E+03  0.17777184141E+03  0.00000000000E+00 0.  1.
          1   -1    0    0  502    0  0.00000000000E+00 -0.00000000000E+00 -0.48092613269E+03  0.48092613269E+03  0.00000000000E+00 0. -1.
          6    1    1    2  502    0  0.17551092900E+03 -0.13901620255E+03 -0.23722316415E+03  0.36876607814E+03  0.17200000000E+03 0.  1.
         -6    1    1    2    0  501 -0.17551092900E+03  0.13901620255E+03 -0.65931127125E+02  0.28993189596E+03  0.17200000000E+03 0.  1.
</event>
<event>
 4    1  0.3169553E-002  0.2841431E+03  0.7818608E-02  0.1093447E+00
         -1   -1    0    0    0  501 -0.00000000000E+00  0.00000000000E+00  0.10585894036E+03  0.10585894036E+03  0.00000000000E+00 0.  1.
          1   -1    0    0  502    0  0.00000000000E+00 -0.00000000000E+00 -0.95716590135E+03  0.95716590135E+03  0.00000000000E+00 0. -1.
          6    1    1    2  502    0  0.42886409240E+02  0.22206765510E+03 -0.66523622112E+03  0.72337854366E+03  0.17200000000E+03 0. -1.
         -6    1    1    2    0  501 -0.42886409240E+02 -0.22206765510E+03 -0.18607073986E+03  0.33964629804E+03  0.17200000000E+03 0.  1.
</event>
<event>
 4    1  0.3169553E-002  0.1816456E+03  0.7818608E-02  0.1166220E+00
          2   -1    0    0  502    0  0.00000000000E+00  0.00000000000E+00  0.36046685170E+03  0.36046685170E+03  0.00000000000E+00 0. -1.
         -2   -1    0    0    0  501 -0.00000000000E+00 -0.00000000000E+00 -0.93511132204E+02  0.93511132204E+02  0.00000000000E+00 0.  1.
          6    1    1    2  502    0  0.38307722315E+02 -0.44086658251E+02  0.16648042181E+03  0.24639570993E+03  0.17200000000E+03 0. -1.
         -6    1    1    2    0  501 -0.38307722315E+02  0.44086658251E+02  0.10047529769E+03  0.20758227398E+03  0.17200000000E+03 0.  1.
</event>
<event>
 4    1  0.3169553E-002  0.3622527E+03  0.7818608E-02  0.1057695E+00
          2   -1    0    0  502    0  0.00000000000E+00  0.00000000000E+00  0.23516218453E+04  0.23516218453E+04  0.00000000000E+00 0. -1.
         -2   -1    0    0    0  501 -0.00000000000E+00 -0.00000000000E+00 -0.79104662531E+02  0.79104662531E+02  0.00000000000E+00 0.  1.
          6    1    1    2  502    0 -0.31699096655E+03  0.34055142235E+02  0.17958889083E+04  0.18320600417E+04  0.17200000000E+03 0. -1.
         -6    1    1    2    0  501  0.31699096655E+03 -0.34055142235E+02  0.47662827444E+03  0.59866646606E+03  0.17200000000E+03 0.  1.
</event>
<event>
 4    1  0.3169553E-002  0.2846602E+03  0.7818608E-02  0.1093170E+00
          2   -1    0    0  502    0  0.00000000000E+00  0.00000000000E+00  0.26374613099E+03  0.26374613099E+03  0.00000000000E+00 0. -1.
         -2   -1    0    0    0  501 -0.00000000000E+00 -0.00000000000E+00 -0.35798517601E+03  0.35798517601E+03  0.00000000000E+00 0.  1.
          6    1    1    2  502    0 -0.22653475112E+03  0.11378109238E+02  0.69929699171E+02  0.29312389473E+03  0.17200000000E+03 0. -1.
         -6    1    1    2    0  501  0.22653475112E+03 -0.11378109238E+02 -0.16416874419E+03  0.32860741228E+03  0.17200000000E+03 0.  1.
</event>
<event>
 4    1  0.3169553E-002  0.2077778E+03  0.7818608E-02  0.1143338E+00
         -1   -1    0    0    0  501 -0.00000000000E+00  0.00000000000E+00  0.67012916633E+02  0.67012916633E+02  0.00000000000E+00 0.  1.
          1   -1    0    0  502    0  0.00000000000E+00 -0.00000000000E+00 -0.69805182787E+03  0.69805182787E+03  0.00000000000E+00 0. -1.
          6    1    1    2  502    0  0.38458471074E+02 -0.11003896146E+03 -0.20929858492E+03  0.29491952239E+03  0.17200000000E+03 0. -1.
         -6    1    1    2    0  501 -0.38458471074E+02  0.11003896146E+03 -0.42174032632E+03  0.47014522212E+03  0.17200000000E+03 0.  1.
</event>
<event>
 4    1  0.3169553E-002  0.2322305E+03  0.7818608E-02  0.1125080E+00
          1   -1    0    0  502    0  0.00000000000E+00  0.00000000000E+00  0.82660065701E+03  0.82660065701E+03  0.00000000000E+00 0. -1.
         -1   -1    0    0    0  501 -0.00000000000E+00 -0.00000000000E+00 -0.82697161603E+02  0.82697161603E+02  0.00000000000E+00 0.  1.
          6    1    1    2  502    0  0.12877809246E+03  0.88108996106E+02  0.16308754721E+03  0.28377551048E+03  0.17200000000E+03 0.  1.
         -6    1    1    2    0  501 -0.12877809246E+03 -0.88108996106E+02  0.58081594820E+03  0.62552230814E+03  0.17200000000E+03 0. -1.
</event>
<event>
 4    1  0.3169553E-002  0.1729026E+03  0.7818608E-02  0.1174854E+00
          1   -1    0    0  502    0  0.00000000000E+00  0.00000000000E+00  0.11737116051E+04  0.11737116051E+04  0.00000000000E+00 0. -1.
         -1   -1    0    0    0  501 -0.00000000000E+00 -0.00000000000E+00 -0.27192760930E+02  0.27192760930E+02  0.00000000000E+00 0.  1.
          6    1    1    2  502    0  0.12982252855E+02  0.11948246267E+02  0.72436182855E+03  0.74471159394E+03  0.17200000000E+03 0.  1.
         -6    1    1    2    0  501 -0.12982252855E+02 -0.11948246267E+02  0.42215701563E+03  0.45619277211E+03  0.17200000000E+03 0.  1.
</event>
<event>
 4    1  0.3169553E-002  0.3102079E+03  0.7818608E-02  0.1080246E+00
         -2   -1    0    0    0  501 -0.00000000000E+00  0.00000000000E+00  0.32661733793E+03  0.32661733793E+03  0.00000000000E+00 0.  1.
          2   -1    0    0  502    0  0.00000000000E+00 -0.00000000000E+00 -0.14483522831E+04  0.14483522831E+04  0.00000000000E+00 0. -1.
          6    1    1    2  502    0 -0.25422630065E+03 -0.44876536798E+02 -0.13529598239E+04  0.13880667133E+04  0.17200000000E+03 0. -1.
         -6    1    1    2    0  501  0.25422630065E+03  0.44876536798E+02  0.23122487870E+03  0.38690290775E+03  0.17200000000E+03 0.  1.
</event>
<event>
 4    1  0.3169553E-002  0.3768952E+03  0.7818608E-02  0.1052087E+00
         -1   -1    0    0    0  501 -0.00000000000E+00  0.00000000000E+00  0.20782059358E+03  0.20782059358E+03  0.00000000000E+00 0.  1.
          1   -1    0    0  502    0  0.00000000000E+00 -0.00000000000E+00 -0.79811092509E+03  0.79811092509E+03  0.00000000000E+00 0. -1.
          6    1    1    2  502    0  0.30660485492E+03 -0.13586550002E+03 -0.10456491155E+03  0.39113142534E+03  0.17200000000E+03 0. -1.
         -6    1    1    2    0  501 -0.30660485492E+03  0.13586550002E+03 -0.48572541997E+03  0.61480009333E+03  0.17200000000E+03 0.  1.
</event>
<event>
 4    1  0.3169553E-002  0.1964261E+03  0.7818608E-02  0.1152790E+00
         -2   -1    0    0    0  501 -0.00000000000E+00  0.00000000000E+00  0.96400797214E+02  0.96400797214E+02  0.00000000000E+00 0.  1.
          2   -1    0    0  502    0  0.00000000000E+00 -0.00000000000E+00 -0.56020420428E+03  0.56020420428E+03  0.00000000000E+00 0. -1.
          6    1    1    2  502    0  0.71711949583E+02 -0.62101639835E+02 -0.40733650957E+03  0.45222367188E+03  0.17200000000E+03 0. -1.
         -6    1    1    2    0  501 -0.71711949583E+02  0.62101639835E+02 -0.56466897504E+02  0.20438132962E+03  0.17200000000E+03 0. -1.
</event>
<event>
 4    1  0.3169553E-002  0.2082377E+03  0.7818608E-02  0.1142969E+00
         -2   -1    0    0    0  501 -0.00000000000E+00  0.00000000000E+00  0.19780760508E+03  0.19780760508E+03  0.00000000000E+00 0.  1.
          2   -1    0    0  502    0  0.00000000000E+00 -0.00000000000E+00 -0.23400444421E+03  0.23400444421E+03  0.00000000000E+00 0. -1.
          6    1    1    2  502    0 -0.51733902646E+02  0.10536859716E+03  0.36175135083E+02  0.21135651953E+03  0.17200000000E+03 0.  1.
         -6    1    1    2    0  501  0.51733902646E+02 -0.10536859716E+03 -0.72371974216E+02  0.22045552976E+03  0.17200000000E+03 0. -1.
</event>
<event>
 4    1  0.3169553E-002  0.1910392E+03  0.7818608E-02  0.1157527E+00
         -1   -1    0    0    0  501 -0.00000000000E+00  0.00000000000E+00  0.47976924092E+03  0.47976924092E+03  0.00000000000E+00 0.  1.
          1   -1    0    0  502    0  0.00000000000E+00 -0.00000000000E+00 -0.27730723982E+03  0.27730723982E+03  0.00000000000E+00 0. -1.
          6    1    1    2  502    0 -0.37582584477E+02  0.74158797150E+02 -0.22123466831E+03  0.29230250823E+03  0.17200000000E+03 0. -1.
         -6    1    1    2    0  501  0.37582584477E+02 -0.74158797150E+02  0.42369666941E+03  0.46477397251E+03  0.17200000000E+03 0.  1.
</event>
<event>
 4    1  0.3169553E-002  0.4499212E+03  0.7818608E-02  0.1027746E+00
         -1   -1    0    0    0  501 -0.00000000000E+00  0.00000000000E+00  0.66740364207E+03  0.66740364207E+03  0.00000000000E+00 0.  1.
          1   -1    0    0  502    0  0.00000000000E+00 -0.00000000000E+00 -0.41276143023E+03  0.41276143023E+03  0.00000000000E+00 0. -1.
          6    1    1    2  502    0 -0.37554768886E+03  0.17835076071E+03 -0.15079406769E+03  0.47451861007E+03  0.17200000000E+03 0. -1.
         -6    1    1    2    0  501  0.37554768886E+03 -0.17835076071E+03  0.40543627953E+03  0.60564646223E+03  0.17200000000E+03 0.  1.
</event>
<event>
 4    1  0.3169553E-002  0.2186495E+03  0.7818608E-02  0.1134894E+00
          2   -1    0    0  502    0  0.00000000000E+00  0.00000000000E+00  0.10499906051E+03  0.10499906051E+03  0.00000000000E+00 0. -1.
         -2   -1    0    0    0  501 -0.00000000000E+00 -0.00000000000E+00 -0.45535745524E+03  0.45535745524E+03  0.00000000000E+00 0.  1.
          6    1    1    2  502    0 -0.54591578529E+02 -0.12346395580E+03 -0.17790221632E+03  0.28188080353E+03  0.17200000000E+03 0.  1.
         -6    1    1    2    0  501  0.54591578529E+02  0.12346395580E+03 -0.17245617841E+03  0.27847571222E+03  0.17200000000E+03 0. -1.
</event>
<event>
 4    1  0.3169553E-002  0.2465596E+03  0.7818608E-02  0.1115499E+00
         -2   -1    0    0    0  501 -0.00000000000E+00  0.00000000000E+00  0.97262538558E+02  0.97262538558E+02  0.00000000000E+00 0.  1.
          2   -1    0    0  502    0  0.00000000000E+00 -0.00000000000E+00 -0.11268127459E+04  0.11268127459E+04  0.00000000000E+00 0. -1.
          6    1    1    2  502    0 -0.97330576142E+02 -0.14742587906E+03 -0.92319960000E+03  0.95555697492E+03  0.17200000000E+03 0. -1.
         -6    1    1    2    0  501  0.97330576142E+02  0.14742587906E+03 -0.10635060731E+03  0.26851830951E+03  0.17200000000E+03 0.  1.
</event>
<event>
 4    1  0.3169553E-002  0.3861904E+03  0.7818608E-02  0.1048669E+00
          2   -1    0    0  502    0  0.00000000000E+00  0.00000000000E+00  0.17348293276E+04  0.17348293276E+04  0.00000000000E+00 0. -1.
         -2   -1    0    0    0  501 -0.00000000000E+00 -0.00000000000E+00 -0.86354935783E+02  0.86354935783E+02  0.00000000000E+00 0.  1.
          6    1    1    2  502    0 -0.30965837838E+03  0.15385301792E+03  0.76343149327E+03  0.85555286648E+03  0.17200000000E+03 0. -1.
         -6    1    1    2    0  501  0.30965837838E+03 -0.15385301792E+03  0.88504289855E+03  0.96563139690E+03  0.17200000000E+03 0.  1.
</event>
<event>
 4    1  0.3169553E-002  0.1737213E+03  0.7818608E-02  0.1174022E+00
         -2   -1    0    0    0  501 -0.00000000000E+00  0.00000000000E+00  0.15134971576E+03  0.15134971576E+03  0.00000000000E+00 0.  1.
          2   -1    0    0  502    0  0.00000000000E+00 -0.00000000000E+00 -0.23312440431E+03  0.23312440431E+03  0.00000000000E+00 0. -1.
          6    1    1    2  502    0  0.64997639269E+01 -0.23512549749E+02 -0.11400417588E+03  0.20778844781E+03  0.17200000000E+03 0. -1.
         -6    1    1    2    0  501 -0.64997639269E+01  0.23512549749E+02  0.32229487325E+02  0.17668567225E+03  0.17200000000E+03 0.  1.
</event>
<event>
 4    1  0.3169553E-002  0.2878640E+03  0.7818608E-02  0.1091470E+00
          1   -1    0    0  502    0  0.00000000000E+00  0.00000000000E+00  0.58688900125E+03  0.58688900125E+03  0.00000000000E+00 0. -1.
         -1   -1    0    0    0  501 -0.00000000000E+00 -0.00000000000E+00 -0.32892386251E+03  0.32892386251E+03  0.00000000000E+00 0.  1.
          6    1    1    2  502    0 -0.13951511284E+03 -0.18389450764E+03  0.47491784113E+03  0.55534909064E+03  0.17200000000E+03 0. -1.
         -6    1    1    2    0  501  0.13951511284E+03  0.18389450764E+03 -0.21695270240E+03  0.36046377312E+03  0.17200000000E+03 0.  1.
</event>
<event>
 4    1  0.3169553E-002  0.1979433E+03  0.7818608E-02  0.1151486E+00
         -2   -1    0    0    0  501 -0.00000000000E+00  0.00000000000E+00  0.13760694036E+03  0.13760694036E+03  0.00000000000E+00 0.  1.
          2   -1    0    0  502    0  0.00000000000E+00 -0.00000000000E+00 -0.74307956838E+03  0.74307956838E+03  0.00000000000E+00 0. -1.
          6    1    1    2  502    0 -0.87687162129E+02 -0.43686734003E+02 -0.64857178579E+03  0.67810539774E+03  0.17200000000E+03 0. -1.
         -6    1    1    2    0  501  0.87687162129E+02  0.43686734003E+02  0.43099157767E+02  0.20258111099E+03  0.17200000000E+03 0.  1.
</event>
<event>
 4    1  0.3169553E-002  0.2159737E+03  0.7818608E-02  0.1136921E+00
         -2   -1    0    0    0  501 -0.00000000000E+00  0.00000000000E+00  0.32716176151E+02  0.32716176151E+02  0.00000000000E+00 0.  1.
          2   -1    0    0  502    0  0.00000000000E+00 -0.00000000000E+00 -0.33264975632E+04  0.33264975632E+04  0.00000000000E+00 0. -1.
          6    1    1    2  502    0  0.99358150450E+02 -0.84785632936E+02 -0.29165225299E+04  0.29245082172E+04  0.17200000000E+03 0. -1.
         -6    1    1    2    0  501 -0.99358150450E+02  0.84785632936E+02 -0.37725885720E+03  0.43470552210E+03  0.17200000000E+03 0.  1.
</event>
<event>
 4    1  0.3169553E-002  0.6678414E+03  0.7818608E-02  0.9773865E-01
          2   -1    0    0  502    0  0.00000000000E+00  0.00000000000E+00  0.22451765756E+04  0.22451765756E+04  0.00000000000E+00 0. -1.
         -2   -1    0    0    0  501 -0.00000000000E+00 -0.00000000000E+00 -0.52996752131E+03  0.52996752131E+03  0.00000000000E+00 0.  1.
          6    1    1    2  502    0 -0.52729319031E+03  0.37200807002E+03  0.19547162211E+04  0.20656542832E+04  0.17200000000E+03 0. -1.
         -6    1    1    2    0  501  0.52729319031E+03 -0.37200807002E+03 -0.23950716685E+03  0.70948981366E+03  0.17200000000E+03 0.  1.
</event>
<event>
 4    1  0.3169553E-002  0.1785137E+03  0.7818608E-02  0.1169249E+00
          4   -1    0    0  502    0  0.00000000000E+00  0.00000000000E+00  0.94547894672E+03  0.94547894672E+03  0.00000000000E+00 0. -1.
         -4   -1    0    0    0  501 -0.00000000000E+00 -0.00000000000E+00 -0.55629306238E+02  0.55629306238E+02  0.00000000000E+00 0.  1.
          6    1    1    2  502    0  0.24474522010E+02 -0.41038124070E+02  0.13068251828E+03  0.22123528299E+03  0.17200000000E+03 0.  1.
         -6    1    1    2    0  501 -0.24474522010E+02  0.41038124070E+02  0.75916712221E+03  0.77987296997E+03  0.17200000000E+03 0. -1.
</event>
<event>
 4    1  0.3169553E-002  0.2260343E+03  0.7818608E-02  0.1129463E+00
          2   -1    0    0  502    0  0.00000000000E+00  0.00000000000E+00  0.35960563743E+03  0.35960563743E+03  0.00000000000E+00 0. -1.
         -2   -1    0    0    0  501 -0.00000000000E+00 -0.00000000000E+00 -0.17918159362E+03  0.17918159362E+03  0.00000000000E+00 0.  1.
          6    1    1    2  502    0 -0.12930761791E+03 -0.69188614077E+02  0.21280261304E+03  0.31044560954E+03  0.17200000000E+03 0. -1.
         -6    1    1    2    0  501  0.12930761791E+03  0.69188614077E+02 -0.32378569234E+02  0.22834162151E+03  0.17200000000E+03 0.  1.
</event>
<event>
 4    1  0.3169553E-002  0.3745903E+03  0.7818608E-02  0.1052952E+00
          2   -1    0    0  502    0  0.00000000000E+00  0.00000000000E+00  0.12714115624E+04  0.12714115624E+04  0.00000000000E+00 0. -1.
         -2   -1    0    0    0  501 -0.00000000000E+00 -0.00000000000E+00 -0.22880237326E+03  0.22880237326E+03  0.00000000000E+00 0.  1.
          6    1    1    2  502    0 -0.29055963705E+03 -0.16220040181E+03  0.10609884569E+04  0.11251730439E+04  0.17200000000E+03 0. -1.
         -6    1    1    2    0  501  0.29055963705E+03  0.16220040181E+03 -0.18379267745E+02  0.37504089179E+03  0.17200000000E+03 0.  1.
</event>
<event>
 4    1  0.3169553E-002  0.1936234E+03  0.7818608E-02  0.1155233E+00
          2   -1    0    0  502    0  0.00000000000E+00  0.00000000000E+00  0.59314477432E+03  0.59314477432E+03  0.00000000000E+00 0. -1.
         -2   -1    0    0    0  501 -0.00000000000E+00 -0.00000000000E+00 -0.93124186338E+02  0.93124186338E+02  0.00000000000E+00 0.  1.
          6    1    1    2  502    0 -0.87909070721E+01  0.88480273306E+02  0.55517261401E+02  0.20142543316E+03  0.17200000000E+03 0. -1.
         -6    1    1    2    0  501  0.87909070721E+01 -0.88480273306E+02  0.44450332658E+03  0.48484352750E+03  0.17200000000E+03 0.  1.
</event>
<event>
 4    1  0.3169553E-002  0.1845583E+03  0.7818608E-02  0.1163463E+00
         -1   -1    0    0    0  501 -0.00000000000E+00  0.00000000000E+00  0.13107754497E+03  0.13107754497E+03  0.00000000000E+00 0.  1.
          1   -1    0    0  502    0  0.00000000000E+00 -0.00000000000E+00 -0.44471036774E+03  0.44471036774E+03  0.00000000000E+00 0. -1.
          6    1    1    2  502    0  0.28348933703E+02  0.60614429778E+02  0.28794898638E+02  0.18679110612E+03  0.17200000000E+03 0.  1.
         -6    1    1    2    0  501 -0.28348933703E+02 -0.60614429778E+02 -0.34242772142E+03  0.38899680658E+03  0.17200000000E+03 0.  1.
</event>
<event>
 4    1  0.3169553E-002  0.1816090E+03  0.7818608E-02  0.1166255E+00
         -1   -1    0    0    0  501 -0.00000000000E+00  0.00000000000E+00  0.11358213052E+03  0.11358213052E+03  0.00000000000E+00 0.  1.
          1   -1    0    0  502    0  0.00000000000E+00 -0.00000000000E+00 -0.54237087704E+03  0.54237087704E+03  0.00000000000E+00 0. -1.
          6    1    1    2  502    0  0.58262868814E+02  0.18085302952E+01 -0.43795126919E+03  0.47411301063E+03  0.17200000000E+03 0. -1.
         -6    1    1    2    0  501 -0.58262868814E+02 -0.18085302952E+01  0.91625226711E+01  0.18183999694E+03  0.17200000000E+03 0.  1.
</event>
<event>
 4    1  0.3169553E-002  0.2683202E+03  0.7818608E-02  0.1102245E+00
          1   -1    0    0  502    0  0.00000000000E+00  0.00000000000E+00  0.10733207868E+04  0.10733207868E+04  0.00000000000E+00 0. -1.
         -1   -1    0    0    0  501 -0.00000000000E+00 -0.00000000000E+00 -0.14344838632E+03  0.14344838632E+03  0.00000000000E+00 0.  1.
          6    1    1    2  502    0  0.13414210446E+03 -0.15626137484E+03  0.90884541632E+03  0.94762635687E+03  0.17200000000E+03 0. -1.
         -6    1    1    2    0  501 -0.13414210446E+03  0.15626137484E+03  0.21026984106E+02  0.26914281621E+03  0.17200000000E+03 0.  1.
</event>
<event>
 4    1  0.3169553E-002  0.3293371E+03  0.7818608E-02  0.1071431E+00
         -1   -1    0    0    0  501 -0.00000000000E+00  0.00000000000E+00  0.71044342171E+03  0.71044342171E+03  0.00000000000E+00 0.  1.
          1   -1    0    0  502    0  0.00000000000E+00 -0.00000000000E+00 -0.22449894052E+03  0.22449894052E+03  0.00000000000E+00 0. -1.
          6    1    1    2  502    0 -0.59267786002E+02  0.27452916679E+03  0.50739534300E+03  0.60490740446E+03  0.17200000000E+03 0. -1.
         -6    1    1    2    0  501  0.59267786002E+02 -0.27452916679E+03 -0.21450861803E+02  0.33003495776E+03  0.17200000000E+03 0. -1.
</event>
<event>
 4    1  0.3169553E-002  0.2021280E+03  0.7818608E-02  0.1147956E+00
         -1   -1    0    0    0  501 -0.00000000000E+00  0.00000000000E+00  0.52921365750E+02  0.52921365750E+02  0.00000000000E+00 0.  1.
          1   -1    0    0  502    0  0.00000000000E+00 -0.00000000000E+00 -0.77481410875E+03  0.77481410875E+03  0.00000000000E+00 0. -1.
          6    1    1    2  502    0  0.80465738138E+02  0.69260392353E+02 -0.33604134913E+03  0.39214732600E+03  0.17200000000E+03 0. -1.
         -6    1    1    2    0  501 -0.80465738138E+02 -0.69260392353E+02 -0.38585139387E+03  0.43558814850E+03  0.17200000000E+03 0.  1.
</event>
<event>
 4    1  0.3169553E-002  0.2780192E+03  0.7818608E-02  0.1096776E+00
         -2   -1    0    0    0  501 -0.00000000000E+00  0.00000000000E+00  0.11243602505E+03  0.11243602505E+03  0.00000000000E+00 0.  1.
          2   -1    0    0  502    0  0.00000000000E+00 -0.00000000000E+00 -0.68759110212E+03  0.68759110212E+03  0.00000000000E+00 0. -1.
          6    1    1    2  502    0 -0.20250748261E+03 -0.81862098946E+02 -0.28194531172E+03  0.39596444607E+03  0.17200000000E+03 0. -1.
         -6    1    1    2    0  501  0.20250748261E+03  0.81862098946E+02 -0.29320976535E+03  0.40406268109E+03  0.17200000000E+03 0.  1.
</event>
<event>
 4    1  0.3169553E-002  0.2348067E+03  0.7818608E-02  0.1123302E+00
         -2   -1    0    0    0  501 -0.00000000000E+00  0.00000000000E+00  0.14726560096E+03  0.14726560096E+03  0.00000000000E+00 0.  1.
          2   -1    0    0  502    0  0.00000000000E+00 -0.00000000000E+00 -0.94733948878E+03  0.94733948878E+03  0.00000000000E+00 0. -1.
          6    1    1    2  502    0 -0.51637094500E+02 -0.15127388219E+03  0.25595120271E+02  0.23619755956E+03  0.17200000000E+03 0.  1.
         -6    1    1    2    0  501  0.51637094500E+02  0.15127388219E+03 -0.82566900809E+03  0.85840753018E+03  0.17200000000E+03 0. -1.
</event>
<event>
 4    1  0.3169553E-002  0.3104158E+03  0.7818608E-02  0.1080147E+00
         -2   -1    0    0    0  501 -0.00000000000E+00  0.00000000000E+00  0.15333426389E+03  0.15333426389E+03  0.00000000000E+00 0.  1.
          2   -1    0    0  502    0  0.00000000000E+00 -0.00000000000E+00 -0.99647906914E+03  0.99647906914E+03  0.00000000000E+00 0. -1.
          6    1    1    2  502    0 -0.27514969725E+00 -0.25840646267E+03 -0.77097275096E+03  0.83111789680E+03  0.17200000000E+03 0. -1.
         -6    1    1    2    0  501  0.27514969725E+00  0.25840646267E+03 -0.72172054292E+02  0.31869543624E+03  0.17200000000E+03 0.  1.
</event>
<event>
 4    1  0.3169553E-002  0.3856126E+03  0.7818608E-02  0.1048879E+00
         -2   -1    0    0    0  501 -0.00000000000E+00  0.00000000000E+00  0.12092233816E+03  0.12092233816E+03  0.00000000000E+00 0.  1.
          2   -1    0    0  502    0  0.00000000000E+00 -0.00000000000E+00 -0.12302232122E+04  0.12302232122E+04  0.00000000000E+00 0. -1.
          6    1    1    2  502    0  0.32570910409E+03 -0.11413446433E+03 -0.56870351616E+03  0.68711046108E+03  0.17200000000E+03 0. -1.
         -6    1    1    2    0  501 -0.32570910409E+03  0.11413446433E+03 -0.54059735785E+03  0.66403508925E+03  0.17200000000E+03 0. -1.
</event>
<event>
 4    1  0.3169553E-002  0.2246159E+03  0.7818608E-02  0.1130488E+00
          2   -1    0    0  502    0  0.00000000000E+00  0.00000000000E+00  0.53069032913E+03  0.53069032913E+03  0.00000000000E+00 0. -1.
         -2   -1    0    0    0  501 -0.00000000000E+00 -0.00000000000E+00 -0.12623563682E+03  0.12623563682E+03  0.00000000000E+00 0.  1.
          6    1    1    2  502    0 -0.11314555119E+03 -0.89813013416E+02  0.36543449501E+03  0.42894599109E+03  0.17200000000E+03 0. -1.
         -6    1    1    2    0  501  0.11314555119E+03  0.89813013416E+02  0.39020197302E+02  0.22797997485E+03  0.17200000000E+03 0.  1.
</event>
<event>
 4    1  0.3169553E-002  0.1924556E+03  0.7818608E-02  0.1156265E+00
         -1   -1    0    0    0  501 -0.00000000000E+00  0.00000000000E+00  0.50232291455E+02  0.50232291455E+02  0.00000000000E+00 0.  1.
          1   -1    0    0  502    0  0.00000000000E+00 -0.00000000000E+00 -0.13670290020E+04  0.13670290020E+04  0.00000000000E+00 0. -1.
          6    1    1    2  502    0 -0.12973365455E+02 -0.85362982571E+02 -0.11393353145E+04  0.11554757054E+04  0.17200000000E+03 0. -1.
         -6    1    1    2    0  501  0.12973365455E+02  0.85362982571E+02 -0.17746139605E+03  0.26178558802E+03  0.17200000000E+03 0.  1.
</event>
<event>
 4    1  0.3169553E-002  0.3340911E+03  0.7818608E-02  0.1069341E+00
         -1   -1    0    0    0  501 -0.00000000000E+00  0.00000000000E+00  0.87810776912E+02  0.87810776912E+02  0.00000000000E+00 0.  1.
          1   -1    0    0  502    0  0.00000000000E+00 -0.00000000000E+00 -0.18309685926E+04  0.18309685926E+04  0.00000000000E+00 0. -1.
          6    1    1    2  502    0  0.10735469172E+03 -0.26553310444E+03 -0.14020907519E+04  0.14413449747E+04  0.17200000000E+03 0.  1.
         -6    1    1    2    0  501 -0.10735469172E+03  0.26553310444E+03 -0.34106706376E+03  0.47743439484E+03  0.17200000000E+03 0.  1.
</event>
<event>
 4    1  0.3169553E-002  0.2491457E+03  0.7818608E-02  0.1113846E+00
         -1   -1    0    0    0  501 -0.00000000000E+00  0.00000000000E+00  0.39928439216E+02  0.39928439216E+02  0.00000000000E+00 0.  1.
          1   -1    0    0  502    0  0.00000000000E+00 -0.00000000000E+00 -0.20151654523E+04  0.20151654523E+04  0.00000000000E+00 0. -1.
          6    1    1    2  502    0 -0.14262248597E+02  0.17968347266E+03 -0.14788457295E+04  0.14996860517E+04  0.17200000000E+03 0. -1.
         -6    1    1    2    0  501  0.14262248597E+02 -0.17968347266E+03 -0.49639128358E+03  0.55540783979E+03  0.17200000000E+03 0. -1.
</event>
<event>
 4    1  0.3169553E-002  0.2970175E+03  0.7818608E-02  0.1086741E+00
         -1   -1    0    0    0  501 -0.00000000000E+00  0.00000000000E+00  0.11353050093E+03  0.11353050093E+03  0.00000000000E+00 0.  1.
          1   -1    0    0  502    0  0.00000000000E+00 -0.00000000000E+00 -0.94296349775E+03  0.94296349775E+03  0.00000000000E+00 0. -1.
          6    1    1    2  502    0  0.32457793303E+02  0.23996223123E+03 -0.63629347678E+03  0.70220279788E+03  0.17200000000E+03 0. -1.
         -6    1    1    2    0  501 -0.32457793303E+02 -0.23996223123E+03 -0.19313952004E+03  0.35429120080E+03  0.17200000000E+03 0.  1.
</event>
<event>
 4    1  0.3169553E-002  0.6762658E+03  0.7818608E-02  0.9758704E-01
         -1   -1    0    0    0  501 -0.00000000000E+00  0.00000000000E+00  0.22724908972E+03  0.22724908972E+03  0.00000000000E+00 0.  1.
          1   -1    0    0  502    0  0.00000000000E+00 -0.00000000000E+00 -0.25984568784E+04  0.25984568784E+04  0.00000000000E+00 0. -1.
          6    1    1    2  502    0  0.64971218773E+03  0.75003741560E+02 -0.18565342383E+04  0.19758681297E+04  0.17200000000E+03 0. -1.
         -6    1    1    2    0  501 -0.64971218773E+03 -0.75003741560E+02 -0.51467355046E+03  0.84983783845E+03  0.17200000000E+03 0.  1.
</event>
<event>
 4    1  0.3169553E-002  0.3161424E+03  0.7818608E-02  0.1077439E+00
         -2   -1    0    0    0  501 -0.00000000000E+00  0.00000000000E+00  0.74153750504E+02  0.74153750504E+02  0.00000000000E+00 0.  1.
          2   -1    0    0  502    0  0.00000000000E+00 -0.00000000000E+00 -0.15646086669E+04  0.15646086669E+04  0.00000000000E+00 0. -1.
          6    1    1    2  502    0  0.22536203101E+03 -0.13990698660E+03 -0.10502276024E+04  0.10967789325E+04  0.17200000000E+03 0. -1.
         -6    1    1    2    0  501 -0.22536203101E+03  0.13990698660E+03 -0.44022731396E+03  0.54198348487E+03  0.17200000000E+03 0.  1.
</event>
<event>
 4    1  0.3169553E-002  0.1735037E+03  0.7818608E-02  0.1174243E+00
         -2   -1    0    0    0  501 -0.00000000000E+00  0.00000000000E+00  0.63931177250E+02  0.63931177250E+02  0.00000000000E+00 0.  1.
          2   -1    0    0  502    0  0.00000000000E+00 -0.00000000000E+00 -0.47721841096E+03  0.47721841096E+03  0.00000000000E+00 0. -1.
          6    1    1    2  502    0 -0.22639583731E+02 -0.26429715195E+01 -0.23784118229E+03  0.29440102589E+03  0.17200000000E+03 0. -1.
         -6    1    1    2    0  501  0.22639583731E+02  0.26429715195E+01 -0.17544605142E+03  0.24674856232E+03  0.17200000000E+03 0.  1.
</event>
<event>
 4    1  0.3169553E-002  0.2866527E+03  0.7818608E-02  0.1092110E+00
          2   -1    0    0  502    0  0.00000000000E+00  0.00000000000E+00  0.14075328111E+04  0.14075328111E+04  0.00000000000E+00 0. -1.
         -2   -1    0    0    0  501 -0.00000000000E+00 -0.00000000000E+00 -0.11792145341E+03  0.11792145341E+03  0.00000000000E+00 0.  1.
          6    1    1    2  502    0 -0.66143788518E+02 -0.21956947604E+03  0.11867912285E+04  0.12209189881E+04  0.17200000000E+03 0. -1.
         -6    1    1    2    0  501  0.66143788518E+02  0.21956947604E+03  0.10282012914E+03  0.30453527633E+03  0.17200000000E+03 0.  1.
</event>
<event>
 4    1  0.3169553E-002  0.1759157E+03  0.7818608E-02  0.1171815E+00
         -2   -1    0    0    0  501 -0.00000000000E+00  0.00000000000E+00  0.10402768400E+03  0.10402768400E+03  0.00000000000E+00 0.  1.
          2   -1    0    0  502    0  0.00000000000E+00 -0.00000000000E+00 -0.99620651292E+03  0.99620651292E+03  0.00000000000E+00 0. -1.
          6    1    1    2  502    0  0.13896081006E+02 -0.34194252015E+02 -0.90680562309E+03  0.92371141923E+03  0.17200000000E+03 0. -1.
         -6    1    1    2    0  501 -0.13896081006E+02  0.34194252015E+02  0.14626794176E+02  0.17652277770E+03  0.17200000000E+03 0.  1.
</event>
<event>
 4    1  0.3169553E-002  0.1974871E+03  0.7818608E-02  0.1151877E+00
         -1   -1    0    0    0  501 -0.00000000000E+00  0.00000000000E+00  0.31368647595E+03  0.31368647595E+03  0.00000000000E+00 0.  1.
          1   -1    0    0  502    0  0.00000000000E+00 -0.00000000000E+00 -0.15125031741E+03  0.15125031741E+03  0.00000000000E+00 0. -1.
          6    1    1    2  502    0 -0.74497308141E+02  0.62187722275E+02  0.17928949244E+03  0.26673185753E+03  0.17200000000E+03 0.  1.
         -6    1    1    2    0  501  0.74497308141E+02 -0.62187722275E+02 -0.16853333903E+02  0.19820493583E+03  0.17200000000E+03 0.  1.
</event>
<event>
 4    1  0.3169553E-002  0.7899071E+03  0.7818608E-02  0.9574742E-01
         -1   -1    0    0    0  501 -0.00000000000E+00  0.00000000000E+00  0.94902782335E+03  0.94902782335E+03  0.00000000000E+00 0.  1.
          1   -1    0    0  502    0  0.00000000000E+00 -0.00000000000E+00 -0.65769309479E+03  0.65769309479E+03  0.00000000000E+00 0. -1.
          6    1    1    2  502    0  0.38374771363E+03 -0.66866051655E+03  0.16060691206E+03  0.80606933592E+03  0.17200000000E+03 0. -1.
         -6    1    1    2    0  501 -0.38374771363E+03  0.66866051655E+03  0.13072781650E+03  0.80065158222E+03  0.17200000000E+03 0.  1.
</event>
<event>
 4    1  0.3169553E-002  0.6680834E+03  0.7818608E-02  0.9773426E-01
          1   -1    0    0  502    0  0.00000000000E+00  0.00000000000E+00  0.25240186572E+03  0.25240186572E+03  0.00000000000E+00 0. -1.
         -1   -1    0    0    0  501 -0.00000000000E+00 -0.00000000000E+00 -0.17985294686E+04  0.17985294686E+04  0.00000000000E+00 0.  1.
          6    1    1    2  502    0 -0.61644128338E+03  0.19170710737E+03 -0.64023259014E+03  0.92532872016E+03  0.17200000000E+03 0. -1.
         -6    1    1    2    0  501  0.61644128338E+03 -0.19170710737E+03 -0.90589501273E+03  0.11256026141E+04  0.17200000000E+03 0.  1.
</event>
<event>
 4    1  0.3169553E-002  0.1840443E+03  0.7818608E-02  0.1163945E+00
          2   -1    0    0  502    0  0.00000000000E+00  0.00000000000E+00  0.64186105332E+03  0.64186105332E+03  0.00000000000E+00 0. -1.
         -2   -1    0    0    0  501 -0.00000000000E+00 -0.00000000000E+00 -0.74296021315E+02  0.74296021315E+02  0.00000000000E+00 0.  1.
          6    1    1    2  502    0 -0.59983450385E+02  0.26273358953E+02  0.91049096330E+02  0.20533446290E+03  0.17200000000E+03 0.  1.
         -6    1    1    2    0  501  0.59983450385E+02 -0.26273358953E+02  0.47651593568E+03  0.51082261174E+03  0.17200000000E+03 0. -1.
</event>
<event>
 4    1  0.3169553E-002  0.4436936E+03  0.7818608E-02  0.1029620E+00
         -1   -1    0    0    0  501 -0.00000000000E+00  0.00000000000E+00  0.49102315398E+03  0.49102315398E+03  0.00000000000E+00 0.  1.
          1   -1    0    0  502    0  0.00000000000E+00 -0.00000000000E+00 -0.73795404786E+03  0.73795404786E+03  0.00000000000E+00 0. -1.
          6    1    1    2  502    0  0.24397789534E+03  0.32826032355E+03 -0.53873688011E+03  0.69792655733E+03  0.17200000000E+03 0. -1.
         -6    1    1    2    0  501 -0.24397789534E+03 -0.32826032355E+03  0.29180598624E+03  0.53105064451E+03  0.17200000000E+03 0.  1.
</event>
<event>
 4    1  0.3169553E-002  0.1850647E+03  0.7818608E-02  0.1162989E+00
          1   -1    0    0  502    0  0.00000000000E+00  0.00000000000E+00  0.19361738544E+04  0.19361738544E+04  0.00000000000E+00 0. -1.
         -1   -1    0    0    0  501 -0.00000000000E+00 -0.00000000000E+00 -0.27068552967E+02  0.27068552967E+02  0.00000000000E+00 0.  1.
          6    1    1    2  502    0 -0.59988238346E+02 -0.32655133136E+02  0.15323863600E+04  0.15435209434E+04  0.17200000000E+03 0. -1.
         -6    1    1    2    0  501  0.59988238346E+02  0.32655133136E+02  0.37671894138E+03  0.41972146390E+03  0.17200000000E+03 0.  1.
</event>
<event>
 4    1  0.3169553E-002  0.2389911E+03  0.7818608E-02  0.1120467E+00
         -3   -1    0    0    0  501 -0.00000000000E+00  0.00000000000E+00  0.74134041745E+03  0.74134041745E+03  0.00000000000E+00 0.  1.
          3   -1    0    0  502    0  0.00000000000E+00 -0.00000000000E+00 -0.77649365944E+02  0.77649365944E+02  0.00000000000E+00 0. -1.
          6    1    1    2  502    0  0.16357862565E+03 -0.27835082794E+02  0.29572622866E+03  0.38022461903E+03  0.17200000000E+03 0. -1.
         -6    1    1    2    0  501 -0.16357862565E+03  0.27835082794E+02  0.36796482284E+03  0.43876516436E+03  0.17200000000E+03 0.  1.
</event>
<event>
 4    1  0.3169553E-002  0.2513081E+03  0.7818608E-02  0.1112481E+00
         -2   -1    0    0    0  501 -0.00000000000E+00  0.00000000000E+00  0.80907580940E+03  0.80907580940E+03  0.00000000000E+00 0.  1.
          2   -1    0    0  502    0  0.00000000000E+00 -0.00000000000E+00 -0.43418775084E+03  0.43418775084E+03  0.00000000000E+00 0. -1.
          6    1    1    2  502    0  0.14054226958E+03  0.11755703007E+03 -0.37554228941E+03  0.45187143746E+03  0.17200000000E+03 0. -1.
         -6    1    1    2    0  501 -0.14054226958E+03 -0.11755703007E+03  0.75043034797E+03  0.79139212278E+03  0.17200000000E+03 0.  1.
</event>
<event>
 4    1  0.3169553E-002  0.2068588E+03  0.7818608E-02  0.1144078E+00
          1   -1    0    0  502    0  0.00000000000E+00  0.00000000000E+00  0.10171046077E+03  0.10171046077E+03  0.00000000000E+00 0. -1.
         -1   -1    0    0    0  501 -0.00000000000E+00 -0.00000000000E+00 -0.57475330761E+03  0.57475330761E+03  0.00000000000E+00 0.  1.
          6    1    1    2  502    0 -0.34103631755E+02 -0.10974299567E+03 -0.61417623203E+02  0.21578393647E+03  0.17200000000E+03 0. -1.
         -6    1    1    2    0  501  0.34103631755E+02  0.10974299567E+03 -0.41162522364E+03  0.46067983191E+03  0.17200000000E+03 0.  1.
</event>
<event>
 4    1  0.3169553E-002  0.3369379E+03  0.7818608E-02  0.1068108E+00
          2   -1    0    0  502    0  0.00000000000E+00  0.00000000000E+00  0.65049411476E+03  0.65049411476E+03  0.00000000000E+00 0. -1.
         -2   -1    0    0    0  501 -0.00000000000E+00 -0.00000000000E+00 -0.41438491893E+03  0.41438491893E+03  0.00000000000E+00 0.  1.
          6    1    1    2  502    0 -0.93222160810E+01  0.28957944910E+03  0.52314094178E+03  0.62225686498E+03  0.17200000000E+03 0. -1.
         -6    1    1    2    0  501  0.93222160810E+01 -0.28957944910E+03 -0.28703174594E+03  0.44262216871E+03  0.17200000000E+03 0.  1.
</event>
<event>
 4    1  0.3169553E-002  0.1928864E+03  0.7818608E-02  0.1155883E+00
          2   -1    0    0  502    0  0.00000000000E+00  0.00000000000E+00  0.14758514495E+04  0.14758514495E+04  0.00000000000E+00 0. -1.
         -2   -1    0    0    0  501 -0.00000000000E+00 -0.00000000000E+00 -0.27915894655E+02  0.27915894655E+02  0.00000000000E+00 0.  1.
          6    1    1    2  502    0 -0.19479573399E+02 -0.85098297077E+02  0.95808691905E+03  0.97731045139E+03  0.17200000000E+03 0. -1.
         -6    1    1    2    0  501  0.19479573399E+02  0.85098297077E+02  0.48984863577E+03  0.52645689274E+03  0.17200000000E+03 0.  1.
</event>
<event>
 4    1  0.3169553E-002  0.2214582E+03  0.7818608E-02  0.1132801E+00
          1   -1    0    0  502    0  0.00000000000E+00  0.00000000000E+00  0.17864011301E+03  0.17864011301E+03  0.00000000000E+00 0. -1.
         -1   -1    0    0    0  501 -0.00000000000E+00 -0.00000000000E+00 -0.43595004294E+03  0.43595004294E+03  0.00000000000E+00 0.  1.
          6    1    1    2  502    0 -0.12227545800E+03 -0.67144977383E+02  0.58328597369E+02  0.22901083138E+03  0.17200000000E+03 0. -1.
         -6    1    1    2    0  501  0.12227545800E+03  0.67144977383E+02 -0.31563852730E+03  0.38557932457E+03  0.17200000000E+03 0.  1.
</event>
<event>
 4    1  0.3169553E-002  0.1750062E+03  0.7818608E-02  0.1172725E+00
         -1   -1    0    0    0  501 -0.00000000000E+00  0.00000000000E+00  0.19402349831E+02  0.19402349831E+02  0.00000000000E+00 0.  1.
          1   -1    0    0  502    0  0.00000000000E+00 -0.00000000000E+00 -0.15788793047E+04  0.15788793047E+04  0.00000000000E+00 0. -1.
          6    1    1    2  502    0  0.21564256068E+02 -0.24044999693E+02 -0.79163552895E+03  0.81074903012E+03  0.17200000000E+03 0.  1.
         -6    1    1    2    0  501 -0.21564256068E+02  0.24044999693E+02 -0.76784142593E+03  0.78753262442E+03  0.17200000000E+03 0. -1.
</event>
<event>
 4    1  0.3169553E-002  0.2571870E+03  0.7818608E-02  0.1108845E+00
          1   -1    0    0  502    0  0.00000000000E+00  0.00000000000E+00  0.29895559261E+03  0.29895559261E+03  0.00000000000E+00 0. -1.
         -1   -1    0    0    0  501 -0.00000000000E+00 -0.00000000000E+00 -0.40085071094E+03  0.40085071094E+03  0.00000000000E+00 0.  1.
          6    1    1    2  502    0 -0.34876531102E+02  0.18800204744E+03  0.18326254516E+03  0.31580104928E+03  0.17200000000E+03 0. -1.
         -6    1    1    2    0  501  0.34876531102E+02 -0.18800204744E+03 -0.28515766349E+03  0.38400525427E+03  0.17200000000E+03 0. -1.
</event>
<event>
 4    1  0.3169553E-002  0.3312829E+03  0.7818608E-02  0.1070571E+00
         -2   -1    0    0    0  501 -0.00000000000E+00  0.00000000000E+00  0.13198194872E+03  0.13198194872E+03  0.00000000000E+00 0.  1.
          2   -1    0    0  502    0  0.00000000000E+00 -0.00000000000E+00 -0.84099898503E+03  0.84099898503E+03  0.00000000000E+00 0. -1.
          6    1    1    2  502    0 -0.13586815802E+01  0.28312982950E+03 -0.40610089312E+03  0.52408613964E+03  0.17200000000E+03 0. -1.
         -6    1    1    2    0  501  0.13586815802E+01 -0.28312982950E+03 -0.30291614319E+03  0.44889479410E+03  0.17200000000E+03 0.  1.
</event>
<event>
 4    1  0.3169553E-002  0.4740703E+03  0.7818608E-02  0.1020778E+00
         -2   -1    0    0    0  501 -0.00000000000E+00  0.00000000000E+00  0.91821567934E+03  0.91821567934E+03  0.00000000000E+00 0.  1.
          2   -1    0    0  502    0  0.00000000000E+00 -0.00000000000E+00 -0.28080107479E+03  0.28080107479E+03  0.00000000000E+00 0. -1.
          6    1    1    2  502    0  0.44125335369E+03 -0.21310598074E+02  0.10392748597E+03  0.48532832812E+03  0.17200000000E+03 0. -1.
         -6    1    1    2    0  501 -0.44125335369E+03  0.21310598074E+02  0.53348711858E+03  0.71368842601E+03  0.17200000000E+03 0.  1.
</event>
<event>
 4    1  0.3169553E-002  0.1927828E+03  0.7818608E-02  0.1155975E+00
          2   -1    0    0  502    0  0.00000000000E+00  0.00000000000E+00  0.84369514453E+03  0.84369514453E+03  0.00000000000E+00 0. -1.
         -2   -1    0    0    0  501 -0.00000000000E+00 -0.00000000000E+00 -0.73179092451E+02  0.73179092451E+02  0.00000000000E+00 0.  1.
          6    1    1    2  502    0  0.71600254690E+01  0.86775235890E+02  0.96026329225E+02  0.21537470472E+03  0.17200000000E+03 0. -1.
         -6    1    1    2    0  501 -0.71600254690E+01 -0.86775235890E+02  0.67448972286E+03  0.70149953227E+03  0.17200000000E+03 0. -1.
</event>
<event>
 4    1  0.3169553E-002  0.1937671E+03  0.7818608E-02  0.1155107E+00
          4   -1    0    0  502    0  0.00000000000E+00  0.00000000000E+00  0.92177575228E+02  0.92177575228E+02  0.00000000000E+00 0. -1.
         -4   -1    0    0    0  501 -0.00000000000E+00 -0.00000000000E+00 -0.52325863829E+03  0.52325863829E+03  0.00000000000E+00 0.  1.
          6    1    1    2  502    0  0.29171257871E+02  0.84325190744E+02 -0.36038781864E+03  0.40917609889E+03  0.17200000000E+03 0.  1.
         -6    1    1    2    0  501 -0.29171257871E+02 -0.84325190744E+02 -0.70693244426E+02  0.20626011463E+03  0.17200000000E+03 0. -1.
</event>
<event>
 4    1  0.3169553E-002  0.1948851E+03  0.7818608E-02  0.1154128E+00
          1   -1    0    0  502    0  0.00000000000E+00  0.00000000000E+00  0.11480637639E+04  0.11480637639E+04  0.00000000000E+00 0. -1.
         -1   -1    0    0    0  501 -0.00000000000E+00 -0.00000000000E+00 -0.50236614101E+02  0.50236614101E+02  0.00000000000E+00 0.  1.
          6    1    1    2  502    0  0.89735623800E+02  0.18539225635E+02  0.89903336740E+03  0.91991368115E+03  0.17200000000E+03 0. -1.
         -6    1    1    2    0  501 -0.89735623800E+02 -0.18539225635E+02  0.19879378241E+03  0.27838669686E+03  0.17200000000E+03 0.  1.
</event>
<event>
 4    1  0.3169553E-002  0.1791493E+03  0.7818608E-02  0.1168629E+00
          1   -1    0    0  502    0  0.00000000000E+00  0.00000000000E+00  0.51753673735E+02  0.51753673735E+02  0.00000000000E+00 0. -1.
         -1   -1    0    0    0  501 -0.00000000000E+00 -0.00000000000E+00 -0.73208495916E+03  0.73208495916E+03  0.00000000000E+00 0.  1.
          6    1    1    2  502    0 -0.52971955626E-01  0.50104457821E+02 -0.18690854862E+03  0.25890010631E+03  0.17200000000E+03 0. -1.
         -6    1    1    2    0  501  0.52971955626E-01 -0.50104457821E+02 -0.49342273680E+03  0.52493852659E+03  0.17200000000E+03 0.  1.
</event>
<event>
 4    1  0.3169553E-002  0.1949015E+03  0.7818608E-02  0.1154113E+00
          1   -1    0    0  502    0  0.00000000000E+00  0.00000000000E+00  0.82817733676E+03  0.82817733676E+03  0.00000000000E+00 0. -1.
         -1   -1    0    0    0  501 -0.00000000000E+00 -0.00000000000E+00 -0.62098043500E+02  0.62098043500E+02  0.00000000000E+00 0.  1.
          6    1    1    2  502    0  0.90773461431E+02  0.12757711466E+02  0.61061195374E+03  0.64096297752E+03  0.17200000000E+03 0. -1.
         -6    1    1    2    0  501 -0.90773461431E+02 -0.12757711466E+02  0.15546733952E+03  0.24931240274E+03  0.17200000000E+03 0.  1.
</event>
<event>
 4    1  0.3169553E-002  0.1873342E+03  0.7818608E-02  0.1160888E+00
          1   -1    0    0  502    0  0.00000000000E+00  0.00000000000E+00  0.18214304369E+03  0.18214304369E+03  0.00000000000E+00 0. -1.
         -1   -1    0    0    0  501 -0.00000000000E+00 -0.00000000000E+00 -0.19520435146E+03  0.19520435146E+03  0.00000000000E+00 0.  1.
          6    1    1    2  502    0  0.40902819611E+02  0.61944039423E+02 -0.28014672129E+02  0.18941733428E+03  0.17200000000E+03 0.  1.
         -6    1    1    2    0  501 -0.40902819611E+02 -0.61944039423E+02  0.14953364367E+02  0.18793006087E+03  0.17200000000E+03 0.  1.
</event>
<event>
 4    1  0.3169553E-002  0.2741404E+03  0.7818608E-02  0.1098933E+00
          1   -1    0    0  502    0  0.00000000000E+00  0.00000000000E+00  0.95359969451E+03  0.95359969451E+03  0.00000000000E+00 0. -1.
         -1   -1    0    0    0  501 -0.00000000000E+00 -0.00000000000E+00 -0.82837824489E+02  0.82837824489E+02  0.00000000000E+00 0.  1.
          6    1    1    2  502    0 -0.21144744701E+03 -0.29307797733E+02  0.54965471971E+03  0.61422575716E+03  0.17200000000E+03 0. -1.
         -6    1    1    2    0  501  0.21144744701E+03  0.29307797733E+02  0.32110715031E+03  0.42221176184E+03  0.17200000000E+03 0.  1.
</event>
<event>
 4    1  0.3169553E-002  0.2086330E+03  0.7818608E-02  0.1142653E+00
          2   -1    0    0  502    0  0.00000000000E+00  0.00000000000E+00  0.95753697216E+03  0.95753697216E+03  0.00000000000E+00 0. -1.
         -2   -1    0    0    0  501 -0.00000000000E+00 -0.00000000000E+00 -0.48006483233E+02  0.48006483233E+02  0.00000000000E+00 0.  1.
          6    1    1    2  502    0  0.11579959514E+03  0.23112833035E+02  0.33892517699E+03  0.39799249350E+03  0.17200000000E+03 0. -1.
         -6    1    1    2    0  501 -0.11579959514E+03 -0.23112833035E+02  0.57060531194E+03  0.60755096189E+03  0.17200000000E+03 0.  1.
</event>
<event>
 4    1  0.3169553E-002  0.4850664E+03  0.7818608E-02  0.1017752E+00
          1   -1    0    0  502    0  0.00000000000E+00  0.00000000000E+00  0.45038372758E+03  0.45038372758E+03  0.00000000000E+00 0. -1.
         -1   -1    0    0    0  501 -0.00000000000E+00 -0.00000000000E+00 -0.52302158332E+03  0.52302158332E+03  0.00000000000E+00 0.  1.
          6    1    1    2  502    0  0.45045872473E+03  0.52842277704E+02 -0.19809565540E+02  0.48547068695E+03  0.17200000000E+03 0. -1.
         -6    1    1    2    0  501 -0.45045872473E+03 -0.52842277704E+02 -0.52828290208E+02  0.48793462395E+03  0.17200000000E+03 0. -1.
</event>
<event>
 4    1  0.3169553E-002  0.2521789E+03  0.7818608E-02  0.1111935E+00
          2   -1    0    0  502    0  0.00000000000E+00  0.00000000000E+00  0.11995702736E+04  0.11995702736E+04  0.00000000000E+00 0. -1.
         -2   -1    0    0    0  501 -0.00000000000E+00 -0.00000000000E+00 -0.25356125091E+03  0.25356125091E+03  0.00000000000E+00 0.  1.
          6    1    1    2  502    0 -0.11940110206E+03  0.14054747051E+03  0.11191668854E+04  0.11472265391E+04  0.17200000000E+03 0. -1.
         -6    1    1    2    0  501  0.11940110206E+03 -0.14054747051E+03 -0.17315786275E+03  0.30590498537E+03  0.17200000000E+03 0.  1.
</event>
<event>
 4    1  0.3169553E-002  0.2262930E+03  0.7818608E-02  0.1129276E+00
          1   -1    0    0  502    0  0.00000000000E+00  0.00000000000E+00  0.81037625092E+02  0.81037625092E+02  0.00000000000E+00 0. -1.
         -1   -1    0    0    0  501 -0.00000000000E+00 -0.00000000000E+00 -0.92999459996E+03  0.92999459996E+03  0.00000000000E+00 0.  1.
          6    1    1    2  502    0  0.73251768780E+02 -0.12750956945E+03 -0.13828198442E+03  0.26519882946E+03  0.17200000000E+03 0. -1.
         -6    1    1    2    0  501 -0.73251768780E+02  0.12750956945E+03 -0.71067499045E+03  0.74583339559E+03  0.17200000000E+03 0.  1.
</event>
<event>
 4    1  0.3169553E-002  0.4332240E+03  0.7818608E-02  0.1032846E+00
          2   -1    0    0  502    0  0.00000000000E+00  0.00000000000E+00  0.28049075837E+04  0.28049075837E+04  0.00000000000E+00 0. -1.
         -2   -1    0    0    0  501 -0.00000000000E+00 -0.00000000000E+00 -0.67028466210E+02  0.67028466210E+02  0.00000000000E+00 0.  1.
          6    1    1    2  502    0 -0.36892957052E+03 -0.14829020266E+03  0.14287015944E+04  0.14929404737E+04  0.17200000000E+03 0. -1.
         -6    1    1    2    0  501  0.36892957052E+03  0.14829020266E+03  0.13091775232E+04  0.13789955763E+04  0.17200000000E+03 0.  1.
</event>
<event>
 4    1  0.3169553E-002  0.2160604E+03  0.7818608E-02  0.1136855E+00
         -2   -1    0    0    0  501 -0.00000000000E+00  0.00000000000E+00  0.66887525895E+02  0.66887525895E+02  0.00000000000E+00 0.  1.
          2   -1    0    0  502    0  0.00000000000E+00 -0.00000000000E+00 -0.74299944431E+03  0.74299944431E+03  0.00000000000E+00 0. -1.
          6    1    1    2  502    0 -0.90192767251E+02  0.94675046032E+02 -0.23831064402E+03  0.32167384516E+03  0.17200000000E+03 0.  1.
         -6    1    1    2    0  501  0.90192767251E+02 -0.94675046032E+02 -0.43780127439E+03  0.48821312504E+03  0.17200000000E+03 0. -1.
</event>
<event>
 4    1  0.3169553E-002  0.2334681E+03  0.7818608E-02  0.1124222E+00
          2   -1    0    0  502    0  0.00000000000E+00  0.00000000000E+00  0.14674153095E+03  0.14674153095E+03  0.00000000000E+00 0. -1.
         -2   -1    0    0    0  501 -0.00000000000E+00 -0.00000000000E+00 -0.45916557652E+03  0.45916557652E+03  0.00000000000E+00 0.  1.
          6    1    1    2  502    0 -0.81232071005E+02  0.13536874884E+03 -0.23800347991E+02  0.23467808608E+03  0.17200000000E+03 0. -1.
         -6    1    1    2    0  501  0.81232071005E+02 -0.13536874884E+03 -0.28862369758E+03  0.37122902140E+03  0.17200000000E+03 0.  1.
</event>
<event>
 4    1  0.3169553E-002  0.2001085E+03  0.7818608E-02  0.1149647E+00
          2   -1    0    0  502    0  0.00000000000E+00  0.00000000000E+00  0.76833700899E+03  0.76833700899E+03  0.00000000000E+00 0. -1.
         -2   -1    0    0    0  501 -0.00000000000E+00 -0.00000000000E+00 -0.68720382713E+02  0.68720382713E+02  0.00000000000E+00 0.  1.
          6    1    1    2  502    0  0.66328582289E+02  0.77845588982E+02  0.55553034339E+03  0.59047216614E+03  0.17200000000E+03 0. -1.
         -6    1    1    2    0  501 -0.66328582289E+02 -0.77845588982E+02  0.14408628289E+03  0.24658522557E+03  0.17200000000E+03 0.  1.
</event>
<event>
 4    1  0.3169553E-002  0.3070779E+03  0.7818608E-02  0.1081755E+00
         -1   -1    0    0    0  501 -0.00000000000E+00  0.00000000000E+00  0.54023219655E+02  0.54023219655E+02  0.00000000000E+00 0.  1.
          1   -1    0    0  502    0  0.00000000000E+00 -0.00000000000E+00 -0.20366081461E+04  0.20366081461E+04  0.00000000000E+00 0. -1.
          6    1    1    2  502    0  0.23645999427E+03  0.93805728548E+02 -0.13865047003E+04  0.14201028581E+04  0.17200000000E+03 0. -1.
         -6    1    1    2    0  501 -0.23645999427E+03 -0.93805728548E+02 -0.59608022620E+03  0.67052850772E+03  0.17200000000E+03 0.  1.
</event>
<event>
 4    1  0.3169553E-002  0.2408885E+03  0.7818608E-02  0.1119202E+00
         -2   -1    0    0    0  501 -0.00000000000E+00  0.00000000000E+00  0.24938082512E+02  0.24938082512E+02  0.00000000000E+00 0.  1.
          2   -1    0    0  502    0  0.00000000000E+00 -0.00000000000E+00 -0.25511922907E+04  0.25511922907E+04  0.00000000000E+00 0. -1.
          6    1    1    2  502    0 -0.53791583183E+02  0.15984285321E+03 -0.88116688038E+03  0.91350005103E+03  0.17200000000E+03 0. -1.
         -6    1    1    2    0  501  0.53791583183E+02 -0.15984285321E+03 -0.16450873278E+04  0.16626303222E+04  0.17200000000E+03 0.  1.
</event>
<event>
 4    1  0.3169553E-002  0.2760583E+03  0.7818608E-02  0.1097862E+00
          2   -1    0    0  502    0  0.00000000000E+00  0.00000000000E+00  0.14573943516E+03  0.14573943516E+03  0.00000000000E+00 0. -1.
         -2   -1    0    0    0  501 -0.00000000000E+00 -0.00000000000E+00 -0.68810416723E+03  0.68810416723E+03  0.00000000000E+00 0.  1.
          6    1    1    2  502    0 -0.14517398495E+03  0.15983952291E+03 -0.66900923502E+02  0.28404910237E+03  0.17200000000E+03 0. -1.
         -6    1    1    2    0  501  0.14517398495E+03 -0.15983952291E+03 -0.47546380857E+03  0.54979450002E+03  0.17200000000E+03 0.  1.
</event>
<event>
 4    1  0.3169553E-002  0.1784907E+03  0.7818608E-02  0.1169272E+00
         -3   -1    0    0    0  501 -0.00000000000E+00  0.00000000000E+00  0.99496597792E+02  0.99496597792E+02  0.00000000000E+00 0.  1.
          3   -1    0    0  502    0  0.00000000000E+00 -0.00000000000E+00 -0.39020071554E+03  0.39020071554E+03  0.00000000000E+00 0. -1.
          6    1    1    2  502    0 -0.36385102677E+02 -0.30838906705E+02 -0.24905754115E+03  0.30641242251E+03  0.17200000000E+03 0. -1.
         -6    1    1    2    0  501  0.36385102677E+02  0.30838906705E+02 -0.41646576605E+02  0.18328489083E+03  0.17200000000E+03 0.  1.
</event>
<event>
 4    1  0.3169553E-002  0.2631029E+03  0.7818608E-02  0.1105293E+00
          2   -1    0    0  502    0  0.00000000000E+00  0.00000000000E+00  0.16670548562E+04  0.16670548562E+04  0.00000000000E+00 0. -1.
         -2   -1    0    0    0  501 -0.00000000000E+00 -0.00000000000E+00 -0.41689651447E+02  0.41689651447E+02  0.00000000000E+00 0.  1.
          6    1    1    2  502    0 -0.31458154599E+02  0.19659486265E+03  0.75886309146E+03  0.80317890105E+03  0.17200000000E+03 0. -1.
         -6    1    1    2    0  501  0.31458154599E+02 -0.19659486265E+03  0.86650211328E+03  0.90556560659E+03  0.17200000000E+03 0.  1.
</event>
<event>
 4    1  0.3169553E-002  0.1800864E+03  0.7818608E-02  0.1167719E+00
         -2   -1    0    0    0  501 -0.00000000000E+00  0.00000000000E+00  0.13607038610E+03  0.13607038610E+03  0.00000000000E+00 0.  1.
          2   -1    0    0  502    0  0.00000000000E+00 -0.00000000000E+00 -0.30409308103E+03  0.30409308103E+03  0.00000000000E+00 0. -1.
          6    1    1    2  502    0 -0.42147863249E+02 -0.32721097231E+02 -0.18634923178E+03  0.25914696364E+03  0.17200000000E+03 0.  1.
         -6    1    1    2    0  501  0.42147863249E+02  0.32721097231E+02  0.18326536843E+02  0.18101650348E+03  0.17200000000E+03 0.  1.
</event>
<event>
 4    1  0.3169553E-002  0.2057710E+03  0.7818608E-02  0.1144959E+00
         -2   -1    0    0    0  501 -0.00000000000E+00  0.00000000000E+00  0.28779792283E+02  0.28779792283E+02  0.00000000000E+00 0.  1.
          2   -1    0    0  502    0  0.00000000000E+00 -0.00000000000E+00 -0.17629535697E+04  0.17629535697E+04  0.00000000000E+00 0. -1.
          6    1    1    2  502    0 -0.10442440151E+02 -0.11246621565E+03 -0.12315123365E+04  0.12485849307E+04  0.17200000000E+03 0. -1.
         -6    1    1    2    0  501  0.10442440151E+02  0.11246621565E+03 -0.50266144089E+03  0.54314843126E+03  0.17200000000E+03 0.  1.
</event>
<event>
 4    1  0.3169553E-002  0.2864878E+03  0.7818608E-02  0.1092197E+00
          2   -1    0    0  502    0  0.00000000000E+00  0.00000000000E+00  0.48845027333E+03  0.48845027333E+03  0.00000000000E+00 0. -1.
         -2   -1    0    0    0  501 -0.00000000000E+00 -0.00000000000E+00 -0.19006250895E+03  0.19006250895E+03  0.00000000000E+00 0.  1.
          6    1    1    2  502    0  0.88148978894E+02 -0.21147348420E+03  0.26469656203E+03  0.39005069793E+03  0.17200000000E+03 0. -1.
         -6    1    1    2    0  501 -0.88148978894E+02  0.21147348420E+03  0.33691202344E+02  0.28846208436E+03  0.17200000000E+03 0.  1.
</event>
<event>
 4    1  0.3169553E-002  0.2528308E+03  0.7818608E-02  0.1111529E+00
          1   -1    0    0  502    0  0.00000000000E+00  0.00000000000E+00  0.66044734912E+03  0.66044734912E+03  0.00000000000E+00 0. -1.
         -1   -1    0    0    0  501 -0.00000000000E+00 -0.00000000000E+00 -0.11146641517E+03  0.11146641517E+03  0.00000000000E+00 0.  1.
          6    1    1    2  502    0  0.10520075727E+03 -0.15255232763E+03  0.41454771705E+03  0.48556484810E+03  0.17200000000E+03 0. -1.
         -6    1    1    2    0  501 -0.10520075727E+03  0.15255232763E+03  0.13443321690E+03  0.28634891619E+03  0.17200000000E+03 0.  1.
</event>
<event>
 4    1  0.3169553E-002  0.4125921E+03  0.7818608E-02  0.1039505E+00
         -2   -1    0    0    0  501 -0.00000000000E+00  0.00000000000E+00  0.17366587611E+03  0.17366587611E+03  0.00000000000E+00 0.  1.
          2   -1    0    0  502    0  0.00000000000E+00 -0.00000000000E+00 -0.10225731109E+04  0.10225731109E+04  0.00000000000E+00 0. -1.
          6    1    1    2  502    0 -0.24590216227E+03 -0.28316132719E+03 -0.30273955721E+03  0.51174549351E+03  0.17200000000E+03 0. -1.
         -6    1    1    2    0  501  0.24590216227E+03  0.28316132719E+03 -0.54616767763E+03  0.68449349355E+03  0.17200000000E+03 0.  1.
</event>
<event>
 4    1  0.3169553E-002  0.1896003E+03  0.7818608E-02  0.1158822E+00
          2   -1    0    0  502    0  0.00000000000E+00  0.00000000000E+00  0.61056883306E+03  0.61056883306E+03  0.00000000000E+00 0. -1.
         -2   -1    0    0    0  501 -0.00000000000E+00 -0.00000000000E+00 -0.64379714947E+02  0.64379714947E+02  0.00000000000E+00 0.  1.
          6    1    1    2  502    0 -0.79644953588E+02  0.45759043184E+01  0.37176062606E+03  0.41731788917E+03  0.17200000000E+03 0. -1.
         -6    1    1    2    0  501  0.79644953588E+02 -0.45759043184E+01  0.17442849204E+03  0.25763065883E+03  0.17200000000E+03 0.  1.
</event>
<event>
 4    1  0.3169553E-002  0.1998101E+03  0.7818608E-02  0.1149899E+00
          1   -1    0    0  502    0  0.00000000000E+00  0.00000000000E+00  0.64186924853E+02  0.64186924853E+02  0.00000000000E+00 0. -1.
         -1   -1    0    0    0  501 -0.00000000000E+00 -0.00000000000E+00 -0.64469124428E+03  0.64469124428E+03  0.00000000000E+00 0.  1.
          6    1    1    2  502    0 -0.97775215348E+02 -0.27930144958E+02 -0.22375211494E+03  0.29998182390E+03  0.17200000000E+03 0. -1.
         -6    1    1    2    0  501  0.97775215348E+02  0.27930144958E+02 -0.35675220449E+03  0.40889634523E+03  0.17200000000E+03 0.  1.
</event>
<event>
 4    1  0.3169553E-002  0.1960447E+03  0.7818608E-02  0.1153120E+00
          1   -1    0    0  502    0  0.00000000000E+00  0.00000000000E+00  0.32228736555E+02  0.32228736555E+02  0.00000000000E+00 0. -1.
         -1   -1    0    0    0  501 -0.00000000000E+00 -0.00000000000E+00 -0.12736826608E+04  0.12736826608E+04  0.00000000000E+00 0.  1.
          6    1    1    2  502    0 -0.37636391792E+02  0.86215079966E+02 -0.78555111500E+03  0.80964442336E+03  0.17200000000E+03 0.  1.
         -6    1    1    2    0  501  0.37636391792E+02 -0.86215079966E+02 -0.45590280925E+03  0.49626697400E+03  0.17200000000E+03 0.  1.
</event>
<event>
 4    1  0.3169553E-002  0.2073084E+03  0.7818608E-02  0.1143715E+00
          4   -1    0    0  502    0  0.00000000000E+00  0.00000000000E+00  0.86360239071E+02  0.86360239071E+02  0.00000000000E+00 0. -1.
         -4   -1    0    0    0  501 -0.00000000000E+00 -0.00000000000E+00 -0.52113939180E+03  0.52113939180E+03  0.00000000000E+00 0.  1.
          6    1    1    2  502    0 -0.11316325365E+03 -0.24224822004E+02 -0.28188349042E+03  0.34990722506E+03  0.17200000000E+03 0.  1.
         -6    1    1    2    0  501  0.11316325365E+03  0.24224822004E+02 -0.15289566230E+03  0.25759240580E+03  0.17200000000E+03 0. -1.
</event>
<event>
 4    1  0.3169553E-002  0.1979728E+03  0.7818608E-02  0.1151461E+00
         -1   -1    0    0    0  501 -0.00000000000E+00  0.00000000000E+00  0.22103744460E+03  0.22103744460E+03  0.00000000000E+00 0.  1.
          1   -1    0    0  502    0  0.00000000000E+00 -0.00000000000E+00 -0.18612956557E+03  0.18612956557E+03  0.00000000000E+00 0. -1.
          6    1    1    2  502    0  0.81385938433E+02 -0.54640246212E+02  0.61757473682E+02  0.20738180498E+03  0.17200000000E+03 0.  1.
         -6    1    1    2    0  501 -0.81385938433E+02  0.54640246212E+02 -0.26849594655E+02  0.19978520519E+03  0.17200000000E+03 0. -1.
</event>
<event>
 4    1  0.3169553E-002  0.2179944E+03  0.7818608E-02  0.1135387E+00
         -2   -1    0    0    0  501 -0.00000000000E+00  0.00000000000E+00  0.93770105447E+02  0.93770105447E+02  0.00000000000E+00 0.  1.
          2   -1    0    0  502    0  0.00000000000E+00 -0.00000000000E+00 -0.60400464062E+03  0.60400464062E+03  0.00000000000E+00 0. -1.
          6    1    1    2  502    0  0.10194846864E+03  0.86856712843E+02 -0.39508730236E+03  0.45123780350E+03  0.17200000000E+03 0. -1.
         -6    1    1    2    0  501 -0.10194846864E+03 -0.86856712843E+02 -0.11514723281E+03  0.24653694256E+03  0.17200000000E+03 0.  1.
</event>
<event>
 4    1  0.3169553E-002  0.6614030E+03  0.7818608E-02  0.9785614E-01
          2   -1    0    0  502    0  0.00000000000E+00  0.00000000000E+00  0.91371128362E+03  0.91371128362E+03  0.00000000000E+00 0. -1.
         -2   -1    0    0    0  501 -0.00000000000E+00 -0.00000000000E+00 -0.60414961734E+03  0.60414961734E+03  0.00000000000E+00 0.  1.
          6    1    1    2  502    0 -0.63861948020E+03  0.59224058245E+01  0.50052119928E+03  0.82944281678E+03  0.17200000000E+03 0. -1.
         -6    1    1    2    0  501  0.63861948020E+03 -0.59224058245E+01 -0.19095953300E+03  0.68841808418E+03  0.17200000000E+03 0.  1.
</event>
<event>
 4    1  0.3169553E-002  0.2220820E+03  0.7818608E-02  0.1132340E+00
          2   -1    0    0  502    0  0.00000000000E+00  0.00000000000E+00  0.21307455115E+03  0.21307455115E+03  0.00000000000E+00 0. -1.
         -2   -1    0    0    0  501 -0.00000000000E+00 -0.00000000000E+00 -0.29228306110E+03  0.29228306110E+03  0.00000000000E+00 0.  1.
          6    1    1    2  502    0 -0.88934719083E+02 -0.10875207244E+03  0.75652105860E+02  0.23461380744E+03  0.17200000000E+03 0. -1.
         -6    1    1    2    0  501  0.88934719083E+02  0.10875207244E+03 -0.15486061581E+03  0.27074380482E+03  0.17200000000E+03 0.  1.
</event>
<event>
 4    1  0.3169553E-002  0.1924404E+03  0.7818608E-02  0.1156278E+00
         -1   -1    0    0    0  501 -0.00000000000E+00  0.00000000000E+00  0.25562013916E+03  0.25562013916E+03  0.00000000000E+00 0.  1.
          1   -1    0    0  502    0  0.00000000000E+00 -0.00000000000E+00 -0.45135434359E+03  0.45135434359E+03  0.00000000000E+00 0. -1.
          6    1    1    2  502    0  0.52058245475E+02  0.68842158733E+02 -0.38914974276E+03  0.43413226789E+03  0.17200000000E+03 0. -1.
         -6    1    1    2    0  501 -0.52058245475E+02 -0.68842158733E+02  0.19341553833E+03  0.27284221486E+03  0.17200000000E+03 0.  1.
</event>
<event>
 4    1  0.3169553E-002  0.3784306E+03  0.7818608E-02  0.1051515E+00
         -2   -1    0    0    0  501 -0.00000000000E+00  0.00000000000E+00  0.72970082090E+03  0.72970082090E+03  0.00000000000E+00 0.  1.
          2   -1    0    0  502    0  0.00000000000E+00 -0.00000000000E+00 -0.28909636357E+03  0.28909636357E+03  0.00000000000E+00 0. -1.
          6    1    1    2  502    0 -0.30586827413E+03  0.14166969370E+03 -0.68366612929E+02  0.38455649389E+03  0.17200000000E+03 0. -1.
         -6    1    1    2    0  501  0.30586827413E+03 -0.14166969370E+03  0.50897107026E+03  0.63424069058E+03  0.17200000000E+03 0.  1.
</event>
<event>
 4    1  0.3169553E-002  0.2473632E+03  0.7818608E-02  0.1114983E+00
          2   -1    0    0  502    0  0.00000000000E+00  0.00000000000E+00  0.11383774363E+04  0.11383774363E+04  0.00000000000E+00 0. -1.
         -2   -1    0    0    0  501 -0.00000000000E+00 -0.00000000000E+00 -0.66736597240E+02  0.66736597240E+02  0.00000000000E+00 0.  1.
          6    1    1    2  502    0  0.47707659597E+02 -0.17125574514E+03  0.27002188333E+03  0.36619717162E+03  0.17200000000E+03 0.  1.
         -6    1    1    2    0  501 -0.47707659597E+02  0.17125574514E+03  0.80161895576E+03  0.83891686195E+03  0.17200000000E+03 0.  1.
</event>
<event>
 4    1  0.3169553E-002  0.1844497E+03  0.7818608E-02  0.1163565E+00
         -2   -1    0    0    0  501 -0.00000000000E+00  0.00000000000E+00  0.12308531626E+03  0.12308531626E+03  0.00000000000E+00 0.  1.
          2   -1    0    0  502    0  0.00000000000E+00 -0.00000000000E+00 -0.47921237583E+03  0.47921237583E+03  0.00000000000E+00 0. -1.
          6    1    1    2  502    0  0.16544844559E+02 -0.64528700875E+02 -0.37397350776E+03  0.41698665401E+03  0.17200000000E+03 0. -1.
         -6    1    1    2    0  501 -0.16544844559E+02  0.64528700875E+02  0.17846448190E+02  0.18531103807E+03  0.17200000000E+03 0.  1.
</event>
<event>
 4    1  0.3169553E-002  0.1749444E+03  0.7818608E-02  0.1172788E+00
          3   -1    0    0  502    0  0.00000000000E+00  0.00000000000E+00  0.12367935768E+03  0.12367935768E+03  0.00000000000E+00 0. -1.
         -3   -1    0    0    0  501 -0.00000000000E+00 -0.00000000000E+00 -0.39676958469E+03  0.39676958469E+03  0.00000000000E+00 0.  1.
          6    1    1    2  502    0 -0.14493502947E+02 -0.28486425830E+02  0.23088602571E+02  0.17646138856E+03  0.17200000000E+03 0. -1.
         -6    1    1    2    0  501  0.14493502947E+02  0.28486425830E+02 -0.29617882958E+03  0.34398755381E+03  0.17200000000E+03 0.  1.
</event>
<event>
 4    1  0.3169553E-002  0.2368480E+03  0.7818608E-02  0.1121911E+00
          1   -1    0    0  502    0  0.00000000000E+00  0.00000000000E+00  0.71837272454E+03  0.71837272454E+03  0.00000000000E+00 0. -1.
         -1   -1    0    0    0  501 -0.00000000000E+00 -0.00000000000E+00 -0.14998494866E+03  0.14998494866E+03  0.00000000000E+00 0.  1.
          6    1    1    2  502    0 -0.28035819588E+02  0.16039624413E+03  0.58479958791E+03  0.63094177254E+03  0.17200000000E+03 0. -1.
         -6    1    1    2    0  501  0.28035819588E+02 -0.16039624413E+03 -0.16411812029E+02  0.23741590066E+03  0.17200000000E+03 0.  1.
</event>
<event>
 4    1  0.3169553E-002  0.6505831E+03  0.7818608E-02  0.9805686E-01
         -2   -1    0    0    0  501 -0.00000000000E+00  0.00000000000E+00  0.42186056420E+03  0.42186056420E+03  0.00000000000E+00 0.  1.
          2   -1    0    0  502    0  0.00000000000E+00 -0.00000000000E+00 -0.10659742466E+04  0.10659742466E+04  0.00000000000E+00 0. -1.
          6    1    1    2  502    0  0.57951715462E+03 -0.24048753538E+03 -0.50242058657E+03  0.82200050668E+03  0.17200000000E+03 0. -1.
         -6    1    1    2    0  501 -0.57951715462E+03  0.24048753538E+03 -0.14169309587E+03  0.66583430416E+03  0.17200000000E+03 0.  1.
</event>
<event>
 4    1  0.3169553E-002  0.1998929E+03  0.7818608E-02  0.1149829E+00
          2   -1    0    0  502    0  0.00000000000E+00  0.00000000000E+00  0.87220942197E+03  0.87220942197E+03  0.00000000000E+00 0. -1.
         -2   -1    0    0    0  501 -0.00000000000E+00 -0.00000000000E+00 -0.72703425363E+02  0.72703425363E+02  0.00000000000E+00 0.  1.
          6    1    1    2  502    0 -0.94842786246E+02  0.37121874066E+02  0.68709266782E+03  0.71557915132E+03  0.17200000000E+03 0. -1.
         -6    1    1    2    0  501  0.94842786246E+02 -0.37121874066E+02  0.11241332879E+03  0.22933369601E+03  0.17200000000E+03 0.  1.
</event>
<event>
 4    1  0.3169553E-002  0.1875973E+03  0.7818608E-02  0.1160646E+00
          2   -1    0    0  502    0  0.00000000000E+00  0.00000000000E+00  0.83567862715E+03  0.83567862715E+03  0.00000000000E+00 0. -1.
         -2   -1    0    0    0  501 -0.00000000000E+00 -0.00000000000E+00 -0.56933441399E+02  0.56933441399E+02  0.00000000000E+00 0.  1.
          6    1    1    2  502    0 -0.55472920992E+02  0.50313934837E+02  0.61708309679E+03  0.64496843748E+03  0.17200000000E+03 0. -1.
         -6    1    1    2    0  501  0.55472920992E+02 -0.50313934837E+02  0.16166208896E+03  0.24764363107E+03  0.17200000000E+03 0.  1.
</event>
<event>
 4    1  0.3169553E-002  0.1940283E+03  0.7818608E-02  0.1154877E+00
         -2   -1    0    0    0  501 -0.00000000000E+00  0.00000000000E+00  0.14224187943E+03  0.14224187943E+03  0.00000000000E+00 0.  1.
          2   -1    0    0  502    0  0.00000000000E+00 -0.00000000000E+00 -0.27061312684E+03  0.27061312684E+03  0.00000000000E+00 0. -1.
          6    1    1    2  502    0 -0.77812456273E+02  0.44812928614E+02 -0.33590853425E+02  0.19691450519E+03  0.17200000000E+03 0.  1.
         -6    1    1    2    0  501  0.77812456273E+02 -0.44812928614E+02 -0.94780393981E+02  0.21594050108E+03  0.17200000000E+03 0. -1.
</event>
<event>
 4    1  0.3169553E-002  0.1774230E+03  0.7818608E-02  0.1170321E+00
          2   -1    0    0  502    0  0.00000000000E+00  0.00000000000E+00  0.15549574391E+03  0.15549574391E+03  0.00000000000E+00 0. -1.
         -2   -1    0    0    0  501 -0.00000000000E+00 -0.00000000000E+00 -0.28820583190E+03  0.28820583190E+03  0.00000000000E+00 0.  1.
          6    1    1    2  502    0  0.10340670056E+02  0.42284624180E+02 -0.18737608251E+03  0.25804789322E+03  0.17200000000E+03 0.  1.
         -6    1    1    2    0  501 -0.10340670056E+02 -0.42284624180E+02  0.54665994524E+02  0.18565368258E+03  0.17200000000E+03 0. -1.
</event>
<event>
 4    1  0.3169553E-002  0.1813622E+03  0.7818608E-02  0.1166491E+00
          1   -1    0    0  502    0  0.00000000000E+00  0.00000000000E+00  0.92120419264E+03  0.92120419264E+03  0.00000000000E+00 0. -1.
         -1   -1    0    0    0  501 -0.00000000000E+00 -0.00000000000E+00 -0.35733011433E+02  0.35733011433E+02  0.00000000000E+00 0.  1.
          6    1    1    2  502    0  0.12812638401E+02 -0.56071984032E+02  0.42950520857E+03  0.46622629193E+03  0.17200000000E+03 0.  1.
         -6    1    1    2    0  501 -0.12812638401E+02  0.56071984032E+02  0.45596597264E+03  0.49071091215E+03  0.17200000000E+03 0. -1.
</event>
<event>
 4    1  0.3169553E-002  0.1731708E+03  0.7818608E-02  0.1174581E+00
         -1   -1    0    0    0  501 -0.00000000000E+00  0.00000000000E+00  0.20333102506E+02  0.20333102506E+02  0.00000000000E+00 0.  1.
          1   -1    0    0  502    0  0.00000000000E+00 -0.00000000000E+00 -0.17016090998E+04  0.17016090998E+04  0.00000000000E+00 0. -1.
          6    1    1    2  502    0  0.72275141112E+01  0.18758601266E+02 -0.11549408323E+04  0.11678512098E+04  0.17200000000E+03 0. -1.
         -6    1    1    2    0  501 -0.72275141112E+01 -0.18758601266E+02 -0.52633516496E+03  0.55409099248E+03  0.17200000000E+03 0. -1.
</event>
<event>
 4    1  0.3169553E-002  0.2092054E+03  0.7818608E-02  0.1142197E+00
         -1   -1    0    0    0  501 -0.00000000000E+00  0.00000000000E+00  0.54933208226E+02  0.54933208226E+02  0.00000000000E+00 0.  1.
          1   -1    0    0  502    0  0.00000000000E+00 -0.00000000000E+00 -0.80596582808E+03  0.80596582808E+03  0.00000000000E+00 0. -1.
          6    1    1    2  502    0  0.11553690816E+03 -0.28881208680E+02 -0.42159670820E+03  0.47064921728E+03  0.17200000000E+03 0. -1.
         -6    1    1    2    0  501 -0.11553690816E+03  0.28881208680E+02 -0.32943591166E+03  0.39024981903E+03  0.17200000000E+03 0. -1.
</event>
<event>
 4    1  0.3169553E-002  0.4800020E+03  0.7818608E-02  0.1019135E+00
         -2   -1    0    0    0  501 -0.00000000000E+00  0.00000000000E+00  0.10161011097E+04  0.10161011097E+04  0.00000000000E+00 0.  1.
          2   -1    0    0  502    0  0.00000000000E+00 -0.00000000000E+00 -0.46625751161E+03  0.46625751161E+03  0.00000000000E+00 0. -1.
          6    1    1    2  502    0  0.29054461065E+03 -0.34117704472E+03 -0.25629160659E+03  0.54413907618E+03  0.17200000000E+03 0. -1.
         -6    1    1    2    0  501 -0.29054461065E+03  0.34117704472E+03  0.80613520472E+03  0.93821954515E+03  0.17200000000E+03 0.  1.
</event>
<event>
 4    1  0.3169553E-002  0.2244401E+03  0.7818608E-02  0.1130615E+00
          2   -1    0    0  502    0  0.00000000000E+00  0.00000000000E+00  0.18894368355E+04  0.18894368355E+04  0.00000000000E+00 0. -1.
         -2   -1    0    0    0  501 -0.00000000000E+00 -0.00000000000E+00 -0.27620434135E+02  0.27620434135E+02  0.00000000000E+00 0.  1.
          6    1    1    2  502    0 -0.14095464330E+03 -0.30350440321E+02  0.75221543362E+03  0.78498498029E+03  0.17200000000E+03 0. -1.
         -6    1    1    2    0  501  0.14095464330E+03  0.30350440321E+02  0.11096009678E+04  0.11320722894E+04  0.17200000000E+03 0. -1.
</event>
<event>
 4    1  0.3169553E-002  0.1893206E+03  0.7818608E-02  0.1159076E+00
          2   -1    0    0  502    0  0.00000000000E+00  0.00000000000E+00  0.31310511501E+03  0.31310511501E+03  0.00000000000E+00 0. -1.
         -2   -1    0    0    0  501 -0.00000000000E+00 -0.00000000000E+00 -0.16957020331E+03  0.16957020331E+03  0.00000000000E+00 0.  1.
          6    1    1    2  502    0  0.44406040889E+02  0.65470435511E+02  0.20933395306E+03  0.28224630786E+03  0.17200000000E+03 0. -1.
         -6    1    1    2    0  501 -0.44406040889E+02 -0.65470435511E+02 -0.65799041365E+02  0.20042901047E+03  0.17200000000E+03 0.  1.
</event>
<event>
 4    1  0.3169553E-002  0.1756648E+03  0.7818608E-02  0.1172066E+00
          3   -1    0    0  502    0  0.00000000000E+00  0.00000000000E+00  0.62112606513E+03  0.62112606513E+03  0.00000000000E+00 0. -1.
         -3   -1    0    0    0  501 -0.00000000000E+00 -0.00000000000E+00 -0.56905866896E+02  0.56905866896E+02  0.00000000000E+00 0.  1.
          6    1    1    2  502    0  0.22158418644E+02 -0.27984088572E+02  0.16131218776E+03  0.23849470990E+03  0.17200000000E+03 0.  1.
         -6    1    1    2    0  501 -0.22158418644E+02  0.27984088572E+02  0.40290801047E+03  0.43953722213E+03  0.17200000000E+03 0.  1.
</event>
<event>
 4    1  0.3169553E-002  0.2115027E+03  0.7818608E-02  0.1140381E+00
         -2   -1    0    0    0  501 -0.00000000000E+00  0.00000000000E+00  0.13892269292E+02  0.13892269292E+02  0.00000000000E+00 0.  1.
          2   -1    0    0  502    0  0.00000000000E+00 -0.00000000000E+00 -0.36818354959E+04  0.36818354959E+04  0.00000000000E+00 0. -1.
          6    1    1    2  502    0  0.25645770840E+02  0.12038147249E+03 -0.24884139355E+04  0.24973860973E+04  0.17200000000E+03 0. -1.
         -6    1    1    2    0  501 -0.25645770840E+02 -0.12038147249E+03 -0.11795292912E+04  0.11983416680E+04  0.17200000000E+03 0.  1.
</event>
<event>
 4    1  0.3169553E-002  0.1958680E+03  0.7818608E-02  0.1153273E+00
         -2   -1    0    0    0  501 -0.00000000000E+00  0.00000000000E+00  0.13475821843E+03  0.13475821843E+03  0.00000000000E+00 0.  1.
          2   -1    0    0  502    0  0.00000000000E+00 -0.00000000000E+00 -0.37846514066E+03  0.37846514066E+03  0.00000000000E+00 0. -1.
          6    1    1    2  502    0  0.93303144137E+02  0.86474411544E+01  0.58810967532E+01  0.19595622532E+03  0.17200000000E+03 0. -1.
         -6    1    1    2    0  501 -0.93303144137E+02 -0.86474411544E+01 -0.24958801899E+03  0.31726713377E+03  0.17200000000E+03 0. -1.
</event>
<event>
 4    1  0.3169553E-002  0.1873837E+03  0.7818608E-02  0.1160842E+00
          2   -1    0    0  502    0  0.00000000000E+00  0.00000000000E+00  0.28447278808E+04  0.28447278808E+04  0.00000000000E+00 0. -1.
         -2   -1    0    0    0  501 -0.00000000000E+00 -0.00000000000E+00 -0.17923603390E+02  0.17923603390E+02  0.00000000000E+00 0.  1.
          6    1    1    2  502    0 -0.60838216793E+01 -0.74105607773E+02  0.22120658781E+04  0.22199883114E+04  0.17200000000E+03 0. -1.
         -6    1    1    2    0  501  0.60838216793E+01  0.74105607773E+02  0.61473839930E+03  0.64266317272E+03  0.17200000000E+03 0.  1.
</event>
<event>
 4    1  0.3169553E-002  0.2091740E+03  0.7818608E-02  0.1142222E+00
          2   -1    0    0  502    0  0.00000000000E+00  0.00000000000E+00  0.49126529048E+03  0.49126529048E+03  0.00000000000E+00 0. -1.
         -2   -1    0    0    0  501 -0.00000000000E+00 -0.00000000000E+00 -0.10301326897E+03  0.10301326897E+03  0.00000000000E+00 0.  1.
          6    1    1    2  502    0  0.88585249741E+02  0.79513598190E+02  0.84781120729E+02  0.22570245280E+03  0.17200000000E+03 0. -1.
         -6    1    1    2    0  501 -0.88585249741E+02 -0.79513598190E+02  0.30347090079E+03  0.36857610665E+03  0.17200000000E+03 0. -1.
</event>
<event>
 4    1  0.3169553E-002  0.2073078E+03  0.7818608E-02  0.1143716E+00
         -2   -1    0    0    0  501 -0.00000000000E+00  0.00000000000E+00  0.17699399962E+02  0.17699399962E+02  0.00000000000E+00 0.  1.
          2   -1    0    0  502    0  0.00000000000E+00 -0.00000000000E+00 -0.24830731265E+04  0.24830731265E+04  0.00000000000E+00 0. -1.
          6    1    1    2  502    0 -0.45766077299E+02  0.10629208846E+03 -0.10466991443E+04  0.10670312275E+04  0.17200000000E+03 0.  1.
         -6    1    1    2    0  501  0.45766077299E+02 -0.10629208846E+03 -0.14186745823E+04  0.14337412989E+04  0.17200000000E+03 0. -1.
</event>
<event>
 4    1  0.3169553E-002  0.2447582E+03  0.7818608E-02  0.1116663E+00
          2   -1    0    0  502    0  0.00000000000E+00  0.00000000000E+00  0.15202730002E+03  0.15202730002E+03  0.00000000000E+00 0. -1.
         -2   -1    0    0    0  501 -0.00000000000E+00 -0.00000000000E+00 -0.70254674410E+03  0.70254674410E+03  0.00000000000E+00 0.  1.
          6    1    1    2  502    0  0.66167308120E+02  0.16107292681E+03  0.78835572083E+01  0.24488517899E+03  0.17200000000E+03 0. -1.
         -6    1    1    2    0  501 -0.66167308120E+02 -0.16107292681E+03 -0.55840300129E+03  0.60968886513E+03  0.17200000000E+03 0.  1.
</event>
<event>
 4    1  0.3169553E-002  0.4824274E+03  0.7818608E-02  0.1018470E+00
         -2   -1    0    0    0  501 -0.00000000000E+00  0.00000000000E+00  0.19598621077E+03  0.19598621077E+03  0.00000000000E+00 0.  1.
          2   -1    0    0  502    0  0.00000000000E+00 -0.00000000000E+00 -0.11949818124E+04  0.11949818124E+04  0.00000000000E+00 0. -1.
          6    1    1    2  502    0 -0.29499027065E+03  0.34078286764E+03 -0.55448035725E+03  0.73497257719E+03  0.17200000000E+03 0.  1.
         -6    1    1    2    0  501  0.29499027065E+03 -0.34078286764E+03 -0.44451524434E+03  0.65599544595E+03  0.17200000000E+03 0.  1.
</event>
<event>
 4    1  0.3169553E-002  0.2873463E+03  0.7818608E-02  0.1091743E+00
          1   -1    0    0  502    0  0.00000000000E+00  0.00000000000E+00  0.10752927570E+04  0.10752927570E+04  0.00000000000E+00 0. -1.
         -1   -1    0    0    0  501 -0.00000000000E+00 -0.00000000000E+00 -0.29083756953E+03  0.29083756953E+03  0.00000000000E+00 0.  1.
          6    1    1    2  502    0 -0.10186838170E+03  0.20641395065E+03  0.97822495561E+03  0.10195547803E+04  0.17200000000E+03 0. -1.
         -6    1    1    2    0  501  0.10186838170E+03 -0.20641395065E+03 -0.19376976814E+03  0.34657554625E+03  0.17200000000E+03 0.  1.
</event>
<event>
 4    1  0.3169553E-002  0.2072671E+03  0.7818608E-02  0.1143749E+00
         -2   -1    0    0    0  501 -0.00000000000E+00  0.00000000000E+00  0.23366984439E+03  0.23366984439E+03  0.00000000000E+00 0.  1.
          2   -1    0    0  502    0  0.00000000000E+00 -0.00000000000E+00 -0.20147308782E+03  0.20147308782E+03  0.00000000000E+00 0. -1.
          6    1    1    2  502    0 -0.35839742536E+02  0.10995985711E+03  0.80450531224E+02  0.22233296043E+03  0.17200000000E+03 0.  1.
         -6    1    1    2    0  501  0.35839742536E+02 -0.10995985711E+03 -0.48253774655E+02  0.21280997178E+03  0.17200000000E+03 0. -1.
</event>
<event>
 4    1  0.3169553E-002  0.2376049E+03  0.7818608E-02  0.1121399E+00
          1   -1    0    0  502    0  0.00000000000E+00  0.00000000000E+00  0.92532424909E+03  0.92532424909E+03  0.00000000000E+00 0. -1.
         -1   -1    0    0    0  501 -0.00000000000E+00 -0.00000000000E+00 -0.61128848983E+02  0.61128848983E+02  0.00000000000E+00 0.  1.
          6    1    1    2  502    0 -0.16007423502E+03  0.35331547131E+02  0.41055291803E+03  0.47435195524E+03  0.17200000000E+03 0. -1.
         -6    1    1    2    0  501  0.16007423502E+03 -0.35331547131E+02  0.45364248208E+03  0.51210114283E+03  0.17200000000E+03 0.  1.
</event>
<event>
 4    1  0.3169553E-002  0.2131585E+03  0.7818608E-02  0.1139089E+00
          2   -1    0    0  502    0  0.00000000000E+00  0.00000000000E+00  0.48956130952E+03  0.48956130952E+03  0.00000000000E+00 0. -1.
         -2   -1    0    0    0  501 -0.00000000000E+00 -0.00000000000E+00 -0.19345223785E+03  0.19345223785E+03  0.00000000000E+00 0.  1.
          6    1    1    2  502    0 -0.11928428638E+03  0.40296230438E+02  0.39437533126E+03  0.44829502459E+03  0.17200000000E+03 0. -1.
         -6    1    1    2    0  501  0.11928428638E+03 -0.40296230438E+02 -0.98266259589E+02  0.23471852278E+03  0.17200000000E+03 0.  1.
</event>
<event>
 4    1  0.3169553E-002  0.1840066E+03  0.7818608E-02  0.1163981E+00
         -2   -1    0    0    0  501 -0.00000000000E+00  0.00000000000E+00  0.90189354680E+01  0.90189354680E+01  0.00000000000E+00 0.  1.
          2   -1    0    0  502    0  0.00000000000E+00 -0.00000000000E+00 -0.37561762986E+04  0.37561762986E+04  0.00000000000E+00 0. -1.
          6    1    1    2  502    0  0.45766670143E+02  0.46688697493E+02 -0.18298362679E+04  0.18390647595E+04  0.17200000000E+03 0. -1.
         -6    1    1    2    0  501 -0.45766670143E+02 -0.46688697493E+02 -0.19173210953E+04  0.19261304746E+04  0.17200000000E+03 0.  1.
</event>
<event>
 4    1  0.3169553E-002  0.1776099E+03  0.7818608E-02  0.1170136E+00
          2   -1    0    0  502    0  0.00000000000E+00  0.00000000000E+00  0.12657338194E+03  0.12657338194E+03  0.00000000000E+00 0. -1.
         -2   -1    0    0    0  501 -0.00000000000E+00 -0.00000000000E+00 -0.25979428024E+03  0.25979428024E+03  0.00000000000E+00 0.  1.
          6    1    1    2  502    0 -0.11883576117E+02  0.42662001136E+02 -0.27645302319E+02  0.17974851449E+03  0.17200000000E+03 0. -1.
         -6    1    1    2    0  501  0.11883576117E+02 -0.42662001136E+02 -0.10557559598E+03  0.20661914768E+03  0.17200000000E+03 0.  1.
</event>
<event>
 4    1  0.3169553E-002  0.2033582E+03  0.7818608E-02  0.1146936E+00
          2   -1    0    0  502    0  0.00000000000E+00  0.00000000000E+00  0.14302972768E+04  0.14302972768E+04  0.00000000000E+00 0. -1.
         -2   -1    0    0    0  501 -0.00000000000E+00 -0.00000000000E+00 -0.82483932296E+02  0.82483932296E+02  0.00000000000E+00 0.  1.
          6    1    1    2  502    0 -0.10089608552E+03 -0.39881381121E+02  0.12834787012E+04  0.12994891770E+04  0.17200000000E+03 0. -1.
         -6    1    1    2    0  501  0.10089608552E+03  0.39881381121E+02  0.64334643281E+02  0.21329203210E+03  0.17200000000E+03 0.  1.
</event>
<event>
 4    1  0.3169553E-002  0.2529053E+03  0.7818608E-02  0.1111482E+00
         -2   -1    0    0    0  501 -0.00000000000E+00  0.00000000000E+00  0.15392538942E+03  0.15392538942E+03  0.00000000000E+00 0.  1.
          2   -1    0    0  502    0  0.00000000000E+00 -0.00000000000E+00 -0.85258609061E+03  0.85258609061E+03  0.00000000000E+00 0. -1.
          6    1    1    2  502    0 -0.10798341666E+03 -0.15072054837E+03 -0.70964891512E+03  0.75336756282E+03  0.17200000000E+03 0. -1.
         -6    1    1    2    0  501  0.10798341666E+03  0.15072054837E+03  0.10988213930E+02  0.25314391721E+03  0.17200000000E+03 0.  1.
</event>
<event>
 4    1  0.3169553E-002  0.1929650E+03  0.7818608E-02  0.1155814E+00
         -1   -1    0    0    0  501 -0.00000000000E+00  0.00000000000E+00  0.73644501451E+03  0.73644501451E+03  0.00000000000E+00 0.  1.
          1   -1    0    0  502    0  0.00000000000E+00 -0.00000000000E+00 -0.55767192984E+02  0.55767192984E+02  0.00000000000E+00 0. -1.
          6    1    1    2  502    0  0.47642231996E+02  0.73360102470E+02  0.21931333808E+03  0.29211954259E+03  0.17200000000E+03 0. -1.
         -6    1    1    2    0  501 -0.47642231996E+02 -0.73360102470E+02  0.46136448344E+03  0.50009266489E+03  0.17200000000E+03 0.  1.
</event>
<event>
 4    1  0.3169553E-002  0.5455552E+03  0.7818608E-02  0.1002528E+00
         -1   -1    0    0    0  501 -0.00000000000E+00  0.00000000000E+00  0.21374818124E+03  0.21374818124E+03  0.00000000000E+00 0.  1.
          1   -1    0    0  502    0  0.00000000000E+00 -0.00000000000E+00 -0.26969317983E+04  0.26969317983E+04  0.00000000000E+00 0. -1.
          6    1    1    2  502    0 -0.51076519362E+03 -0.84648395278E+02 -0.22537560764E+04  0.23188460246E+04  0.17200000000E+03 0. -1.
         -6    1    1    2    0  501  0.51076519362E+03  0.84648395278E+02 -0.22942754066E+03  0.59183395496E+03  0.17200000000E+03 0.  1.
</event>
<event>
 4    1  0.3169553E-002  0.1756687E+03  0.7818608E-02  0.1172062E+00
          2   -1    0    0  502    0  0.00000000000E+00  0.00000000000E+00  0.38856079290E+03  0.38856079290E+03  0.00000000000E+00 0. -1.
         -2   -1    0    0    0  501 -0.00000000000E+00 -0.00000000000E+00 -0.79549940879E+02  0.79549940879E+02  0.00000000000E+00 0.  1.
          6    1    1    2  502    0  0.35348331401E+02 -0.50963942225E+01  0.16396691123E+03  0.24030111474E+03  0.17200000000E+03 0. -1.
         -6    1    1    2    0  501 -0.35348331401E+02  0.50963942225E+01  0.14504394080E+03  0.22780961904E+03  0.17200000000E+03 0.  1.
</event>
<event>
 4    1  0.3169553E-002  0.3552531E+03  0.7818608E-02  0.1060479E+00
          2   -1    0    0  502    0  0.00000000000E+00  0.00000000000E+00  0.24604216005E+04  0.24604216005E+04  0.00000000000E+00 0. -1.
         -2   -1    0    0    0  501 -0.00000000000E+00 -0.00000000000E+00 -0.51379033115E+02  0.51379033115E+02  0.00000000000E+00 0.  1.
          6    1    1    2  502    0 -0.57095752245E+02 -0.30555000928E+03  0.12556298515E+04  0.13049180270E+04  0.17200000000E+03 0. -1.
         -6    1    1    2    0  501  0.57095752245E+02  0.30555000928E+03  0.11534127159E+04  0.12068826067E+04  0.17200000000E+03 0.  1.
</event>
<event>
 4    1  0.3169553E-002  0.1827648E+03  0.7818608E-02  0.1165154E+00
         -4   -1    0    0    0  501 -0.00000000000E+00  0.00000000000E+00  0.11430154415E+03  0.11430154415E+03  0.00000000000E+00 0.  1.
          4   -1    0    0  502    0  0.00000000000E+00 -0.00000000000E+00 -0.29831352725E+03  0.29831352725E+03  0.00000000000E+00 0. -1.
          6    1    1    2  502    0  0.59869900007E+02  0.15315896234E+02 -0.62557980356E+02  0.19317474605E+03  0.17200000000E+03 0. -1.
         -6    1    1    2    0  501 -0.59869900007E+02 -0.15315896234E+02 -0.12145400274E+03  0.21944032534E+03  0.17200000000E+03 0. -1.
</event>
<event>
 4    1  0.3169553E-002  0.1739856E+03  0.7818608E-02  0.1173754E+00
          2   -1    0    0  502    0  0.00000000000E+00  0.00000000000E+00  0.16713201544E+04  0.16713201544E+04  0.00000000000E+00 0. -1.
         -2   -1    0    0    0  501 -0.00000000000E+00 -0.00000000000E+00 -0.27573426739E+02  0.27573426739E+02  0.00000000000E+00 0.  1.
          6    1    1    2  502    0  0.25504034128E+02  0.60451078008E+01  0.13194597147E+04  0.13308812636E+04  0.17200000000E+03 0. -1.
         -6    1    1    2    0  501 -0.25504034128E+02 -0.60451078008E+01  0.32428701295E+03  0.36801231753E+03  0.17200000000E+03 0.  1.
</event>
<event>
 4    1  0.3169553E-002  0.1770121E+03  0.7818608E-02  0.1170726E+00
          1   -1    0    0  502    0  0.00000000000E+00  0.00000000000E+00  0.35040105480E+03  0.35040105480E+03  0.00000000000E+00 0. -1.
         -1   -1    0    0    0  501 -0.00000000000E+00 -0.00000000000E+00 -0.95984367185E+02  0.95984367185E+02  0.00000000000E+00 0.  1.
          6    1    1    2  502    0 -0.13895868166E+01 -0.41801500708E+02  0.18557102064E+03  0.25645642927E+03  0.17200000000E+03 0. -1.
         -6    1    1    2    0  501  0.13895868166E+01  0.41801500708E+02  0.68845666979E+02  0.18992899272E+03  0.17200000000E+03 0.  1.
</event>
<event>
 4    1  0.3169553E-002  0.3165104E+03  0.7818608E-02  0.1077267E+00
         -2   -1    0    0    0  501 -0.00000000000E+00  0.00000000000E+00  0.11140758688E+03  0.11140758688E+03  0.00000000000E+00 0.  1.
          2   -1    0    0  502    0  0.00000000000E+00 -0.00000000000E+00 -0.10626345118E+04  0.10626345118E+04  0.00000000000E+00 0. -1.
          6    1    1    2  502    0  0.76528578554E+02 -0.25443703364E+03 -0.24540558513E+03  0.40050309442E+03  0.17200000000E+03 0.  1.
         -6    1    1    2    0  501 -0.76528578554E+02  0.25443703364E+03 -0.70582133980E+03  0.77353900428E+03  0.17200000000E+03 0. -1.
</event>
<event>
 4    1  0.3169553E-002  0.2339352E+03  0.7818608E-02  0.1123900E+00
         -1   -1    0    0    0  501 -0.00000000000E+00  0.00000000000E+00  0.10214540257E+03  0.10214540257E+03  0.00000000000E+00 0.  1.
          1   -1    0    0  502    0  0.00000000000E+00 -0.00000000000E+00 -0.53873111227E+03  0.53873111227E+03  0.00000000000E+00 0. -1.
          6    1    1    2  502    0  0.96074045519E+02  0.12614070421E+03 -0.19450701818E+03  0.30423457989E+03  0.17200000000E+03 0.  1.
         -6    1    1    2    0  501 -0.96074045519E+02 -0.12614070421E+03 -0.24207869152E+03  0.33664193495E+03  0.17200000000E+03 0. -1.
</event>
<event>
 4    1  0.3169553E-002  0.8468091E+03  0.7818608E-02  0.9494630E-01
         -2   -1    0    0    0  501 -0.00000000000E+00  0.00000000000E+00  0.77646423992E+03  0.77646423992E+03  0.00000000000E+00 0.  1.
          2   -1    0    0  502    0  0.00000000000E+00 -0.00000000000E+00 -0.92511972412E+03  0.92511972412E+03  0.00000000000E+00 0. -1.
          6    1    1    2  502    0 -0.36962986567E+03  0.74220984930E+03 -0.39026229799E+02  0.84770793591E+03  0.17200000000E+03 0. -1.
         -6    1    1    2    0  501  0.36962986567E+03 -0.74220984930E+03 -0.10962925440E+03  0.85387602813E+03  0.17200000000E+03 0.  1.
</event>
<event>
 4    1  0.3169553E-002  0.1874169E+03  0.7818608E-02  0.1160812E+00
          2   -1    0    0  502    0  0.00000000000E+00  0.00000000000E+00  0.59629561191E+03  0.59629561191E+03  0.00000000000E+00 0. -1.
         -2   -1    0    0    0  501 -0.00000000000E+00 -0.00000000000E+00 -0.61566397864E+02  0.61566397864E+02  0.00000000000E+00 0.  1.
          6    1    1    2  502    0 -0.33779054353E+02  0.66333102452E+02  0.33574713465E+03  0.38451429547E+03  0.17200000000E+03 0. -1.
         -6    1    1    2    0  501  0.33779054353E+02 -0.66333102452E+02  0.19898207939E+03  0.27334771430E+03  0.17200000000E+03 0.  1.
</event>
<event>
 4    1  0.3169553E-002  0.4605147E+03  0.7818608E-02  0.1024632E+00
          1   -1    0    0  502    0  0.00000000000E+00  0.00000000000E+00  0.41393242284E+03  0.41393242284E+03  0.00000000000E+00 0. -1.
         -1   -1    0    0    0  501 -0.00000000000E+00 -0.00000000000E+00 -0.51380124109E+03  0.51380124109E+03  0.00000000000E+00 0.  1.
          6    1    1    2  502    0 -0.49840618546E+02 -0.42427078956E+03 -0.74679061825E+02  0.46653054820E+03  0.17200000000E+03 0. -1.
         -6    1    1    2    0  501  0.49840618546E+02  0.42427078956E+03 -0.25189756420E+02  0.46120311573E+03  0.17200000000E+03 0.  1.
</event>
<event>
 4    1  0.3169553E-002  0.1839432E+03  0.7818608E-02  0.1164040E+00
          2   -1    0    0  502    0  0.00000000000E+00  0.00000000000E+00  0.66131043501E+02  0.66131043501E+02  0.00000000000E+00 0. -1.
         -2   -1    0    0    0  501 -0.00000000000E+00 -0.00000000000E+00 -0.51193810158E+03  0.51193810158E+03  0.00000000000E+00 0.  1.
          6    1    1    2  502    0 -0.36681455298E+02  0.53903490275E+02 -0.21589856405E+03  0.28363234192E+03  0.17200000000E+03 0.  1.
         -6    1    1    2    0  501  0.36681455298E+02 -0.53903490275E+02 -0.22990849404E+03  0.29443680316E+03  0.17200000000E+03 0. -1.
</event>
<event>
 4    1  0.3169553E-002  0.2691724E+03  0.7818608E-02  0.1101754E+00
          2   -1    0    0  502    0  0.00000000000E+00  0.00000000000E+00  0.63345879683E+03  0.63345879683E+03  0.00000000000E+00 0. -1.
         -2   -1    0    0    0  501 -0.00000000000E+00 -0.00000000000E+00 -0.11970356484E+03  0.11970356484E+03  0.00000000000E+00 0.  1.
          6    1    1    2  502    0  0.17077887188E+03  0.11706566532E+03  0.33630772405E+03  0.43076290269E+03  0.17200000000E+03 0. -1.
         -6    1    1    2    0  501 -0.17077887188E+03 -0.11706566532E+03  0.17744750794E+03  0.32239945899E+03  0.17200000000E+03 0.  1.
</event>
<event>
 4    1  0.3169553E-002  0.2480698E+03  0.7818608E-02  0.1114531E+00
          2   -1    0    0  502    0  0.00000000000E+00  0.00000000000E+00  0.66170227482E+03  0.66170227482E+03  0.00000000000E+00 0. -1.
         -2   -1    0    0    0  501 -0.00000000000E+00 -0.00000000000E+00 -0.10517064244E+03  0.10517064244E+03  0.00000000000E+00 0.  1.
          6    1    1    2  502    0 -0.90139190325E+02  0.15436825036E+03  0.40870086267E+03  0.47809520547E+03  0.17200000000E+03 0.  1.
         -6    1    1    2    0  501  0.90139190325E+02 -0.15436825036E+03  0.14783076971E+03  0.28877771179E+03  0.17200000000E+03 0.  1.
</event>
<event>
 4    1  0.3169553E-002  0.3218323E+03  0.7818608E-02  0.1074809E+00
         -2   -1    0    0    0  501 -0.00000000000E+00  0.00000000000E+00  0.39678556451E+02  0.39678556451E+02  0.00000000000E+00 0.  1.
          2   -1    0    0  502    0  0.00000000000E+00 -0.00000000000E+00 -0.26581178249E+04  0.26581178249E+04  0.00000000000E+00 0. -1.
          6    1    1    2  502    0  0.21689228626E+03  0.16416374232E+03 -0.14899937383E+04  0.15243547285E+04  0.17200000000E+03 0. -1.
         -6    1    1    2    0  501 -0.21689228626E+03 -0.16416374232E+03 -0.11284455301E+04  0.11734416528E+04  0.17200000000E+03 0.  1.
</event>
<event>
 4    1  0.3169553E-002  0.8307436E+03  0.7818608E-02  0.9516553E-01
         -2   -1    0    0    0  501 -0.00000000000E+00  0.00000000000E+00  0.20431982101E+04  0.20431982101E+04  0.00000000000E+00 0.  1.
          2   -1    0    0  502    0  0.00000000000E+00 -0.00000000000E+00 -0.34941150321E+03  0.34941150321E+03  0.00000000000E+00 0. -1.
          6    1    1    2  502    0  0.73654022574E+03 -0.34359770696E+03  0.62854856038E+03  0.10417332581E+04  0.17200000000E+03 0. -1.
         -6    1    1    2    0  501 -0.73654022574E+03  0.34359770696E+03  0.10652381465E+04  0.13508764552E+04  0.17200000000E+03 0.  1.
</event>
<event>
 4    1  0.3169553E-002  0.2137322E+03  0.7818608E-02  0.1138644E+00
         -2   -1    0    0    0  501 -0.00000000000E+00  0.00000000000E+00  0.78175498048E+02  0.78175498048E+02  0.00000000000E+00 0.  1.
          2   -1    0    0  502    0  0.00000000000E+00 -0.00000000000E+00 -0.77571787679E+03  0.77571787679E+03  0.00000000000E+00 0. -1.
          6    1    1    2  502    0  0.11742076928E+03  0.48060700700E+02 -0.56083269723E+03  0.60017895856E+03  0.17200000000E+03 0. -1.
         -6    1    1    2    0  501 -0.11742076928E+03 -0.48060700700E+02 -0.13670968151E+03  0.25371441628E+03  0.17200000000E+03 0.  1.
</event>
<event>
 4    1  0.3169553E-002  0.2258381E+03  0.7818608E-02  0.1129604E+00
          2   -1    0    0  502    0  0.00000000000E+00  0.00000000000E+00  0.40188490903E+03  0.40188490903E+03  0.00000000000E+00 0. -1.
         -2   -1    0    0    0  501 -0.00000000000E+00 -0.00000000000E+00 -0.15378567788E+03  0.15378567788E+03  0.00000000000E+00 0.  1.
          6    1    1    2  502    0  0.33150887109E+02  0.14254775503E+03  0.24019892189E+03  0.32969435217E+03  0.17200000000E+03 0. -1.
         -6    1    1    2    0  501 -0.33150887109E+02 -0.14254775503E+03  0.79003092716E+01  0.22597623474E+03  0.17200000000E+03 0.  1.
</event>
<event>
 4    1  0.3169553E-002  0.1861927E+03  0.7818608E-02  0.1161941E+00
          1   -1    0    0  502    0  0.00000000000E+00  0.00000000000E+00  0.76216148106E+03  0.76216148106E+03  0.00000000000E+00 0. -1.
         -1   -1    0    0    0  501 -0.00000000000E+00 -0.00000000000E+00 -0.58700479270E+02  0.58700479270E+02  0.00000000000E+00 0.  1.
          6    1    1    2  502    0 -0.18756413254E+02  0.68788889990E+02  0.15699571650E+03  0.24354746852E+03  0.17200000000E+03 0.  1.
         -6    1    1    2    0  501  0.18756413254E+02 -0.68788889990E+02  0.54646528529E+03  0.57731449181E+03  0.17200000000E+03 0.  1.
</event>
<event>
 4    1  0.3169553E-002  0.2646172E+03  0.7818608E-02  0.1104400E+00
          2   -1    0    0  502    0  0.00000000000E+00  0.00000000000E+00  0.12661841749E+04  0.12661841749E+04  0.00000000000E+00 0. -1.
         -2   -1    0    0    0  501 -0.00000000000E+00 -0.00000000000E+00 -0.60329339884E+02  0.60329339884E+02  0.00000000000E+00 0.  1.
          6    1    1    2  502    0  0.38476847157E+02 -0.19737734671E+03  0.41146018903E+03  0.48920524519E+03  0.17200000000E+03 0. -1.
         -6    1    1    2    0  501 -0.38476847157E+02  0.19737734671E+03  0.79439464598E+03  0.83730826959E+03  0.17200000000E+03 0.  1.
</event>
<event>
 4    1  0.3169553E-002  0.4276425E+03  0.7818608E-02  0.1034607E+00
          2   -1    0    0  502    0  0.00000000000E+00  0.00000000000E+00  0.16519070949E+04  0.16519070949E+04  0.00000000000E+00 0. -1.
         -2   -1    0    0    0  501 -0.00000000000E+00 -0.00000000000E+00 -0.11165433028E+03  0.11165433028E+03  0.00000000000E+00 0.  1.
          6    1    1    2  502    0 -0.30376574063E+03  0.24702327905E+03  0.85133675573E+03  0.95270792861E+03  0.17200000000E+03 0. -1.
         -6    1    1    2    0  501  0.30376574063E+03 -0.24702327905E+03  0.68891600885E+03  0.81085349653E+03  0.17200000000E+03 0.  1.
</event>
<event>
 4    1  0.3169553E-002  0.2462967E+03  0.7818608E-02  0.1115668E+00
          2   -1    0    0  502    0  0.00000000000E+00  0.00000000000E+00  0.70027634701E+03  0.70027634701E+03  0.00000000000E+00 0. -1.
         -2   -1    0    0    0  501 -0.00000000000E+00 -0.00000000000E+00 -0.97032955258E+02  0.97032955258E+02  0.00000000000E+00 0.  1.
          6    1    1    2  502    0  0.28615051738E+02 -0.17395186134E+03  0.43217896690E+03  0.49743414708E+03  0.17200000000E+03 0. -1.
         -6    1    1    2    0  501 -0.28615051738E+02  0.17395186134E+03  0.17106442485E+03  0.29987515519E+03  0.17200000000E+03 0.  1.
</event>
<event>
 4    1  0.3169553E-002  0.2614434E+03  0.7818608E-02  0.1106279E+00
         -2   -1    0    0    0  501 -0.00000000000E+00  0.00000000000E+00  0.25398955052E+03  0.25398955052E+03  0.00000000000E+00 0.  1.
          2   -1    0    0  502    0  0.00000000000E+00 -0.00000000000E+00 -0.27603333265E+03  0.27603333265E+03  0.00000000000E+00 0. -1.
          6    1    1    2  502    0  0.16118251146E+03  0.11308777475E+03 -0.52974002024E+02  0.26675624020E+03  0.17200000000E+03 0. -1.
         -6    1    1    2    0  501 -0.16118251146E+03 -0.11308777475E+03  0.30930219894E+02  0.26326664297E+03  0.17200000000E+03 0.  1.
</event>
<event>
 4    1  0.3169553E-002  0.2179348E+03  0.7818608E-02  0.1135432E+00
          2   -1    0    0  502    0  0.00000000000E+00  0.00000000000E+00  0.20473975768E+03  0.20473975768E+03  0.00000000000E+00 0. -1.
         -2   -1    0    0    0  501 -0.00000000000E+00 -0.00000000000E+00 -0.52304231125E+03  0.52304231125E+03  0.00000000000E+00 0.  1.
          6    1    1    2  502    0 -0.52847122640E+02 -0.12295844054E+03  0.11230237305E+03  0.24516814529E+03  0.17200000000E+03 0. -1.
         -6    1    1    2    0  501  0.52847122640E+02  0.12295844054E+03 -0.43060492661E+03  0.48261392364E+03  0.17200000000E+03 0.  1.
</event>
<event>
 4    1  0.3169553E-002  0.2800015E+03  0.7818608E-02  0.1095688E+00
         -2   -1    0    0    0  501 -0.00000000000E+00  0.00000000000E+00  0.64289827185E+03  0.64289827185E+03  0.00000000000E+00 0.  1.
          2   -1    0    0  502    0  0.00000000000E+00 -0.00000000000E+00 -0.15253281610E+03  0.15253281610E+03  0.00000000000E+00 0. -1.
          6    1    1    2  502    0 -0.15829794678E+01 -0.22093966153E+03  0.42327141498E+03  0.50750323211E+03  0.17200000000E+03 0.  1.
         -6    1    1    2    0  501  0.15829794678E+01  0.22093966153E+03  0.67094040772E+02  0.28792785584E+03  0.17200000000E+03 0.  1.
</event>
<event>
 4    1  0.3169553E-002  0.2475989E+03  0.7818608E-02  0.1114832E+00
         -1   -1    0    0    0  501 -0.00000000000E+00  0.00000000000E+00  0.24963598218E+02  0.24963598218E+02  0.00000000000E+00 0.  1.
          1   -1    0    0  502    0  0.00000000000E+00 -0.00000000000E+00 -0.24806923734E+04  0.24806923734E+04  0.00000000000E+00 0. -1.
          6    1    1    2  502    0 -0.17548884596E+03  0.30411843448E+02 -0.13534020722E+04  0.13758642317E+04  0.17200000000E+03 0. -1.
         -6    1    1    2    0  501  0.17548884596E+03 -0.30411843448E+02 -0.11023267030E+04  0.11297917398E+04  0.17200000000E+03 0.  1.
</event>
<event>
 4    1  0.3169553E-002  0.1795697E+03  0.7818608E-02  0.1168220E+00
          1   -1    0    0  502    0  0.00000000000E+00  0.00000000000E+00  0.95705766042E+03  0.95705766042E+03  0.00000000000E+00 0. -1.
         -1   -1    0    0    0  501 -0.00000000000E+00 -0.00000000000E+00 -0.33839086259E+02  0.33839086259E+02  0.00000000000E+00 0.  1.
          6    1    1    2  502    0 -0.46603763541E+02  0.22121848235E+02  0.49426208835E+03  0.52587099076E+03  0.17200000000E+03 0.  1.
         -6    1    1    2    0  501  0.46603763541E+02 -0.22121848235E+02  0.42895648581E+03  0.46502575591E+03  0.17200000000E+03 0.  1.
</event>
<event>
 4    1  0.3169553E-002  0.1883138E+03  0.7818608E-02  0.1159991E+00
         -1   -1    0    0    0  501 -0.00000000000E+00  0.00000000000E+00  0.19314541294E+02  0.19314541294E+02  0.00000000000E+00 0.  1.
          1   -1    0    0  502    0  0.00000000000E+00 -0.00000000000E+00 -0.20699587903E+04  0.20699587903E+04  0.00000000000E+00 0. -1.
          6    1    1    2  502    0  0.33192330679E+02  0.69111206446E+02 -0.13764987943E+04  0.13893203447E+04  0.17200000000E+03 0. -1.
         -6    1    1    2    0  501 -0.33192330679E+02 -0.69111206446E+02 -0.67414545478E+03  0.69995298690E+03  0.17200000000E+03 0.  1.
</event>
<event>
 4    1  0.3169553E-002  0.2709261E+03  0.7818608E-02  0.1100751E+00
         -2   -1    0    0    0  501 -0.00000000000E+00  0.00000000000E+00  0.34302366371E+03  0.34302366371E+03  0.00000000000E+00 0.  1.
          2   -1    0    0  502    0  0.00000000000E+00 -0.00000000000E+00 -0.27210330736E+03  0.27210330736E+03  0.00000000000E+00 0. -1.
          6    1    1    2  502    0 -0.12816448374E+03 -0.16550173844E+03 -0.10668586692E+03  0.29117492082E+03  0.17200000000E+03 0. -1.
         -6    1    1    2    0  501  0.12816448374E+03  0.16550173844E+03  0.17760622326E+03  0.32395205025E+03  0.17200000000E+03 0.  1.
</event>
<event>
 4    1  0.3169553E-002  0.2183215E+03  0.7818608E-02  0.1135141E+00
         -3   -1    0    0    0  501 -0.00000000000E+00  0.00000000000E+00  0.11129387192E+04  0.11129387192E+04  0.00000000000E+00 0.  1.
          3   -1    0    0  502    0  0.00000000000E+00 -0.00000000000E+00 -0.20585798030E+03  0.20585798030E+03  0.00000000000E+00 0. -1.
          6    1    1    2  502    0 -0.10598941407E+03 -0.82743649767E+02 -0.13327103340E+03  0.25578396317E+03  0.17200000000E+03 0. -1.
         -6    1    1    2    0  501  0.10598941407E+03  0.82743649767E+02  0.10403517723E+04  0.10630127363E+04  0.17200000000E+03 0.  1.
</event>
<event>
 4    1  0.3169553E-002  0.2222117E+03  0.7818608E-02  0.1132245E+00
         -2   -1    0    0    0  501 -0.00000000000E+00  0.00000000000E+00  0.52062065869E+02  0.52062065869E+02  0.00000000000E+00 0.  1.
          2   -1    0    0  502    0  0.00000000000E+00 -0.00000000000E+00 -0.16042615541E+04  0.16042615541E+04  0.00000000000E+00 0. -1.
          6    1    1    2  502    0  0.54373470202E+02 -0.12975968004E+03 -0.13056028686E+04  0.13243779291E+04  0.17200000000E+03 0. -1.
         -6    1    1    2    0  501 -0.54373470202E+02  0.12975968004E+03 -0.24659661969E+03  0.33194569084E+03  0.17200000000E+03 0.  1.
</event>
<event>
 4    1  0.3169553E-002  0.2266597E+03  0.7818608E-02  0.1129013E+00
         -1   -1    0    0    0  501 -0.00000000000E+00  0.00000000000E+00  0.13423234189E+03  0.13423234189E+03  0.00000000000E+00 0.  1.
          1   -1    0    0  502    0  0.00000000000E+00 -0.00000000000E+00 -0.52747646088E+03  0.52747646088E+03  0.00000000000E+00 0. -1.
          6    1    1    2  502    0  0.96175081531E+02  0.11198657632E+03 -0.36993880322E+03  0.43385407421E+03  0.17200000000E+03 0. -1.
         -6    1    1    2    0  501 -0.96175081531E+02 -0.11198657632E+03 -0.23305315774E+02  0.22785472856E+03  0.17200000000E+03 0.  1.
</event>
<event>
 4    1  0.3169553E-002  0.1841552E+03  0.7818608E-02  0.1163841E+00
          2   -1    0    0  502    0  0.00000000000E+00  0.00000000000E+00  0.23171784226E+04  0.23171784226E+04  0.00000000000E+00 0. -1.
         -2   -1    0    0    0  501 -0.00000000000E+00 -0.00000000000E+00 -0.16348060326E+02  0.16348060326E+02  0.00000000000E+00 0.  1.
          6    1    1    2  502    0  0.54058651759E+02  0.37507134752E+02  0.15280476936E+04  0.15391045698E+04  0.17200000000E+03 0. -1.
         -6    1    1    2    0  501 -0.54058651759E+02 -0.37507134752E+02  0.77278266869E+03  0.79442191310E+03  0.17200000000E+03 0.  1.
</event>
<event>
 4    1  0.3169553E-002  0.4286194E+03  0.7818608E-02  0.1034297E+00
          1   -1    0    0  502    0  0.00000000000E+00  0.00000000000E+00  0.25871474871E+03  0.25871474871E+03  0.00000000000E+00 0. -1.
         -1   -1    0    0    0  501 -0.00000000000E+00 -0.00000000000E+00 -0.77487407979E+03  0.77487407979E+03  0.00000000000E+00 0.  1.
          6    1    1    2  502    0  0.25260789065E+03 -0.30053255587E+03 -0.40749220751E+03  0.59140887949E+03  0.17200000000E+03 0. -1.
         -6    1    1    2    0  501 -0.25260789065E+03  0.30053255587E+03 -0.10866712357E+03  0.44217994901E+03  0.17200000000E+03 0.  1.
</event>
<event>
 4    1  0.3169553E-002  0.2105221E+03  0.7818608E-02  0.1141153E+00
          2   -1    0    0  502    0  0.00000000000E+00  0.00000000000E+00  0.81469298985E+03  0.81469298985E+03  0.00000000000E+00 0. -1.
         -2   -1    0    0    0  501 -0.00000000000E+00 -0.00000000000E+00 -0.56160514475E+02  0.56160514475E+02  0.00000000000E+00 0.  1.
          6    1    1    2  502    0  0.12125822796E+03  0.56560509125E+01  0.30217917467E+03  0.36828223194E+03  0.17200000000E+03 0.  1.
         -6    1    1    2    0  501 -0.12125822796E+03 -0.56560509125E+01  0.45635330070E+03  0.50257127238E+03  0.17200000000E+03 0. -1.
</event>
<event>
 4    1  0.3169553E-002  0.3380349E+03  0.7818608E-02  0.1067636E+00
          2   -1    0    0  502    0  0.00000000000E+00  0.00000000000E+00  0.50875795682E+03  0.50875795682E+03  0.00000000000E+00 0. -1.
         -2   -1    0    0    0  501 -0.00000000000E+00 -0.00000000000E+00 -0.26424270900E+03  0.26424270900E+03  0.00000000000E+00 0.  1.
          6    1    1    2  502    0  0.41783956428E+02 -0.28798905722E+03  0.27195838542E+03  0.43385361528E+03  0.17200000000E+03 0. -1.
         -6    1    1    2    0  501 -0.41783956428E+02  0.28798905722E+03 -0.27443137595E+02  0.33914705054E+03  0.17200000000E+03 0.  1.
</event>
<event>
 4    1  0.3169553E-002  0.2337349E+03  0.7818608E-02  0.1124038E+00
         -2   -1    0    0    0  501 -0.00000000000E+00  0.00000000000E+00  0.56885311650E+03  0.56885311650E+03  0.00000000000E+00 0.  1.
          2   -1    0    0  502    0  0.00000000000E+00 -0.00000000000E+00 -0.12642233909E+03  0.12642233909E+03  0.00000000000E+00 0. -1.
          6    1    1    2  502    0  0.11795730151E+03 -0.10551805964E+03  0.50790122688E+02  0.23918951159E+03  0.17200000000E+03 0. -1.
         -6    1    1    2    0  501 -0.11795730151E+03  0.10551805964E+03  0.39164065473E+03  0.45608594401E+03  0.17200000000E+03 0.  1.
</event>
<event>
 4    1  0.3169553E-002  0.6290308E+03  0.7818608E-02  0.9846942E-01
         -2   -1    0    0    0  501 -0.00000000000E+00  0.00000000000E+00  0.11285535340E+04  0.11285535340E+04  0.00000000000E+00 0.  1.
          2   -1    0    0  502    0  0.00000000000E+00 -0.00000000000E+00 -0.35775724820E+03  0.35775724820E+03  0.00000000000E+00 0. -1.
          6    1    1    2  502    0  0.54775304822E+03 -0.25702593467E+03  0.28034234466E+03  0.68867377120E+03  0.17200000000E+03 0. -1.
         -6    1    1    2    0  501 -0.54775304822E+03  0.25702593467E+03  0.49045394113E+03  0.79763701098E+03  0.17200000000E+03 0.  1.
</event>
<event>
 4    1  0.3169553E-002  0.3939350E+03  0.7818608E-02  0.1045900E+00
         -1   -1    0    0    0  501 -0.00000000000E+00  0.00000000000E+00  0.40254669222E+03  0.40254669222E+03  0.00000000000E+00 0.  1.
          1   -1    0    0  502    0  0.00000000000E+00 -0.00000000000E+00 -0.38743820489E+03  0.38743820489E+03  0.00000000000E+00 0. -1.
          6    1    1    2  502    0 -0.84122549078E+02  0.34427343741E+03 -0.20328532642E+02  0.39445918953E+03  0.17200000000E+03 0. -1.
         -6    1    1    2    0  501  0.84122549078E+02 -0.34427343741E+03  0.35437019970E+02  0.39552570758E+03  0.17200000000E+03 0.  1.
</event>
<event>
 4    1  0.3169553E-002  0.2073320E+03  0.7818608E-02  0.1143696E+00
          2   -1    0    0  502    0  0.00000000000E+00  0.00000000000E+00  0.73367207866E+03  0.73367207866E+03  0.00000000000E+00 0. -1.
         -2   -1    0    0    0  501 -0.00000000000E+00 -0.00000000000E+00 -0.58593971871E+02  0.58593971871E+02  0.00000000000E+00 0.  1.
          6    1    1    2  502    0 -0.92786142634E+02 -0.69233517825E+02  0.34038117699E+03  0.39855475647E+03  0.17200000000E+03 0. -1.
         -6    1    1    2    0  501  0.92786142634E+02  0.69233517825E+02  0.33469692981E+03  0.39371129407E+03  0.17200000000E+03 0.  1.
</event>
<event>
 4    1  0.3169553E-002  0.1922145E+03  0.7818608E-02  0.1156479E+00
         -2   -1    0    0    0  501 -0.00000000000E+00  0.00000000000E+00  0.23252636957E+03  0.23252636957E+03  0.00000000000E+00 0.  1.
          2   -1    0    0  502    0  0.00000000000E+00 -0.00000000000E+00 -0.16328302722E+03  0.16328302722E+03  0.00000000000E+00 0. -1.
          6    1    1    2  502    0  0.72061128505E+02  0.46579153677E+02  0.67078183259E+02  0.20358267723E+03  0.17200000000E+03 0. -1.
         -6    1    1    2    0  501 -0.72061128505E+02 -0.46579153677E+02  0.21651590844E+01  0.19222671956E+03  0.17200000000E+03 0.  1.
</event>
<event>
 4    1  0.3169553E-002  0.2040980E+03  0.7818608E-02  0.1146327E+00
         -2   -1    0    0    0  501 -0.00000000000E+00  0.00000000000E+00  0.80599943826E+02  0.80599943826E+02  0.00000000000E+00 0.  1.
          2   -1    0    0  502    0  0.00000000000E+00 -0.00000000000E+00 -0.54211648976E+03  0.54211648976E+03  0.00000000000E+00 0. -1.
          6    1    1    2  502    0  0.10219251614E+03  0.40356902874E+02 -0.29801091097E+03  0.36120145767E+03  0.17200000000E+03 0. -1.
         -6    1    1    2    0  501 -0.10219251614E+03 -0.40356902874E+02 -0.16350563497E+03  0.26151497592E+03  0.17200000000E+03 0. -1.
</event>
<event>
 4    1  0.3169553E-002  0.1790827E+03  0.7818608E-02  0.1168694E+00
          4   -1    0    0  502    0  0.00000000000E+00  0.00000000000E+00  0.57096896100E+02  0.57096896100E+02  0.00000000000E+00 0. -1.
         -4   -1    0    0    0  501 -0.00000000000E+00 -0.00000000000E+00 -0.10309753641E+04  0.10309753641E+04  0.00000000000E+00 0.  1.
          6    1    1    2  502    0 -0.49803589997E+02  0.24904216426E+01 -0.11989080776E+03  0.21550964146E+03  0.17200000000E+03 0. -1.
         -6    1    1    2    0  501  0.49803589997E+02 -0.24904216426E+01 -0.85398766020E+03  0.87256261870E+03  0.17200000000E+03 0.  1.
</event>
<event>
 4    1  0.3169553E-002  0.2188638E+03  0.7818608E-02  0.1134733E+00
          2   -1    0    0  502    0  0.00000000000E+00  0.00000000000E+00  0.13989269949E+04  0.13989269949E+04  0.00000000000E+00 0. -1.
         -2   -1    0    0    0  501 -0.00000000000E+00 -0.00000000000E+00 -0.35255842781E+02  0.35255842781E+02  0.00000000000E+00 0.  1.
          6    1    1    2  502    0  0.12558199501E+01  0.13533589399E+03  0.80346758770E+03  0.83274338531E+03  0.17200000000E+03 0. -1.
         -6    1    1    2    0  501 -0.12558199501E+01 -0.13533589399E+03  0.56020356444E+03  0.60143945240E+03  0.17200000000E+03 0.  1.
</event>
<event>
 4    1  0.3169553E-002  0.2673225E+03  0.7818608E-02  0.1102822E+00
         -1   -1    0    0    0  501 -0.00000000000E+00  0.00000000000E+00  0.11246983265E+03  0.11246983265E+03  0.00000000000E+00 0.  1.
          1   -1    0    0  502    0  0.00000000000E+00 -0.00000000000E+00 -0.10304847802E+04  0.10304847802E+04  0.00000000000E+00 0. -1.
          6    1    1    2  502    0 -0.20461045475E+03 -0.34445557233E+01 -0.81286893037E+03  0.85569690961E+03  0.17200000000E+03 0. -1.
         -6    1    1    2    0  501  0.20461045475E+03  0.34445557233E+01 -0.10514601722E+03  0.28725770328E+03  0.17200000000E+03 0.  1.
</event>
<event>
 4    1  0.3169553E-002  0.2384563E+03  0.7818608E-02  0.1120825E+00
         -2   -1    0    0    0  501 -0.00000000000E+00  0.00000000000E+00  0.11207129199E+03  0.11207129199E+03  0.00000000000E+00 0.  1.
          2   -1    0    0  502    0  0.00000000000E+00 -0.00000000000E+00 -0.82676961252E+03  0.82676961252E+03  0.00000000000E+00 0. -1.
          6    1    1    2  502    0  0.13694279489E+03  0.92325922736E+02 -0.64911752324E+03  0.69153088439E+03  0.17200000000E+03 0. -1.
         -6    1    1    2    0  501 -0.13694279489E+03 -0.92325922736E+02 -0.65580797282E+02  0.24731002012E+03  0.17200000000E+03 0.  1.
</event>
<event>
 4    1  0.3169553E-002  0.2366632E+03  0.7818608E-02  0.1122036E+00
         -2   -1    0    0    0  501 -0.00000000000E+00  0.00000000000E+00  0.15163911646E+03  0.15163911646E+03  0.00000000000E+00 0.  1.
          2   -1    0    0  502    0  0.00000000000E+00 -0.00000000000E+00 -0.40114874167E+03  0.40114874167E+03  0.00000000000E+00 0. -1.
          6    1    1    2  502    0  0.14980310606E+03 -0.63123066708E+02 -0.20256014892E+03  0.31151260980E+03  0.17200000000E+03 0. -1.
         -6    1    1    2    0  501 -0.14980310606E+03  0.63123066708E+02 -0.46949476289E+02  0.24127524834E+03  0.17200000000E+03 0.  1.
</event>
<event>
 4    1  0.3169553E-002  0.2132041E+03  0.7818608E-02  0.1139053E+00
          2   -1    0    0  502    0  0.00000000000E+00  0.00000000000E+00  0.71964609101E+03  0.71964609101E+03  0.00000000000E+00 0. -1.
         -2   -1    0    0    0  501 -0.00000000000E+00 -0.00000000000E+00 -0.12187643265E+03  0.12187643265E+03  0.00000000000E+00 0.  1.
          6    1    1    2  502    0 -0.47318551027E+02  0.11676028282E+03  0.68467630668E+01  0.21331405739E+03  0.17200000000E+03 0. -1.
         -6    1    1    2    0  501  0.47318551027E+02 -0.11676028282E+03  0.59092289529E+03  0.62820846627E+03  0.17200000000E+03 0. -1.
</event>
<event>
 4    1  0.3169553E-002  0.2018446E+03  0.7818608E-02  0.1148192E+00
         -1   -1    0    0    0  501 -0.00000000000E+00  0.00000000000E+00  0.50853617602E+02  0.50853617602E+02  0.00000000000E+00 0.  1.
          1   -1    0    0  502    0  0.00000000000E+00 -0.00000000000E+00 -0.10809250798E+04  0.10809250798E+04  0.00000000000E+00 0. -1.
          6    1    1    2  502    0  0.72507045317E+02 -0.76811360117E+02 -0.80293466353E+03  0.82791625819E+03  0.17200000000E+03 0. -1.
         -6    1    1    2    0  501 -0.72507045317E+02  0.76811360117E+02 -0.22713679869E+03  0.30386243925E+03  0.17200000000E+03 0.  1.
</event>
<event>
 4    1  0.3169553E-002  0.2369393E+03  0.7818608E-02  0.1121849E+00
          2   -1    0    0  502    0  0.00000000000E+00  0.00000000000E+00  0.34985458645E+03  0.34985458645E+03  0.00000000000E+00 0. -1.
         -2   -1    0    0    0  501 -0.00000000000E+00 -0.00000000000E+00 -0.24083714530E+03  0.24083714530E+03  0.00000000000E+00 0.  1.
          6    1    1    2  502    0  0.82732400282E+02  0.14039801883E+03 -0.11610559690E+03  0.26385746793E+03  0.17200000000E+03 0.  1.
         -6    1    1    2    0  501 -0.82732400282E+02 -0.14039801883E+03  0.22512303805E+03  0.32683426382E+03  0.17200000000E+03 0. -1.
</event>
<event>
 4    1  0.3169553E-002  0.6338075E+03  0.7818608E-02  0.9837647E-01
         -2   -1    0    0    0  501 -0.00000000000E+00  0.00000000000E+00  0.14564114618E+03  0.14564114618E+03  0.00000000000E+00 0.  1.
          2   -1    0    0  502    0  0.00000000000E+00 -0.00000000000E+00 -0.27970185368E+04  0.27970185368E+04  0.00000000000E+00 0. -1.
          6    1    1    2  502    0 -0.43260812331E+03  0.43009089739E+03 -0.11524253177E+04  0.13152171233E+04  0.17200000000E+03 0. -1.
         -6    1    1    2    0  501  0.43260812331E+03 -0.43009089739E+03 -0.14989520729E+04  0.16274425597E+04  0.17200000000E+03 0.  1.
</event>
<event>
 4    1  0.3169553E-002  0.2821146E+03  0.7818608E-02  0.1094540E+00
          2   -1    0    0  502    0  0.00000000000E+00  0.00000000000E+00  0.27296429636E+04  0.27296429636E+04  0.00000000000E+00 0. -1.
         -2   -1    0    0    0  501 -0.00000000000E+00 -0.00000000000E+00 -0.39680998406E+02  0.39680998406E+02  0.00000000000E+00 0.  1.
          6    1    1    2  502    0  0.22361483494E+03 -0.10267248039E+01  0.20580629724E+04  0.20773087991E+04  0.17200000000E+03 0. -1.
         -6    1    1    2    0  501 -0.22361483494E+03  0.10267248039E+01  0.63189899288E+03  0.69201516296E+03  0.17200000000E+03 0.  1.
</event>
<event>
 4    1  0.3169553E-002  0.2168825E+03  0.7818608E-02  0.1136229E+00
          4   -1    0    0  502    0  0.00000000000E+00  0.00000000000E+00  0.22442045904E+02  0.22442045904E+02  0.00000000000E+00 0. -1.
         -4   -1    0    0    0  501 -0.00000000000E+00 -0.00000000000E+00 -0.21040427737E+04  0.21040427737E+04  0.00000000000E+00 0.  1.
          6    1    1    2  502    0 -0.12944598849E+03  0.26415064284E+02 -0.97497109729E+03  0.99880261318E+03  0.17200000000E+03 0.  1.
         -6    1    1    2    0  501  0.12944598849E+03 -0.26415064284E+02 -0.11066296306E+04  0.11276822065E+04  0.17200000000E+03 0.  1.
</event>
<event>
 4    1  0.3169553E-002  0.1876626E+03  0.7818608E-02  0.1160587E+00
         -1   -1    0    0    0  501 -0.00000000000E+00  0.00000000000E+00  0.60303199535E+02  0.60303199535E+02  0.00000000000E+00 0.  1.
          1   -1    0    0  502    0  0.00000000000E+00 -0.00000000000E+00 -0.79093892205E+03  0.79093892205E+03  0.00000000000E+00 0. -1.
          6    1    1    2  502    0  0.29505362839E+02  0.69012250716E+02 -0.58302338302E+03  0.61248144652E+03  0.17200000000E+03 0. -1.
         -6    1    1    2    0  501 -0.29505362839E+02 -0.69012250716E+02 -0.14761233949E+03  0.23876067506E+03  0.17200000000E+03 0.  1.
</event>
<event>
 4    1  0.3169553E-002  0.2252574E+03  0.7818608E-02  0.1130023E+00
         -2   -1    0    0    0  501 -0.00000000000E+00  0.00000000000E+00  0.50589324371E+02  0.50589324371E+02  0.00000000000E+00 0.  1.
          2   -1    0    0  502    0  0.00000000000E+00 -0.00000000000E+00 -0.10421182992E+04  0.10421182992E+04  0.00000000000E+00 0. -1.
          6    1    1    2  502    0  0.52352670485E+02  0.13570586200E+03 -0.60162363881E+03  0.64241099451E+03  0.17200000000E+03 0. -1.
         -6    1    1    2    0  501 -0.52352670485E+02 -0.13570586200E+03 -0.38990533601E+03  0.45029662906E+03  0.17200000000E+03 0.  1.
</event>
<event>
 4    1  0.3169553E-002  0.1773228E+03  0.7818608E-02  0.1170419E+00
          2   -1    0    0  502    0  0.00000000000E+00  0.00000000000E+00  0.82292887661E+03  0.82292887661E+03  0.00000000000E+00 0. -1.
         -2   -1    0    0    0  501 -0.00000000000E+00 -0.00000000000E+00 -0.38565445203E+02  0.38565445203E+02  0.00000000000E+00 0.  1.
          6    1    1    2  502    0 -0.42183173740E+02  0.89425332056E+01  0.43358605804E+03  0.46844450981E+03  0.17200000000E+03 0. -1.
         -6    1    1    2    0  501  0.42183173740E+02 -0.89425332056E+01  0.35077737337E+03  0.39304981200E+03  0.17200000000E+03 0.  1.
</event>
<event>
 4    1  0.3169553E-002  0.2032871E+03  0.7818608E-02  0.1146995E+00
         -2   -1    0    0    0  501 -0.00000000000E+00  0.00000000000E+00  0.29587944914E+02  0.29587944914E+02  0.00000000000E+00 0.  1.
          2   -1    0    0  502    0  0.00000000000E+00 -0.00000000000E+00 -0.15190522213E+04  0.15190522213E+04  0.00000000000E+00 0. -1.
          6    1    1    2  502    0 -0.31738416020E+02 -0.10360652223E+03 -0.96448308383E+03  0.98567401178E+03  0.17200000000E+03 0. -1.
         -6    1    1    2    0  501  0.31738416020E+02  0.10360652223E+03 -0.52498119250E+03  0.56296615438E+03  0.17200000000E+03 0.  1.
</event>
<event>
 4    1  0.3169553E-002  0.2203034E+03  0.7818608E-02  0.1133657E+00
         -1   -1    0    0    0  501 -0.00000000000E+00  0.00000000000E+00  0.29783954844E+03  0.29783954844E+03  0.00000000000E+00 0.  1.
          1   -1    0    0  502    0  0.00000000000E+00 -0.00000000000E+00 -0.16787155723E+03  0.16787155723E+03  0.00000000000E+00 0. -1.
          6    1    1    2  502    0  0.11969646487E+03 -0.67987702372E+02  0.25122104841E+02  0.22173112440E+03  0.17200000000E+03 0.  1.
         -6    1    1    2    0  501 -0.11969646487E+03  0.67987702372E+02  0.10484588637E+03  0.24397998128E+03  0.17200000000E+03 0. -1.
</event>
<event>
 4    1  0.3169553E-002  0.2003164E+03  0.7818608E-02  0.1149472E+00
         -1   -1    0    0    0  501 -0.00000000000E+00  0.00000000000E+00  0.11200197035E+04  0.11200197035E+04  0.00000000000E+00 0.  1.
          1   -1    0    0  502    0  0.00000000000E+00 -0.00000000000E+00 -0.38653532963E+02  0.38653532963E+02  0.00000000000E+00 0. -1.
          6    1    1    2  502    0 -0.14196370760E+02 -0.10169123472E+03  0.69735245883E+03  0.72555295878E+03  0.17200000000E+03 0.  1.
         -6    1    1    2    0  501  0.14196370760E+02  0.10169123472E+03  0.38401371174E+03  0.43312027771E+03  0.17200000000E+03 0. -1.
</event>
<event>
 4    1  0.3169553E-002  0.5230122E+03  0.7818608E-02  0.1007941E+00
         -2   -1    0    0    0  501 -0.00000000000E+00  0.00000000000E+00  0.81211856841E+03  0.81211856841E+03  0.00000000000E+00 0.  1.
          2   -1    0    0  502    0  0.00000000000E+00 -0.00000000000E+00 -0.35831654350E+03  0.35831654350E+03  0.00000000000E+00 0. -1.
          6    1    1    2  502    0 -0.20325622387E+03 -0.45016066430E+03  0.37022511131E+03  0.64078728862E+03  0.17200000000E+03 0. -1.
         -6    1    1    2    0  501  0.20325622387E+03  0.45016066430E+03  0.83576913602E+02  0.52964782328E+03  0.17200000000E+03 0.  1.
</event>
<event>
 4    1  0.3169553E-002  0.2047910E+03  0.7818608E-02  0.1145759E+00
         -2   -1    0    0    0  501 -0.00000000000E+00  0.00000000000E+00  0.12246676113E+03  0.12246676113E+03  0.00000000000E+00 0.  1.
          2   -1    0    0  502    0  0.00000000000E+00 -0.00000000000E+00 -0.75750009420E+03  0.75750009420E+03  0.00000000000E+00 0. -1.
          6    1    1    2  502    0  0.10611335207E+03  0.33095624075E+02 -0.64319778180E+03  0.67501314826E+03  0.17200000000E+03 0. -1.
         -6    1    1    2    0  501 -0.10611335207E+03 -0.33095624075E+02  0.81644487280E+01  0.20495370707E+03  0.17200000000E+03 0.  1.
</event>
<event>
 4    1  0.3169553E-002  0.2902215E+03  0.7818608E-02  0.1090234E+00
         -1   -1    0    0    0  501 -0.00000000000E+00  0.00000000000E+00  0.31863108760E+02  0.31863108760E+02  0.00000000000E+00 0.  1.
          1   -1    0    0  502    0  0.00000000000E+00 -0.00000000000E+00 -0.26559266274E+04  0.26559266274E+04  0.00000000000E+00 0. -1.
          6    1    1    2  502    0 -0.19424188449E+03 -0.13005616525E+03 -0.12199197484E+04  0.12539667892E+04  0.17200000000E+03 0. -1.
         -6    1    1    2    0  501  0.19424188449E+03  0.13005616525E+03 -0.14041437703E+04  0.14338229470E+04  0.17200000000E+03 0.  1.
</event>
<event>
 4    1  0.3169553E-002  0.1800162E+03  0.7818608E-02  0.1167787E+00
          1   -1    0    0  502    0  0.00000000000E+00  0.00000000000E+00  0.44450600147E+03  0.44450600147E+03  0.00000000000E+00 0. -1.
         -1   -1    0    0    0  501 -0.00000000000E+00 -0.00000000000E+00 -0.75611220052E+02  0.75611220052E+02  0.00000000000E+00 0.  1.
          6    1    1    2  502    0 -0.52644127801E+02 -0.71017653583E+01  0.13523020233E+03  0.22515116452E+03  0.17200000000E+03 0. -1.
         -6    1    1    2    0  501  0.52644127801E+02  0.71017653583E+01  0.23366457909E+03  0.29496605700E+03  0.17200000000E+03 0.  1.
</event>
<event>
 4    1  0.3169553E-002  0.3124354E+03  0.7818608E-02  0.1079184E+00
          2   -1    0    0  502    0  0.00000000000E+00  0.00000000000E+00  0.30726396638E+04  0.30726396638E+04  0.00000000000E+00 0. -1.
         -2   -1    0    0    0  501 -0.00000000000E+00 -0.00000000000E+00 -0.56508708446E+02  0.56508708446E+02  0.00000000000E+00 0.  1.
          6    1    1    2  502    0  0.15471790805E+03  0.20998636923E+03  0.25432845925E+04  0.25624036421E+04  0.17200000000E+03 0. -1.
         -6    1    1    2    0  501 -0.15471790805E+03 -0.20998636923E+03  0.47284636281E+03  0.56674473015E+03  0.17200000000E+03 0.  1.
</event>
<event>
 4    1  0.3169553E-002  0.2293378E+03  0.7818608E-02  0.1127107E+00
         -2   -1    0    0    0  501 -0.00000000000E+00  0.00000000000E+00  0.40850786319E+02  0.40850786319E+02  0.00000000000E+00 0.  1.
          2   -1    0    0  502    0  0.00000000000E+00 -0.00000000000E+00 -0.13624186978E+04  0.13624186978E+04  0.00000000000E+00 0. -1.
          6    1    1    2  502    0  0.12326001720E+03  0.88423991624E+02 -0.49626376753E+03  0.54669329710E+03  0.17200000000E+03 0.  1.
         -6    1    1    2    0  501 -0.12326001720E+03 -0.88423991624E+02 -0.82530414390E+03  0.85657618697E+03  0.17200000000E+03 0.  1.
</event>
<event>
 4    1  0.3169553E-002  0.2706076E+03  0.7818608E-02  0.1100932E+00
         -1   -1    0    0    0  501 -0.00000000000E+00  0.00000000000E+00  0.37071978339E+03  0.37071978339E+03  0.00000000000E+00 0.  1.
          1   -1    0    0  502    0  0.00000000000E+00 -0.00000000000E+00 -0.78948991777E+03  0.78948991777E+03  0.00000000000E+00 0. -1.
          6    1    1    2  502    0  0.16465769347E+03  0.12857812497E+03 -0.71170353361E+03  0.76141342908E+03  0.17200000000E+03 0. -1.
         -6    1    1    2    0  501 -0.16465769347E+03 -0.12857812497E+03  0.29293339923E+03  0.39879627208E+03  0.17200000000E+03 0.  1.
</event>
<event>
 4    1  0.3169553E-002  0.2267569E+03  0.7818608E-02  0.1128943E+00
          1   -1    0    0  502    0  0.00000000000E+00  0.00000000000E+00  0.30895775123E+03  0.30895775123E+03  0.00000000000E+00 0. -1.
         -1   -1    0    0    0  501 -0.00000000000E+00 -0.00000000000E+00 -0.17556964408E+03  0.17556964408E+03  0.00000000000E+00 0.  1.
          6    1    1    2  502    0  0.11528478452E+03 -0.92434302801E+02  0.12198031182E+03  0.25748374385E+03  0.17200000000E+03 0. -1.
         -6    1    1    2    0  501 -0.11528478452E+03  0.92434302801E+02  0.11407795326E+02  0.22704365146E+03  0.17200000000E+03 0.  1.
</event>
<event>
 4    1  0.3169553E-002  0.1811044E+03  0.7818608E-02  0.1166738E+00
          1   -1    0    0  502    0  0.00000000000E+00  0.00000000000E+00  0.61250077790E+03  0.61250077790E+03  0.00000000000E+00 0. -1.
         -1   -1    0    0    0  501 -0.00000000000E+00 -0.00000000000E+00 -0.54507853412E+02  0.54507853412E+02  0.00000000000E+00 0.  1.
          6    1    1    2  502    0 -0.51924399741E+02  0.22774229526E+02  0.32322945289E+03  0.37050787850E+03  0.17200000000E+03 0. -1.
         -6    1    1    2    0  501  0.51924399741E+02 -0.22774229526E+02  0.23476347160E+03  0.29650075281E+03  0.17200000000E+03 0.  1.
</event>
<event>
 4    1  0.3169553E-002  0.1861978E+03  0.7818608E-02  0.1161936E+00
          2   -1    0    0  502    0  0.00000000000E+00  0.00000000000E+00  0.70340823997E+03  0.70340823997E+03  0.00000000000E+00 0. -1.
         -2   -1    0    0    0  501 -0.00000000000E+00 -0.00000000000E+00 -0.49293781258E+02  0.49293781258E+02  0.00000000000E+00 0.  1.
          6    1    1    2  502    0 -0.53624567752E+02  0.47010967425E+02  0.33111289436E+03  0.37987547188E+03  0.17200000000E+03 0. -1.
         -6    1    1    2    0  501  0.53624567752E+02 -0.47010967425E+02  0.32300156435E+03  0.37282654934E+03  0.17200000000E+03 0.  1.
</event>
<event>
 4    1  0.3169553E-002  0.3113375E+03  0.7818608E-02  0.1079707E+00
         -2   -1    0    0    0  501 -0.00000000000E+00  0.00000000000E+00  0.34047109810E+03  0.34047109810E+03  0.00000000000E+00 0.  1.
          2   -1    0    0  502    0  0.00000000000E+00 -0.00000000000E+00 -0.28640292014E+03  0.28640292014E+03  0.00000000000E+00 0. -1.
          6    1    1    2  502    0 -0.93850691193E+02 -0.24194857944E+03  0.51225054142E+02  0.31552349120E+03  0.17200000000E+03 0. -1.
         -6    1    1    2    0  501  0.93850691193E+02  0.24194857944E+03  0.28431238195E+01  0.31135052703E+03  0.17200000000E+03 0.  1.
</event>
<event>
 4    1  0.3169553E-002  0.2061260E+03  0.7818608E-02  0.1144671E+00
         -3   -1    0    0    0  501 -0.00000000000E+00  0.00000000000E+00  0.41087879653E+02  0.41087879653E+02  0.00000000000E+00 0.  1.
          3   -1    0    0  502    0  0.00000000000E+00 -0.00000000000E+00 -0.10611515575E+04  0.10611515575E+04  0.00000000000E+00 0. -1.
          6    1    1    2  502    0 -0.91443912344E+02  0.67393870993E+02 -0.59806759121E+03  0.63259210129E+03  0.17200000000E+03 0. -1.
         -6    1    1    2    0  501  0.91443912344E+02 -0.67393870993E+02 -0.42199608664E+03  0.46964733587E+03  0.17200000000E+03 0. -1.
</event>
<event>
 4    1  0.3169553E-002  0.3838892E+03  0.7818608E-02  0.1049506E+00
         -1   -1    0    0    0  501 -0.00000000000E+00  0.00000000000E+00  0.17772305536E+03  0.17772305536E+03  0.00000000000E+00 0.  1.
          1   -1    0    0  502    0  0.00000000000E+00 -0.00000000000E+00 -0.91105517263E+03  0.91105517263E+03  0.00000000000E+00 0. -1.
          6    1    1    2  502    0 -0.15260420113E+03  0.30740664837E+03 -0.52982706881E+03  0.65428404574E+03  0.17200000000E+03 0. -1.
         -6    1    1    2    0  501  0.15260420113E+03 -0.30740664837E+03 -0.20350504845E+03  0.43449418225E+03  0.17200000000E+03 0.  1.
</event>
<event>
 4    1  0.3169553E-002  0.1954956E+03  0.7818608E-02  0.1153596E+00
          2   -1    0    0  502    0  0.00000000000E+00  0.00000000000E+00  0.12776283104E+04  0.12776283104E+04  0.00000000000E+00 0. -1.
         -2   -1    0    0    0  501 -0.00000000000E+00 -0.00000000000E+00 -0.31693966450E+02  0.31693966450E+02  0.00000000000E+00 0.  1.
          6    1    1    2  502    0  0.62676689990E+02 -0.68601557424E+02  0.77812562137E+03  0.80230793576E+03  0.17200000000E+03 0.  1.
         -6    1    1    2    0  501 -0.62676689990E+02  0.68601557424E+02  0.46780872257E+03  0.50701434108E+03  0.17200000000E+03 0.  1.
</event>
<event>
 4    1  0.3169553E-002  0.2031860E+03  0.7818608E-02  0.1147078E+00
          2   -1    0    0  502    0  0.00000000000E+00  0.00000000000E+00  0.12858672405E+04  0.12858672405E+04  0.00000000000E+00 0. -1.
         -2   -1    0    0    0  501 -0.00000000000E+00 -0.00000000000E+00 -0.38502495856E+02  0.38502495856E+02  0.00000000000E+00 0.  1.
          6    1    1    2  502    0 -0.73298391616E+02 -0.79548052139E+02  0.89357613714E+03  0.91638575921E+03  0.17200000000E+03 0. -1.
         -6    1    1    2    0  501  0.73298391616E+02  0.79548052139E+02  0.35378860753E+03  0.40798397717E+03  0.17200000000E+03 0.  1.
</event>
<event>
 4    1  0.3169553E-002  0.2027215E+03  0.7818608E-02  0.1147463E+00
         -2   -1    0    0    0  501 -0.00000000000E+00  0.00000000000E+00  0.18346104175E+03  0.18346104175E+03  0.00000000000E+00 0.  1.
          2   -1    0    0  502    0  0.00000000000E+00 -0.00000000000E+00 -0.49140560377E+03  0.49140560377E+03  0.00000000000E+00 0. -1.
          6    1    1    2  502    0  0.10302296476E+03  0.29971056368E+02 -0.40288665237E+03  0.45101402433E+03  0.17200000000E+03 0. -1.
         -6    1    1    2    0  501 -0.10302296476E+03 -0.29971056368E+02  0.94942090353E+02  0.22385262118E+03  0.17200000000E+03 0.  1.
</event>
<event>
 4    1  0.3169553E-002  0.1939679E+03  0.7818608E-02  0.1154930E+00
          2   -1    0    0  502    0  0.00000000000E+00  0.00000000000E+00  0.49884550117E+03  0.49884550117E+03  0.00000000000E+00 0. -1.
         -2   -1    0    0    0  501 -0.00000000000E+00 -0.00000000000E+00 -0.75968953052E+02  0.75968953052E+02  0.00000000000E+00 0.  1.
          6    1    1    2  502    0  0.77510756510E+02 -0.45073606198E+02  0.18703459540E+03  0.26945405402E+03  0.17200000000E+03 0.  1.
         -6    1    1    2    0  501 -0.77510756510E+02  0.45073606198E+02  0.23584195272E+03  0.30536040020E+03  0.17200000000E+03 0. -1.
</event>
<event>
 4    1  0.3169553E-002  0.1801170E+03  0.7818608E-02  0.1167690E+00
         -2   -1    0    0    0  501 -0.00000000000E+00  0.00000000000E+00  0.11099730908E+02  0.11099730908E+02  0.00000000000E+00 0.  1.
          2   -1    0    0  502    0  0.00000000000E+00 -0.00000000000E+00 -0.29232344548E+04  0.29232344548E+04  0.00000000000E+00 0. -1.
          6    1    1    2  502    0 -0.23095527635E+01  0.53411438900E+02 -0.14742801346E+04  0.14852420783E+04  0.17200000000E+03 0. -1.
         -6    1    1    2    0  501  0.23095527635E+01 -0.53411438900E+02 -0.14378545893E+04  0.14490921075E+04  0.17200000000E+03 0.  1.
</event>
<event>
 4    1  0.3169553E-002  0.7773259E+03  0.7818608E-02  0.9593429E-01
         -2   -1    0    0    0  501 -0.00000000000E+00  0.00000000000E+00  0.40500689322E+03  0.40500689322E+03  0.00000000000E+00 0.  1.
          2   -1    0    0  502    0  0.00000000000E+00 -0.00000000000E+00 -0.17719890333E+04  0.17719890333E+04  0.00000000000E+00 0. -1.
          6    1    1    2  502    0  0.28968797749E+03  0.70052298263E+03 -0.11162380796E+04  0.13602290336E+04  0.17200000000E+03 0. -1.
         -6    1    1    2    0  501 -0.28968797749E+03 -0.70052298263E+03 -0.25074406048E+03  0.81676689291E+03  0.17200000000E+03 0.  1.
</event>
<event>
 4    1  0.3169553E-002  0.1913258E+03  0.7818608E-02  0.1157271E+00
         -3   -1    0    0    0  501 -0.00000000000E+00  0.00000000000E+00  0.98470863279E+03  0.98470863279E+03  0.00000000000E+00 0.  1.
          3   -1    0    0  502    0  0.00000000000E+00 -0.00000000000E+00 -0.51684075423E+02  0.51684075423E+02  0.00000000000E+00 0. -1.
          6    1    1    2  502    0 -0.29089919062E+02  0.78583430040E+02  0.19194390839E+03  0.27101299385E+03  0.17200000000E+03 0. -1.
         -6    1    1    2    0  501  0.29089919062E+02 -0.78583430040E+02  0.74108064898E+03  0.76537971436E+03  0.17200000000E+03 0.  1.
</event>
<event>
 4    1  0.3169553E-002  0.2733977E+03  0.7818608E-02  0.1099351E+00
         -2   -1    0    0    0  501 -0.00000000000E+00  0.00000000000E+00  0.21995742693E+03  0.21995742693E+03  0.00000000000E+00 0.  1.
          2   -1    0    0  502    0  0.00000000000E+00 -0.00000000000E+00 -0.34040694301E+03  0.34040694301E+03  0.00000000000E+00 0. -1.
          6    1    1    2  502    0 -0.20840619459E+03  0.41583252732E+02 -0.48607439888E+02  0.27768505913E+03  0.17200000000E+03 0. -1.
         -6    1    1    2    0  501  0.20840619459E+03 -0.41583252732E+02 -0.71842076190E+02  0.28267931082E+03  0.17200000000E+03 0. -1.
</event>
<event>
 4    1  0.3169553E-002  0.1832145E+03  0.7818608E-02  0.1164728E+00
         -1   -1    0    0    0  501 -0.00000000000E+00  0.00000000000E+00  0.25920485208E+03  0.25920485208E+03  0.00000000000E+00 0.  1.
          1   -1    0    0  502    0  0.00000000000E+00 -0.00000000000E+00 -0.12958255248E+03  0.12958255248E+03  0.00000000000E+00 0. -1.
          6    1    1    2  502    0  0.42619931254E+02 -0.46551878311E+02  0.59963166932E+02  0.19277737757E+03  0.17200000000E+03 0. -1.
         -6    1    1    2    0  501 -0.42619931254E+02  0.46551878311E+02  0.69659132676E+02  0.19601002699E+03  0.17200000000E+03 0.  1.
</event>
<event>
 4    1  0.3169553E-002  0.3732345E+03  0.7818608E-02  0.1053463E+00
          1   -1    0    0  502    0  0.00000000000E+00  0.00000000000E+00  0.68063763358E+03  0.68063763358E+03  0.00000000000E+00 0. -1.
         -1   -1    0    0    0  501 -0.00000000000E+00 -0.00000000000E+00 -0.21092038758E+03  0.21092038758E+03  0.00000000000E+00 0.  1.
          6    1    1    2  502    0 -0.11754961308E+03 -0.30968056393E+03  0.15810072432E+03  0.40533912005E+03  0.17200000000E+03 0. -1.
         -6    1    1    2    0  501  0.11754961308E+03  0.30968056393E+03  0.31161652168E+03  0.48621890111E+03  0.17200000000E+03 0.  1.
</event>
<event>
 4    1  0.3169553E-002  0.3501307E+03  0.7818608E-02  0.1062561E+00
         -2   -1    0    0    0  501 -0.00000000000E+00  0.00000000000E+00  0.41779968503E+03  0.41779968503E+03  0.00000000000E+00 0.  1.
          2   -1    0    0  502    0  0.00000000000E+00 -0.00000000000E+00 -0.37429504007E+03  0.37429504007E+03  0.00000000000E+00 0. -1.
          6    1    1    2  502    0 -0.25823926214E+03 -0.16223442421E+03 -0.16234292609E+03  0.38593620012E+03  0.17200000000E+03 0. -1.
         -6    1    1    2    0  501  0.25823926214E+03  0.16223442421E+03  0.20584757105E+03  0.40615852498E+03  0.17200000000E+03 0.  1.
</event>
<event>
 4    1  0.3169553E-002  0.2119096E+03  0.7818608E-02  0.1140063E+00
          2   -1    0    0  502    0  0.00000000000E+00  0.00000000000E+00  0.16138813601E+04  0.16138813601E+04  0.00000000000E+00 0. -1.
         -2   -1    0    0    0  501 -0.00000000000E+00 -0.00000000000E+00 -0.40335679953E+02  0.40335679953E+02  0.00000000000E+00 0.  1.
          6    1    1    2  502    0 -0.10507213848E+03  0.65433251638E+02  0.32612976938E+03  0.38892967382E+03  0.17200000000E+03 0.  1.
         -6    1    1    2    0  501  0.10507213848E+03 -0.65433251638E+02  0.12474159108E+04  0.12652873663E+04  0.17200000000E+03 0. -1.
</event>
<event>
 4    1  0.3169553E-002  0.3159386E+03  0.7818608E-02  0.1077534E+00
         -2   -1    0    0    0  501 -0.00000000000E+00  0.00000000000E+00  0.87334254517E+02  0.87334254517E+02  0.00000000000E+00 0.  1.
          2   -1    0    0  502    0  0.00000000000E+00 -0.00000000000E+00 -0.31501400039E+04  0.31501400039E+04  0.00000000000E+00 0. -1.
          6    1    1    2  502    0  0.20357484867E+03 -0.16967753170E+03 -0.28235367258E+04  0.28411576559E+04  0.17200000000E+03 0. -1.
         -6    1    1    2    0  501 -0.20357484867E+03  0.16967753170E+03 -0.23926902357E+03  0.39631660250E+03  0.17200000000E+03 0.  1.
</event>
<event>
 4    1  0.3169553E-002  0.1731861E+03  0.7818608E-02  0.1174565E+00
         -2   -1    0    0    0  501 -0.00000000000E+00  0.00000000000E+00  0.11137172339E+03  0.11137172339E+03  0.00000000000E+00 0.  1.
          2   -1    0    0  502    0  0.00000000000E+00 -0.00000000000E+00 -0.18849754446E+04  0.18849754446E+04  0.00000000000E+00 0. -1.
          6    1    1    2  502    0 -0.16217608821E+02 -0.12100427038E+02 -0.18109233042E+04  0.18191857093E+04  0.17200000000E+03 0. -1.
         -6    1    1    2    0  501  0.16217608821E+02  0.12100427038E+02  0.37319582997E+02  0.17716145869E+03  0.17200000000E+03 0.  1.
</event>
<event>
 4    1  0.3169553E-002  0.2540301E+03  0.7818608E-02  0.1110784E+00
         -2   -1    0    0    0  501 -0.00000000000E+00  0.00000000000E+00  0.21417926265E+02  0.21417926265E+02  0.00000000000E+00 0.  1.
          2   -1    0    0  502    0  0.00000000000E+00 -0.00000000000E+00 -0.34391902016E+04  0.34391902016E+04  0.00000000000E+00 0. -1.
          6    1    1    2  502    0 -0.16619357555E+03  0.85597768219E+02 -0.23180276090E+04  0.23319055038E+04  0.17200000000E+03 0. -1.
         -6    1    1    2    0  501  0.16619357555E+03 -0.85597768219E+02 -0.10997446663E+04  0.11287026241E+04  0.17200000000E+03 0.  1.
</event>
<event>
 4    1  0.3169553E-002  0.2817705E+03  0.7818608E-02  0.1094726E+00
         -2   -1    0    0    0  501 -0.00000000000E+00  0.00000000000E+00  0.58943169088E+02  0.58943169088E+02  0.00000000000E+00 0.  1.
          2   -1    0    0  502    0  0.00000000000E+00 -0.00000000000E+00 -0.19971774189E+04  0.19971774189E+04  0.00000000000E+00 0. -1.
          6    1    1    2  502    0  0.10790395304E+03 -0.19536470687E+03 -0.15557096151E+04  0.15810208848E+04  0.17200000000E+03 0. -1.
         -6    1    1    2    0  501 -0.10790395304E+03  0.19536470687E+03 -0.38252463471E+03  0.47509970315E+03  0.17200000000E+03 0.  1.
</event>
<event>
 4    1  0.3169553E-002  0.3543922E+03  0.7818608E-02  0.1060827E+00
          2   -1    0    0  502    0  0.00000000000E+00  0.00000000000E+00  0.14975239238E+03  0.14975239238E+03  0.00000000000E+00 0. -1.
         -2   -1    0    0    0  501 -0.00000000000E+00 -0.00000000000E+00 -0.10333912895E+04  0.10333912895E+04  0.00000000000E+00 0.  1.
          6    1    1    2  502    0  0.30082425962E+03 -0.74260490938E+02 -0.18503173424E+03  0.39978819188E+03  0.17200000000E+03 0. -1.
         -6    1    1    2    0  501 -0.30082425962E+03  0.74260490938E+02 -0.69860716292E+03  0.78335549004E+03  0.17200000000E+03 0.  1.
</event>
<event>
 4    1  0.3169553E-002  0.4567233E+03  0.7818608E-02  0.1025736E+00
         -2   -1    0    0    0  501 -0.00000000000E+00  0.00000000000E+00  0.55526513742E+03  0.55526513742E+03  0.00000000000E+00 0.  1.
          2   -1    0    0  502    0  0.00000000000E+00 -0.00000000000E+00 -0.76828793041E+03  0.76828793041E+03  0.00000000000E+00 0. -1.
          6    1    1    2  502    0  0.40885952292E+03  0.10883982079E+03 -0.57959147470E+03  0.73791767401E+03  0.17200000000E+03 0. -1.
         -6    1    1    2    0  501 -0.40885952292E+03 -0.10883982079E+03  0.36656868171E+03  0.58563539381E+03  0.17200000000E+03 0.  1.
</event>
<event>
 4    1  0.3169553E-002  0.1765441E+03  0.7818608E-02  0.1171190E+00
          1   -1    0    0  502    0  0.00000000000E+00  0.00000000000E+00  0.90456503556E+03  0.90456503556E+03  0.00000000000E+00 0. -1.
         -1   -1    0    0    0  501 -0.00000000000E+00 -0.00000000000E+00 -0.12916563632E+03  0.12916563632E+03  0.00000000000E+00 0.  1.
          6    1    1    2  502    0  0.37694883782E+02  0.12763432340E+02  0.83028878719E+03  0.84885056377E+03  0.17200000000E+03 0. -1.
         -6    1    1    2    0  501 -0.37694883782E+02 -0.12763432340E+02 -0.54889387946E+02  0.18488010812E+03  0.17200000000E+03 0.  1.
</event>
<event>
 4    1  0.3169553E-002  0.1867091E+03  0.7818608E-02  0.1161463E+00
         -2   -1    0    0    0  501 -0.00000000000E+00  0.00000000000E+00  0.14242904128E+03  0.14242904128E+03  0.00000000000E+00 0.  1.
          2   -1    0    0  502    0  0.00000000000E+00 -0.00000000000E+00 -0.52495944887E+03  0.52495944887E+03  0.00000000000E+00 0. -1.
          6    1    1    2  502    0 -0.40182506646E+02  0.60511742919E+02 -0.43505913456E+03  0.47343083490E+03  0.17200000000E+03 0. -1.
         -6    1    1    2    0  501  0.40182506646E+02 -0.60511742919E+02  0.52528726974E+02  0.19395765525E+03  0.17200000000E+03 0.  1.
</event>
<event>
 4    1  0.3169553E-002  0.1748582E+03  0.7818608E-02  0.1172874E+00
          2   -1    0    0  502    0  0.00000000000E+00  0.00000000000E+00  0.10461043496E+04  0.10461043496E+04  0.00000000000E+00 0. -1.
         -2   -1    0    0    0  501 -0.00000000000E+00 -0.00000000000E+00 -0.14385633102E+03  0.14385633102E+03  0.00000000000E+00 0.  1.
          6    1    1    2  502    0  0.29310684594E+02  0.11501261906E+02  0.98223387510E+03  0.99767669145E+03  0.17200000000E+03 0. -1.
         -6    1    1    2    0  501 -0.29310684594E+02 -0.11501261906E+02 -0.79985856507E+02  0.19228398919E+03  0.17200000000E+03 0.  1.
</event>
<event>
 4    1  0.3169553E-002  0.2371991E+03  0.7818608E-02  0.1121673E+00
          1   -1    0    0  502    0  0.00000000000E+00  0.00000000000E+00  0.25622205070E+04  0.25622205070E+04  0.00000000000E+00 0. -1.
         -1   -1    0    0    0  501 -0.00000000000E+00 -0.00000000000E+00 -0.31152059844E+02  0.31152059844E+02  0.00000000000E+00 0.  1.
          6    1    1    2  502    0  0.46197096800E+02  0.15666921001E+03  0.19699436253E+04  0.19841726991E+04  0.17200000000E+03 0. -1.
         -6    1    1    2    0  501 -0.46197096800E+02 -0.15666921001E+03  0.56112482183E+03  0.60919986769E+03  0.17200000000E+03 0.  1.
</event>
<event>
 4    1  0.3169553E-002  0.1770683E+03  0.7818608E-02  0.1170671E+00
          1   -1    0    0  502    0  0.00000000000E+00  0.00000000000E+00  0.70110814879E+03  0.70110814879E+03  0.00000000000E+00 0. -1.
         -1   -1    0    0    0  501 -0.00000000000E+00 -0.00000000000E+00 -0.46393156536E+02  0.46393156536E+02  0.00000000000E+00 0.  1.
          6    1    1    2  502    0  0.31687310250E+02 -0.27660181493E+02  0.25636792243E+03  0.31157291750E+03  0.17200000000E+03 0.  1.
         -6    1    1    2    0  501 -0.31687310250E+02  0.27660181493E+02  0.39834706983E+03  0.43592838782E+03  0.17200000000E+03 0. -1.
</event>
<event>
 4    1  0.3169553E-002  0.4189360E+03  0.7818608E-02  0.1037413E+00
         -2   -1    0    0    0  501 -0.00000000000E+00  0.00000000000E+00  0.33452096842E+03  0.33452096842E+03  0.00000000000E+00 0.  1.
          2   -1    0    0  502    0  0.00000000000E+00 -0.00000000000E+00 -0.72212826059E+03  0.72212826059E+03  0.00000000000E+00 0. -1.
          6    1    1    2  502    0 -0.37210015849E+03 -0.86399400972E+02 -0.47008410612E+03  0.62967170118E+03  0.17200000000E+03 0. -1.
         -6    1    1    2    0  501  0.37210015849E+03  0.86399400972E+02  0.82476813947E+02  0.42697752783E+03  0.17200000000E+03 0.  1.
</event>
<event>
 4    1  0.3169553E-002  0.2320590E+03  0.7818608E-02  0.1125199E+00
         -2   -1    0    0    0  501 -0.00000000000E+00  0.00000000000E+00  0.13047633952E+03  0.13047633952E+03  0.00000000000E+00 0.  1.
          2   -1    0    0  502    0  0.00000000000E+00 -0.00000000000E+00 -0.43112804730E+03  0.43112804730E+03  0.00000000000E+00 0. -1.
          6    1    1    2  502    0 -0.23199969596E+02  0.15404268337E+03 -0.92317115626E+02  0.24974754598E+03  0.17200000000E+03 0. -1.
         -6    1    1    2    0  501  0.23199969596E+02 -0.15404268337E+03 -0.20833459216E+03  0.31185684084E+03  0.17200000000E+03 0.  1.
</event>
<event>
 4    1  0.3169553E-002  0.2365349E+03  0.7818608E-02  0.1122123E+00
         -2   -1    0    0    0  501 -0.00000000000E+00  0.00000000000E+00  0.20256612458E+03  0.20256612458E+03  0.00000000000E+00 0.  1.
          2   -1    0    0  502    0  0.00000000000E+00 -0.00000000000E+00 -0.35885377089E+03  0.35885377089E+03  0.00000000000E+00 0. -1.
          6    1    1    2  502    0 -0.15951977746E+03 -0.30301802215E+02 -0.21286331841E+03  0.31821305904E+03  0.17200000000E+03 0. -1.
         -6    1    1    2    0  501  0.15951977746E+03  0.30301802215E+02  0.56575672101E+02  0.24320683644E+03  0.17200000000E+03 0.  1.
</event>
<event>
 4    1  0.3169553E-002  0.1865211E+03  0.7818608E-02  0.1161637E+00
          2   -1    0    0  502    0  0.00000000000E+00  0.00000000000E+00  0.67928481834E+03  0.67928481834E+03  0.00000000000E+00 0. -1.
         -2   -1    0    0    0  501 -0.00000000000E+00 -0.00000000000E+00 -0.52118655053E+02  0.52118655053E+02  0.00000000000E+00 0.  1.
          6    1    1    2  502    0  0.71298119487E+02 -0.11076929949E+02  0.36171550552E+03  0.40697447973E+03  0.17200000000E+03 0. -1.
         -6    1    1    2    0  501 -0.71298119487E+02  0.11076929949E+02  0.26545065777E+03  0.32442899366E+03  0.17200000000E+03 0. -1.
</event>
<event>
 4    1  0.3169553E-002  0.2102631E+03  0.7818608E-02  0.1141358E+00
         -2   -1    0    0    0  501 -0.00000000000E+00  0.00000000000E+00  0.66817586192E+02  0.66817586192E+02  0.00000000000E+00 0.  1.
          2   -1    0    0  502    0  0.00000000000E+00 -0.00000000000E+00 -0.66215524358E+03  0.66215524358E+03  0.00000000000E+00 0. -1.
          6    1    1    2  502    0 -0.12079373488E+03 -0.59523410194E+01 -0.30763197171E+03  0.37262311626E+03  0.17200000000E+03 0. -1.
         -6    1    1    2    0  501  0.12079373488E+03  0.59523410194E+01 -0.28770568567E+03  0.35634971351E+03  0.17200000000E+03 0.  1.
</event>
<event>
 4    1  0.3169553E-002  0.2682780E+03  0.7818608E-02  0.1102269E+00
         -2   -1    0    0    0  501 -0.00000000000E+00  0.00000000000E+00  0.53289104394E+02  0.53289104394E+02  0.00000000000E+00 0.  1.
          2   -1    0    0  502    0  0.00000000000E+00 -0.00000000000E+00 -0.14033390992E+04  0.14033390992E+04  0.00000000000E+00 0. -1.
          6    1    1    2  502    0  0.19829158418E+03 -0.55403351959E+02 -0.81619435631E+03  0.85915441629E+03  0.17200000000E+03 0. -1.
         -6    1    1    2    0  501 -0.19829158418E+03  0.55403351959E+02 -0.53385563855E+03  0.59747378735E+03  0.17200000000E+03 0.  1.
</event>
<event>
 4    1  0.3169553E-002  0.5520818E+03  0.7818608E-02  0.1001013E+00
         -2   -1    0    0    0  501 -0.00000000000E+00  0.00000000000E+00  0.23580620433E+03  0.23580620433E+03  0.00000000000E+00 0.  1.
          2   -1    0    0  502    0  0.00000000000E+00 -0.00000000000E+00 -0.20178824642E+04  0.20178824642E+04  0.00000000000E+00 0. -1.
          6    1    1    2  502    0 -0.15011340856E+03  0.50266909923E+03 -0.15666243859E+04  0.16610557562E+04  0.17200000000E+03 0. -1.
         -6    1    1    2    0  501  0.15011340856E+03 -0.50266909923E+03 -0.21545187396E+03  0.59263291230E+03  0.17200000000E+03 0.  1.
</event>
<event>
 4    1  0.3169553E-002  0.3334651E+03  0.7818608E-02  0.1069614E+00
         -1   -1    0    0    0  501 -0.00000000000E+00  0.00000000000E+00  0.15258362115E+03  0.15258362115E+03  0.00000000000E+00 0.  1.
          1   -1    0    0  502    0  0.00000000000E+00 -0.00000000000E+00 -0.93265854612E+03  0.93265854612E+03  0.00000000000E+00 0. -1.
          6    1    1    2  502    0 -0.12546253807E+03  0.25665948904E+03 -0.64374169934E+03  0.72498435655E+03  0.17200000000E+03 0. -1.
         -6    1    1    2    0  501  0.12546253807E+03 -0.25665948904E+03 -0.13633322563E+03  0.36025781072E+03  0.17200000000E+03 0.  1.
</event>
<event>
 4    1  0.3169553E-002  0.2623111E+03  0.7818608E-02  0.1105763E+00
          2   -1    0    0  502    0  0.00000000000E+00  0.00000000000E+00  0.24093590279E+04  0.24093590279E+04  0.00000000000E+00 0. -1.
         -2   -1    0    0    0  501 -0.00000000000E+00 -0.00000000000E+00 -0.25773482490E+03  0.25773482490E+03  0.00000000000E+00 0.  1.
          6    1    1    2  502    0  0.18334913960E+03 -0.74874757477E+02  0.23333087605E+04  0.23480070077E+04  0.17200000000E+03 0. -1.
         -6    1    1    2    0  501 -0.18334913960E+03  0.74874757477E+02 -0.18168455749E+03  0.31908684512E+03  0.17200000000E+03 0.  1.
</event>
<event>
 4    1  0.3169553E-002  0.2408368E+03  0.7818608E-02  0.1119237E+00
          2   -1    0    0  502    0  0.00000000000E+00  0.00000000000E+00  0.40296813643E+03  0.40296813643E+03  0.00000000000E+00 0. -1.
         -2   -1    0    0    0  501 -0.00000000000E+00 -0.00000000000E+00 -0.17265629332E+03  0.17265629332E+03  0.00000000000E+00 0.  1.
          6    1    1    2  502    0  0.11445627613E+03 -0.12376644192E+03  0.23253707845E+03  0.33477733518E+03  0.17200000000E+03 0. -1.
         -6    1    1    2    0  501 -0.11445627613E+03  0.12376644192E+03 -0.22252353479E+01  0.24084709457E+03  0.17200000000E+03 0.  1.
</event>
<event>
 4    1  0.3169553E-002  0.1756377E+03  0.7818608E-02  0.1172093E+00
         -1   -1    0    0    0  501 -0.00000000000E+00  0.00000000000E+00  0.76297568407E+03  0.76297568407E+03  0.00000000000E+00 0.  1.
          1   -1    0    0  502    0  0.00000000000E+00 -0.00000000000E+00 -0.26003152918E+03  0.26003152918E+03  0.00000000000E+00 0. -1.
          6    1    1    2  502    0  0.19159330256E+02  0.29958918164E+02 -0.21858589023E+03  0.28040757501E+03  0.17200000000E+03 0. -1.
         -6    1    1    2    0  501 -0.19159330256E+02 -0.29958918164E+02  0.72153004512E+03  0.74259963825E+03  0.17200000000E+03 0.  1.
</event>
<event>
 4    1  0.3169553E-002  0.2509874E+03  0.7818608E-02  0.1112682E+00
         -1   -1    0    0    0  501 -0.00000000000E+00  0.00000000000E+00  0.96474105978E+02  0.96474105978E+02  0.00000000000E+00 0.  1.
          1   -1    0    0  502    0  0.00000000000E+00 -0.00000000000E+00 -0.67522010934E+03  0.67522010934E+03  0.00000000000E+00 0. -1.
          6    1    1    2  502    0  0.13266999624E+03 -0.12573525452E+03 -0.35941526029E+03  0.43837656354E+03  0.17200000000E+03 0. -1.
         -6    1    1    2    0  501 -0.13266999624E+03  0.12573525452E+03 -0.21933074307E+03  0.33331765178E+03  0.17200000000E+03 0.  1.
</event>
<event>
 4    1  0.3169553E-002  0.5506888E+03  0.7818608E-02  0.1001335E+00
         -1   -1    0    0    0  501 -0.00000000000E+00  0.00000000000E+00  0.22322397369E+03  0.22322397369E+03  0.00000000000E+00 0.  1.
          1   -1    0    0  502    0  0.00000000000E+00 -0.00000000000E+00 -0.13825043183E+04  0.13825043183E+04  0.00000000000E+00 0. -1.
          6    1    1    2  502    0 -0.41519253156E+03  0.31825981380E+03 -0.68534958871E+03  0.87918269210E+03  0.17200000000E+03 0. -1.
         -6    1    1    2    0  501  0.41519253156E+03 -0.31825981380E+03 -0.47393075593E+03  0.72654559992E+03  0.17200000000E+03 0.  1.
</event>
<event>
 4    1  0.3169553E-002  0.2151832E+03  0.7818608E-02  0.1137526E+00
          1   -1    0    0  502    0  0.00000000000E+00  0.00000000000E+00  0.17906040951E+03  0.17906040951E+03  0.00000000000E+00 0. -1.
         -1   -1    0    0    0  501 -0.00000000000E+00 -0.00000000000E+00 -0.26204730936E+03  0.26204730936E+03  0.00000000000E+00 0.  1.
          6    1    1    2  502    0 -0.12788230224E+03 -0.19129618256E+02 -0.16172185028E+02  0.21579009498E+03  0.17200000000E+03 0. -1.
         -6    1    1    2    0  501  0.12788230224E+03  0.19129618256E+02 -0.66814714828E+02  0.22531762390E+03  0.17200000000E+03 0. -1.
</event>
<event>
 4    1  0.3169553E-002  0.1756328E+03  0.7818608E-02  0.1172098E+00
         -2   -1    0    0    0  501 -0.00000000000E+00  0.00000000000E+00  0.30491729875E+02  0.30491729875E+02  0.00000000000E+00 0.  1.
          2   -1    0    0  502    0  0.00000000000E+00 -0.00000000000E+00 -0.19053520367E+04  0.19053520367E+04  0.00000000000E+00 0. -1.
          6    1    1    2  502    0  0.35625361686E+01 -0.35358188310E+02 -0.27452775657E+03  0.32590241219E+03  0.17200000000E+03 0.  1.
         -6    1    1    2    0  501 -0.35625361686E+01  0.35358188310E+02 -0.16003325502E+04  0.16099413544E+04  0.17200000000E+03 0. -1.
</event>
<event>
 4    1  0.3169553E-002  0.1856680E+03  0.7818608E-02  0.1162428E+00
          1   -1    0    0  502    0  0.00000000000E+00  0.00000000000E+00  0.25646178939E+04  0.25646178939E+04  0.00000000000E+00 0. -1.
         -1   -1    0    0    0  501 -0.00000000000E+00 -0.00000000000E+00 -0.16388913558E+02  0.16388913558E+02  0.00000000000E+00 0.  1.
          6    1    1    2  502    0 -0.65279824280E+02 -0.25042676448E+02  0.18213781065E+04  0.18308169755E+04  0.17200000000E+03 0.  1.
         -6    1    1    2    0  501  0.65279824280E+02  0.25042676448E+02  0.72685087380E+03  0.75018983187E+03  0.17200000000E+03 0.  1.
</event>
<event>
 4    1  0.3169553E-002  0.4742990E+03  0.7818608E-02  0.1020714E+00
          2   -1    0    0  502    0  0.00000000000E+00  0.00000000000E+00  0.29576963080E+04  0.29576963080E+04  0.00000000000E+00 0. -1.
         -2   -1    0    0    0  501 -0.00000000000E+00 -0.00000000000E+00 -0.18590872526E+03  0.18590872526E+03  0.00000000000E+00 0.  1.
          6    1    1    2  502    0 -0.19465076774E+03 -0.39684588013E+03  0.25941178526E+04  0.26371209693E+04  0.17200000000E+03 0. -1.
         -6    1    1    2    0  501  0.19465076774E+03  0.39684588013E+03  0.17766973013E+03  0.50648406388E+03  0.17200000000E+03 0.  1.
</event>
<event>
 4    1  0.3169553E-002  0.1884013E+03  0.7818608E-02  0.1159911E+00
         -2   -1    0    0    0  501 -0.00000000000E+00  0.00000000000E+00  0.53613014376E+02  0.53613014376E+02  0.00000000000E+00 0.  1.
          2   -1    0    0  502    0  0.00000000000E+00 -0.00000000000E+00 -0.66318864741E+03  0.66318864741E+03  0.00000000000E+00 0. -1.
          6    1    1    2  502    0  0.10557547192E+02 -0.76155095483E+02 -0.31956966833E+03  0.37097147233E+03  0.17200000000E+03 0.  1.
         -6    1    1    2    0  501 -0.10557547192E+02  0.76155095483E+02 -0.29000596470E+03  0.34583018945E+03  0.17200000000E+03 0.  1.
</event>
<event>
 4    1  0.3169553E-002  0.2328963E+03  0.7818608E-02  0.1124618E+00
          2   -1    0    0  502    0  0.00000000000E+00  0.00000000000E+00  0.12312529334E+04  0.12312529334E+04  0.00000000000E+00 0. -1.
         -2   -1    0    0    0  501 -0.00000000000E+00 -0.00000000000E+00 -0.67218364178E+02  0.67218364178E+02  0.00000000000E+00 0.  1.
          6    1    1    2  502    0 -0.15087642850E+03  0.43508256035E+02  0.96314964680E+03  0.99090761787E+03  0.17200000000E+03 0. -1.
         -6    1    1    2    0  501  0.15087642850E+03 -0.43508256035E+02  0.20088492243E+03  0.30756367971E+03  0.17200000000E+03 0.  1.
</event>
<event>
 4    1  0.3169553E-002  0.1767092E+03  0.7818608E-02  0.1171026E+00
          2   -1    0    0  502    0  0.00000000000E+00  0.00000000000E+00  0.35121075620E+03  0.35121075620E+03  0.00000000000E+00 0. -1.
         -2   -1    0    0    0  501 -0.00000000000E+00 -0.00000000000E+00 -0.91065289861E+02  0.91065289861E+02  0.00000000000E+00 0.  1.
          6    1    1    2  502    0  0.16263993633E+02 -0.37116298027E+02  0.96052047662E+02  0.20112715612E+03  0.17200000000E+03 0.  1.
         -6    1    1    2    0  501 -0.16263993633E+02  0.37116298027E+02  0.16409341868E+03  0.24114888995E+03  0.17200000000E+03 0. -1.
</event>
<event>
 4    1  0.3169553E-002  0.3066655E+03  0.7818608E-02  0.1081955E+00
          2   -1    0    0  502    0  0.00000000000E+00  0.00000000000E+00  0.22201876730E+04  0.22201876730E+04  0.00000000000E+00 0. -1.
         -2   -1    0    0    0  501 -0.00000000000E+00 -0.00000000000E+00 -0.63499487105E+02  0.63499487105E+02  0.00000000000E+00 0.  1.
          6    1    1    2  502    0 -0.96899298632E+02  0.23467047157E+03  0.17371912398E+04  0.17640513337E+04  0.17200000000E+03 0. -1.
         -6    1    1    2    0  501  0.96899298632E+02 -0.23467047157E+03  0.41949694611E+03  0.51963582642E+03  0.17200000000E+03 0.  1.
</event>
<event>
 4    1  0.3169553E-002  0.2662233E+03  0.7818608E-02  0.1103461E+00
         -2   -1    0    0    0  501 -0.00000000000E+00  0.00000000000E+00  0.13126513922E+03  0.13126513922E+03  0.00000000000E+00 0.  1.
          2   -1    0    0  502    0  0.00000000000E+00 -0.00000000000E+00 -0.58539551874E+03  0.58539551874E+03  0.00000000000E+00 0. -1.
          6    1    1    2  502    0  0.14193154908E+02  0.20270525337E+03 -0.32691976541E+03  0.42160573811E+03  0.17200000000E+03 0. -1.
         -6    1    1    2    0  501 -0.14193154908E+02 -0.20270525337E+03 -0.12721061411E+03  0.29505491986E+03  0.17200000000E+03 0.  1.
</event>
<event>
 4    1  0.3169553E-002  0.3641549E+03  0.7818608E-02  0.1056951E+00
          1   -1    0    0  502    0  0.00000000000E+00  0.00000000000E+00  0.21130358665E+04  0.21130358665E+04  0.00000000000E+00 0. -1.
         -1   -1    0    0    0  501 -0.00000000000E+00 -0.00000000000E+00 -0.65495016657E+02  0.65495016657E+02  0.00000000000E+00 0.  1.
          6    1    1    2  502    0  0.21509065019E+03  0.23824528891E+03  0.12464649770E+04  0.12985698843E+04  0.17200000000E+03 0. -1.
         -6    1    1    2    0  501 -0.21509065019E+03 -0.23824528891E+03  0.80107587283E+03  0.87996099886E+03  0.17200000000E+03 0.  1.
</event>
<event>
 4    1  0.3169553E-002  0.3008089E+03  0.7818608E-02  0.1084837E+00
          2   -1    0    0  502    0  0.00000000000E+00  0.00000000000E+00  0.11446580149E+04  0.11446580149E+04  0.00000000000E+00 0. -1.
         -2   -1    0    0    0  501 -0.00000000000E+00 -0.00000000000E+00 -0.79367814337E+02  0.79367814337E+02  0.00000000000E+00 0.  1.
          6    1    1    2  502    0 -0.16989928770E+03  0.17898667513E+03  0.57133147039E+03  0.64568231112E+03  0.17200000000E+03 0. -1.
         -6    1    1    2    0  501  0.16989928770E+03 -0.17898667513E+03  0.49395873021E+03  0.57834351815E+03  0.17200000000E+03 0.  1.
</event>
<event>
 4    1  0.3169553E-002  0.2743345E+03  0.7818608E-02  0.1098824E+00
          2   -1    0    0  502    0  0.00000000000E+00  0.00000000000E+00  0.49153622765E+03  0.49153622765E+03  0.00000000000E+00 0. -1.
         -2   -1    0    0    0  501 -0.00000000000E+00 -0.00000000000E+00 -0.41856688285E+03  0.41856688285E+03  0.00000000000E+00 0.  1.
          6    1    1    2  502    0 -0.19065037069E+03  0.96580685423E+02  0.39887341568E+03  0.48410680059E+03  0.17200000000E+03 0. -1.
         -6    1    1    2    0  501  0.19065037069E+03 -0.96580685423E+02 -0.32590407088E+03  0.42599630991E+03  0.17200000000E+03 0.  1.
</event>
<event>
 4    1  0.3169553E-002  0.1876335E+03  0.7818608E-02  0.1160613E+00
          2   -1    0    0  502    0  0.00000000000E+00  0.00000000000E+00  0.16226719301E+04  0.16226719301E+04  0.00000000000E+00 0. -1.
         -2   -1    0    0    0  501 -0.00000000000E+00 -0.00000000000E+00 -0.21732722042E+02  0.21732722042E+02  0.00000000000E+00 0.  1.
          6    1    1    2  502    0  0.45824829177E+02 -0.59350060657E+02  0.83402394211E+03  0.85486974486E+03  0.17200000000E+03 0. -1.
         -6    1    1    2    0  501 -0.45824829177E+02  0.59350060657E+02  0.76691526599E+03  0.78953490732E+03  0.17200000000E+03 0.  1.
</event>
<event>
 4    1  0.3169553E-002  0.2592387E+03  0.7818608E-02  0.1107602E+00
         -2   -1    0    0    0  501 -0.00000000000E+00  0.00000000000E+00  0.15263167509E+03  0.15263167509E+03  0.00000000000E+00 0.  1.
          2   -1    0    0  502    0  0.00000000000E+00 -0.00000000000E+00 -0.57570967627E+03  0.57570967627E+03  0.00000000000E+00 0. -1.
          6    1    1    2  502    0 -0.38915664905E+02 -0.19001645811E+03 -0.38815010430E+03  0.46676030979E+03  0.17200000000E+03 0. -1.
         -6    1    1    2    0  501  0.38915664905E+02  0.19001645811E+03 -0.34927896878E+02  0.26158104157E+03  0.17200000000E+03 0.  1.
</event>
<event>
 4    1  0.3169553E-002  0.3245861E+03  0.7818608E-02  0.1073558E+00
         -2   -1    0    0    0  501 -0.00000000000E+00  0.00000000000E+00  0.39089459762E+02  0.39089459762E+02  0.00000000000E+00 0.  1.
          2   -1    0    0  502    0  0.00000000000E+00 -0.00000000000E+00 -0.38102225244E+04  0.38102225244E+04  0.00000000000E+00 0. -1.
          6    1    1    2  502    0 -0.69866722567E+02  0.26625318887E+03 -0.84442740552E+03  0.90466223680E+03  0.17200000000E+03 0.  1.
         -6    1    1    2    0  501  0.69866722567E+02 -0.26625318887E+03 -0.29267056592E+04  0.29446497474E+04  0.17200000000E+03 0. -1.
</event>
<event>
 4    1  0.3169553E-002  0.2136129E+03  0.7818608E-02  0.1138736E+00
          2   -1    0    0  502    0  0.00000000000E+00  0.00000000000E+00  0.55291755401E+03  0.55291755401E+03  0.00000000000E+00 0. -1.
         -2   -1    0    0    0  501 -0.00000000000E+00 -0.00000000000E+00 -0.88477064032E+02  0.88477064032E+02  0.00000000000E+00 0.  1.
          6    1    1    2  502    0  0.11701842435E+03  0.48509393248E+02  0.31538722963E+03  0.38091938449E+03  0.17200000000E+03 0. -1.
         -6    1    1    2    0  501 -0.11701842435E+03 -0.48509393248E+02  0.14905326035E+03  0.26047523355E+03  0.17200000000E+03 0.  1.
</event>
<event>
 4    1  0.3169553E-002  0.2137552E+03  0.7818608E-02  0.1138626E+00
         -2   -1    0    0    0  501 -0.00000000000E+00  0.00000000000E+00  0.83886949999E+03  0.83886949999E+03  0.00000000000E+00 0.  1.
          2   -1    0    0  502    0  0.00000000000E+00 -0.00000000000E+00 -0.56936100271E+02  0.56936100271E+02  0.00000000000E+00 0. -1.
          6    1    1    2  502    0 -0.22683665818E+02  0.12487095216E+03  0.48422694331E+03  0.52930807288E+03  0.17200000000E+03 0. -1.
         -6    1    1    2    0  501  0.22683665818E+02 -0.12487095216E+03  0.29770645641E+03  0.36649752738E+03  0.17200000000E+03 0.  1.
</event>
<event>
 4    1  0.3169553E-002  0.2373953E+03  0.7818608E-02  0.1121540E+00
         -2   -1    0    0    0  501 -0.00000000000E+00  0.00000000000E+00  0.29907349407E+03  0.29907349407E+03  0.00000000000E+00 0.  1.
          2   -1    0    0  502    0  0.00000000000E+00 -0.00000000000E+00 -0.29615039110E+03  0.29615039110E+03  0.00000000000E+00 0. -1.
          6    1    1    2  502    0  0.55868315757E+02  0.15378966815E+03 -0.17802376390E+03  0.29673050273E+03  0.17200000000E+03 0. -1.
         -6    1    1    2    0  501 -0.55868315757E+02 -0.15378966815E+03  0.18094686687E+03  0.29849338245E+03  0.17200000000E+03 0.  1.
</event>
<event>
 4    1  0.3169553E-002  0.1772556E+03  0.7818608E-02  0.1170486E+00
          1   -1    0    0  502    0  0.00000000000E+00  0.00000000000E+00  0.68177351160E+02  0.68177351160E+02  0.00000000000E+00 0. -1.
         -1   -1    0    0    0  501 -0.00000000000E+00 -0.00000000000E+00 -0.57342999463E+03  0.57342999463E+03  0.00000000000E+00 0.  1.
          6    1    1    2  502    0 -0.24349326578E+01  0.42773913917E+02 -0.11048196637E+03  0.20886790443E+03  0.17200000000E+03 0. -1.
         -6    1    1    2    0  501  0.24349326578E+01 -0.42773913917E+02 -0.39477067710E+03  0.43273944136E+03  0.17200000000E+03 0.  1.
</event>
<event>
 4    1  0.3169553E-002  0.2038496E+03  0.7818608E-02  0.1146531E+00
          2   -1    0    0  502    0  0.00000000000E+00  0.00000000000E+00  0.47379836555E+03  0.47379836555E+03  0.00000000000E+00 0. -1.
         -2   -1    0    0    0  501 -0.00000000000E+00 -0.00000000000E+00 -0.93719215403E+02  0.93719215403E+02  0.00000000000E+00 0.  1.
          6    1    1    2  502    0 -0.10934251504E+03 -0.38547950851E+01  0.26192028288E+03  0.33189889970E+03  0.17200000000E+03 0. -1.
         -6    1    1    2    0  501  0.10934251504E+03  0.38547950851E+01  0.11815886727E+03  0.23561868125E+03  0.17200000000E+03 0.  1.
</event>
<event>
 4    1  0.3169553E-002  0.5882019E+03  0.7818608E-02  0.9930190E-01
          2   -1    0    0  502    0  0.00000000000E+00  0.00000000000E+00  0.80405645265E+03  0.80405645265E+03  0.00000000000E+00 0. -1.
         -2   -1    0    0    0  501 -0.00000000000E+00 -0.00000000000E+00 -0.45927955084E+03  0.45927955084E+03  0.00000000000E+00 0.  1.
          6    1    1    2  502    0 -0.10405193688E+03 -0.55278449512E+03  0.33107251292E+03  0.67497445317E+03  0.17200000000E+03 0. -1.
         -6    1    1    2    0  501  0.10405193688E+03  0.55278449512E+03  0.13704388893E+02  0.58836155032E+03  0.17200000000E+03 0.  1.
</event>
<event>
 4    1  0.3169553E-002  0.1931923E+03  0.7818608E-02  0.1155613E+00
          1   -1    0    0  502    0  0.00000000000E+00  0.00000000000E+00  0.20898400231E+03  0.20898400231E+03  0.00000000000E+00 0. -1.
         -1   -1    0    0    0  501 -0.00000000000E+00 -0.00000000000E+00 -0.32863007180E+03  0.32863007180E+03  0.00000000000E+00 0.  1.
          6    1    1    2  502    0 -0.53372474978E+02  0.69933062161E+02  0.12180591239E+03  0.22838549551E+03  0.17200000000E+03 0. -1.
         -6    1    1    2    0  501  0.53372474978E+02 -0.69933062161E+02 -0.24145198188E+03  0.30922857860E+03  0.17200000000E+03 0.  1.
</event>
<event>
 4    1  0.3169553E-002  0.2372966E+03  0.7818608E-02  0.1121607E+00
          1   -1    0    0  502    0  0.00000000000E+00  0.00000000000E+00  0.93571643328E+03  0.93571643328E+03  0.00000000000E+00 0. -1.
         -1   -1    0    0    0  501 -0.00000000000E+00 -0.00000000000E+00 -0.13663260671E+03  0.13663260671E+03  0.00000000000E+00 0.  1.
          6    1    1    2  502    0 -0.23427491096E+02  0.16179254161E+03  0.80062137956E+03  0.83504746408E+03  0.17200000000E+03 0. -1.
         -6    1    1    2    0  501  0.23427491096E+02 -0.16179254161E+03 -0.15375529921E+01  0.23730157591E+03  0.17200000000E+03 0.  1.
</event>
<event>
 4    1  0.3169553E-002  0.2044362E+03  0.7818608E-02  0.1146049E+00
          2   -1    0    0  502    0  0.00000000000E+00  0.00000000000E+00  0.67016477387E+03  0.67016477387E+03  0.00000000000E+00 0. -1.
         -2   -1    0    0    0  501 -0.00000000000E+00 -0.00000000000E+00 -0.90098808058E+02  0.90098808058E+02  0.00000000000E+00 0.  1.
          6    1    1    2  502    0  0.49381178278E+02  0.98851766100E+02  0.50093807179E+03  0.54104817180E+03  0.17200000000E+03 0. -1.
         -6    1    1    2    0  501 -0.49381178278E+02 -0.98851766100E+02  0.79127894021E+02  0.21921541014E+03  0.17200000000E+03 0.  1.
</event>
<event>
 4    1  0.3169553E-002  0.1730246E+03  0.7818608E-02  0.1174730E+00
         -2   -1    0    0    0  501 -0.00000000000E+00  0.00000000000E+00  0.36928765960E+02  0.36928765960E+02  0.00000000000E+00 0.  1.
          2   -1    0    0  502    0  0.00000000000E+00 -0.00000000000E+00 -0.85862297256E+03  0.85862297256E+03  0.00000000000E+00 0. -1.
          6    1    1    2  502    0 -0.18100017802E+02  0.50901901629E+01 -0.51665268546E+03  0.54485550201E+03  0.17200000000E+03 0. -1.
         -6    1    1    2    0  501  0.18100017802E+02 -0.50901901629E+01 -0.30504152114E+03  0.35069623651E+03  0.17200000000E+03 0.  1.
</event>
<event>
 4    1  0.3169553E-002  0.2618828E+03  0.7818608E-02  0.1106017E+00
         -1   -1    0    0    0  501 -0.00000000000E+00  0.00000000000E+00  0.47806010173E+02  0.47806010173E+02  0.00000000000E+00 0.  1.
          1   -1    0    0  502    0  0.00000000000E+00 -0.00000000000E+00 -0.19126799955E+04  0.19126799955E+04  0.00000000000E+00 0. -1.
          6    1    1    2  502    0 -0.17879210995E+03 -0.83856995720E+02 -0.14225111634E+04  0.14464164767E+04  0.17200000000E+03 0. -1.
         -6    1    1    2    0  501  0.17879210995E+03  0.83856995720E+02 -0.44236282195E+03  0.51406952891E+03  0.17200000000E+03 0.  1.
</event>
<event>
 4    1  0.3169553E-002  0.2595370E+03  0.7818608E-02  0.1107422E+00
          2   -1    0    0  502    0  0.00000000000E+00  0.00000000000E+00  0.86267548528E+03  0.86267548528E+03  0.00000000000E+00 0. -1.
         -2   -1    0    0    0  501 -0.00000000000E+00 -0.00000000000E+00 -0.78122365478E+02  0.78122365478E+02  0.00000000000E+00 0.  1.
          6    1    1    2  502    0 -0.18326593155E+03  0.64722773318E+02  0.38158576448E+03  0.46148362344E+03  0.17200000000E+03 0. -1.
         -6    1    1    2    0  501  0.18326593155E+03 -0.64722773318E+02  0.40296735532E+03  0.47931422731E+03  0.17200000000E+03 0. -1.
</event>
<event>
 4    1  0.3169553E-002  0.1909010E+03  0.7818608E-02  0.1157651E+00
          1   -1    0    0  502    0  0.00000000000E+00  0.00000000000E+00  0.12991264219E+04  0.12991264219E+04  0.00000000000E+00 0. -1.
         -1   -1    0    0    0  501 -0.00000000000E+00 -0.00000000000E+00 -0.29154364916E+02  0.29154364916E+02  0.00000000000E+00 0.  1.
          6    1    1    2  502    0  0.82652042221E+02  0.52746741224E+01  0.50584701397E+03  0.54067030972E+03  0.17200000000E+03 0. -1.
         -6    1    1    2    0  501 -0.82652042221E+02 -0.52746741224E+01  0.76412504304E+03  0.78761047712E+03  0.17200000000E+03 0.  1.
</event>
<event>
 4    1  0.3169553E-002  0.1749815E+03  0.7818608E-02  0.1172750E+00
          2   -1    0    0  502    0  0.00000000000E+00  0.00000000000E+00  0.10490764502E+04  0.10490764502E+04  0.00000000000E+00 0. -1.
         -2   -1    0    0    0  501 -0.00000000000E+00 -0.00000000000E+00 -0.29435504867E+02  0.29435504867E+02  0.00000000000E+00 0.  1.
          6    1    1    2  502    0  0.24464192727E+02 -0.20881141461E+02  0.46018927731E+03  0.49233392097E+03  0.17200000000E+03 0.  1.
         -6    1    1    2    0  501 -0.24464192727E+02  0.20881141461E+02  0.55945166800E+03  0.58617803407E+03  0.17200000000E+03 0.  1.
</event>
<event>
 4    1  0.3169553E-002  0.2473802E+03  0.7818608E-02  0.1114972E+00
          1   -1    0    0  502    0  0.00000000000E+00  0.00000000000E+00  0.88172789342E+03  0.88172789342E+03  0.00000000000E+00 0. -1.
         -1   -1    0    0    0  501 -0.00000000000E+00 -0.00000000000E+00 -0.78430807829E+02  0.78430807829E+02  0.00000000000E+00 0.  1.
          6    1    1    2  502    0 -0.10318375104E+03 -0.14479660771E+03  0.56450156240E+03  0.61632698954E+03  0.17200000000E+03 0. -1.
         -6    1    1    2    0  501  0.10318375104E+03  0.14479660771E+03  0.23879552319E+03  0.34383171171E+03  0.17200000000E+03 0.  1.
</event>
<event>
 4    1  0.3169553E-002  0.1961534E+03  0.7818608E-02  0.1153026E+00
          1   -1    0    0  502    0  0.00000000000E+00  0.00000000000E+00  0.11055227344E+03  0.11055227344E+03  0.00000000000E+00 0. -1.
         -1   -1    0    0    0  501 -0.00000000000E+00 -0.00000000000E+00 -0.35441116006E+03  0.35441116006E+03  0.00000000000E+00 0.  1.
          6    1    1    2  502    0 -0.92707460144E+02 -0.17247661457E+02 -0.90748762002E+02  0.21612841737E+03  0.17200000000E+03 0. -1.
         -6    1    1    2    0  501  0.92707460144E+02  0.17247661457E+02 -0.15311012461E+03  0.24883501613E+03  0.17200000000E+03 0.  1.
</event>
<event>
 4    1  0.3169553E-002  0.2390023E+03  0.7818608E-02  0.1120459E+00
          1   -1    0    0  502    0  0.00000000000E+00  0.00000000000E+00  0.12144046703E+03  0.12144046703E+03  0.00000000000E+00 0. -1.
         -1   -1    0    0    0  501 -0.00000000000E+00 -0.00000000000E+00 -0.53189862435E+03  0.53189862435E+03  0.00000000000E+00 0.  1.
          6    1    1    2  502    0  0.93620876387E+02  0.13701548363E+03 -0.94125460201E+02  0.25686905907E+03  0.17200000000E+03 0. -1.
         -6    1    1    2    0  501 -0.93620876387E+02 -0.13701548363E+03 -0.31633269712E+03  0.39647003231E+03  0.17200000000E+03 0.  1.
</event>
<event>
 4    1  0.3169553E-002  0.2315718E+03  0.7818608E-02  0.1125538E+00
          2   -1    0    0  502    0  0.00000000000E+00  0.00000000000E+00  0.35843830071E+04  0.35843830071E+04  0.00000000000E+00 0. -1.
         -2   -1    0    0    0  501 -0.00000000000E+00 -0.00000000000E+00 -0.15360366707E+02  0.15360366707E+02  0.00000000000E+00 0.  1.
          6    1    1    2  502    0  0.80867754929E+02 -0.13229473489E+03  0.20747778636E+04  0.20876610534E+04  0.17200000000E+03 0. -1.
         -6    1    1    2    0  501 -0.80867754929E+02  0.13229473489E+03  0.14942447767E+04  0.15120823203E+04  0.17200000000E+03 0.  1.
</event>
<event>
 4    1  0.3169553E-002  0.3048063E+03  0.7818608E-02  0.1082862E+00
          2   -1    0    0  502    0  0.00000000000E+00  0.00000000000E+00  0.25339650587E+04  0.25339650587E+04  0.00000000000E+00 0. -1.
         -2   -1    0    0    0  501 -0.00000000000E+00 -0.00000000000E+00 -0.43254412586E+02  0.43254412586E+02  0.00000000000E+00 0.  1.
          6    1    1    2  502    0 -0.21579927412E+02  0.25071329690E+03  0.17483255438E+04  0.17746968917E+04  0.17200000000E+03 0.  1.
         -6    1    1    2    0  501  0.21579927412E+02 -0.25071329690E+03  0.74238510229E+03  0.80252257950E+03  0.17200000000E+03 0. -1.
</event>
<event>
 4    1  0.3169553E-002  0.4236815E+03  0.7818608E-02  0.1035875E+00
          2   -1    0    0  502    0  0.00000000000E+00  0.00000000000E+00  0.71656507562E+03  0.71656507562E+03  0.00000000000E+00 0. -1.
         -2   -1    0    0    0  501 -0.00000000000E+00 -0.00000000000E+00 -0.42744526140E+03  0.42744526140E+03  0.00000000000E+00 0.  1.
          6    1    1    2  502    0 -0.32220151298E+03 -0.21472823085E+03  0.51257707224E+03  0.66501224281E+03  0.17200000000E+03 0. -1.
         -6    1    1    2    0  501  0.32220151298E+03  0.21472823085E+03 -0.22345725802E+03  0.47899809421E+03  0.17200000000E+03 0.  1.
</event>
<event>
 4    1  0.3169553E-002  0.2116899E+03  0.7818608E-02  0.1140235E+00
         -2   -1    0    0    0  501 -0.00000000000E+00  0.00000000000E+00  0.36556546414E+02  0.36556546414E+02  0.00000000000E+00 0.  1.
          2   -1    0    0  502    0  0.00000000000E+00 -0.00000000000E+00 -0.32522174479E+04  0.32522174479E+04  0.00000000000E+00 0. -1.
          6    1    1    2  502    0 -0.78600995719E+02 -0.95134085337E+02 -0.29058284575E+04  0.29135290689E+04  0.17200000000E+03 0. -1.
         -6    1    1    2    0  501  0.78600995719E+02  0.95134085337E+02 -0.30983244394E+03  0.37524492540E+03  0.17200000000E+03 0.  1.
</event>
<event>
 4    1  0.3169553E-002  0.2238724E+03  0.7818608E-02  0.1131028E+00
         -1   -1    0    0    0  501 -0.00000000000E+00  0.00000000000E+00  0.33399447548E+03  0.33399447548E+03  0.00000000000E+00 0.  1.
          1   -1    0    0  502    0  0.00000000000E+00 -0.00000000000E+00 -0.36295395413E+03  0.36295395413E+03  0.00000000000E+00 0. -1.
          6    1    1    2  502    0 -0.11836832124E+03  0.80770120469E+02 -0.28136683894E+03  0.35956386066E+03  0.17200000000E+03 0. -1.
         -6    1    1    2    0  501  0.11836832124E+03 -0.80770120469E+02  0.25240736029E+03  0.33738456895E+03  0.17200000000E+03 0.  1.
</event>
<event>
 4    1  0.3169553E-002  0.1905166E+03  0.7818608E-02  0.1157996E+00
         -2   -1    0    0    0  501 -0.00000000000E+00  0.00000000000E+00  0.12754572091E+03  0.12754572091E+03  0.00000000000E+00 0.  1.
          2   -1    0    0  502    0  0.00000000000E+00 -0.00000000000E+00 -0.28500469142E+03  0.28500469142E+03  0.00000000000E+00 0. -1.
          6    1    1    2  502    0  0.26544321962E+01 -0.81887268216E+02 -0.86720791828E+02  0.20932526470E+03  0.17200000000E+03 0.  1.
         -6    1    1    2    0  501 -0.26544321962E+01  0.81887268216E+02 -0.70738178680E+02  0.20322514763E+03  0.17200000000E+03 0.  1.
</event>
<event>
 4    1  0.3169553E-002  0.2282434E+03  0.7818608E-02  0.1127882E+00
          2   -1    0    0  502    0  0.00000000000E+00  0.00000000000E+00  0.84009781311E+02  0.84009781311E+02  0.00000000000E+00 0. -1.
         -2   -1    0    0    0  501 -0.00000000000E+00 -0.00000000000E+00 -0.62181326303E+03  0.62181326303E+03  0.00000000000E+00 0.  1.
          6    1    1    2  502    0  0.87325976311E+02  0.12200499200E+03 -0.25041446817E+03  0.33882510250E+03  0.17200000000E+03 0.  1.
         -6    1    1    2    0  501 -0.87325976311E+02 -0.12200499200E+03 -0.28738901355E+03  0.36699794185E+03  0.17200000000E+03 0. -1.
</event>
<event>
 4    1  0.3169553E-002  0.1905920E+03  0.7818608E-02  0.1157929E+00
          2   -1    0    0  502    0  0.00000000000E+00  0.00000000000E+00  0.18470873390E+04  0.18470873390E+04  0.00000000000E+00 0. -1.
         -2   -1    0    0    0  501 -0.00000000000E+00 -0.00000000000E+00 -0.33236861454E+02  0.33236861454E+02  0.00000000000E+00 0.  1.
          6    1    1    2  502    0  0.80748961944E+02 -0.14862796050E+02  0.15076731985E+04  0.15196722577E+04  0.17200000000E+03 0.  1.
         -6    1    1    2    0  501 -0.80748961944E+02  0.14862796050E+02  0.30617727909E+03  0.36065194272E+03  0.17200000000E+03 0.  1.
</event>
<event>
 4    1  0.3169553E-002  0.2215831E+03  0.7818608E-02  0.1132708E+00
         -1   -1    0    0    0  501 -0.00000000000E+00  0.00000000000E+00  0.91840394601E+02  0.91840394601E+02  0.00000000000E+00 0.  1.
          1   -1    0    0  502    0  0.00000000000E+00 -0.00000000000E+00 -0.56525791679E+03  0.56525791679E+03  0.00000000000E+00 0. -1.
          6    1    1    2  502    0 -0.82723903701E+02  0.11256914026E+03 -0.31320802878E+03  0.38366433881E+03  0.17200000000E+03 0. -1.
         -6    1    1    2    0  501  0.82723903701E+02 -0.11256914026E+03 -0.16020949342E+03  0.27343397259E+03  0.17200000000E+03 0.  1.
</event>
<event>
 4    1  0.3169553E-002  0.7159880E+03  0.7818608E-02  0.9690275E-01
          1   -1    0    0  502    0  0.00000000000E+00  0.00000000000E+00  0.20962550431E+04  0.20962550431E+04  0.00000000000E+00 0. -1.
         -1   -1    0    0    0  501 -0.00000000000E+00 -0.00000000000E+00 -0.32738238890E+03  0.32738238890E+03  0.00000000000E+00 0.  1.
          6    1    1    2  502    0 -0.54125018876E+03 -0.43600802646E+03  0.14939880997E+04  0.16566952671E+04  0.17200000000E+03 0. -1.
         -6    1    1    2    0  501  0.54125018876E+03  0.43600802646E+03  0.27488455447E+03  0.76694216487E+03  0.17200000000E+03 0.  1.
</event>
<event>
 4    1  0.3169553E-002  0.2408764E+03  0.7818608E-02  0.1119210E+00
         -2   -1    0    0    0  501 -0.00000000000E+00  0.00000000000E+00  0.23226855551E+02  0.23226855551E+02  0.00000000000E+00 0.  1.
          2   -1    0    0  502    0  0.00000000000E+00 -0.00000000000E+00 -0.26469743892E+04  0.26469743892E+04  0.00000000000E+00 0. -1.
          6    1    1    2  502    0  0.15635653553E+03 -0.63166968872E+02 -0.16285737589E+04  0.16462909586E+04  0.17200000000E+03 0. -1.
         -6    1    1    2    0  501 -0.15635653553E+03  0.63166968872E+02 -0.99517377476E+03  0.10239102862E+04  0.17200000000E+03 0.  1.
</event>
<event>
 4    1  0.3169553E-002  0.2361703E+03  0.7818608E-02  0.1122371E+00
          1   -1    0    0  502    0  0.00000000000E+00  0.00000000000E+00  0.14146524925E+04  0.14146524925E+04  0.00000000000E+00 0. -1.
         -1   -1    0    0    0  501 -0.00000000000E+00 -0.00000000000E+00 -0.11105093544E+03  0.11105093544E+03  0.00000000000E+00 0.  1.
          6    1    1    2  502    0  0.23366356701E+02  0.16014498492E+03  0.12644419495E+04  0.12863086125E+04  0.17200000000E+03 0. -1.
         -6    1    1    2    0  501 -0.23366356701E+02 -0.16014498492E+03  0.39159607582E+02  0.23939481550E+03  0.17200000000E+03 0.  1.
</event>
<event>
 4    1  0.3169553E-002  0.2316079E+03  0.7818608E-02  0.1125513E+00
         -3   -1    0    0    0  501 -0.00000000000E+00  0.00000000000E+00  0.67077142157E+03  0.67077142157E+03  0.00000000000E+00 0.  1.
          3   -1    0    0  502    0  0.00000000000E+00 -0.00000000000E+00 -0.89253303419E+02  0.89253303419E+02  0.00000000000E+00 0. -1.
          6    1    1    2  502    0 -0.14816061376E+03 -0.45898411301E+02  0.16820872694E+03  0.28624536232E+03  0.17200000000E+03 0. -1.
         -6    1    1    2    0  501  0.14816061376E+03  0.45898411301E+02  0.41330939121E+03  0.47377936267E+03  0.17200000000E+03 0.  1.
</event>
<event>
 4    1  0.3169553E-002  0.1870740E+03  0.7818608E-02  0.1161127E+00
          3   -1    0    0  502    0  0.00000000000E+00  0.00000000000E+00  0.72279336810E+03  0.72279336810E+03  0.00000000000E+00 0. -1.
         -3   -1    0    0    0  501 -0.00000000000E+00 -0.00000000000E+00 -0.63842600402E+02  0.63842600402E+02  0.00000000000E+00 0.  1.
          6    1    1    2  502    0 -0.69362010292E+02 -0.24527584583E+02  0.52279953036E+03  0.55526213613E+03  0.17200000000E+03 0. -1.
         -6    1    1    2    0  501  0.69362010292E+02  0.24527584583E+02  0.13615123734E+03  0.23137383237E+03  0.17200000000E+03 0.  1.
</event>
<event>
 4    1  0.3169553E-002  0.2251069E+03  0.7818608E-02  0.1130132E+00
          1   -1    0    0  502    0  0.00000000000E+00  0.00000000000E+00  0.94318432535E+03  0.94318432535E+03  0.00000000000E+00 0. -1.
         -1   -1    0    0    0  501 -0.00000000000E+00 -0.00000000000E+00 -0.59181029085E+02  0.59181029085E+02  0.00000000000E+00 0.  1.
          6    1    1    2  502    0 -0.19028192576E+02  0.14396889635E+03  0.28983465531E+03  0.36698398146E+03  0.17200000000E+03 0. -1.
         -6    1    1    2    0  501  0.19028192576E+02 -0.14396889635E+03  0.59416864096E+03  0.63538137298E+03  0.17200000000E+03 0. -1.
</event>
<event>
 4    1  0.3169553E-002  0.3366693E+03  0.7818608E-02  0.1068223E+00
         -2   -1    0    0    0  501 -0.00000000000E+00  0.00000000000E+00  0.74871306627E+02  0.74871306627E+02  0.00000000000E+00 0.  1.
          2   -1    0    0  502    0  0.00000000000E+00 -0.00000000000E+00 -0.16071447689E+04  0.16071447689E+04  0.00000000000E+00 0. -1.
          6    1    1    2  502    0 -0.51753335112E+02 -0.28475218791E+03 -0.96873238918E+03  0.10255674810E+04  0.17200000000E+03 0. -1.
         -6    1    1    2    0  501  0.51753335112E+02  0.28475218791E+03 -0.56354107312E+03  0.65644859456E+03  0.17200000000E+03 0.  1.
</event>
<event>
 4    1  0.3169553E-002  0.2566929E+03  0.7818608E-02  0.1109147E+00
          2   -1    0    0  502    0  0.00000000000E+00  0.00000000000E+00  0.18629782666E+04  0.18629782666E+04  0.00000000000E+00 0. -1.
         -2   -1    0    0    0  501 -0.00000000000E+00 -0.00000000000E+00 -0.41888278001E+02  0.41888278001E+02  0.00000000000E+00 0.  1.
          6    1    1    2  502    0 -0.16427340993E+03  0.96547770769E+02  0.12862925427E+04  0.13116553399E+04  0.17200000000E+03 0. -1.
         -6    1    1    2    0  501  0.16427340993E+03 -0.96547770769E+02  0.53479744584E+03  0.59321120466E+03  0.17200000000E+03 0. -1.
</event>
<event>
 4    1  0.3169553E-002  0.1842591E+03  0.7818608E-02  0.1163744E+00
         -1   -1    0    0    0  501 -0.00000000000E+00  0.00000000000E+00  0.24716447765E+02  0.24716447765E+02  0.00000000000E+00 0.  1.
          1   -1    0    0  502    0  0.00000000000E+00 -0.00000000000E+00 -0.15035874057E+04  0.15035874057E+04  0.00000000000E+00 0. -1.
          6    1    1    2  502    0 -0.41053245878E+02 -0.51788360106E+02 -0.96408516172E+03  0.98153532911E+03  0.17200000000E+03 0.  1.
         -6    1    1    2    0  501  0.41053245878E+02  0.51788360106E+02 -0.51478579618E+03  0.54676852433E+03  0.17200000000E+03 0. -1.
</event>
<event>
 4    1  0.3169553E-002  0.2835547E+03  0.7818608E-02  0.1093763E+00
         -1   -1    0    0    0  501 -0.00000000000E+00  0.00000000000E+00  0.90140818798E+03  0.90140818798E+03  0.00000000000E+00 0.  1.
          1   -1    0    0  502    0  0.00000000000E+00 -0.00000000000E+00 -0.27020981388E+03  0.27020981388E+03  0.00000000000E+00 0. -1.
          6    1    1    2  502    0 -0.16884442816E+02 -0.22479811008E+03 -0.16386883843E+03  0.32750003193E+03  0.17200000000E+03 0. -1.
         -6    1    1    2    0  501  0.16884442816E+02  0.22479811008E+03  0.79506721253E+03  0.84411796992E+03  0.17200000000E+03 0.  1.
</event>
<event>
 4    1  0.3169553E-002  0.2424614E+03  0.7818608E-02  0.1118164E+00
         -1   -1    0    0    0  501 -0.00000000000E+00  0.00000000000E+00  0.89004566172E+02  0.89004566172E+02  0.00000000000E+00 0.  1.
          1   -1    0    0  502    0  0.00000000000E+00 -0.00000000000E+00 -0.15358669002E+04  0.15358669002E+04  0.00000000000E+00 0. -1.
          6    1    1    2  502    0  0.15374551404E+03 -0.74604568066E+02 -0.13367796032E+04  0.13585901634E+04  0.17200000000E+03 0. -1.
         -6    1    1    2    0  501 -0.15374551404E+03  0.74604568066E+02 -0.11008273083E+03  0.26628130293E+03  0.17200000000E+03 0.  1.
</event>
<event>
 4    1  0.3169553E-002  0.2174557E+03  0.7818608E-02  0.1135794E+00
         -2   -1    0    0    0  501 -0.00000000000E+00  0.00000000000E+00  0.46123462938E+02  0.46123462938E+02  0.00000000000E+00 0.  1.
          2   -1    0    0  502    0  0.00000000000E+00 -0.00000000000E+00 -0.31541841570E+04  0.31541841570E+04  0.00000000000E+00 0. -1.
          6    1    1    2  502    0 -0.10446146337E+03 -0.82406289756E+02 -0.28686548552E+04  0.28768850642E+04  0.17200000000E+03 0. -1.
         -6    1    1    2    0  501  0.10446146337E+03  0.82406289756E+02 -0.23940583882E+03  0.32342255577E+03  0.17200000000E+03 0.  1.
</event>
<event>
 4    1  0.3169553E-002  0.2213579E+03  0.7818608E-02  0.1132875E+00
          2   -1    0    0  502    0  0.00000000000E+00  0.00000000000E+00  0.75544216229E+03  0.75544216229E+03  0.00000000000E+00 0. -1.
         -2   -1    0    0    0  501 -0.00000000000E+00 -0.00000000000E+00 -0.65079582136E+02  0.65079582136E+02  0.00000000000E+00 0.  1.
          6    1    1    2  502    0 -0.18855169072E+02  0.13805729716E+03  0.36891435266E+03  0.43022916487E+03  0.17200000000E+03 0. -1.
         -6    1    1    2    0  501  0.18855169072E+02 -0.13805729716E+03  0.32144822749E+03  0.39029257956E+03  0.17200000000E+03 0. -1.
</event>
<event>
 4    1  0.3169553E-002  0.1805822E+03  0.7818608E-02  0.1167241E+00
          2   -1    0    0  502    0  0.00000000000E+00  0.00000000000E+00  0.39344848124E+04  0.39344848124E+04  0.00000000000E+00 0. -1.
         -2   -1    0    0    0  501 -0.00000000000E+00 -0.00000000000E+00 -0.83108163359E+01  0.83108163359E+01  0.00000000000E+00 0.  1.
          6    1    1    2  502    0 -0.46884709891E+02 -0.28770930400E+02  0.18603307226E+04  0.18690747283E+04  0.17200000000E+03 0.  1.
         -6    1    1    2    0  501  0.46884709891E+02  0.28770930400E+02  0.20658432735E+04  0.20737209005E+04  0.17200000000E+03 0.  1.
</event>
<event>
 4    1  0.3169553E-002  0.1858575E+03  0.7818608E-02  0.1162252E+00
         -2   -1    0    0    0  501 -0.00000000000E+00  0.00000000000E+00  0.40145331416E+03  0.40145331416E+03  0.00000000000E+00 0.  1.
          2   -1    0    0  502    0  0.00000000000E+00 -0.00000000000E+00 -0.20005395399E+03  0.20005395399E+03  0.00000000000E+00 0. -1.
          6    1    1    2  502    0 -0.49206436107E+02  0.50375919152E+02 -0.12634273747E+03  0.22473427397E+03  0.17200000000E+03 0. -1.
         -6    1    1    2    0  501  0.49206436107E+02 -0.50375919152E+02  0.32774209763E+03  0.37677299418E+03  0.17200000000E+03 0.  1.
</event>
<event>
 4    1  0.3169553E-002  0.2384278E+03  0.7818608E-02  0.1120845E+00
         -1   -1    0    0    0  501 -0.00000000000E+00  0.00000000000E+00  0.30649341145E+03  0.30649341145E+03  0.00000000000E+00 0.  1.
          1   -1    0    0  502    0  0.00000000000E+00 -0.00000000000E+00 -0.86026004736E+03  0.86026004736E+03  0.00000000000E+00 0. -1.
          6    1    1    2  502    0 -0.55425476119E+02  0.15553731411E+03 -0.79355650839E+03  0.82860109311E+03  0.17200000000E+03 0. -1.
         -6    1    1    2    0  501  0.55425476119E+02 -0.15553731411E+03  0.23978987248E+03  0.33815236570E+03  0.17200000000E+03 0.  1.
</event>
<event>
 4    1  0.3169553E-002  0.1987268E+03  0.7818608E-02  0.1150818E+00
          2   -1    0    0  502    0  0.00000000000E+00  0.00000000000E+00  0.13408252733E+04  0.13408252733E+04  0.00000000000E+00 0. -1.
         -2   -1    0    0    0  501 -0.00000000000E+00 -0.00000000000E+00 -0.38322619562E+02  0.38322619562E+02  0.00000000000E+00 0.  1.
          6    1    1    2  502    0 -0.87229324898E+02 -0.47951960134E+02  0.98298315593E+03  0.10028699968E+04  0.17200000000E+03 0. -1.
         -6    1    1    2    0  501  0.87229324898E+02  0.47951960134E+02  0.31951949784E+03  0.37627789611E+03  0.17200000000E+03 0.  1.
</event>
<event>
 4    1  0.3169553E-002  0.2630080E+03  0.7818608E-02  0.1105349E+00
          4   -1    0    0  502    0  0.00000000000E+00  0.00000000000E+00  0.64356062715E+02  0.64356062715E+02  0.00000000000E+00 0. -1.
         -4   -1    0    0    0  501 -0.00000000000E+00 -0.00000000000E+00 -0.14443949273E+04  0.14443949273E+04  0.00000000000E+00 0.  1.
          6    1    1    2  502    0 -0.18105072084E+03 -0.82521936253E+02 -0.30844688008E+03  0.40535504352E+03  0.17200000000E+03 0. -1.
         -6    1    1    2    0  501  0.18105072084E+03  0.82521936253E+02 -0.10715919845E+04  0.11033959465E+04  0.17200000000E+03 0.  1.
</event>
<event>
 4    1  0.3169553E-002  0.1760100E+03  0.7818608E-02  0.1171721E+00
          1   -1    0    0  502    0  0.00000000000E+00  0.00000000000E+00  0.12700946720E+03  0.12700946720E+03  0.00000000000E+00 0. -1.
         -1   -1    0    0    0  501 -0.00000000000E+00 -0.00000000000E+00 -0.27001691147E+03  0.27001691147E+03  0.00000000000E+00 0.  1.
          6    1    1    2  502    0  0.73732428196E+01 -0.36621882009E+02 -0.97832549798E+01  0.17628170362E+03  0.17200000000E+03 0. -1.
         -6    1    1    2    0  501 -0.73732428196E+01  0.36621882009E+02 -0.13322418929E+03  0.22074467505E+03  0.17200000000E+03 0.  1.
</event>
<event>
 4    1  0.3169553E-002  0.4019223E+03  0.7818608E-02  0.1043116E+00
          1   -1    0    0  502    0  0.00000000000E+00  0.00000000000E+00  0.51864149192E+03  0.51864149192E+03  0.00000000000E+00 0. -1.
         -1   -1    0    0    0  501 -0.00000000000E+00 -0.00000000000E+00 -0.31535510609E+03  0.31535510609E+03  0.00000000000E+00 0.  1.
          6    1    1    2  502    0 -0.34403559156E+03  0.11660644949E+03  0.14792442131E+03  0.42827933261E+03  0.17200000000E+03 0. -1.
         -6    1    1    2    0  501  0.34403559156E+03 -0.11660644949E+03  0.55361964522E+02  0.40571726539E+03  0.17200000000E+03 0.  1.
</event>
<event>
 4    1  0.3169553E-002  0.4356875E+03  0.7818608E-02  0.1032078E+00
         -2   -1    0    0    0  501 -0.00000000000E+00  0.00000000000E+00  0.96364761246E+03  0.96364761246E+03  0.00000000000E+00 0.  1.
          2   -1    0    0  502    0  0.00000000000E+00 -0.00000000000E+00 -0.28928692114E+03  0.28928692114E+03  0.00000000000E+00 0. -1.
          6    1    1    2  502    0  0.38133224113E+03 -0.12175911300E+03 -0.16687200250E+02  0.43600690634E+03  0.17200000000E+03 0. -1.
         -6    1    1    2    0  501 -0.38133224113E+03  0.12175911300E+03  0.69104789157E+03  0.81692762725E+03  0.17200000000E+03 0.  1.
</event>
<event>
 4    1  0.3169553E-002  0.2917506E+03  0.7818608E-02  0.1089439E+00
          4   -1    0    0  502    0  0.00000000000E+00  0.00000000000E+00  0.11705724880E+03  0.11705724880E+03  0.00000000000E+00 0. -1.
         -4   -1    0    0    0  501 -0.00000000000E+00 -0.00000000000E+00 -0.77813204111E+03  0.77813204111E+03  0.00000000000E+00 0.  1.
          6    1    1    2  502    0 -0.17127357969E+03 -0.16186352606E+03 -0.21597098218E+03  0.36299022757E+03  0.17200000000E+03 0. -1.
         -6    1    1    2    0  501  0.17127357969E+03  0.16186352606E+03 -0.44510381013E+03  0.53219906235E+03  0.17200000000E+03 0.  1.
</event>
<event>
 4    1  0.3169553E-002  0.1736380E+03  0.7818608E-02  0.1174106E+00
          1   -1    0    0  502    0  0.00000000000E+00  0.00000000000E+00  0.40114922871E+03  0.40114922871E+03  0.00000000000E+00 0. -1.
         -1   -1    0    0    0  501 -0.00000000000E+00 -0.00000000000E+00 -0.80784144249E+02  0.80784144249E+02  0.00000000000E+00 0.  1.
          6    1    1    2  502    0  0.20524916749E+02 -0.12037029869E+02  0.22376579437E+03  0.28323363682E+03  0.17200000000E+03 0. -1.
         -6    1    1    2    0  501 -0.20524916749E+02  0.12037029869E+02  0.96599290089E+02  0.19869973614E+03  0.17200000000E+03 0.  1.
</event>
<event>
 4    1  0.3169553E-002  0.2047534E+03  0.7818608E-02  0.1145789E+00
          1   -1    0    0  502    0  0.00000000000E+00  0.00000000000E+00  0.80918936134E+02  0.80918936134E+02  0.00000000000E+00 0. -1.
         -1   -1    0    0    0  501 -0.00000000000E+00 -0.00000000000E+00 -0.10379043325E+04  0.10379043325E+04  0.00000000000E+00 0.  1.
          6    1    1    2  502    0 -0.11088420700E+03  0.66812606697E+01 -0.82603569932E+02  0.22078789906E+03  0.17200000000E+03 0. -1.
         -6    1    1    2    0  501  0.11088420700E+03 -0.66812606697E+01 -0.87438182646E+03  0.89803536960E+03  0.17200000000E+03 0.  1.
</event>
<event>
 4    1  0.3169553E-002  0.1891635E+03  0.7818608E-02  0.1159218E+00
          2   -1    0    0  502    0  0.00000000000E+00  0.00000000000E+00  0.15227033715E+04  0.15227033715E+04  0.00000000000E+00 0. -1.
         -2   -1    0    0    0  501 -0.00000000000E+00 -0.00000000000E+00 -0.47228752421E+02  0.47228752421E+02  0.00000000000E+00 0.  1.
          6    1    1    2  502    0 -0.86106160043E+01 -0.78260400188E+02  0.12941400760E+04  0.13078919563E+04  0.17200000000E+03 0. -1.
         -6    1    1    2    0  501  0.86106160043E+01  0.78260400188E+02  0.18133454303E+03  0.26204016761E+03  0.17200000000E+03 0.  1.
</event>
<event>
 4    1  0.3169553E-002  0.1772251E+03  0.7818608E-02  0.1170516E+00
         -1   -1    0    0    0  501 -0.00000000000E+00  0.00000000000E+00  0.66959147355E+02  0.66959147355E+02  0.00000000000E+00 0.  1.
          1   -1    0    0  502    0  0.00000000000E+00 -0.00000000000E+00 -0.52570985510E+03  0.52570985510E+03  0.00000000000E+00 0. -1.
          6    1    1    2  502    0  0.40579269843E+02 -0.13343748549E+02 -0.32664077199E+03  0.37162202127E+03  0.17200000000E+03 0. -1.
         -6    1    1    2    0  501 -0.40579269843E+02  0.13343748549E+02 -0.13210993575E+03  0.22104698119E+03  0.17200000000E+03 0.  1.
</event>
<event>
 4    1  0.3169553E-002  0.4123418E+03  0.7818608E-02  0.1039588E+00
         -2   -1    0    0    0  501 -0.00000000000E+00  0.00000000000E+00  0.11229823844E+03  0.11229823844E+03  0.00000000000E+00 0.  1.
          2   -1    0    0  502    0  0.00000000000E+00 -0.00000000000E+00 -0.17402532204E+04  0.17402532204E+04  0.00000000000E+00 0. -1.
          6    1    1    2  502    0  0.59473392572E+02  0.37000636547E+03 -0.11479247803E+04  0.12197364863E+04  0.17200000000E+03 0. -1.
         -6    1    1    2    0  501 -0.59473392572E+02 -0.37000636547E+03 -0.48003020173E+03  0.63281497255E+03  0.17200000000E+03 0.  1.
</event>
<event>
 4    1  0.3169553E-002  0.1875563E+03  0.7818608E-02  0.1160684E+00
         -2   -1    0    0    0  501 -0.00000000000E+00  0.00000000000E+00  0.20599463086E+02  0.20599463086E+02  0.00000000000E+00 0.  1.
          2   -1    0    0  502    0  0.00000000000E+00 -0.00000000000E+00 -0.20823437750E+04  0.20823437750E+04  0.00000000000E+00 0. -1.
          6    1    1    2  502    0 -0.74398346226E+02  0.76334440919E+01 -0.58486729027E+03  0.61420446972E+03  0.17200000000E+03 0.  1.
         -6    1    1    2    0  501  0.74398346226E+02 -0.76334440919E+01 -0.14768770217E+04  0.14887387684E+04  0.17200000000E+03 0. -1.
</event>
<event>
 4    1  0.3169553E-002  0.4599942E+03  0.7818608E-02  0.1024783E+00
         -1   -1    0    0    0  501 -0.00000000000E+00  0.00000000000E+00  0.35568429814E+03  0.35568429814E+03  0.00000000000E+00 0.  1.
          1   -1    0    0  502    0  0.00000000000E+00 -0.00000000000E+00 -0.59845729211E+03  0.59845729211E+03  0.00000000000E+00 0. -1.
          6    1    1    2  502    0  0.42594509269E+03  0.24112809789E+02 -0.84577108903E+02  0.46770496783E+03  0.17200000000E+03 0. -1.
         -6    1    1    2    0  501 -0.42594509269E+03 -0.24112809789E+02 -0.15819588507E+03  0.48643662242E+03  0.17200000000E+03 0.  1.
</event>
<event>
 4    1  0.3169553E-002  0.2549320E+03  0.7818608E-02  0.1110227E+00
         -2   -1    0    0    0  501 -0.00000000000E+00  0.00000000000E+00  0.26240105432E+02  0.26240105432E+02  0.00000000000E+00 0.  1.
          2   -1    0    0  502    0  0.00000000000E+00 -0.00000000000E+00 -0.39380251282E+04  0.39380251282E+04  0.00000000000E+00 0. -1.
          6    1    1    2  502    0 -0.40181107078E+00 -0.18816529972E+03 -0.31633130379E+04  0.31735689243E+04  0.17200000000E+03 0. -1.
         -6    1    1    2    0  501  0.40181107078E+00  0.18816529972E+03 -0.74847198483E+03  0.79069630931E+03  0.17200000000E+03 0.  1.
</event>
<event>
 4    1  0.3169553E-002  0.2101634E+03  0.7818608E-02  0.1141437E+00
         -1   -1    0    0    0  501 -0.00000000000E+00  0.00000000000E+00  0.69069844977E+02  0.69069844977E+02  0.00000000000E+00 0.  1.
          1   -1    0    0  502    0  0.00000000000E+00 -0.00000000000E+00 -0.79414505660E+03  0.79414505660E+03  0.00000000000E+00 0. -1.
          6    1    1    2  502    0  0.10086101932E+03  0.66420617931E+02 -0.55301260416E+03  0.59160086550E+03  0.17200000000E+03 0. -1.
         -6    1    1    2    0  501 -0.10086101932E+03 -0.66420617931E+02 -0.17206260747E+03  0.27161403608E+03  0.17200000000E+03 0.  1.
</event>
<event>
 4    1  0.3169553E-002  0.1730117E+03  0.7818608E-02  0.1174743E+00
          2   -1    0    0  502    0  0.00000000000E+00  0.00000000000E+00  0.99287676415E+03  0.99287676415E+03  0.00000000000E+00 0. -1.
         -2   -1    0    0    0  501 -0.00000000000E+00 -0.00000000000E+00 -0.50633562435E+02  0.50633562435E+02  0.00000000000E+00 0.  1.
          6    1    1    2  502    0 -0.15385696613E+02 -0.10598071768E+02  0.80299596045E+03  0.82142288212E+03  0.17200000000E+03 0. -1.
         -6    1    1    2    0  501  0.15385696613E+02  0.10598071768E+02  0.13924724127E+03  0.22208744446E+03  0.17200000000E+03 0.  1.
</event>
<event>
 4    1  0.3169553E-002  0.4476770E+03  0.7818608E-02  0.1028417E+00
          2   -1    0    0  502    0  0.00000000000E+00  0.00000000000E+00  0.92500631208E+03  0.92500631208E+03  0.00000000000E+00 0. -1.
         -2   -1    0    0    0  501 -0.00000000000E+00 -0.00000000000E+00 -0.21794970609E+03  0.21794970609E+03  0.00000000000E+00 0.  1.
          6    1    1    2  502    0 -0.85488857758E+02 -0.40437894757E+03  0.39743740855E+03  0.59864110430E+03  0.17200000000E+03 0. -1.
         -6    1    1    2    0  501  0.85488857758E+02  0.40437894757E+03  0.30961919744E+03  0.54431491387E+03  0.17200000000E+03 0.  1.
</event>
<event>
 4    1  0.3169553E-002  0.2881267E+03  0.7818608E-02  0.1091331E+00
          2   -1    0    0  502    0  0.00000000000E+00  0.00000000000E+00  0.85503978437E+03  0.85503978437E+03  0.00000000000E+00 0. -1.
         -2   -1    0    0    0  501 -0.00000000000E+00 -0.00000000000E+00 -0.98013960130E+02  0.98013960130E+02  0.00000000000E+00 0.  1.
          6    1    1    2  502    0  0.30282026704E+02 -0.22916373638E+03  0.42474443030E+03  0.51324930617E+03  0.17200000000E+03 0. -1.
         -6    1    1    2    0  501 -0.30282026704E+02  0.22916373638E+03  0.33228139394E+03  0.43980443833E+03  0.17200000000E+03 0.  1.
</event>
<event>
 4    1  0.3169553E-002  0.2397176E+03  0.7818608E-02  0.1119981E+00
         -2   -1    0    0    0  501 -0.00000000000E+00  0.00000000000E+00  0.49155472928E+02  0.49155472928E+02  0.00000000000E+00 0.  1.
          2   -1    0    0  502    0  0.00000000000E+00 -0.00000000000E+00 -0.22141524537E+04  0.22141524537E+04  0.00000000000E+00 0. -1.
          6    1    1    2  502    0 -0.14204915031E+03  0.87764224065E+02 -0.30501313102E+03  0.38794011165E+03  0.17200000000E+03 0.  1.
         -6    1    1    2    0  501  0.14204915031E+03 -0.87764224065E+02 -0.18599838498E+04  0.18753678150E+04  0.17200000000E+03 0. -1.
</event>
<event>
 4    1  0.3169553E-002  0.1793621E+03  0.7818608E-02  0.1168422E+00
         -2   -1    0    0    0  501 -0.00000000000E+00  0.00000000000E+00  0.10456708124E+03  0.10456708124E+03  0.00000000000E+00 0.  1.
          2   -1    0    0  502    0  0.00000000000E+00 -0.00000000000E+00 -0.30878627253E+03  0.30878627253E+03  0.00000000000E+00 0. -1.
          6    1    1    2  502    0 -0.32874311048E+02  0.38807645878E+02 -0.11461036926E+03  0.21285274357E+03  0.17200000000E+03 0. -1.
         -6    1    1    2    0  501  0.32874311048E+02 -0.38807645878E+02 -0.89608822036E+02  0.20050061020E+03  0.17200000000E+03 0.  1.
</event>
<event>
 4    1  0.3169553E-002  0.1762429E+03  0.7818608E-02  0.1171490E+00
          2   -1    0    0  502    0  0.00000000000E+00  0.00000000000E+00  0.24774058976E+03  0.24774058976E+03  0.00000000000E+00 0. -1.
         -2   -1    0    0    0  501 -0.00000000000E+00 -0.00000000000E+00 -0.16025459712E+03  0.16025459712E+03  0.00000000000E+00 0.  1.
          6    1    1    2  502    0  0.13463791317E+02  0.36004042980E+02  0.13890819842E+03  0.22440377086E+03  0.17200000000E+03 0. -1.
         -6    1    1    2    0  501 -0.13463791317E+02 -0.36004042980E+02 -0.51422205788E+02  0.18359141602E+03  0.17200000000E+03 0.  1.
</event>
<event>
 4    1  0.3169553E-002  0.4739560E+03  0.7818608E-02  0.1020810E+00
          2   -1    0    0  502    0  0.00000000000E+00  0.00000000000E+00  0.41099774820E+04  0.41099774820E+04  0.00000000000E+00 0. -1.
         -2   -1    0    0    0  501 -0.00000000000E+00 -0.00000000000E+00 -0.58520710163E+02  0.58520710163E+02  0.00000000000E+00 0.  1.
          6    1    1    2  502    0  0.40288162222E+03  0.18093272155E+03  0.25613555099E+04  0.26048370965E+04  0.17200000000E+03 0. -1.
         -6    1    1    2    0  501 -0.40288162222E+03 -0.18093272155E+03  0.14901012620E+04  0.15636610957E+04  0.17200000000E+03 0.  1.
</event>
<event>
 4    1  0.3169553E-002  0.2220289E+03  0.7818608E-02  0.1132379E+00
         -1   -1    0    0    0  501 -0.00000000000E+00  0.00000000000E+00  0.54018378991E+03  0.54018378991E+03  0.00000000000E+00 0.  1.
          1   -1    0    0  502    0  0.00000000000E+00 -0.00000000000E+00 -0.10398599574E+03  0.10398599574E+03  0.00000000000E+00 0. -1.
          6    1    1    2  502    0 -0.13938151711E+03 -0.16900863783E+02  0.10542090046E+03  0.24578529810E+03  0.17200000000E+03 0. -1.
         -6    1    1    2    0  501  0.13938151711E+03  0.16900863783E+02  0.33077689372E+03  0.39838448755E+03  0.17200000000E+03 0. -1.
</event>
<event>
 4    1  0.3169553E-002  0.3251171E+03  0.7818608E-02  0.1073318E+00
         -2   -1    0    0    0  501 -0.00000000000E+00  0.00000000000E+00  0.45063397893E+03  0.45063397893E+03  0.00000000000E+00 0.  1.
          2   -1    0    0  502    0  0.00000000000E+00 -0.00000000000E+00 -0.31789837552E+03  0.31789837552E+03  0.00000000000E+00 0. -1.
          6    1    1    2  502    0 -0.27447672079E+03 -0.27922071776E+02  0.26311482571E+03  0.41824696515E+03  0.17200000000E+03 0. -1.
         -6    1    1    2    0  501  0.27447672079E+03  0.27922071776E+02 -0.13037922229E+03  0.35028538930E+03  0.17200000000E+03 0. -1.
</event>
<event>
 4    1  0.3169553E-002  0.2024214E+03  0.7818608E-02  0.1147712E+00
          2   -1    0    0  502    0  0.00000000000E+00  0.00000000000E+00  0.70295620474E+03  0.70295620474E+03  0.00000000000E+00 0. -1.
         -2   -1    0    0    0  501 -0.00000000000E+00 -0.00000000000E+00 -0.71372024160E+02  0.71372024160E+02  0.00000000000E+00 0.  1.
          6    1    1    2  502    0 -0.95649686114E+02  0.47345235826E+02  0.48155578606E+03  0.52236999234E+03  0.17200000000E+03 0. -1.
         -6    1    1    2    0  501  0.95649686114E+02 -0.47345235826E+02  0.15002839452E+03  0.25195823656E+03  0.17200000000E+03 0.  1.
</event>
<event>
 4    1  0.3169553E-002  0.2013378E+03  0.7818608E-02  0.1148615E+00
         -2   -1    0    0    0  501 -0.00000000000E+00  0.00000000000E+00  0.23241963495E+02  0.23241963495E+02  0.00000000000E+00 0.  1.
          2   -1    0    0  502    0  0.00000000000E+00 -0.00000000000E+00 -0.27792756453E+04  0.27792756453E+04  0.00000000000E+00 0. -1.
          6    1    1    2  502    0 -0.10182908176E+03  0.24160879129E+02 -0.22331901509E+04  0.22422477919E+04  0.17200000000E+03 0. -1.
         -6    1    1    2    0  501  0.10182908176E+03 -0.24160879129E+02 -0.52284353088E+03  0.56026981693E+03  0.17200000000E+03 0.  1.
</event>
<event>
 4    1  0.3169553E-002  0.2652278E+03  0.7818608E-02  0.1104042E+00
         -1   -1    0    0    0  501 -0.00000000000E+00  0.00000000000E+00  0.45136222874E+02  0.45136222874E+02  0.00000000000E+00 0.  1.
          1   -1    0    0  502    0  0.00000000000E+00 -0.00000000000E+00 -0.23489153264E+04  0.23489153264E+04  0.00000000000E+00 0. -1.
          6    1    1    2  502    0 -0.19551555599E+02  0.20094660082E+03 -0.18462603254E+04  0.18652139258E+04  0.17200000000E+03 0. -1.
         -6    1    1    2    0  501  0.19551555599E+02 -0.20094660082E+03 -0.45751877816E+03  0.52883762354E+03  0.17200000000E+03 0.  1.
</event>
<event>
 4    1  0.3169553E-002  0.1803325E+03  0.7818608E-02  0.1167482E+00
          2   -1    0    0  502    0  0.00000000000E+00  0.00000000000E+00  0.94829204446E+02  0.94829204446E+02  0.00000000000E+00 0. -1.
         -2   -1    0    0    0  501 -0.00000000000E+00 -0.00000000000E+00 -0.46415060940E+03  0.46415060940E+03  0.00000000000E+00 0.  1.
          6    1    1    2  502    0  0.25017582543E+02  0.48061878323E+02 -0.41829182670E+02  0.18512024229E+03  0.17200000000E+03 0. -1.
         -6    1    1    2    0  501 -0.25017582543E+02 -0.48061878323E+02 -0.32749222229E+03  0.37385957156E+03  0.17200000000E+03 0.  1.
</event>
<event>
 4    1  0.3169553E-002  0.1945880E+03  0.7818608E-02  0.1154387E+00
         -2   -1    0    0    0  501 -0.00000000000E+00  0.00000000000E+00  0.72220817290E+02  0.72220817290E+02  0.00000000000E+00 0.  1.
          2   -1    0    0  502    0  0.00000000000E+00 -0.00000000000E+00 -0.52783977438E+03  0.52783977438E+03  0.00000000000E+00 0. -1.
          6    1    1    2  502    0  0.39570367218E+02  0.81943227211E+02 -0.20319798721E+03  0.28134307962E+03  0.17200000000E+03 0. -1.
         -6    1    1    2    0  501 -0.39570367218E+02 -0.81943227211E+02 -0.25242096988E+03  0.31871751204E+03  0.17200000000E+03 0. -1.
</event>
<event>
 4    1  0.3169553E-002  0.2265208E+03  0.7818608E-02  0.1129113E+00
          2   -1    0    0  502    0  0.00000000000E+00  0.00000000000E+00  0.13461093563E+03  0.13461093563E+03  0.00000000000E+00 0. -1.
         -2   -1    0    0    0  501 -0.00000000000E+00 -0.00000000000E+00 -0.40033222474E+03  0.40033222474E+03  0.00000000000E+00 0.  1.
          6    1    1    2  502    0  0.12349713242E+03  0.80474439788E+02 -0.19135576493E+03  0.29652774903E+03  0.17200000000E+03 0. -1.
         -6    1    1    2    0  501 -0.12349713242E+03 -0.80474439788E+02 -0.74365524180E+02  0.23841541133E+03  0.17200000000E+03 0. -1.
</event>
<event>
 4    1  0.3169553E-002  0.5595431E+03  0.7818608E-02  0.9993089E-01
          1   -1    0    0  502    0  0.00000000000E+00  0.00000000000E+00  0.92199906151E+03  0.92199906151E+03  0.00000000000E+00 0. -1.
         -1   -1    0    0    0  501 -0.00000000000E+00 -0.00000000000E+00 -0.40302768597E+03  0.40302768597E+03  0.00000000000E+00 0.  1.
          6    1    1    2  502    0 -0.52737764709E+03 -0.73330198198E+02  0.52236095674E+03  0.76547336319E+03  0.17200000000E+03 0. -1.
         -6    1    1    2    0  501  0.52737764709E+03  0.73330198198E+02 -0.33895812002E+01  0.55955338430E+03  0.17200000000E+03 0.  1.
</event>
<event>
 4    1  0.3169553E-002  0.4027960E+03  0.7818608E-02  0.1042816E+00
         -2   -1    0    0    0  501 -0.00000000000E+00  0.00000000000E+00  0.37938748004E+03  0.37938748004E+03  0.00000000000E+00 0.  1.
          2   -1    0    0  502    0  0.00000000000E+00 -0.00000000000E+00 -0.43311912559E+03  0.43311912559E+03  0.00000000000E+00 0. -1.
          6    1    1    2  502    0 -0.38383300640E+02  0.36219794684E+03  0.18790053741E+02  0.40323404691E+03  0.17200000000E+03 0. -1.
         -6    1    1    2    0  501  0.38383300640E+02 -0.36219794684E+03 -0.72521699290E+02  0.40927255873E+03  0.17200000000E+03 0. -1.
</event>
<event>
 4    1  0.3169553E-002  0.6311113E+03  0.7818608E-02  0.9842883E-01
          2   -1    0    0  502    0  0.00000000000E+00  0.00000000000E+00  0.32348418805E+04  0.32348418805E+04  0.00000000000E+00 0. -1.
         -2   -1    0    0    0  501 -0.00000000000E+00 -0.00000000000E+00 -0.17510022587E+03  0.17510022587E+03  0.00000000000E+00 0.  1.
          6    1    1    2  502    0 -0.60536354747E+03 -0.47459925544E+02  0.24587450599E+04  0.25384500662E+04  0.17200000000E+03 0. -1.
         -6    1    1    2    0  501  0.60536354747E+03  0.47459925544E+02  0.60099659473E+03  0.87149204014E+03  0.17200000000E+03 0.  1.
</event>
<event>
 4    1  0.3169553E-002  0.1829537E+03  0.7818608E-02  0.1164975E+00
         -2   -1    0    0    0  501 -0.00000000000E+00  0.00000000000E+00  0.20309138798E+02  0.20309138798E+02  0.00000000000E+00 0.  1.
          2   -1    0    0  502    0  0.00000000000E+00 -0.00000000000E+00 -0.18211780441E+04  0.18211780441E+04  0.00000000000E+00 0. -1.
          6    1    1    2  502    0 -0.18324115206E+02 -0.59601001344E+02 -0.61661063470E+03  0.64318016712E+03  0.17200000000E+03 0.  1.
         -6    1    1    2    0  501  0.18324115206E+02  0.59601001344E+02 -0.11842582706E+04  0.11983070158E+04  0.17200000000E+03 0.  1.
</event>
<event>
 4    1  0.3169553E-002  0.3405925E+03  0.7818608E-02  0.1066544E+00
          1   -1    0    0  502    0  0.00000000000E+00  0.00000000000E+00  0.18738955130E+03  0.18738955130E+03  0.00000000000E+00 0. -1.
         -1   -1    0    0    0  501 -0.00000000000E+00 -0.00000000000E+00 -0.83505685444E+03  0.83505685444E+03  0.00000000000E+00 0.  1.
          6    1    1    2  502    0  0.21896861845E+03 -0.19614285067E+03 -0.63825164795E+02  0.34652117597E+03  0.17200000000E+03 0. -1.
         -6    1    1    2    0  501 -0.21896861845E+03  0.19614285067E+03 -0.58384213835E+03  0.67592522977E+03  0.17200000000E+03 0.  1.
</event>
<event>
 4    1  0.3169553E-002  0.6602152E+03  0.7818608E-02  0.9787798E-01
         -3   -1    0    0    0  501 -0.00000000000E+00  0.00000000000E+00  0.48987673965E+03  0.48987673965E+03  0.00000000000E+00 0.  1.
          3   -1    0    0  502    0  0.00000000000E+00 -0.00000000000E+00 -0.91416922320E+03  0.91416922320E+03  0.00000000000E+00 0. -1.
          6    1    1    2  502    0  0.50738022511E+02 -0.63539417750E+03 -0.97487213959E+02  0.66737385671E+03  0.17200000000E+03 0. -1.
         -6    1    1    2    0  501 -0.50738022511E+02  0.63539417750E+03 -0.32680526959E+03  0.73667210614E+03  0.17200000000E+03 0.  1.
</event>
<event>
 4    1  0.3169553E-002  0.4195851E+03  0.7818608E-02  0.1037201E+00
          2   -1    0    0  502    0  0.00000000000E+00  0.00000000000E+00  0.36987504941E+03  0.36987504941E+03  0.00000000000E+00 0. -1.
         -2   -1    0    0    0  501 -0.00000000000E+00 -0.00000000000E+00 -0.63069071968E+03  0.63069071968E+03  0.00000000000E+00 0.  1.
          6    1    1    2  502    0  0.37327969155E+03  0.84438805574E+02  0.11737616915E+03  0.43569347608E+03  0.17200000000E+03 0. -1.
         -6    1    1    2    0  501 -0.37327969155E+03 -0.84438805574E+02 -0.37819183942E+03  0.56487229301E+03  0.17200000000E+03 0.  1.
</event>
<event>
 4    1  0.3169553E-002  0.2352817E+03  0.7818608E-02  0.1122976E+00
         -2   -1    0    0    0  501 -0.00000000000E+00  0.00000000000E+00  0.25637288223E+02  0.25637288223E+02  0.00000000000E+00 0.  1.
          2   -1    0    0  502    0  0.00000000000E+00 -0.00000000000E+00 -0.22607398569E+04  0.22607398569E+04  0.00000000000E+00 0. -1.
          6    1    1    2  502    0  0.11187139213E+03 -0.11514465732E+03 -0.13597592293E+04  0.13799647322E+04  0.17200000000E+03 0. -1.
         -6    1    1    2    0  501 -0.11187139213E+03  0.11514465732E+03 -0.87534333938E+03  0.90641241291E+03  0.17200000000E+03 0.  1.
</event>
<event>
 4    1  0.3169553E-002  0.1755224E+03  0.7818608E-02  0.1172208E+00
         -1   -1    0    0    0  501 -0.00000000000E+00  0.00000000000E+00  0.67004137086E+03  0.67004137086E+03  0.00000000000E+00 0.  1.
          1   -1    0    0  502    0  0.00000000000E+00 -0.00000000000E+00 -0.56380732278E+02  0.56380732278E+02  0.00000000000E+00 0. -1.
          6    1    1    2  502    0  0.13598778500E+02 -0.32236449965E+02  0.15082561032E+03  0.23142273054E+03  0.17200000000E+03 0. -1.
         -6    1    1    2    0  501 -0.13598778500E+02  0.32236449965E+02  0.46283502827E+03  0.49499937260E+03  0.17200000000E+03 0.  1.
</event>
<event>
 4    1  0.3169553E-002  0.2785951E+03  0.7818608E-02  0.1096459E+00
         -2   -1    0    0    0  501 -0.00000000000E+00  0.00000000000E+00  0.13209688397E+03  0.13209688397E+03  0.00000000000E+00 0.  1.
          2   -1    0    0  502    0  0.00000000000E+00 -0.00000000000E+00 -0.60488824776E+03  0.60488824776E+03  0.00000000000E+00 0. -1.
          6    1    1    2  502    0  0.54975646570E+02  0.21215307269E+03 -0.29875915075E+03  0.40850003443E+03  0.17200000000E+03 0. -1.
         -6    1    1    2    0  501 -0.54975646570E+02 -0.21215307269E+03 -0.17403221304E+03  0.32848509729E+03  0.17200000000E+03 0.  1.
</event>
<event>
 4    1  0.3169553E-002  0.3861753E+03  0.7818608E-02  0.1048675E+00
         -2   -1    0    0    0  501 -0.00000000000E+00  0.00000000000E+00  0.33935052672E+03  0.33935052672E+03  0.00000000000E+00 0.  1.
          2   -1    0    0  502    0  0.00000000000E+00 -0.00000000000E+00 -0.51754309432E+03  0.51754309432E+03  0.00000000000E+00 0. -1.
          6    1    1    2  502    0  0.33587040444E+03  0.82087908921E+02 -0.25551383351E+03  0.46305363889E+03  0.17200000000E+03 0. -1.
         -6    1    1    2    0  501 -0.33587040444E+03 -0.82087908921E+02  0.77321265913E+02  0.39383998214E+03  0.17200000000E+03 0.  1.
</event>
<event>
 4    1  0.3169553E-002  0.5391118E+03  0.7818608E-02  0.1004046E+00
         -1   -1    0    0    0  501 -0.00000000000E+00  0.00000000000E+00  0.52268714884E+03  0.52268714884E+03  0.00000000000E+00 0.  1.
          1   -1    0    0  502    0  0.00000000000E+00 -0.00000000000E+00 -0.56746952407E+03  0.56746952407E+03  0.00000000000E+00 0. -1.
          6    1    1    2  502    0  0.22064937469E+03 -0.46083773617E+03  0.54923422269E+02  0.54190234170E+03  0.17200000000E+03 0. -1.
         -6    1    1    2    0  501 -0.22064937469E+03  0.46083773617E+03 -0.99705797507E+02  0.54825433121E+03  0.17200000000E+03 0.  1.
</event>
<event>
 4    1  0.3169553E-002  0.3275843E+03  0.7818608E-02  0.1072211E+00
          1   -1    0    0  502    0  0.00000000000E+00  0.00000000000E+00  0.32451181289E+03  0.32451181289E+03  0.00000000000E+00 0. -1.
         -1   -1    0    0    0  501 -0.00000000000E+00 -0.00000000000E+00 -0.33660999453E+03  0.33660999453E+03  0.00000000000E+00 0.  1.
          6    1    1    2  502    0  0.27174698678E+03 -0.62298213721E+02  0.37803745838E+02  0.32975841985E+03  0.17200000000E+03 0. -1.
         -6    1    1    2    0  501 -0.27174698678E+03  0.62298213721E+02 -0.49901927476E+02  0.33136338758E+03  0.17200000000E+03 0. -1.
</event>
<event>
 4    1  0.3169553E-002  0.2239491E+03  0.7818608E-02  0.1130973E+00
          1   -1    0    0  502    0  0.00000000000E+00  0.00000000000E+00  0.22591225812E+04  0.22591225812E+04  0.00000000000E+00 0. -1.
         -1   -1    0    0    0  501 -0.00000000000E+00 -0.00000000000E+00 -0.35379618356E+02  0.35379618356E+02  0.00000000000E+00 0.  1.
          6    1    1    2  502    0 -0.30848916666E+02 -0.14006271928E+03  0.18120813464E+04  0.18258674725E+04  0.17200000000E+03 0. -1.
         -6    1    1    2    0  501  0.30848916666E+02  0.14006271928E+03  0.41166161643E+03  0.46863472709E+03  0.17200000000E+03 0.  1.
</event>
<event>
 4    1  0.3169553E-002  0.2288337E+03  0.7818608E-02  0.1127463E+00
          1   -1    0    0  502    0  0.00000000000E+00  0.00000000000E+00  0.33005041868E+04  0.33005041868E+04  0.00000000000E+00 0. -1.
         -1   -1    0    0    0  501 -0.00000000000E+00 -0.00000000000E+00 -0.14743956399E+03  0.14743956399E+03  0.00000000000E+00 0.  1.
          6    1    1    2  502    0  0.12478941992E+03 -0.84902724999E+02  0.32051079751E+04  0.32132665628E+04  0.17200000000E+03 0. -1.
         -6    1    1    2    0  501 -0.12478941992E+03  0.84902724999E+02 -0.52043352248E+02  0.23467718796E+03  0.17200000000E+03 0.  1.
</event>
<event>
 4    1  0.3169553E-002  0.3283183E+03  0.7818608E-02  0.1071883E+00
          2   -1    0    0  502    0  0.00000000000E+00  0.00000000000E+00  0.24412561700E+03  0.24412561700E+03  0.00000000000E+00 0. -1.
         -2   -1    0    0    0  501 -0.00000000000E+00 -0.00000000000E+00 -0.46996668140E+03  0.46996668140E+03  0.00000000000E+00 0.  1.
          6    1    1    2  502    0  0.22456671079E+03 -0.16666944581E+03 -0.25119198811E+02  0.32927782481E+03  0.17200000000E+03 0. -1.
         -6    1    1    2    0  501 -0.22456671079E+03  0.16666944581E+03 -0.20072186558E+03  0.38481447359E+03  0.17200000000E+03 0.  1.
</event>
<event>
 4    1  0.3169553E-002  0.4994722E+03  0.7818608E-02  0.1013917E+00
         -2   -1    0    0    0  501 -0.00000000000E+00  0.00000000000E+00  0.33685444827E+03  0.33685444827E+03  0.00000000000E+00 0.  1.
          2   -1    0    0  502    0  0.00000000000E+00 -0.00000000000E+00 -0.75914001076E+03  0.75914001076E+03  0.00000000000E+00 0. -1.
          6    1    1    2  502    0  0.11571919892E+03 -0.45441998560E+03 -0.12549026290E+03  0.51499540036E+03  0.17200000000E+03 0.  1.
         -6    1    1    2    0  501 -0.11571919892E+03  0.45441998560E+03 -0.29679529960E+03  0.58099905867E+03  0.17200000000E+03 0.  1.
</event>
<event>
 4    1  0.3169553E-002  0.3431728E+03  0.7818608E-02  0.1065453E+00
          1   -1    0    0  502    0  0.00000000000E+00  0.00000000000E+00  0.58903378311E+02  0.58903378311E+02  0.00000000000E+00 0. -1.
         -1   -1    0    0    0  501 -0.00000000000E+00 -0.00000000000E+00 -0.26235711656E+04  0.26235711656E+04  0.00000000000E+00 0.  1.
          6    1    1    2  502    0  0.10085376756E+03 -0.27930640406E+03 -0.62809875621E+03  0.71573430639E+03  0.17200000000E+03 0. -1.
         -6    1    1    2    0  501 -0.10085376756E+03  0.27930640406E+03 -0.19365690311E+04  0.19667402375E+04  0.17200000000E+03 0.  1.
</event>
<event>
 4    1  0.3169553E-002  0.1880496E+03  0.7818608E-02  0.1160232E+00
         -2   -1    0    0    0  501 -0.00000000000E+00  0.00000000000E+00  0.45226404813E+02  0.45226404813E+02  0.00000000000E+00 0.  1.
          2   -1    0    0  502    0  0.00000000000E+00 -0.00000000000E+00 -0.92324750735E+03  0.92324750735E+03  0.00000000000E+00 0. -1.
          6    1    1    2  502    0  0.64523202715E+02  0.40191932555E+02 -0.24954108729E+03  0.31246342086E+03  0.17200000000E+03 0.  1.
         -6    1    1    2    0  501 -0.64523202715E+02 -0.40191932555E+02 -0.62848001525E+03  0.65601049130E+03  0.17200000000E+03 0.  1.
</event>
<event>
 4    1  0.3169553E-002  0.4097326E+03  0.7818608E-02  0.1040461E+00
          2   -1    0    0  502    0  0.00000000000E+00  0.00000000000E+00  0.70703741694E+02  0.70703741694E+02  0.00000000000E+00 0. -1.
         -2   -1    0    0    0  501 -0.00000000000E+00 -0.00000000000E+00 -0.24202770771E+04  0.24202770771E+04  0.00000000000E+00 0.  1.
          6    1    1    2  502    0  0.20689334244E+03 -0.30901766581E+03 -0.10033575456E+04  0.10837929402E+04  0.17200000000E+03 0. -1.
         -6    1    1    2    0  501 -0.20689334244E+03  0.30901766581E+03 -0.13462157898E+04  0.14071878785E+04  0.17200000000E+03 0.  1.
</event>
<event>
 4    1  0.3169553E-002  0.2319666E+03  0.7818608E-02  0.1125263E+00
         -2   -1    0    0    0  501 -0.00000000000E+00  0.00000000000E+00  0.60728722268E+03  0.60728722268E+03  0.00000000000E+00 0.  1.
          2   -1    0    0  502    0  0.00000000000E+00 -0.00000000000E+00 -0.90463659377E+02  0.90463659377E+02  0.00000000000E+00 0. -1.
          6    1    1    2  502    0 -0.11517984612E+03  0.10468105177E+03  0.20840085162E+03  0.31183238207E+03  0.17200000000E+03 0. -1.
         -6    1    1    2    0  501  0.11517984612E+03 -0.10468105177E+03  0.30842271168E+03  0.38591849999E+03  0.17200000000E+03 0.  1.
</event>
<event>
 4    1  0.3169553E-002  0.4057880E+03  0.7818608E-02  0.1041794E+00
         -2   -1    0    0    0  501 -0.00000000000E+00  0.00000000000E+00  0.17629508403E+03  0.17629508403E+03  0.00000000000E+00 0.  1.
          2   -1    0    0  502    0  0.00000000000E+00 -0.00000000000E+00 -0.27602462183E+04  0.27602462183E+04  0.00000000000E+00 0. -1.
          6    1    1    2  502    0 -0.36639494763E+03  0.28889546573E+02 -0.24862633814E+04  0.25191604683E+04  0.17200000000E+03 0. -1.
         -6    1    1    2    0  501  0.36639494763E+03 -0.28889546573E+02 -0.97687752927E+02  0.41738083404E+03  0.17200000000E+03 0.  1.
</event>
<event>
 4    1  0.3169553E-002  0.2759396E+03  0.7818608E-02  0.1097928E+00
         -2   -1    0    0    0  501 -0.00000000000E+00  0.00000000000E+00  0.90549669129E+03  0.90549669129E+03  0.00000000000E+00 0.  1.
          2   -1    0    0  502    0  0.00000000000E+00 -0.00000000000E+00 -0.10627233509E+03  0.10627233509E+03  0.00000000000E+00 0. -1.
          6    1    1    2  502    0 -0.21322858221E+03  0.33049385940E+02  0.16848522384E+03  0.32331093522E+03  0.17200000000E+03 0. -1.
         -6    1    1    2    0  501  0.21322858221E+03 -0.33049385940E+02  0.63073913236E+03  0.68845809116E+03  0.17200000000E+03 0.  1.
</event>
<event>
 4    1  0.3169553E-002  0.1843097E+03  0.7818608E-02  0.1163696E+00
          4   -1    0    0  502    0  0.00000000000E+00  0.00000000000E+00  0.10136811134E+04  0.10136811134E+04  0.00000000000E+00 0. -1.
         -4   -1    0    0    0  501 -0.00000000000E+00 -0.00000000000E+00 -0.39015037834E+02  0.39015037834E+02  0.00000000000E+00 0.  1.
          6    1    1    2  502    0 -0.26166445650E+02  0.60838957199E+02  0.68501844731E+03  0.70938024693E+03  0.17200000000E+03 0. -1.
         -6    1    1    2    0  501  0.26166445650E+02 -0.60838957199E+02  0.28964762829E+03  0.34331590432E+03  0.17200000000E+03 0. -1.
</event>
<event>
 4    1  0.3169553E-002  0.1900891E+03  0.7818608E-02  0.1158381E+00
         -1   -1    0    0    0  501 -0.00000000000E+00  0.00000000000E+00  0.13531638559E+04  0.13531638559E+04  0.00000000000E+00 0.  1.
          1   -1    0    0  502    0  0.00000000000E+00 -0.00000000000E+00 -0.26798527193E+02  0.26798527193E+02  0.00000000000E+00 0. -1.
          6    1    1    2  502    0 -0.65439738865E+02 -0.47618520215E+02  0.70432217864E+03  0.72952286751E+03  0.17200000000E+03 0. -1.
         -6    1    1    2    0  501  0.65439738865E+02  0.47618520215E+02  0.62204315003E+03  0.65043951555E+03  0.17200000000E+03 0. -1.
</event>
<event>
 4    1  0.3169553E-002  0.2699741E+03  0.7818608E-02  0.1101294E+00
          2   -1    0    0  502    0  0.00000000000E+00  0.00000000000E+00  0.27363763958E+04  0.27363763958E+04  0.00000000000E+00 0. -1.
         -2   -1    0    0    0  501 -0.00000000000E+00 -0.00000000000E+00 -0.27261049165E+02  0.27261049165E+02  0.00000000000E+00 0.  1.
          6    1    1    2  502    0  0.14337643133E+03  0.15081522587E+03  0.15637992986E+04  0.15869323488E+04  0.17200000000E+03 0. -1.
         -6    1    1    2    0  501 -0.14337643133E+03 -0.15081522587E+03  0.11453160480E+04  0.11767050961E+04  0.17200000000E+03 0.  1.
</event>
<event>
 4    1  0.3169553E-002  0.1864365E+03  0.7818608E-02  0.1161715E+00
          1   -1    0    0  502    0  0.00000000000E+00  0.00000000000E+00  0.23594785796E+03  0.23594785796E+03  0.00000000000E+00 0. -1.
         -1   -1    0    0    0  501 -0.00000000000E+00 -0.00000000000E+00 -0.14772915017E+03  0.14772915017E+03  0.00000000000E+00 0.  1.
          6    1    1    2  502    0  0.42173225198E+02  0.58275108047E+02  0.33947322858E+02  0.18950195216E+03  0.17200000000E+03 0.  1.
         -6    1    1    2    0  501 -0.42173225198E+02 -0.58275108047E+02  0.54271384929E+02  0.19417505598E+03  0.17200000000E+03 0. -1.
</event>
<event>
 4    1  0.3169553E-002  0.1916894E+03  0.7818608E-02  0.1156946E+00
         -2   -1    0    0    0  501 -0.00000000000E+00  0.00000000000E+00  0.12903206420E+03  0.12903206420E+03  0.00000000000E+00 0.  1.
          2   -1    0    0  502    0  0.00000000000E+00 -0.00000000000E+00 -0.57611648624E+03  0.57611648624E+03  0.00000000000E+00 0. -1.
          6    1    1    2  502    0  0.78391799695E+02  0.31867640936E+02 -0.47426758269E+03  0.51154135785E+03  0.17200000000E+03 0. -1.
         -6    1    1    2    0  501 -0.78391799695E+02 -0.31867640936E+02  0.27183160663E+02  0.19360719259E+03  0.17200000000E+03 0.  1.
</event>
<event>
 4    1  0.3169553E-002  0.7356718E+03  0.7818608E-02  0.9658101E-01
         -2   -1    0    0    0  501 -0.00000000000E+00  0.00000000000E+00  0.25556747070E+04  0.25556747070E+04  0.00000000000E+00 0.  1.
          2   -1    0    0  502    0  0.00000000000E+00 -0.00000000000E+00 -0.39906454478E+03  0.39906454478E+03  0.00000000000E+00 0. -1.
          6    1    1    2  502    0  0.54778422852E+03 -0.45995811506E+03  0.66187060011E+02  0.73864318554E+03  0.17200000000E+03 0. -1.
         -6    1    1    2    0  501 -0.54778422852E+03  0.45995811506E+03  0.20904231023E+04  0.22160960663E+04  0.17200000000E+03 0.  1.
</event>
<event>
 4    1  0.3169553E-002  0.1760902E+03  0.7818608E-02  0.1171642E+00
          2   -1    0    0  502    0  0.00000000000E+00  0.00000000000E+00  0.32000221291E+04  0.32000221291E+04  0.00000000000E+00 0. -1.
         -2   -1    0    0    0  501 -0.00000000000E+00 -0.00000000000E+00 -0.15490113828E+02  0.15490113828E+02  0.00000000000E+00 0.  1.
          6    1    1    2  502    0  0.22096400785E+02 -0.30585980592E+02  0.25760879906E+04  0.25820993568E+04  0.17200000000E+03 0. -1.
         -6    1    1    2    0  501 -0.22096400785E+02  0.30585980592E+02  0.60844402464E+03  0.63341288609E+03  0.17200000000E+03 0.  1.
</event>
<event>
 4    1  0.3169553E-002  0.3182861E+03  0.7818608E-02  0.1076441E+00
          2   -1    0    0  502    0  0.00000000000E+00  0.00000000000E+00  0.12430478696E+04  0.12430478696E+04  0.00000000000E+00 0. -1.
         -2   -1    0    0    0  501 -0.00000000000E+00 -0.00000000000E+00 -0.99172750588E+02  0.99172750588E+02  0.00000000000E+00 0.  1.
          6    1    1    2  502    0 -0.58537931054E+02 -0.26133384001E+03  0.85525472988E+03  0.91256052857E+03  0.17200000000E+03 0. -1.
         -6    1    1    2    0  501  0.58537931054E+02  0.26133384001E+03  0.28862038911E+03  0.42966009160E+03  0.17200000000E+03 0.  1.
</event>
<event>
 4    1  0.3169553E-002  0.6744872E+03  0.7818608E-02  0.9761885E-01
         -2   -1    0    0    0  501 -0.00000000000E+00  0.00000000000E+00  0.21110283995E+03  0.21110283995E+03  0.00000000000E+00 0.  1.
          2   -1    0    0  502    0  0.00000000000E+00 -0.00000000000E+00 -0.21651001486E+04  0.21651001486E+04  0.00000000000E+00 0. -1.
          6    1    1    2  502    0 -0.88790214022E+02  0.64611551465E+03 -0.89597128282E+03  0.11214711320E+04  0.17200000000E+03 0.  1.
         -6    1    1    2    0  501  0.88790214022E+02 -0.64611551465E+03 -0.10580260258E+04  0.12547318565E+04  0.17200000000E+03 0.  1.
</event>
<event>
 4    1  0.3169553E-002  0.1883583E+03  0.7818608E-02  0.1159950E+00
          1   -1    0    0  502    0  0.00000000000E+00  0.00000000000E+00  0.74694225597E+03  0.74694225597E+03  0.00000000000E+00 0. -1.
         -1   -1    0    0    0  501 -0.00000000000E+00 -0.00000000000E+00 -0.47509561148E+02  0.47509561148E+02  0.00000000000E+00 0.  1.
          6    1    1    2  502    0  0.22305005855E+02  0.73466682769E+02  0.34374027368E+03  0.39196459345E+03  0.17200000000E+03 0. -1.
         -6    1    1    2    0  501 -0.22305005855E+02 -0.73466682769E+02  0.35569242114E+03  0.40248722367E+03  0.17200000000E+03 0.  1.
</event>
<event>
 4    1  0.3169553E-002  0.3067518E+03  0.7818608E-02  0.1081913E+00
          2   -1    0    0  502    0  0.00000000000E+00  0.00000000000E+00  0.20547676574E+04  0.20547676574E+04  0.00000000000E+00 0. -1.
         -2   -1    0    0    0  501 -0.00000000000E+00 -0.00000000000E+00 -0.51138611425E+02  0.51138611425E+02  0.00000000000E+00 0.  1.
          6    1    1    2  502    0  0.15799758811E+03 -0.19887035420E+03  0.13422072522E+04  0.13768140628E+04  0.17200000000E+03 0. -1.
         -6    1    1    2    0  501 -0.15799758811E+03  0.19887035420E+03  0.66142179376E+03  0.72909220603E+03  0.17200000000E+03 0.  1.
</event>
<event>
 4    1  0.3169553E-002  0.2090956E+03  0.7818608E-02  0.1142284E+00
         -2   -1    0    0    0  501 -0.00000000000E+00  0.00000000000E+00  0.38163168851E+02  0.38163168851E+02  0.00000000000E+00 0.  1.
          2   -1    0    0  502    0  0.00000000000E+00 -0.00000000000E+00 -0.16073150362E+04  0.16073150362E+04  0.00000000000E+00 0. -1.
          6    1    1    2  502    0 -0.46161999887E+02 -0.10957204704E+03 -0.34363197875E+03  0.40224855568E+03  0.17200000000E+03 0.  1.
         -6    1    1    2    0  501  0.46161999887E+02  0.10957204704E+03 -0.12255198886E+04  0.12432296494E+04  0.17200000000E+03 0. -1.
</event>
<event>
 4    1  0.3169553E-002  0.2250058E+03  0.7818608E-02  0.1130205E+00
         -2   -1    0    0    0  501 -0.00000000000E+00  0.00000000000E+00  0.11111140498E+03  0.11111140498E+03  0.00000000000E+00 0.  1.
          2   -1    0    0  502    0  0.00000000000E+00 -0.00000000000E+00 -0.10662299231E+04  0.10662299231E+04  0.00000000000E+00 0. -1.
          6    1    1    2  502    0 -0.14240954275E+03 -0.27624653799E+02 -0.92303003649E+03  0.95005897060E+03  0.17200000000E+03 0. -1.
         -6    1    1    2    0  501  0.14240954275E+03  0.27624653799E+02 -0.32088481630E+02  0.22728235747E+03  0.17200000000E+03 0.  1.
</event>
<event>
 4    1  0.3169553E-002  0.2093248E+03  0.7818608E-02  0.1142102E+00
          1   -1    0    0  502    0  0.00000000000E+00  0.00000000000E+00  0.73559150917E+03  0.73559150917E+03  0.00000000000E+00 0. -1.
         -1   -1    0    0    0  501 -0.00000000000E+00 -0.00000000000E+00 -0.65482537088E+02  0.65482537088E+02  0.00000000000E+00 0.  1.
          6    1    1    2  502    0  0.11435141092E+03  0.34009322859E+02  0.21466681631E+03  0.29983115456E+03  0.17200000000E+03 0. -1.
         -6    1    1    2    0  501 -0.11435141092E+03 -0.34009322859E+02  0.45544215578E+03  0.50124289170E+03  0.17200000000E+03 0. -1.
</event>
<event>
 4    1  0.3169553E-002  0.1910155E+03  0.7818608E-02  0.1157549E+00
          2   -1    0    0  502    0  0.00000000000E+00  0.00000000000E+00  0.16863154282E+04  0.16863154282E+04  0.00000000000E+00 0. -1.
         -2   -1    0    0    0  501 -0.00000000000E+00 -0.00000000000E+00 -0.44433313771E+02  0.44433313771E+02  0.00000000000E+00 0.  1.
          6    1    1    2  502    0 -0.44146987507E+02  0.70384388960E+02  0.20109854575E+03  0.27735815080E+03  0.17200000000E+03 0.  1.
         -6    1    1    2    0  501  0.44146987507E+02 -0.70384388960E+02  0.14407835687E+04  0.14533905912E+04  0.17200000000E+03 0. -1.
</event>
<event>
 4    1  0.3169553E-002  0.2415027E+03  0.7818608E-02  0.1118796E+00
         -2   -1    0    0    0  501 -0.00000000000E+00  0.00000000000E+00  0.68382728128E+02  0.68382728128E+02  0.00000000000E+00 0.  1.
          2   -1    0    0  502    0  0.00000000000E+00 -0.00000000000E+00 -0.10256187633E+04  0.10256187633E+04  0.00000000000E+00 0. -1.
          6    1    1    2  502    0  0.61164017810E+02 -0.15810922907E+03 -0.70309192465E+03  0.74341228124E+03  0.17200000000E+03 0. -1.
         -6    1    1    2    0  501 -0.61164017810E+02  0.15810922907E+03 -0.25414411055E+03  0.35058921022E+03  0.17200000000E+03 0.  1.
</event>
<event>
 4    1  0.3169553E-002  0.3944793E+03  0.7818608E-02  0.1045708E+00
         -1   -1    0    0    0  501 -0.00000000000E+00  0.00000000000E+00  0.46174949366E+03  0.46174949366E+03  0.00000000000E+00 0.  1.
          1   -1    0    0  502    0  0.00000000000E+00 -0.00000000000E+00 -0.38331216947E+03  0.38331216947E+03  0.00000000000E+00 0. -1.
          6    1    1    2  502    0  0.15580230942E+03  0.31899149777E+03  0.18607254279E+03  0.43616158296E+03  0.17200000000E+03 0. -1.
         -6    1    1    2    0  501 -0.15580230942E+03 -0.31899149777E+03 -0.10763521860E+03  0.40890008016E+03  0.17200000000E+03 0.  1.
</event>
<event>
 4    1  0.3169553E-002  0.2086394E+03  0.7818608E-02  0.1142648E+00
         -2   -1    0    0    0  501 -0.00000000000E+00  0.00000000000E+00  0.75476271851E+02  0.75476271851E+02  0.00000000000E+00 0.  1.
          2   -1    0    0  502    0  0.00000000000E+00 -0.00000000000E+00 -0.17125718640E+04  0.17125718640E+04  0.00000000000E+00 0. -1.
          6    1    1    2  502    0  0.74991166798E+02  0.91229020648E+02 -0.15466314218E+04  0.15606406263E+04  0.17200000000E+03 0. -1.
         -6    1    1    2    0  501 -0.74991166798E+02 -0.91229020648E+02 -0.90464170296E+02  0.22740750958E+03  0.17200000000E+03 0.  1.
</event>
<event>
 4    1  0.3169553E-002  0.2116472E+03  0.7818608E-02  0.1140268E+00
          2   -1    0    0  502    0  0.00000000000E+00  0.00000000000E+00  0.17694744980E+04  0.17694744980E+04  0.00000000000E+00 0. -1.
         -2   -1    0    0    0  501 -0.00000000000E+00 -0.00000000000E+00 -0.30621724062E+02  0.30621724062E+02  0.00000000000E+00 0.  1.
          6    1    1    2  502    0 -0.14860728097E+02  0.12243236660E+03  0.12441039726E+04  0.12619782963E+04  0.17200000000E+03 0. -1.
         -6    1    1    2    0  501  0.14860728097E+02 -0.12243236660E+03  0.49474880136E+03  0.53811792581E+03  0.17200000000E+03 0.  1.
</event>
<event>
 4    1  0.3169553E-002  0.1729916E+03  0.7818608E-02  0.1174763E+00
          2   -1    0    0  502    0  0.00000000000E+00  0.00000000000E+00  0.28224877477E+04  0.28224877477E+04  0.00000000000E+00 0. -1.
         -2   -1    0    0    0  501 -0.00000000000E+00 -0.00000000000E+00 -0.12199167035E+02  0.12199167035E+02  0.00000000000E+00 0.  1.
          6    1    1    2  502    0  0.16348699221E+02 -0.86502931232E+01  0.19178691422E+04  0.19256552532E+04  0.17200000000E+03 0. -1.
         -6    1    1    2    0  501 -0.16348699221E+02  0.86502931232E+01  0.89241943838E+03  0.90903166146E+03  0.17200000000E+03 0.  1.
</event>
<event>
 4    1  0.3169553E-002  0.2466926E+03  0.7818608E-02  0.1115413E+00
         -1   -1    0    0    0  501 -0.00000000000E+00  0.00000000000E+00  0.12640247808E+04  0.12640247808E+04  0.00000000000E+00 0.  1.
          1   -1    0    0  502    0  0.00000000000E+00 -0.00000000000E+00 -0.48155768009E+02  0.48155768009E+02  0.00000000000E+00 0. -1.
          6    1    1    2  502    0  0.44958564272E+02 -0.17103205741E+03  0.61746601082E+03  0.66492218468E+03  0.17200000000E+03 0. -1.
         -6    1    1    2    0  501 -0.44958564272E+02  0.17103205741E+03  0.59840300195E+03  0.64725836410E+03  0.17200000000E+03 0. -1.
</event>
<event>
 4    1  0.3169553E-002  0.2408026E+03  0.7818608E-02  0.1119259E+00
         -1   -1    0    0    0  501 -0.00000000000E+00  0.00000000000E+00  0.75486622057E+02  0.75486622057E+02  0.00000000000E+00 0.  1.
          1   -1    0    0  502    0  0.00000000000E+00 -0.00000000000E+00 -0.88096538735E+03  0.88096538735E+03  0.00000000000E+00 0. -1.
          6    1    1    2  502    0 -0.31666243256E+02 -0.16552692377E+03 -0.23161342774E+03  0.33411179770E+03  0.17200000000E+03 0.  1.
         -6    1    1    2    0  501  0.31666243256E+02  0.16552692377E+03 -0.57386533755E+03  0.62234021170E+03  0.17200000000E+03 0. -1.
</event>
<event>
 4    1  0.3169553E-002  0.5185876E+03  0.7818608E-02  0.1009038E+00
         -2   -1    0    0    0  501 -0.00000000000E+00  0.00000000000E+00  0.17479800590E+03  0.17479800590E+03  0.00000000000E+00 0.  1.
          2   -1    0    0  502    0  0.00000000000E+00 -0.00000000000E+00 -0.16024836612E+04  0.16024836612E+04  0.00000000000E+00 0. -1.
          6    1    1    2  502    0 -0.29211566907E+03 -0.39245071838E+03 -0.89135974204E+03  0.10312397007E+04  0.17200000000E+03 0. -1.
         -6    1    1    2    0  501  0.29211566907E+03  0.39245071838E+03 -0.53632591328E+03  0.74604196646E+03  0.17200000000E+03 0.  1.
</event>
<event>
 4    1  0.3169553E-002  0.4820734E+03  0.7818608E-02  0.1018567E+00
         -2   -1    0    0    0  501 -0.00000000000E+00  0.00000000000E+00  0.38013684399E+03  0.38013684399E+03  0.00000000000E+00 0.  1.
          2   -1    0    0  502    0  0.00000000000E+00 -0.00000000000E+00 -0.71470427068E+03  0.71470427068E+03  0.00000000000E+00 0. -1.
          6    1    1    2  502    0 -0.32157938710E+03 -0.31527365464E+03 -0.37546060417E+03  0.61103636946E+03  0.17200000000E+03 0. -1.
         -6    1    1    2    0  501  0.32157938710E+03  0.31527365464E+03  0.40893177482E+02  0.48380474521E+03  0.17200000000E+03 0.  1.
</event>
<event>
 4    1  0.3169553E-002  0.4927272E+03  0.7818608E-02  0.1015695E+00
         -1   -1    0    0    0  501 -0.00000000000E+00  0.00000000000E+00  0.10565829911E+03  0.10565829911E+03  0.00000000000E+00 0.  1.
          1   -1    0    0  502    0  0.00000000000E+00 -0.00000000000E+00 -0.24850384929E+04  0.24850384929E+04  0.00000000000E+00 0. -1.
          6    1    1    2  502    0  0.26944283243E+03  0.37496223251E+03 -0.15452676413E+04  0.16219223776E+04  0.17200000000E+03 0. -1.
         -6    1    1    2    0  501 -0.26944283243E+03 -0.37496223251E+03 -0.83411255247E+03  0.96877441437E+03  0.17200000000E+03 0.  1.
</event>
<event>
 4    1  0.3169553E-002  0.2121727E+03  0.7818608E-02  0.1139857E+00
          2   -1    0    0  502    0  0.00000000000E+00  0.00000000000E+00  0.93174930511E+03  0.93174930511E+03  0.00000000000E+00 0. -1.
         -2   -1    0    0    0  501 -0.00000000000E+00 -0.00000000000E+00 -0.49337022212E+02  0.49337022212E+02  0.00000000000E+00 0.  1.
          6    1    1    2  502    0  0.61579927985E+01 -0.12407796701E+03  0.51181637491E+03  0.55405168026E+03  0.17200000000E+03 0. -1.
         -6    1    1    2    0  501 -0.61579927985E+01  0.12407796701E+03  0.37059590799E+03  0.42703464707E+03  0.17200000000E+03 0.  1.
</event>
<event>
 4    1  0.3169553E-002  0.2612235E+03  0.7818608E-02  0.1106410E+00
          2   -1    0    0  502    0  0.00000000000E+00  0.00000000000E+00  0.87221084257E+03  0.87221084257E+03  0.00000000000E+00 0. -1.
         -2   -1    0    0    0  501 -0.00000000000E+00 -0.00000000000E+00 -0.43152805381E+03  0.43152805381E+03  0.00000000000E+00 0.  1.
          6    1    1    2  502    0  0.10185767202E+02 -0.19634144406E+03  0.81016676545E+03  0.85123903832E+03  0.17200000000E+03 0. -1.
         -6    1    1    2    0  501 -0.10185767202E+02  0.19634144406E+03 -0.36948397670E+03  0.45249985806E+03  0.17200000000E+03 0.  1.
</event>
<event>
 4    1  0.3169553E-002  0.2755031E+03  0.7818608E-02  0.1098171E+00
          1   -1    0    0  502    0  0.00000000000E+00  0.00000000000E+00  0.87456966788E+03  0.87456966788E+03  0.00000000000E+00 0. -1.
         -1   -1    0    0    0  501 -0.00000000000E+00 -0.00000000000E+00 -0.86998786143E+02  0.86998786143E+02  0.00000000000E+00 0.  1.
          6    1    1    2  502    0  0.21455931212E+03 -0.16800640917E+02  0.37010765216E+03  0.46139097752E+03  0.17200000000E+03 0.  1.
         -6    1    1    2    0  501 -0.21455931212E+03  0.16800640917E+02  0.41746322957E+03  0.50017747650E+03  0.17200000000E+03 0.  1.
</event>
<event>
 4    1  0.3169553E-002  0.2400431E+03  0.7818608E-02  0.1119764E+00
          2   -1    0    0  502    0  0.00000000000E+00  0.00000000000E+00  0.10382086167E+04  0.10382086167E+04  0.00000000000E+00 0. -1.
         -2   -1    0    0    0  501 -0.00000000000E+00 -0.00000000000E+00 -0.62559414831E+02  0.62559414831E+02  0.00000000000E+00 0.  1.
          6    1    1    2  502    0  0.16038239357E+03  0.48106065546E+02  0.30294029459E+03  0.38651458937E+03  0.17200000000E+03 0. -1.
         -6    1    1    2    0  501 -0.16038239357E+03 -0.48106065546E+02  0.67270890731E+03  0.71425344219E+03  0.17200000000E+03 0. -1.
</event>
<event>
 4    1  0.3169553E-002  0.7161287E+03  0.7818608E-02  0.9690041E-01
          1   -1    0    0  502    0  0.00000000000E+00  0.00000000000E+00  0.93678966483E+03  0.93678966483E+03  0.00000000000E+00 0. -1.
         -1   -1    0    0    0  501 -0.00000000000E+00 -0.00000000000E+00 -0.75778950024E+03  0.75778950024E+03  0.00000000000E+00 0.  1.
          6    1    1    2  502    0 -0.62192545631E+03  0.31058828507E+03  0.53589954664E+03  0.89444322353E+03  0.17200000000E+03 0. -1.
         -6    1    1    2    0  501  0.62192545631E+03 -0.31058828507E+03 -0.35689938205E+03  0.80013594153E+03  0.17200000000E+03 0.  1.
</event>
<event>
 4    1  0.3169553E-002  0.1833174E+03  0.7818608E-02  0.1164631E+00
         -2   -1    0    0    0  501 -0.00000000000E+00  0.00000000000E+00  0.15741468125E+02  0.15741468125E+02  0.00000000000E+00 0.  1.
          2   -1    0    0  502    0  0.00000000000E+00 -0.00000000000E+00 -0.34599074700E+04  0.34599074700E+04  0.00000000000E+00 0. -1.
          6    1    1    2  502    0  0.17402834553E+01  0.63389514866E+02 -0.64662034788E+03  0.67210351396E+03  0.17200000000E+03 0.  1.
         -6    1    1    2    0  501 -0.17402834553E+01 -0.63389514866E+02 -0.27975456540E+04  0.28035454242E+04  0.17200000000E+03 0. -1.
</event>
<event>
 4    1  0.3169553E-002  0.2073107E+03  0.7818608E-02  0.1143713E+00
          2   -1    0    0  502    0  0.00000000000E+00  0.00000000000E+00  0.93214120336E+03  0.93214120336E+03  0.00000000000E+00 0. -1.
         -2   -1    0    0    0  501 -0.00000000000E+00 -0.00000000000E+00 -0.46132071529E+02  0.46132071529E+02  0.00000000000E+00 0.  1.
          6    1    1    2  502    0  0.99631197824E+02 -0.58884317667E+02  0.43148119076E+03  0.47870006939E+03  0.17200000000E+03 0. -1.
         -6    1    1    2    0  501 -0.99631197824E+02  0.58884317667E+02  0.45452794107E+03  0.49957320551E+03  0.17200000000E+03 0.  1.
</event>
<event>
 4    1  0.3169553E-002  0.1725074E+03  0.7818608E-02  0.1175258E+00
          4   -1    0    0  502    0  0.00000000000E+00  0.00000000000E+00  0.97324338953E+02  0.97324338953E+02  0.00000000000E+00 0. -1.
         -4   -1    0    0    0  501 -0.00000000000E+00 -0.00000000000E+00 -0.31265557168E+03  0.31265557168E+03  0.00000000000E+00 0.  1.
          6    1    1    2  502    0 -0.13192635663E+02 -0.87889386288E+00 -0.77243873734E+02  0.18901173011E+03  0.17200000000E+03 0. -1.
         -6    1    1    2    0  501  0.13192635663E+02  0.87889386288E+00 -0.13808735900E+03  0.22096818053E+03  0.17200000000E+03 0.  1.
</event>
<event>
 4    1  0.3169553E-002  0.1837020E+03  0.7818608E-02  0.1164268E+00
         -2   -1    0    0    0  501 -0.00000000000E+00  0.00000000000E+00  0.12840724836E+03  0.12840724836E+03  0.00000000000E+00 0.  1.
          2   -1    0    0  502    0  0.00000000000E+00 -0.00000000000E+00 -0.34569047351E+03  0.34569047351E+03  0.00000000000E+00 0. -1.
          6    1    1    2  502    0  0.79679019767E+01  0.64023046702E+02 -0.22471316889E+03  0.29024549306E+03  0.17200000000E+03 0. -1.
         -6    1    1    2    0  501 -0.79679019767E+01 -0.64023046702E+02  0.74299437436E+01  0.18385222880E+03  0.17200000000E+03 0.  1.
</event>
<event>
 4    1  0.3169553E-002  0.3770605E+03  0.7818608E-02  0.1052026E+00
          2   -1    0    0  502    0  0.00000000000E+00  0.00000000000E+00  0.16721099687E+04  0.16721099687E+04  0.00000000000E+00 0. -1.
         -2   -1    0    0    0  501 -0.00000000000E+00 -0.00000000000E+00 -0.94474577365E+02  0.94474577365E+02  0.00000000000E+00 0.  1.
          6    1    1    2  502    0 -0.27550725230E+03  0.19153686008E+03  0.10681399407E+04  0.11327389584E+04  0.17200000000E+03 0. -1.
         -6    1    1    2    0  501  0.27550725230E+03 -0.19153686008E+03  0.50949545058E+03  0.63384558767E+03  0.17200000000E+03 0.  1.
</event>
<event>
 4    1  0.3169553E-002  0.3315797E+03  0.7818608E-02  0.1070440E+00
          2   -1    0    0  502    0  0.00000000000E+00  0.00000000000E+00  0.12860721654E+04  0.12860721654E+04  0.00000000000E+00 0. -1.
         -2   -1    0    0    0  501 -0.00000000000E+00 -0.00000000000E+00 -0.10609891893E+03  0.10609891893E+03  0.00000000000E+00 0.  1.
          6    1    1    2  502    0 -0.24200859190E+03  0.14762437258E+03  0.89677897861E+03  0.95611591891E+03  0.17200000000E+03 0. -1.
         -6    1    1    2    0  501  0.24200859190E+03 -0.14762437258E+03  0.28319426782E+03  0.43605516538E+03  0.17200000000E+03 0.  1.
</event>
<event>
 4    1  0.3169553E-002  0.2833380E+03  0.7818608E-02  0.1093880E+00
          2   -1    0    0  502    0  0.00000000000E+00  0.00000000000E+00  0.10181944220E+04  0.10181944220E+04  0.00000000000E+00 0. -1.
         -2   -1    0    0    0  501 -0.00000000000E+00 -0.00000000000E+00 -0.11005284978E+03  0.11005284978E+03  0.00000000000E+00 0.  1.
          6    1    1    2  502    0  0.19721892059E+03 -0.10863308760E+03  0.15367118848E+03  0.32232791459E+03  0.17200000000E+03 0.  1.
         -6    1    1    2    0  501 -0.19721892059E+03  0.10863308760E+03  0.75447038373E+03  0.80591935719E+03  0.17200000000E+03 0. -1.
</event>
<event>
 4    1  0.3169553E-002  0.2624518E+03  0.7818608E-02  0.1105679E+00
         -2   -1    0    0    0  501 -0.00000000000E+00  0.00000000000E+00  0.47304029414E+03  0.47304029414E+03  0.00000000000E+00 0.  1.
          2   -1    0    0  502    0  0.00000000000E+00 -0.00000000000E+00 -0.47909532998E+03  0.47909532998E+03  0.00000000000E+00 0. -1.
          6    1    1    2  502    0 -0.19800188704E+03  0.96023453806E+01 -0.40021365005E+03  0.47859368779E+03  0.17200000000E+03 0. -1.
         -6    1    1    2    0  501  0.19800188704E+03 -0.96023453806E+01  0.39415861421E+03  0.47354193633E+03  0.17200000000E+03 0.  1.
</event>
<event>
 4    1  0.3169553E-002  0.1780890E+03  0.7818608E-02  0.1169665E+00
         -1   -1    0    0    0  501 -0.00000000000E+00  0.00000000000E+00  0.84574234938E+03  0.84574234938E+03  0.00000000000E+00 0.  1.
          1   -1    0    0  502    0  0.00000000000E+00 -0.00000000000E+00 -0.56277876089E+02  0.56277876089E+02  0.00000000000E+00 0. -1.
          6    1    1    2  502    0  0.46070047428E+02  0.30398534375E+01  0.13421536550E+03  0.22300101864E+03  0.17200000000E+03 0. -1.
         -6    1    1    2    0  501 -0.46070047428E+02 -0.30398534375E+01  0.65524910779E+03  0.67901920683E+03  0.17200000000E+03 0.  1.
</event>
<event>
 4    1  0.3169553E-002  0.2497317E+03  0.7818608E-02  0.1113475E+00
         -1   -1    0    0    0  501 -0.00000000000E+00  0.00000000000E+00  0.35978378178E+02  0.35978378178E+02  0.00000000000E+00 0.  1.
          1   -1    0    0  502    0  0.00000000000E+00 -0.00000000000E+00 -0.18418642768E+04  0.18418642768E+04  0.00000000000E+00 0. -1.
          6    1    1    2  502    0 -0.16881391315E+03  0.65450447122E+02 -0.67512425908E+03  0.71983238569E+03  0.17200000000E+03 0.  1.
         -6    1    1    2    0  501  0.16881391315E+03 -0.65450447122E+02 -0.11307616396E+04  0.11580102693E+04  0.17200000000E+03 0.  1.
</event>
<event>
 4    1  0.3169553E-002  0.2928466E+03  0.7818608E-02  0.1088872E+00
          2   -1    0    0  502    0  0.00000000000E+00  0.00000000000E+00  0.96569939487E+03  0.96569939487E+03  0.00000000000E+00 0. -1.
         -2   -1    0    0    0  501 -0.00000000000E+00 -0.00000000000E+00 -0.89876130804E+02  0.89876130804E+02  0.00000000000E+00 0.  1.
          6    1    1    2  502    0 -0.22779326581E+03  0.65462439045E+02  0.38029828683E+03  0.47998530169E+03  0.17200000000E+03 0. -1.
         -6    1    1    2    0  501  0.22779326581E+03 -0.65462439045E+02  0.49552497723E+03  0.57559022398E+03  0.17200000000E+03 0.  1.
</event>
<event>
 4    1  0.3169553E-002  0.3375669E+03  0.7818608E-02  0.1067837E+00
          3   -1    0    0  502    0  0.00000000000E+00  0.00000000000E+00  0.10211479728E+04  0.10211479728E+04  0.00000000000E+00 0. -1.
         -3   -1    0    0    0  501 -0.00000000000E+00 -0.00000000000E+00 -0.15301089579E+03  0.15301089579E+03  0.00000000000E+00 0.  1.
          6    1    1    2  502    0  0.28688874401E+03  0.45412259149E+02  0.73951677045E+03  0.81291849438E+03  0.17200000000E+03 0. -1.
         -6    1    1    2    0  501 -0.28688874401E+03 -0.45412259149E+02  0.12862030658E+03  0.36124037425E+03  0.17200000000E+03 0.  1.
</event>
<event>
 4    1  0.3169553E-002  0.1765307E+03  0.7818608E-02  0.1171204E+00
         -1   -1    0    0    0  501 -0.00000000000E+00  0.00000000000E+00  0.98147060649E+02  0.98147060649E+02  0.00000000000E+00 0.  1.
          1   -1    0    0  502    0  0.00000000000E+00 -0.00000000000E+00 -0.35713093420E+03  0.35713093420E+03  0.00000000000E+00 0. -1.
          6    1    1    2  502    0  0.34162857769E+02  0.20297307138E+02 -0.20530996467E+03  0.27076791376E+03  0.17200000000E+03 0. -1.
         -6    1    1    2    0  501 -0.34162857769E+02 -0.20297307138E+02 -0.53673908874E+02  0.18451008108E+03  0.17200000000E+03 0.  1.
</event>
<event>
 4    1  0.3169553E-002  0.1883941E+03  0.7818608E-02  0.1159918E+00
          2   -1    0    0  502    0  0.00000000000E+00  0.00000000000E+00  0.12385607742E+04  0.12385607742E+04  0.00000000000E+00 0. -1.
         -2   -1    0    0    0  501 -0.00000000000E+00 -0.00000000000E+00 -0.30263595292E+02  0.30263595292E+02  0.00000000000E+00 0.  1.
          6    1    1    2  502    0 -0.51468294467E+02  0.57090589756E+02  0.75036165357E+03  0.77365039387E+03  0.17200000000E+03 0.  1.
         -6    1    1    2    0  501  0.51468294467E+02 -0.57090589756E+02  0.45793552532E+03  0.49517397562E+03  0.17200000000E+03 0.  1.
</event>
<event>
 4    1  0.3169553E-002  0.2012972E+03  0.7818608E-02  0.1148649E+00
         -2   -1    0    0    0  501 -0.00000000000E+00  0.00000000000E+00  0.26710336928E+03  0.26710336928E+03  0.00000000000E+00 0.  1.
          2   -1    0    0  502    0  0.00000000000E+00 -0.00000000000E+00 -0.17980262578E+03  0.17980262578E+03  0.00000000000E+00 0. -1.
          6    1    1    2  502    0 -0.66206973498E+02 -0.80951930746E+02  0.13198536240E+03  0.24070877491E+03  0.17200000000E+03 0. -1.
         -6    1    1    2    0  501  0.66206973498E+02  0.80951930746E+02 -0.44684618902E+02  0.20619722015E+03  0.17200000000E+03 0. -1.
</event>
<event>
 4    1  0.3169553E-002  0.3119155E+03  0.7818608E-02  0.1079431E+00
         -1   -1    0    0    0  501 -0.00000000000E+00  0.00000000000E+00  0.84609912587E+02  0.84609912587E+02  0.00000000000E+00 0.  1.
          1   -1    0    0  502    0  0.00000000000E+00 -0.00000000000E+00 -0.11893032040E+04  0.11893032040E+04  0.00000000000E+00 0. -1.
          6    1    1    2  502    0  0.61808467307E+02 -0.25275876217E+03 -0.66831443592E+03  0.73751980566E+03  0.17200000000E+03 0. -1.
         -6    1    1    2    0  501 -0.61808467307E+02  0.25275876217E+03 -0.43637885549E+03  0.53639331093E+03  0.17200000000E+03 0.  1.
</event>
<event>
 4    1  0.3169553E-002  0.2493465E+03  0.7818608E-02  0.1113718E+00
          1   -1    0    0  502    0  0.00000000000E+00  0.00000000000E+00  0.53305458345E+03  0.53305458345E+03  0.00000000000E+00 0. -1.
         -1   -1    0    0    0  501 -0.00000000000E+00 -0.00000000000E+00 -0.14490687218E+03  0.14490687218E+03  0.00000000000E+00 0.  1.
          6    1    1    2  502    0 -0.16777197926E+03  0.66650298513E+02  0.34379914121E+03  0.42470171745E+03  0.17200000000E+03 0. -1.
         -6    1    1    2    0  501  0.16777197926E+03 -0.66650298513E+02  0.44348570060E+02  0.25325973818E+03  0.17200000000E+03 0. -1.
</event>
<event>
 4    1  0.3169553E-002  0.1948994E+03  0.7818608E-02  0.1154115E+00
         -2   -1    0    0    0  501 -0.00000000000E+00  0.00000000000E+00  0.98775792215E+02  0.98775792215E+02  0.00000000000E+00 0.  1.
          2   -1    0    0  502    0  0.00000000000E+00 -0.00000000000E+00 -0.15790476059E+04  0.15790476059E+04  0.00000000000E+00 0. -1.
          6    1    1    2  502    0  0.31441294201E+02  0.86100050423E+02 -0.14697755824E+04  0.14826415738E+04  0.17200000000E+03 0. -1.
         -6    1    1    2    0  501 -0.31441294201E+02 -0.86100050423E+02 -0.10496231236E+02  0.19518182429E+03  0.17200000000E+03 0.  1.
</event>
<event>
 4    1  0.3169553E-002  0.4335119E+03  0.7818608E-02  0.1032756E+00
          2   -1    0    0  502    0  0.00000000000E+00  0.00000000000E+00  0.21138101696E+04  0.21138101696E+04  0.00000000000E+00 0. -1.
         -2   -1    0    0    0  501 -0.00000000000E+00 -0.00000000000E+00 -0.14635149388E+03  0.14635149388E+03  0.00000000000E+00 0.  1.
          6    1    1    2  502    0  0.33428149802E+03 -0.21588066408E+03  0.16917322182E+04  0.17463935636E+04  0.17200000000E+03 0. -1.
         -6    1    1    2    0  501 -0.33428149802E+03  0.21588066408E+03  0.27572645755E+03  0.51376809986E+03  0.17200000000E+03 0.  1.
</event>
<event>
 4    1  0.3169553E-002  0.2163040E+03  0.7818608E-02  0.1136669E+00
         -1   -1    0    0    0  501 -0.00000000000E+00  0.00000000000E+00  0.77248418590E+02  0.77248418590E+02  0.00000000000E+00 0.  1.
          1   -1    0    0  502    0  0.00000000000E+00 -0.00000000000E+00 -0.91067884705E+03  0.91067884705E+03  0.00000000000E+00 0. -1.
          6    1    1    2  502    0  0.12770907040E+03  0.29896837944E+02 -0.70258291389E+03  0.73512596095E+03  0.17200000000E+03 0. -1.
         -6    1    1    2    0  501 -0.12770907040E+03 -0.29896837944E+02 -0.13084751458E+03  0.25280130469E+03  0.17200000000E+03 0.  1.
</event>
<event>
 4    1  0.3169553E-002  0.1882819E+03  0.7818608E-02  0.1160020E+00
         -4   -1    0    0    0  501 -0.00000000000E+00  0.00000000000E+00  0.27065363834E+03  0.27065363834E+03  0.00000000000E+00 0.  1.
          4   -1    0    0  502    0  0.00000000000E+00 -0.00000000000E+00 -0.13119775574E+03  0.13119775574E+03  0.00000000000E+00 0. -1.
          6    1    1    2  502    0  0.20770241690E+02  0.73720273432E+02  0.61533063116E+02  0.19808180005E+03  0.17200000000E+03 0.  1.
         -6    1    1    2    0  501 -0.20770241690E+02 -0.73720273432E+02  0.77922819490E+02  0.20376959403E+03  0.17200000000E+03 0.  1.
</event>
<event>
 4    1  0.3169553E-002  0.6718390E+03  0.7818608E-02  0.9766641E-01
         -2   -1    0    0    0  501 -0.00000000000E+00  0.00000000000E+00  0.14411687588E+04  0.14411687588E+04  0.00000000000E+00 0.  1.
          2   -1    0    0  502    0  0.00000000000E+00 -0.00000000000E+00 -0.48357653025E+03  0.48357653025E+03  0.00000000000E+00 0. -1.
          6    1    1    2  502    0  0.32527618662E+03 -0.56212008256E+03 -0.92447382785E+02  0.67816967153E+03  0.17200000000E+03 0. -1.
         -6    1    1    2    0  501 -0.32527618662E+03  0.56212008256E+03  0.10500396113E+04  0.12465756175E+04  0.17200000000E+03 0.  1.
</event>
<event>
 4    1  0.3169553E-002  0.4098677E+03  0.7818608E-02  0.1040415E+00
          1   -1    0    0  502    0  0.00000000000E+00  0.00000000000E+00  0.19714304118E+04  0.19714304118E+04  0.00000000000E+00 0. -1.
         -1   -1    0    0    0  501 -0.00000000000E+00 -0.00000000000E+00 -0.93473624820E+02  0.93473624820E+02  0.00000000000E+00 0.  1.
          6    1    1    2  502    0  0.29175580448E+03  0.23083773722E+03  0.12459029533E+04  0.13115889903E+04  0.17200000000E+03 0. -1.
         -6    1    1    2    0  501 -0.29175580448E+03 -0.23083773722E+03  0.63205383366E+03  0.75331504633E+03  0.17200000000E+03 0.  1.
</event>
<event>
 4    1  0.3169553E-002  0.2903487E+03  0.7818608E-02  0.1090167E+00
          2   -1    0    0  502    0  0.00000000000E+00  0.00000000000E+00  0.93903941086E+03  0.93903941086E+03  0.00000000000E+00 0. -1.
         -2   -1    0    0    0  501 -0.00000000000E+00 -0.00000000000E+00 -0.27875256495E+03  0.27875256495E+03  0.00000000000E+00 0.  1.
          6    1    1    2  502    0 -0.22563470510E+03  0.61703896677E+02  0.83149068109E+03  0.88072648635E+03  0.17200000000E+03 0. -1.
         -6    1    1    2    0  501  0.22563470510E+03 -0.61703896677E+02 -0.17120383518E+03  0.33706548947E+03  0.17200000000E+03 0.  1.
</event>
<event>
 4    1  0.3169553E-002  0.2621582E+03  0.7818608E-02  0.1105853E+00
          1   -1    0    0  502    0  0.00000000000E+00  0.00000000000E+00  0.14190711805E+03  0.14190711805E+03  0.00000000000E+00 0. -1.
         -1   -1    0    0    0  501 -0.00000000000E+00 -0.00000000000E+00 -0.48616712807E+03  0.48616712807E+03  0.00000000000E+00 0.  1.
          6    1    1    2  502    0 -0.17166548899E+03  0.98355924278E+02 -0.15271674760E+03  0.30339632982E+03  0.17200000000E+03 0. -1.
         -6    1    1    2    0  501  0.17166548899E+03 -0.98355924278E+02 -0.19154326242E+03  0.32467791630E+03  0.17200000000E+03 0.  1.
</event>
<event>
 4    1  0.3169553E-002  0.1735012E+03  0.7818608E-02  0.1174245E+00
          1   -1    0    0  502    0  0.00000000000E+00  0.00000000000E+00  0.40606560977E+03  0.40606560977E+03  0.00000000000E+00 0. -1.
         -1   -1    0    0    0  501 -0.00000000000E+00 -0.00000000000E+00 -0.75203720194E+02  0.75203720194E+02  0.00000000000E+00 0.  1.
          6    1    1    2  502    0 -0.48113345928E+01  0.22260477459E+02  0.13671200335E+03  0.22089103571E+03  0.17200000000E+03 0.  1.
         -6    1    1    2    0  501  0.48113345928E+01 -0.22260477459E+02  0.19414988623E+03  0.26037829426E+03  0.17200000000E+03 0. -1.
</event>
<event>
 4    1  0.3169553E-002  0.3142651E+03  0.7818608E-02  0.1078319E+00
         -2   -1    0    0    0  501 -0.00000000000E+00  0.00000000000E+00  0.80985362268E+03  0.80985362268E+03  0.00000000000E+00 0.  1.
          2   -1    0    0  502    0  0.00000000000E+00 -0.00000000000E+00 -0.13485213410E+03  0.13485213410E+03  0.00000000000E+00 0. -1.
          6    1    1    2  502    0  0.74474938268E+02  0.25225393544E+03  0.19140101479E+03  0.36796319495E+03  0.17200000000E+03 0. -1.
         -6    1    1    2    0  501 -0.74474938268E+02 -0.25225393544E+03  0.48360047378E+03  0.57674256182E+03  0.17200000000E+03 0.  1.
</event>
<event>
 4    1  0.3169553E-002  0.1794458E+03  0.7818608E-02  0.1168341E+00
          1   -1    0    0  502    0  0.00000000000E+00  0.00000000000E+00  0.72967804413E+03  0.72967804413E+03  0.00000000000E+00 0. -1.
         -1   -1    0    0    0  501 -0.00000000000E+00 -0.00000000000E+00 -0.45114219300E+02  0.45114219300E+02  0.00000000000E+00 0.  1.
          6    1    1    2  502    0 -0.36716279029E+02 -0.35618717312E+02  0.39949804059E+03  0.43794915527E+03  0.17200000000E+03 0. -1.
         -6    1    1    2    0  501  0.36716279029E+02  0.35618717312E+02  0.28506578424E+03  0.33684310816E+03  0.17200000000E+03 0.  1.
</event>
<event>
 4    1  0.3169553E-002  0.2932166E+03  0.7818608E-02  0.1088682E+00
          2   -1    0    0  502    0  0.00000000000E+00  0.00000000000E+00  0.18027681406E+04  0.18027681406E+04  0.00000000000E+00 0. -1.
         -2   -1    0    0    0  501 -0.00000000000E+00 -0.00000000000E+00 -0.50126847299E+02  0.50126847299E+02  0.00000000000E+00 0.  1.
          6    1    1    2  502    0  0.15495724601E+03 -0.17994500228E+03  0.67209800338E+03  0.73327462665E+03  0.17200000000E+03 0. -1.
         -6    1    1    2    0  501 -0.15495724601E+03  0.17994500228E+03  0.10805432899E+04  0.11196203613E+04  0.17200000000E+03 0. -1.
</event>
<event>
 4    1  0.3169553E-002  0.2409161E+03  0.7818608E-02  0.1119184E+00
         -1   -1    0    0    0  501 -0.00000000000E+00  0.00000000000E+00  0.42359366417E+02  0.42359366417E+02  0.00000000000E+00 0.  1.
          1   -1    0    0  502    0  0.00000000000E+00 -0.00000000000E+00 -0.17957238286E+04  0.17957238286E+04  0.00000000000E+00 0. -1.
          6    1    1    2  502    0 -0.10555861810E+03  0.13158243821E+03 -0.13240660552E+04  0.13458051413E+04  0.17200000000E+03 0. -1.
         -6    1    1    2    0  501  0.10555861810E+03 -0.13158243821E+03 -0.42929840696E+03  0.49227805366E+03  0.17200000000E+03 0. -1.
</event>
<event>
 4    1  0.3169553E-002  0.2749701E+03  0.7818608E-02  0.1098468E+00
         -2   -1    0    0    0  501 -0.00000000000E+00  0.00000000000E+00  0.15901842208E+03  0.15901842208E+03  0.00000000000E+00 0.  1.
          2   -1    0    0  502    0  0.00000000000E+00 -0.00000000000E+00 -0.58240774890E+03  0.58240774890E+03  0.00000000000E+00 0. -1.
          6    1    1    2  502    0  0.48297115924E+02  0.20902617841E+03 -0.37054532427E+03  0.46142430800E+03  0.17200000000E+03 0. -1.
         -6    1    1    2    0  501 -0.48297115924E+02 -0.20902617841E+03 -0.52844002554E+02  0.28000186298E+03  0.17200000000E+03 0.  1.
</event>
<event>
 4    1  0.3169553E-002  0.1816252E+03  0.7818608E-02  0.1166239E+00
         -1   -1    0    0    0  501 -0.00000000000E+00  0.00000000000E+00  0.27027971026E+02  0.27027971026E+02  0.00000000000E+00 0.  1.
          1   -1    0    0  502    0  0.00000000000E+00 -0.00000000000E+00 -0.12224408829E+04  0.12224408829E+04  0.00000000000E+00 0. -1.
          6    1    1    2  502    0 -0.58252222319E+02  0.32218701639E+01 -0.62258467788E+03  0.64853633898E+03  0.17200000000E+03 0. -1.
         -6    1    1    2    0  501  0.58252222319E+02 -0.32218701639E+01 -0.57282823397E+03  0.60093251492E+03  0.17200000000E+03 0.  1.
</event>
<event>
 4    1  0.3169553E-002  0.3145246E+03  0.7818608E-02  0.1078197E+00
          2   -1    0    0  502    0  0.00000000000E+00  0.00000000000E+00  0.76843655466E+03  0.76843655466E+03  0.00000000000E+00 0. -1.
         -2   -1    0    0    0  501 -0.00000000000E+00 -0.00000000000E+00 -0.14389818432E+03  0.14389818432E+03  0.00000000000E+00 0.  1.
          6    1    1    2  502    0 -0.23874626050E+03  0.11109420146E+03  0.46034113044E+03  0.55752995872E+03  0.17200000000E+03 0. -1.
         -6    1    1    2    0  501  0.23874626050E+03 -0.11109420146E+03  0.16419723990E+03  0.35480478025E+03  0.17200000000E+03 0.  1.
</event>
<event>
 4    1  0.3169553E-002  0.2205625E+03  0.7818608E-02  0.1133464E+00
          1   -1    0    0  502    0  0.00000000000E+00  0.00000000000E+00  0.40061965693E+03  0.40061965693E+03  0.00000000000E+00 0. -1.
         -1   -1    0    0    0  501 -0.00000000000E+00 -0.00000000000E+00 -0.12674934808E+03  0.12674934808E+03  0.00000000000E+00 0.  1.
          6    1    1    2  502    0  0.90044865356E+01 -0.13777791401E+03  0.19094598727E+03  0.29173310478E+03  0.17200000000E+03 0. -1.
         -6    1    1    2    0  501 -0.90044865356E+01  0.13777791401E+03  0.82924321579E+02  0.23563590023E+03  0.17200000000E+03 0.  1.
</event>
<event>
 4    1  0.3169553E-002  0.3649340E+03  0.7818608E-02  0.1056647E+00
          2   -1    0    0  502    0  0.00000000000E+00  0.00000000000E+00  0.87590294699E+03  0.87590294699E+03  0.00000000000E+00 0. -1.
         -2   -1    0    0    0  501 -0.00000000000E+00 -0.00000000000E+00 -0.15567818849E+03  0.15567818849E+03  0.00000000000E+00 0.  1.
          6    1    1    2  502    0 -0.31705599201E+03  0.55392683304E+02  0.43890592732E+03  0.57080229894E+03  0.17200000000E+03 0. -1.
         -6    1    1    2    0  501  0.31705599201E+03 -0.55392683304E+02  0.28131883117E+03  0.46077883654E+03  0.17200000000E+03 0. -1.
</event>
<event>
 4    1  0.3169553E-002  0.1763622E+03  0.7818608E-02  0.1171371E+00
          2   -1    0    0  502    0  0.00000000000E+00  0.00000000000E+00  0.36475105526E+03  0.36475105526E+03  0.00000000000E+00 0. -1.
         -2   -1    0    0    0  501 -0.00000000000E+00 -0.00000000000E+00 -0.21207773944E+03  0.21207773944E+03  0.00000000000E+00 0.  1.
          6    1    1    2  502    0 -0.20528095179E+02  0.33139485668E+02  0.29935272028E+03  0.34744162005E+03  0.17200000000E+03 0. -1.
         -6    1    1    2    0  501  0.20528095179E+02 -0.33139485668E+02 -0.14667940447E+03  0.22938717466E+03  0.17200000000E+03 0.  1.
</event>
<event>
 4    1  0.3169553E-002  0.2597729E+03  0.7818608E-02  0.1107280E+00
          2   -1    0    0  502    0  0.00000000000E+00  0.00000000000E+00  0.17864202017E+04  0.17864202017E+04  0.00000000000E+00 0. -1.
         -2   -1    0    0    0  501 -0.00000000000E+00 -0.00000000000E+00 -0.44050637561E+02  0.44050637561E+02  0.00000000000E+00 0.  1.
          6    1    1    2  502    0 -0.91221519895E+02 -0.17197843165E+03  0.12166363178E+04  0.12440602383E+04  0.17200000000E+03 0. -1.
         -6    1    1    2    0  501  0.91221519895E+02  0.17197843165E+03  0.52573324630E+03  0.58641060095E+03  0.17200000000E+03 0.  1.
</event>
<event>
 4    1  0.3169553E-002  0.2088811E+03  0.7818608E-02  0.1142455E+00
          2   -1    0    0  502    0  0.00000000000E+00  0.00000000000E+00  0.10543796425E+04  0.10543796425E+04  0.00000000000E+00 0. -1.
         -2   -1    0    0    0  501 -0.00000000000E+00 -0.00000000000E+00 -0.42957061356E+02  0.42957061356E+02  0.00000000000E+00 0.  1.
          6    1    1    2  502    0 -0.49632706205E+02  0.10762865976E+03  0.40061856331E+03  0.45180368214E+03  0.17200000000E+03 0. -1.
         -6    1    1    2    0  501  0.49632706205E+02 -0.10762865976E+03  0.61080401787E+03  0.64553302175E+03  0.17200000000E+03 0.  1.
</event>
<event>
 4    1  0.3169553E-002  0.1721966E+03  0.7818608E-02  0.1175576E+00
          2   -1    0    0  502    0  0.00000000000E+00  0.00000000000E+00  0.99243460275E+03  0.99243460275E+03  0.00000000000E+00 0. -1.
         -2   -1    0    0    0  501 -0.00000000000E+00 -0.00000000000E+00 -0.39324678232E+02  0.39324678232E+02  0.00000000000E+00 0.  1.
          6    1    1    2  502    0 -0.58869572814E+01 -0.57444359162E+01  0.72940466902E+03  0.74945501933E+03  0.17200000000E+03 0. -1.
         -6    1    1    2    0  501  0.58869572814E+01  0.57444359162E+01  0.22370525550E+03  0.28230426165E+03  0.17200000000E+03 0.  1.
</event>
<event>
 4    1  0.3169553E-002  0.2241380E+03  0.7818608E-02  0.1130835E+00
          2   -1    0    0  502    0  0.00000000000E+00  0.00000000000E+00  0.77449885009E+03  0.77449885009E+03  0.00000000000E+00 0. -1.
         -2   -1    0    0    0  501 -0.00000000000E+00 -0.00000000000E+00 -0.67120702884E+02  0.67120702884E+02  0.00000000000E+00 0.  1.
          6    1    1    2  502    0  0.40717083160E+01  0.14365681914E+03  0.27654555520E+03  0.35597093223E+03  0.17200000000E+03 0. -1.
         -6    1    1    2    0  501 -0.40717083160E+01 -0.14365681914E+03  0.43083259201E+03  0.48564862075E+03  0.17200000000E+03 0.  1.
</event>
<event>
 4    1  0.3169553E-002  0.1852216E+03  0.7818608E-02  0.1162843E+00
         -2   -1    0    0    0  501 -0.00000000000E+00  0.00000000000E+00  0.36631452537E+03  0.36631452537E+03  0.00000000000E+00 0.  1.
          2   -1    0    0  502    0  0.00000000000E+00 -0.00000000000E+00 -0.11800817546E+03  0.11800817546E+03  0.00000000000E+00 0. -1.
          6    1    1    2  502    0  0.58129476193E+02 -0.36660628183E+02  0.14143669381E+02  0.18576081676E+03  0.17200000000E+03 0. -1.
         -6    1    1    2    0  501 -0.58129476193E+02  0.36660628183E+02  0.23416268053E+03  0.29856188406E+03  0.17200000000E+03 0.  1.
</event>
<event>
 4    1  0.3169553E-002  0.1926842E+03  0.7818608E-02  0.1156062E+00
          2   -1    0    0  502    0  0.00000000000E+00  0.00000000000E+00  0.61349322757E+03  0.61349322757E+03  0.00000000000E+00 0. -1.
         -2   -1    0    0    0  501 -0.00000000000E+00 -0.00000000000E+00 -0.92152367654E+02  0.92152367654E+02  0.00000000000E+00 0.  1.
          6    1    1    2  502    0  0.30600388898E+02 -0.81282232497E+02  0.46739170965E+03  0.50555137758E+03  0.17200000000E+03 0. -1.
         -6    1    1    2    0  501 -0.30600388898E+02  0.81282232497E+02  0.53949150263E+02  0.20009421764E+03  0.17200000000E+03 0.  1.
</event>
<event>
 4    1  0.3169553E-002  0.2328717E+03  0.7818608E-02  0.1124635E+00
         -2   -1    0    0    0  501 -0.00000000000E+00  0.00000000000E+00  0.11762333045E+03  0.11762333045E+03  0.00000000000E+00 0.  1.
          2   -1    0    0  502    0  0.00000000000E+00 -0.00000000000E+00 -0.11902071425E+04  0.11902071425E+04  0.00000000000E+00 0. -1.
          6    1    1    2  502    0  0.50477878832E+02 -0.14865134164E+03 -0.10481190058E+04  0.10736771805E+04  0.17200000000E+03 0. -1.
         -6    1    1    2    0  501 -0.50477878832E+02  0.14865134164E+03 -0.24464806270E+02  0.23415329246E+03  0.17200000000E+03 0.  1.
</event>
<event>
 4    1  0.3169553E-002  0.1874053E+03  0.7818608E-02  0.1160823E+00
          2   -1    0    0  502    0  0.00000000000E+00  0.00000000000E+00  0.31443734305E+03  0.31443734305E+03  0.00000000000E+00 0. -1.
         -2   -1    0    0    0  501 -0.00000000000E+00 -0.00000000000E+00 -0.11867100803E+03  0.11867100803E+03  0.00000000000E+00 0.  1.
          6    1    1    2  502    0 -0.62352750664E+02  0.40606408681E+02  0.15039179954E+03  0.24028824214E+03  0.17200000000E+03 0.  1.
         -6    1    1    2    0  501  0.62352750664E+02 -0.40606408681E+02  0.45374535475E+02  0.19282010894E+03  0.17200000000E+03 0.  1.
</event>
<event>
 4    1  0.3169553E-002  0.2143664E+03  0.7818608E-02  0.1138154E+00
         -2   -1    0    0    0  501 -0.00000000000E+00  0.00000000000E+00  0.13114298157E+03  0.13114298157E+03  0.00000000000E+00 0.  1.
          2   -1    0    0  502    0  0.00000000000E+00 -0.00000000000E+00 -0.35397106375E+03  0.35397106375E+03  0.00000000000E+00 0. -1.
          6    1    1    2  502    0  0.68839453087E+02  0.10784280551E+03 -0.87062607008E+02  0.23137164593E+03  0.17200000000E+03 0. -1.
         -6    1    1    2    0  501 -0.68839453087E+02 -0.10784280551E+03 -0.13576547517E+03  0.25374239939E+03  0.17200000000E+03 0. -1.
</event>
<event>
 4    1  0.3169553E-002  0.1832980E+03  0.7818608E-02  0.1164649E+00
         -1   -1    0    0    0  501 -0.00000000000E+00  0.00000000000E+00  0.33510991128E+02  0.33510991128E+02  0.00000000000E+00 0.  1.
          1   -1    0    0  502    0  0.00000000000E+00 -0.00000000000E+00 -0.13720055175E+04  0.13720055175E+04  0.00000000000E+00 0. -1.
          6    1    1    2  502    0  0.52792418958E+02 -0.35030406600E+02 -0.10338994754E+04  0.10500220446E+04  0.17200000000E+03 0.  1.
         -6    1    1    2    0  501 -0.52792418958E+02  0.35030406600E+02 -0.30459505096E+03  0.35549446403E+03  0.17200000000E+03 0.  1.
</event>
<event>
 4    1  0.3169553E-002  0.1976167E+03  0.7818608E-02  0.1151766E+00
         -2   -1    0    0    0  501 -0.00000000000E+00  0.00000000000E+00  0.58030354521E+02  0.58030354521E+02  0.00000000000E+00 0.  1.
          2   -1    0    0  502    0  0.00000000000E+00 -0.00000000000E+00 -0.10716129632E+04  0.10716129632E+04  0.00000000000E+00 0. -1.
          6    1    1    2  502    0 -0.88846800497E+02 -0.39681362530E+02 -0.85128989343E+03  0.87392611080E+03  0.17200000000E+03 0. -1.
         -6    1    1    2    0  501  0.88846800497E+02  0.39681362530E+02 -0.16229271526E+03  0.25571720692E+03  0.17200000000E+03 0.  1.
</event>
<event>
 4    1  0.3169553E-002  0.2173202E+03  0.7818608E-02  0.1135897E+00
         -2   -1    0    0    0  501 -0.00000000000E+00  0.00000000000E+00  0.18012866619E+03  0.18012866619E+03  0.00000000000E+00 0.  1.
          2   -1    0    0  502    0  0.00000000000E+00 -0.00000000000E+00 -0.63153685373E+03  0.63153685373E+03  0.00000000000E+00 0. -1.
          6    1    1    2  502    0  0.52176544656E+02  0.12215431912E+03 -0.53606321601E+03  0.57843914204E+03  0.17200000000E+03 0. -1.
         -6    1    1    2    0  501 -0.52176544656E+02 -0.12215431912E+03  0.84655028469E+02  0.23322637788E+03  0.17200000000E+03 0.  1.
</event>
<event>
 4    1  0.3169553E-002  0.2369253E+03  0.7818608E-02  0.1121858E+00
          1   -1    0    0  502    0  0.00000000000E+00  0.00000000000E+00  0.24589061911E+04  0.24589061911E+04  0.00000000000E+00 0. -1.
         -1   -1    0    0    0  501 -0.00000000000E+00 -0.00000000000E+00 -0.20679570199E+03  0.20679570199E+03  0.00000000000E+00 0.  1.
          6    1    1    2  502    0 -0.12566065756E+03 -0.10372563063E+03  0.23831870317E+04  0.23949350795E+04  0.17200000000E+03 0. -1.
         -6    1    1    2    0  501  0.12566065756E+03  0.10372563063E+03 -0.13107654256E+03  0.27076681355E+03  0.17200000000E+03 0.  1.
</event>
<event>
 4    1  0.3169553E-002  0.2690030E+03  0.7818608E-02  0.1101852E+00
          2   -1    0    0  502    0  0.00000000000E+00  0.00000000000E+00  0.54931842239E+03  0.54931842239E+03  0.00000000000E+00 0. -1.
         -2   -1    0    0    0  501 -0.00000000000E+00 -0.00000000000E+00 -0.16360199287E+03  0.16360199287E+03  0.00000000000E+00 0.  1.
          6    1    1    2  502    0  0.12643024528E+03 -0.16368869906E+03  0.35018781507E+03  0.44158136617E+03  0.17200000000E+03 0.  1.
         -6    1    1    2    0  501 -0.12643024528E+03  0.16368869906E+03  0.35528614447E+02  0.27133904910E+03  0.17200000000E+03 0.  1.
</event>
<event>
 4    1  0.3169553E-002  0.2226957E+03  0.7818608E-02  0.1131889E+00
          2   -1    0    0  502    0  0.00000000000E+00  0.00000000000E+00  0.29810344061E+04  0.29810344061E+04  0.00000000000E+00 0. -1.
         -2   -1    0    0    0  501 -0.00000000000E+00 -0.00000000000E+00 -0.20620097190E+02  0.20620097190E+02  0.00000000000E+00 0.  1.
          6    1    1    2  502    0  0.61400658937E+02 -0.12743365828E+03  0.21398882610E+04  0.21514448977E+04  0.17200000000E+03 0. -1.
         -6    1    1    2    0  501 -0.61400658937E+02  0.12743365828E+03  0.82052604795E+03  0.85020960565E+03  0.17200000000E+03 0.  1.
</event>
<event>
 4    1  0.3169553E-002  0.2994819E+03  0.7818608E-02  0.1085500E+00
          2   -1    0    0  502    0  0.00000000000E+00  0.00000000000E+00  0.14377618247E+03  0.14377618247E+03  0.00000000000E+00 0. -1.
         -2   -1    0    0    0  501 -0.00000000000E+00 -0.00000000000E+00 -0.84710283608E+03  0.84710283608E+03  0.00000000000E+00 0.  1.
          6    1    1    2  502    0  0.50498563084E+02  0.23990692442E+03 -0.97298449242E+02  0.31489113275E+03  0.17200000000E+03 0. -1.
         -6    1    1    2    0  501 -0.50498563084E+02 -0.23990692442E+03 -0.60602820437E+03  0.67598788580E+03  0.17200000000E+03 0.  1.
</event>
<event>
 4    1  0.3169553E-002  0.1759611E+03  0.7818608E-02  0.1171770E+00
          2   -1    0    0  502    0  0.00000000000E+00  0.00000000000E+00  0.77302267371E+03  0.77302267371E+03  0.00000000000E+00 0. -1.
         -2   -1    0    0    0  501 -0.00000000000E+00 -0.00000000000E+00 -0.47629912556E+02  0.47629912556E+02  0.00000000000E+00 0.  1.
          6    1    1    2  502    0  0.20700423752E+01 -0.37067665936E+02  0.19904486612E+03  0.26567114194E+03  0.17200000000E+03 0.  1.
         -6    1    1    2    0  501 -0.20700423752E+01  0.37067665936E+02  0.52634789504E+03  0.55498144432E+03  0.17200000000E+03 0.  1.
</event>
<event>
 4    1  0.3169553E-002  0.1738836E+03  0.7818608E-02  0.1173857E+00
         -2   -1    0    0    0  501 -0.00000000000E+00  0.00000000000E+00  0.53625839837E+02  0.53625839837E+02  0.00000000000E+00 0.  1.
          2   -1    0    0  502    0  0.00000000000E+00 -0.00000000000E+00 -0.21393713318E+04  0.21393713318E+04  0.00000000000E+00 0. -1.
          6    1    1    2  502    0 -0.10616542486E+02 -0.23211979339E+02 -0.19838536079E+04  0.19914594258E+04  0.17200000000E+03 0. -1.
         -6    1    1    2    0  501  0.10616542486E+02  0.23211979339E+02 -0.10189188403E+03  0.20153774582E+03  0.17200000000E+03 0.  1.
</event>
<event>
 4    1  0.3169553E-002  0.1924737E+03  0.7818608E-02  0.1156249E+00
         -1   -1    0    0    0  501 -0.00000000000E+00  0.00000000000E+00  0.50252474005E+02  0.50252474005E+02  0.00000000000E+00 0.  1.
          1   -1    0    0  502    0  0.00000000000E+00 -0.00000000000E+00 -0.89441029118E+03  0.89441029118E+03  0.00000000000E+00 0. -1.
          6    1    1    2  502    0 -0.76366707360E+02 -0.40376253641E+02 -0.62010349441E+03  0.64928765554E+03  0.17200000000E+03 0. -1.
         -6    1    1    2    0  501  0.76366707360E+02  0.40376253641E+02 -0.22405432277E+03  0.29537510965E+03  0.17200000000E+03 0.  1.
</event>
<event>
 4    1  0.3169553E-002  0.1767992E+03  0.7818608E-02  0.1170937E+00
          2   -1    0    0  502    0  0.00000000000E+00  0.00000000000E+00  0.81332662224E+02  0.81332662224E+02  0.00000000000E+00 0. -1.
         -2   -1    0    0    0  501 -0.00000000000E+00 -0.00000000000E+00 -0.39499873255E+03  0.39499873255E+03  0.00000000000E+00 0.  1.
          6    1    1    2  502    0  0.37380705753E+02 -0.16632588908E+02 -0.11767748337E+03  0.21238161471E+03  0.17200000000E+03 0. -1.
         -6    1    1    2    0  501 -0.37380705753E+02  0.16632588908E+02 -0.19598858696E+03  0.26394978006E+03  0.17200000000E+03 0.  1.
</event>
<event>
 4    1  0.3169553E-002  0.6793947E+03  0.7818608E-02  0.9753134E-01
         -1   -1    0    0    0  501 -0.00000000000E+00  0.00000000000E+00  0.18387579761E+04  0.18387579761E+04  0.00000000000E+00 0.  1.
          1   -1    0    0  502    0  0.00000000000E+00 -0.00000000000E+00 -0.48839630077E+03  0.48839630077E+03  0.00000000000E+00 0. -1.
          6    1    1    2  502    0  0.38972774450E+03 -0.52924992314E+03 -0.13600735684E+03  0.69287458973E+03  0.17200000000E+03 0. -1.
         -6    1    1    2    0  501 -0.38972774450E+03  0.52924992314E+03  0.14863690321E+04  0.16342796871E+04  0.17200000000E+03 0.  1.
</event>
<event>
 4    1  0.3169553E-002  0.1960348E+03  0.7818608E-02  0.1153128E+00
          2   -1    0    0  502    0  0.00000000000E+00  0.00000000000E+00  0.65732023530E+03  0.65732023530E+03  0.00000000000E+00 0. -1.
         -2   -1    0    0    0  501 -0.00000000000E+00 -0.00000000000E+00 -0.58465803707E+02  0.58465803707E+02  0.00000000000E+00 0.  1.
          6    1    1    2  502    0 -0.91273397649E+02 -0.22689673979E+02  0.30134319756E+03  0.35949600435E+03  0.17200000000E+03 0.  1.
         -6    1    1    2    0  501  0.91273397649E+02  0.22689673979E+02  0.29751123403E+03  0.35629003466E+03  0.17200000000E+03 0. -1.
</event>
<event>
 4    1  0.3169553E-002  0.5896608E+03  0.7818608E-02  0.9927092E-01
          2   -1    0    0  502    0  0.00000000000E+00  0.00000000000E+00  0.80304034326E+03  0.80304034326E+03  0.00000000000E+00 0. -1.
         -2   -1    0    0    0  501 -0.00000000000E+00 -0.00000000000E+00 -0.56894441056E+03  0.56894441056E+03  0.00000000000E+00 0.  1.
          6    1    1    2  502    0  0.50702510905E+03  0.24706556321E+03  0.45239780071E+03  0.74321169516E+03  0.17200000000E+03 0. -1.
         -6    1    1    2    0  501 -0.50702510905E+03 -0.24706556321E+03 -0.21830186801E+03  0.62877305867E+03  0.17200000000E+03 0.  1.
</event>
<event>
 4    1  0.3169553E-002  0.2314615E+03  0.7818608E-02  0.1125615E+00
         -4   -1    0    0    0  501 -0.00000000000E+00  0.00000000000E+00  0.24575436904E+03  0.24575436904E+03  0.00000000000E+00 0.  1.
          4   -1    0    0  502    0  0.00000000000E+00 -0.00000000000E+00 -0.21824014859E+03  0.21824014859E+03  0.00000000000E+00 0. -1.
          6    1    1    2  502    0  0.11686335255E+03 -0.10165315620E+03  0.21455882839E+02  0.23245378518E+03  0.17200000000E+03 0. -1.
         -6    1    1    2    0  501 -0.11686335255E+03  0.10165315620E+03  0.60583376096E+01  0.23154073246E+03  0.17200000000E+03 0. -1.
</event>
<event>
 4    1  0.3169553E-002  0.1926299E+03  0.7818608E-02  0.1156111E+00
          1   -1    0    0  502    0  0.00000000000E+00  0.00000000000E+00  0.12254215401E+04  0.12254215401E+04  0.00000000000E+00 0. -1.
         -1   -1    0    0    0  501 -0.00000000000E+00 -0.00000000000E+00 -0.30326631128E+02  0.30326631128E+02  0.00000000000E+00 0.  1.
          6    1    1    2  502    0  0.81225306472E+02  0.30409161687E+02  0.62205937906E+03  0.65120207202E+03  0.17200000000E+03 0. -1.
         -6    1    1    2    0  501 -0.81225306472E+02 -0.30409161687E+02  0.57303552992E+03  0.60454609921E+03  0.17200000000E+03 0. -1.
</event>
<event>
 4    1  0.3169553E-002  0.1873978E+03  0.7818608E-02  0.1160829E+00
         -2   -1    0    0    0  501 -0.00000000000E+00  0.00000000000E+00  0.20751368650E+02  0.20751368650E+02  0.00000000000E+00 0.  1.
          2   -1    0    0  502    0  0.00000000000E+00 -0.00000000000E+00 -0.18441989164E+04  0.18441989164E+04  0.00000000000E+00 0. -1.
          6    1    1    2  502    0  0.36674623651E+01  0.74300061457E+02 -0.11793216082E+04  0.11941178355E+04  0.17200000000E+03 0. -1.
         -6    1    1    2    0  501 -0.36674623651E+01 -0.74300061457E+02 -0.64412593957E+03  0.67083244960E+03  0.17200000000E+03 0.  1.
</event>
<event>
 4    1  0.3169553E-002  0.1974777E+03  0.7818608E-02  0.1151885E+00
         -1   -1    0    0    0  501 -0.00000000000E+00  0.00000000000E+00  0.52312260615E+03  0.52312260615E+03  0.00000000000E+00 0.  1.
          1   -1    0    0  502    0  0.00000000000E+00 -0.00000000000E+00 -0.86585368476E+02  0.86585368476E+02  0.00000000000E+00 0. -1.
          6    1    1    2  502    0  0.40013739837E+02 -0.88387357832E+02  0.10459847102E+03  0.22346871043E+03  0.17200000000E+03 0. -1.
         -6    1    1    2    0  501 -0.40013739837E+02  0.88387357832E+02  0.33193876665E+03  0.38623926419E+03  0.17200000000E+03 0.  1.
</event>
<event>
 4    1  0.3169553E-002  0.2514092E+03  0.7818608E-02  0.1112417E+00
          2   -1    0    0  502    0  0.00000000000E+00  0.00000000000E+00  0.88367502369E+03  0.88367502369E+03  0.00000000000E+00 0. -1.
         -2   -1    0    0    0  501 -0.00000000000E+00 -0.00000000000E+00 -0.10634083435E+03  0.10634083435E+03  0.00000000000E+00 0.  1.
          6    1    1    2  502    0  0.15871879786E+03  0.91820010245E+02  0.10543763588E+03  0.27262367127E+03  0.17200000000E+03 0.  1.
         -6    1    1    2    0  501 -0.15871879786E+03 -0.91820010245E+02  0.67189655347E+03  0.71739218677E+03  0.17200000000E+03 0.  1.
</event>
<event>
 4    1  0.3169553E-002  0.4320675E+03  0.7818608E-02  0.1033209E+00
         -4   -1    0    0    0  501 -0.00000000000E+00  0.00000000000E+00  0.88618110604E+02  0.88618110604E+02  0.00000000000E+00 0.  1.
          4   -1    0    0  502    0  0.00000000000E+00 -0.00000000000E+00 -0.26808865335E+04  0.26808865335E+04  0.00000000000E+00 0. -1.
          6    1    1    2  502    0 -0.10965534077E+03 -0.38088588496E+03 -0.19370479690E+04  0.19846503937E+04  0.17200000000E+03 0. -1.
         -6    1    1    2    0  501  0.10965534077E+03  0.38088588496E+03 -0.65522045386E+03  0.78485425034E+03  0.17200000000E+03 0.  1.
</event>
<event>
 4    1  0.3169553E-002  0.1725364E+03  0.7818608E-02  0.1175228E+00
         -2   -1    0    0    0  501 -0.00000000000E+00  0.00000000000E+00  0.22834001854E+03  0.22834001854E+03  0.00000000000E+00 0.  1.
          2   -1    0    0  502    0  0.00000000000E+00 -0.00000000000E+00 -0.15681119114E+03  0.15681119114E+03  0.00000000000E+00 0. -1.
          6    1    1    2  502    0  0.92746588965E+01  0.99400710578E+01  0.11484108084E+03  0.20726142468E+03  0.17200000000E+03 0.  1.
         -6    1    1    2    0  501 -0.92746588965E+01 -0.99400710578E+01 -0.43312253435E+02  0.17788978500E+03  0.17200000000E+03 0. -1.
</event>
<event>
 4    1  0.3169553E-002  0.1806986E+03  0.7818608E-02  0.1167129E+00
          1   -1    0    0  502    0  0.00000000000E+00  0.00000000000E+00  0.26150222522E+03  0.26150222522E+03  0.00000000000E+00 0. -1.
         -1   -1    0    0    0  501 -0.00000000000E+00 -0.00000000000E+00 -0.41223790027E+03  0.41223790027E+03  0.00000000000E+00 0.  1.
          6    1    1    2  502    0 -0.32556883287E+02  0.44811171262E+02  0.20589526419E+03  0.27394315384E+03  0.17200000000E+03 0. -1.
         -6    1    1    2    0  501  0.32556883287E+02 -0.44811171262E+02 -0.35663093924E+03  0.39979697165E+03  0.17200000000E+03 0.  1.
</event>
<event>
 4    1  0.3169553E-002  0.2386645E+03  0.7818608E-02  0.1120686E+00
          2   -1    0    0  502    0  0.00000000000E+00  0.00000000000E+00  0.14538525786E+04  0.14538525786E+04  0.00000000000E+00 0. -1.
         -2   -1    0    0    0  501 -0.00000000000E+00 -0.00000000000E+00 -0.94465903135E+02  0.94465903135E+02  0.00000000000E+00 0.  1.
          6    1    1    2  502    0  0.38778965770E+02  0.16085073320E+03  0.87445959350E+02  0.25418017697E+03  0.17200000000E+03 0.  1.
         -6    1    1    2    0  501 -0.38778965770E+02 -0.16085073320E+03  0.12719407161E+04  0.12941383048E+04  0.17200000000E+03 0. -1.
</event>
<event>
 4    1  0.3169553E-002  0.1954872E+03  0.7818608E-02  0.1153603E+00
         -1   -1    0    0    0  501 -0.00000000000E+00  0.00000000000E+00  0.13393645813E+04  0.13393645813E+04  0.00000000000E+00 0.  1.
          1   -1    0    0  502    0  0.00000000000E+00 -0.00000000000E+00 -0.18057353033E+03  0.18057353033E+03  0.00000000000E+00 0. -1.
          6    1    1    2  502    0  0.74361336164E+02 -0.55692452449E+02 -0.11795228210E+03  0.22831556764E+03  0.17200000000E+03 0. -1.
         -6    1    1    2    0  501 -0.74361336164E+02  0.55692452449E+02  0.12767433331E+04  0.12916225440E+04  0.17200000000E+03 0.  1.
</event>
<event>
 4    1  0.3169553E-002  0.3023400E+03  0.7818608E-02  0.1084077E+00
         -3   -1    0    0    0  501 -0.00000000000E+00  0.00000000000E+00  0.51240996009E+03  0.51240996009E+03  0.00000000000E+00 0.  1.
          3   -1    0    0  502    0  0.00000000000E+00 -0.00000000000E+00 -0.28219534543E+03  0.28219534543E+03  0.00000000000E+00 0. -1.
          6    1    1    2  502    0 -0.67929234457E+02  0.23918845815E+03 -0.12585748816E+03  0.32748985745E+03  0.17200000000E+03 0. -1.
         -6    1    1    2    0  501  0.67929234457E+02 -0.23918845815E+03  0.35607210283E+03  0.46711544806E+03  0.17200000000E+03 0.  1.
</event>
<event>
 4    1  0.3169553E-002  0.3224759E+03  0.7818608E-02  0.1074515E+00
          1   -1    0    0  502    0  0.00000000000E+00  0.00000000000E+00  0.78760715447E+03  0.78760715447E+03  0.00000000000E+00 0. -1.
         -1   -1    0    0    0  501 -0.00000000000E+00 -0.00000000000E+00 -0.21058502309E+03  0.21058502309E+03  0.00000000000E+00 0.  1.
          6    1    1    2  502    0 -0.17876816902E+03  0.20603062156E+03  0.59333370469E+03  0.67530405033E+03  0.17200000000E+03 0. -1.
         -6    1    1    2    0  501  0.17876816902E+03 -0.20603062156E+03 -0.16311573309E+02  0.32288812722E+03  0.17200000000E+03 0.  1.
</event>
<event>
 4    1  0.3169553E-002  0.2570457E+03  0.7818608E-02  0.1108931E+00
          2   -1    0    0  502    0  0.00000000000E+00  0.00000000000E+00  0.92301021627E+03  0.92301021627E+03  0.00000000000E+00 0. -1.
         -2   -1    0    0    0  501 -0.00000000000E+00 -0.00000000000E+00 -0.94200315098E+02  0.94200315098E+02  0.00000000000E+00 0.  1.
          6    1    1    2  502    0  0.19096998134E+03  0.43558803015E+01  0.66361655376E+03  0.71165963627E+03  0.17200000000E+03 0. -1.
         -6    1    1    2    0  501 -0.19096998134E+03 -0.43558803015E+01  0.16519334741E+03  0.30555089510E+03  0.17200000000E+03 0.  1.
</event>
<event>
 4    1  0.3169553E-002  0.2271338E+03  0.7818608E-02  0.1128674E+00
          2   -1    0    0  502    0  0.00000000000E+00  0.00000000000E+00  0.28712862084E+04  0.28712862084E+04  0.00000000000E+00 0. -1.
         -2   -1    0    0    0  501 -0.00000000000E+00 -0.00000000000E+00 -0.21767157018E+02  0.21767157018E+02  0.00000000000E+00 0.  1.
          6    1    1    2  502    0 -0.12584871386E+03  0.78535745106E+02  0.20291244390E+04  0.20417971866E+04  0.17200000000E+03 0. -1.
         -6    1    1    2    0  501  0.12584871386E+03 -0.78535745106E+02  0.82039461233E+03  0.85125617882E+03  0.17200000000E+03 0.  1.
</event>
<event>
 4    1  0.3169553E-002  0.2748209E+03  0.7818608E-02  0.1098552E+00
          1   -1    0    0  502    0  0.00000000000E+00  0.00000000000E+00  0.11344898346E+04  0.11344898346E+04  0.00000000000E+00 0. -1.
         -1   -1    0    0    0  501 -0.00000000000E+00 -0.00000000000E+00 -0.15672984339E+03  0.15672984339E+03  0.00000000000E+00 0.  1.
          6    1    1    2  502    0 -0.96378758339E+01  0.21412531458E+03  0.97853852817E+03  0.10163976535E+04  0.17200000000E+03 0. -1.
         -6    1    1    2    0  501  0.96378758339E+01 -0.21412531458E+03 -0.77853699318E+00  0.27482202443E+03  0.17200000000E+03 0.  1.
</event>
<event>
 4    1  0.3169553E-002  0.1922947E+03  0.7818608E-02  0.1156408E+00
          1   -1    0    0  502    0  0.00000000000E+00  0.00000000000E+00  0.17416562773E+04  0.17416562773E+04  0.00000000000E+00 0. -1.
         -1   -1    0    0    0  501 -0.00000000000E+00 -0.00000000000E+00 -0.21506157917E+02  0.21506157917E+02  0.00000000000E+00 0.  1.
          6    1    1    2  502    0  0.57079878159E+02  0.64304909681E+02  0.95977921179E+03  0.97885308872E+03  0.17200000000E+03 0.  1.
         -6    1    1    2    0  501 -0.57079878159E+02 -0.64304909681E+02  0.76037090760E+03  0.78430934651E+03  0.17200000000E+03 0. -1.
</event>
<event>
 4    1  0.3169553E-002  0.1955965E+03  0.7818608E-02  0.1153508E+00
          3   -1    0    0  502    0  0.00000000000E+00  0.00000000000E+00  0.33735601485E+03  0.33735601485E+03  0.00000000000E+00 0. -1.
         -3   -1    0    0    0  501 -0.00000000000E+00 -0.00000000000E+00 -0.19079302029E+03  0.19079302029E+03  0.00000000000E+00 0.  1.
          6    1    1    2  502    0 -0.77908845387E+02 -0.51031484284E+02  0.24146405126E+03  0.31074569768E+03  0.17200000000E+03 0. -1.
         -6    1    1    2    0  501  0.77908845387E+02  0.51031484284E+02 -0.94901056692E+02  0.21740333746E+03  0.17200000000E+03 0.  1.
</event>
<event>
 4    1  0.3169553E-002  0.2297431E+03  0.7818608E-02  0.1126821E+00
         -2   -1    0    0    0  501 -0.00000000000E+00  0.00000000000E+00  0.19584727878E+03  0.19584727878E+03  0.00000000000E+00 0.  1.
          2   -1    0    0  502    0  0.00000000000E+00 -0.00000000000E+00 -0.33754119856E+03  0.33754119856E+03  0.00000000000E+00 0. -1.
          6    1    1    2  502    0  0.98482810465E+02  0.11618534622E+03 -0.19058137372E+03  0.29850152201E+03  0.17200000000E+03 0. -1.
         -6    1    1    2    0  501 -0.98482810465E+02 -0.11618534622E+03  0.48887453944E+02  0.23488695533E+03  0.17200000000E+03 0.  1.
</event>
<event>
 4    1  0.3169553E-002  0.3264820E+03  0.7818608E-02  0.1072704E+00
          2   -1    0    0  502    0  0.00000000000E+00  0.00000000000E+00  0.18930367919E+04  0.18930367919E+04  0.00000000000E+00 0. -1.
         -2   -1    0    0    0  501 -0.00000000000E+00 -0.00000000000E+00 -0.56363389511E+02  0.56363389511E+02  0.00000000000E+00 0.  1.
          6    1    1    2  502    0 -0.14193706169E+03 -0.23845409001E+03  0.88740014414E+03  0.94555248313E+03  0.17200000000E+03 0. -1.
         -6    1    1    2    0  501  0.14193706169E+03  0.23845409001E+03  0.94927325820E+03  0.10038476982E+04  0.17200000000E+03 0.  1.
</event>
<event>
 4    1  0.3169553E-002  0.3321065E+03  0.7818608E-02  0.1070209E+00
          2   -1    0    0  502    0  0.00000000000E+00  0.00000000000E+00  0.12232209811E+04  0.12232209811E+04  0.00000000000E+00 0. -1.
         -2   -1    0    0    0  501 -0.00000000000E+00 -0.00000000000E+00 -0.15115832631E+03  0.15115832631E+03  0.00000000000E+00 0.  1.
          6    1    1    2  502    0 -0.27920056702E+03 -0.52514184373E+02  0.97254019535E+03  0.10276814330E+04  0.17200000000E+03 0. -1.
         -6    1    1    2    0  501  0.27920056702E+03  0.52514184373E+02  0.99522459465E+02  0.34669787441E+03  0.17200000000E+03 0.  1.
</event>
<event>
 4    1  0.3169553E-002  0.2208848E+03  0.7818608E-02  0.1133225E+00
          1   -1    0    0  502    0  0.00000000000E+00  0.00000000000E+00  0.12355066588E+04  0.12355066588E+04  0.00000000000E+00 0. -1.
         -1   -1    0    0    0  501 -0.00000000000E+00 -0.00000000000E+00 -0.10505402835E+03  0.10505402835E+03  0.00000000000E+00 0.  1.
          6    1    1    2  502    0 -0.87965736997E+02  0.10708931277E+03  0.10947472326E+04  0.11168086654E+04  0.17200000000E+03 0. -1.
         -6    1    1    2    0  501  0.87965736997E+02 -0.10708931277E+03  0.35705397808E+02  0.22375202173E+03  0.17200000000E+03 0.  1.
</event>
<event>
 4    1  0.3169553E-002  0.2010097E+03  0.7818608E-02  0.1148890E+00
          1   -1    0    0  502    0  0.00000000000E+00  0.00000000000E+00  0.41328995525E+03  0.41328995525E+03  0.00000000000E+00 0. -1.
         -1   -1    0    0    0  501 -0.00000000000E+00 -0.00000000000E+00 -0.22672631960E+03  0.22672631960E+03  0.00000000000E+00 0.  1.
          6    1    1    2  502    0  0.78374784931E+02 -0.68398083351E+02 -0.14806488325E+03  0.24965599206E+03  0.17200000000E+03 0.  1.
         -6    1    1    2    0  501 -0.78374784931E+02  0.68398083351E+02  0.33462851890E+03  0.39036028279E+03  0.17200000000E+03 0. -1.
</event>
<event>
 4    1  0.3169553E-002  0.7298395E+03  0.7818608E-02  0.9667521E-01
          2   -1    0    0  502    0  0.00000000000E+00  0.00000000000E+00  0.80600695147E+03  0.80600695147E+03  0.00000000000E+00 0. -1.
         -2   -1    0    0    0  501 -0.00000000000E+00 -0.00000000000E+00 -0.88655318028E+03  0.88655318028E+03  0.00000000000E+00 0.  1.
          6    1    1    2  502    0  0.16815079927E+03  0.68906240036E+03 -0.46725698354E+03  0.86659954510E+03  0.17200000000E+03 0.  1.
         -6    1    1    2    0  501 -0.16815079927E+03 -0.68906240036E+03  0.38671075472E+03  0.82596058666E+03  0.17200000000E+03 0. -1.
</event>
<event>
 4    1  0.3169553E-002  0.2792927E+03  0.7818608E-02  0.1096076E+00
         -2   -1    0    0    0  501 -0.00000000000E+00  0.00000000000E+00  0.33770723398E+02  0.33770723398E+02  0.00000000000E+00 0.  1.
          2   -1    0    0  502    0  0.00000000000E+00 -0.00000000000E+00 -0.25775655781E+04  0.25775655781E+04  0.00000000000E+00 0. -1.
          6    1    1    2  502    0  0.87229133305E+02 -0.20201859940E+03 -0.16927070351E+04  0.17155936415E+04  0.17200000000E+03 0. -1.
         -6    1    1    2    0  501 -0.87229133305E+02  0.20201859940E+03 -0.85108781960E+03  0.89574265996E+03  0.17200000000E+03 0.  1.
</event>
<event>
 4    1  0.3169553E-002  0.1781020E+03  0.7818608E-02  0.1169653E+00
         -2   -1    0    0    0  501 -0.00000000000E+00  0.00000000000E+00  0.39632246166E+02  0.39632246166E+02  0.00000000000E+00 0.  1.
          2   -1    0    0  502    0  0.00000000000E+00 -0.00000000000E+00 -0.10048015986E+04  0.10048015986E+04  0.00000000000E+00 0. -1.
          6    1    1    2  502    0  0.14280064708E+02  0.43959053846E+02 -0.24703169464E+03  0.30454059963E+03  0.17200000000E+03 0.  1.
         -6    1    1    2    0  501 -0.14280064708E+02 -0.43959053846E+02 -0.71813765775E+03  0.73989324510E+03  0.17200000000E+03 0. -1.
</event>
<event>
 4    1  0.3169553E-002  0.2559108E+03  0.7818608E-02  0.1109625E+00
          2   -1    0    0  502    0  0.00000000000E+00  0.00000000000E+00  0.90766340568E+03  0.90766340568E+03  0.00000000000E+00 0. -1.
         -2   -1    0    0    0  501 -0.00000000000E+00 -0.00000000000E+00 -0.87448067559E+02  0.87448067559E+02  0.00000000000E+00 0.  1.
          6    1    1    2  502    0 -0.18942420661E+03 -0.49810754097E+01  0.61819563627E+03  0.66907113662E+03  0.17200000000E+03 0. -1.
         -6    1    1    2    0  501  0.18942420661E+03  0.49810754097E+01  0.20201970185E+03  0.32604033661E+03  0.17200000000E+03 0.  1.
</event>
<event>
 4    1  0.3169553E-002  0.1781164E+03  0.7818608E-02  0.1169639E+00
          2   -1    0    0  502    0  0.00000000000E+00  0.00000000000E+00  0.19048347304E+04  0.19048347304E+04  0.00000000000E+00 0. -1.
         -2   -1    0    0    0  501 -0.00000000000E+00 -0.00000000000E+00 -0.18659794850E+02  0.18659794850E+02  0.00000000000E+00 0.  1.
          6    1    1    2  502    0  0.40587714967E+02  0.22228376244E+02  0.12583101240E+04  0.12708539773E+04  0.17200000000E+03 0. -1.
         -6    1    1    2    0  501 -0.40587714967E+02 -0.22228376244E+02  0.62786481151E+03  0.65264054797E+03  0.17200000000E+03 0.  1.
</event>
<event>
 4    1  0.3169553E-002  0.1802676E+03  0.7818608E-02  0.1167544E+00
          1   -1    0    0  502    0  0.00000000000E+00  0.00000000000E+00  0.29916025728E+03  0.29916025728E+03  0.00000000000E+00 0. -1.
         -1   -1    0    0    0  501 -0.00000000000E+00 -0.00000000000E+00 -0.10967345195E+03  0.10967345195E+03  0.00000000000E+00 0.  1.
          6    1    1    2  502    0 -0.37762843321E+02  0.38553511828E+02  0.11472615349E+03  0.21367848723E+03  0.17200000000E+03 0. -1.
         -6    1    1    2    0  501  0.37762843321E+02 -0.38553511828E+02  0.74760651845E+02  0.19515522200E+03  0.17200000000E+03 0.  1.
</event>
<event>
 4    1  0.3169553E-002  0.3369576E+03  0.7818608E-02  0.1068099E+00
          1   -1    0    0  502    0  0.00000000000E+00  0.00000000000E+00  0.19835827981E+04  0.19835827981E+04  0.00000000000E+00 0. -1.
         -1   -1    0    0    0  501 -0.00000000000E+00 -0.00000000000E+00 -0.71067103132E+02  0.71067103132E+02  0.00000000000E+00 0.  1.
          6    1    1    2  502    0  0.28901473175E+03  0.20662499416E+02  0.14094034268E+04  0.14491233465E+04  0.17200000000E+03 0. -1.
         -6    1    1    2    0  501 -0.28901473175E+03 -0.20662499416E+02  0.50311226820E+03  0.60552655472E+03  0.17200000000E+03 0.  1.
</event>
<event>
 4    1  0.3169553E-002  0.4116736E+03  0.7818608E-02  0.1039811E+00
         -1   -1    0    0    0  501 -0.00000000000E+00  0.00000000000E+00  0.76303121201E+02  0.76303121201E+02  0.00000000000E+00 0.  1.
          1   -1    0    0  502    0  0.00000000000E+00 -0.00000000000E+00 -0.22338731102E+04  0.22338731102E+04  0.00000000000E+00 0. -1.
          6    1    1    2  502    0 -0.37229341287E+03 -0.35899152245E+02 -0.11662066194E+04  0.12367348195E+04  0.17200000000E+03 0. -1.
         -6    1    1    2    0  501  0.37229341287E+03  0.35899152245E+02 -0.99136336954E+03  0.10734414119E+04  0.17200000000E+03 0. -1.
</event>
<event>
 4    1  0.3169553E-002  0.4514716E+03  0.7818608E-02  0.1027284E+00
          1   -1    0    0  502    0  0.00000000000E+00  0.00000000000E+00  0.10337411365E+04  0.10337411365E+04  0.00000000000E+00 0. -1.
         -1   -1    0    0    0  501 -0.00000000000E+00 -0.00000000000E+00 -0.27471213583E+03  0.27471213583E+03  0.00000000000E+00 0.  1.
          6    1    1    2  502    0  0.12643641495E+03 -0.39781452969E+03  0.72708892358E+03  0.85585329926E+03  0.17200000000E+03 0. -1.
         -6    1    1    2    0  501 -0.12643641495E+03  0.39781452969E+03  0.31940077038E+02  0.45259997303E+03  0.17200000000E+03 0.  1.
</event>
<event>
 4    1  0.3169553E-002  0.2214884E+03  0.7818608E-02  0.1132778E+00
         -1   -1    0    0    0  501 -0.00000000000E+00  0.00000000000E+00  0.38145146144E+02  0.38145146144E+02  0.00000000000E+00 0.  1.
          1   -1    0    0  502    0  0.00000000000E+00 -0.00000000000E+00 -0.20094444063E+04  0.20094444063E+04  0.00000000000E+00 0. -1.
          6    1    1    2  502    0 -0.67734130297E+02  0.12200493057E+03 -0.15999180015E+04  0.16151763765E+04  0.17200000000E+03 0. -1.
         -6    1    1    2    0  501  0.67734130297E+02 -0.12200493057E+03 -0.37138125858E+03  0.43241317593E+03  0.17200000000E+03 0.  1.
</event>
<event>
 4    1  0.3169553E-002  0.2385871E+03  0.7818608E-02  0.1120738E+00
          2   -1    0    0  502    0  0.00000000000E+00  0.00000000000E+00  0.35100478123E+03  0.35100478123E+03  0.00000000000E+00 0. -1.
         -2   -1    0    0    0  501 -0.00000000000E+00 -0.00000000000E+00 -0.17476164562E+03  0.17476164562E+03  0.00000000000E+00 0.  1.
          6    1    1    2  502    0 -0.16491048843E+03  0.12013550809E+02  0.15867444655E+03  0.28653337429E+03  0.17200000000E+03 0. -1.
         -6    1    1    2    0  501  0.16491048843E+03 -0.12013550809E+02  0.17568689062E+02  0.23923305255E+03  0.17200000000E+03 0.  1.
</event>
<event>
 4    1  0.3169553E-002  0.3342635E+03  0.7818608E-02  0.1069266E+00
         -1   -1    0    0    0  501 -0.00000000000E+00  0.00000000000E+00  0.37821804773E+03  0.37821804773E+03  0.00000000000E+00 0.  1.
          1   -1    0    0  502    0  0.00000000000E+00 -0.00000000000E+00 -0.43393349006E+03  0.43393349006E+03  0.00000000000E+00 0. -1.
          6    1    1    2  502    0 -0.27093277189E+03 -0.93506697788E+02 -0.25728555884E+03  0.42181504028E+03  0.17200000000E+03 0. -1.
         -6    1    1    2    0  501  0.27093277189E+03  0.93506697788E+02  0.20157011651E+03  0.39033649751E+03  0.17200000000E+03 0.  1.
</event>
<event>
 4    1  0.3169553E-002  0.1858118E+03  0.7818608E-02  0.1162294E+00
          2   -1    0    0  502    0  0.00000000000E+00  0.00000000000E+00  0.91728048043E+02  0.91728048043E+02  0.00000000000E+00 0. -1.
         -2   -1    0    0    0  501 -0.00000000000E+00 -0.00000000000E+00 -0.82060509780E+03  0.82060509780E+03  0.00000000000E+00 0.  1.
          6    1    1    2  502    0  0.39465410006E+02  0.58176384919E+02 -0.28816543572E+02  0.18803298523E+03  0.17200000000E+03 0. -1.
         -6    1    1    2    0  501 -0.39465410006E+02 -0.58176384919E+02 -0.70006050618E+03  0.72430016061E+03  0.17200000000E+03 0.  1.
</event>
<event>
 4    1  0.3169553E-002  0.2508064E+03  0.7818608E-02  0.1112796E+00
          2   -1    0    0  502    0  0.00000000000E+00  0.00000000000E+00  0.11604594973E+04  0.11604594973E+04  0.00000000000E+00 0. -1.
         -2   -1    0    0    0  501 -0.00000000000E+00 -0.00000000000E+00 -0.99590518815E+02  0.99590518815E+02  0.00000000000E+00 0.  1.
          6    1    1    2  502    0 -0.94924443817E+02  0.15591403386E+03  0.95574174191E+03  0.98810227872E+03  0.17200000000E+03 0. -1.
         -6    1    1    2    0  501  0.94924443817E+02 -0.15591403386E+03  0.10512723654E+03  0.27194773735E+03  0.17200000000E+03 0.  1.
</event>
<event>
 4    1  0.3169553E-002  0.1989843E+03  0.7818608E-02  0.1150599E+00
         -2   -1    0    0    0  501 -0.00000000000E+00  0.00000000000E+00  0.51073486072E+03  0.51073486072E+03  0.00000000000E+00 0.  1.
          2   -1    0    0  502    0  0.00000000000E+00 -0.00000000000E+00 -0.10879626682E+03  0.10879626682E+03  0.00000000000E+00 0. -1.
          6    1    1    2  502    0  0.13355272416E+02 -0.99158382903E+02  0.36704209185E+03  0.41751005424E+03  0.17200000000E+03 0.  1.
         -6    1    1    2    0  501 -0.13355272416E+02  0.99158382903E+02  0.34896502045E+02  0.20202107330E+03  0.17200000000E+03 0. -1.
</event>
<event>
 4    1  0.3169553E-002  0.1968818E+03  0.7818608E-02  0.1152397E+00
          1   -1    0    0  502    0  0.00000000000E+00  0.00000000000E+00  0.26315699724E+03  0.26315699724E+03  0.00000000000E+00 0. -1.
         -1   -1    0    0    0  501 -0.00000000000E+00 -0.00000000000E+00 -0.20873316374E+03  0.20873316374E+03  0.00000000000E+00 0.  1.
          6    1    1    2  502    0 -0.46989770299E+02  0.83488851176E+02 -0.10079242007E+03  0.22118213926E+03  0.17200000000E+03 0.  1.
         -6    1    1    2    0  501  0.46989770299E+02 -0.83488851176E+02  0.15521625357E+03  0.25070802172E+03  0.17200000000E+03 0. -1.
</event>
<event>
 4    1  0.3169553E-002  0.1801470E+03  0.7818608E-02  0.1167661E+00
          3   -1    0    0  502    0  0.00000000000E+00  0.00000000000E+00  0.23049881122E+03  0.23049881122E+03  0.00000000000E+00 0. -1.
         -3   -1    0    0    0  501 -0.00000000000E+00 -0.00000000000E+00 -0.23883969333E+03  0.23883969333E+03  0.00000000000E+00 0.  1.
          6    1    1    2  502    0  0.53239143258E+02  0.58756512474E+01  0.14618405840E+03  0.23199721675E+03  0.17200000000E+03 0. -1.
         -6    1    1    2    0  501 -0.53239143258E+02 -0.58756512474E+01 -0.15452494051E+03  0.23734128779E+03  0.17200000000E+03 0.  1.
</event>
<event>
 4    1  0.3169553E-002  0.1935619E+03  0.7818608E-02  0.1155287E+00
         -1   -1    0    0    0  501 -0.00000000000E+00  0.00000000000E+00  0.45737158099E+02  0.45737158099E+02  0.00000000000E+00 0.  1.
          1   -1    0    0  502    0  0.00000000000E+00 -0.00000000000E+00 -0.96168118555E+03  0.96168118555E+03  0.00000000000E+00 0. -1.
          6    1    1    2  502    0 -0.51542213534E+02  0.72288486160E+02 -0.65188111633E+03  0.68001118729E+03  0.17200000000E+03 0. -1.
         -6    1    1    2    0  501  0.51542213534E+02 -0.72288486160E+02 -0.26406291112E+03  0.32740715636E+03  0.17200000000E+03 0.  1.
</event>
<event>
 4    1  0.3169553E-002  0.8160321E+03  0.7818608E-02  0.9537097E-01
          1   -1    0    0  502    0  0.00000000000E+00  0.00000000000E+00  0.12845923627E+04  0.12845923627E+04  0.00000000000E+00 0. -1.
         -1   -1    0    0    0  501 -0.00000000000E+00 -0.00000000000E+00 -0.91822589098E+03  0.91822589098E+03  0.00000000000E+00 0.  1.
          6    1    1    2  502    0  0.17513594329E+03 -0.77823635196E+03  0.90999110086E+03  0.12222897454E+04  0.17200000000E+03 0. -1.
         -6    1    1    2    0  501 -0.17513594329E+03  0.77823635196E+03 -0.54362462913E+03  0.98052850827E+03  0.17200000000E+03 0.  1.
</event>
<event>
 4    1  0.3169553E-002  0.3746957E+03  0.7818608E-02  0.1052912E+00
         -2   -1    0    0    0  501 -0.00000000000E+00  0.00000000000E+00  0.15427893723E+03  0.15427893723E+03  0.00000000000E+00 0.  1.
          2   -1    0    0  502    0  0.00000000000E+00 -0.00000000000E+00 -0.91176843013E+03  0.91176843013E+03  0.00000000000E+00 0. -1.
          6    1    1    2  502    0 -0.26117931072E+03 -0.20639343589E+03 -0.40208777119E+03  0.54961027872E+03  0.17200000000E+03 0. -1.
         -6    1    1    2    0  501  0.26117931072E+03  0.20639343589E+03 -0.35540172172E+03  0.51643708864E+03  0.17200000000E+03 0.  1.
</event>
<event>
 4    1  0.3169553E-002  0.2068633E+03  0.7818608E-02  0.1144074E+00
         -2   -1    0    0    0  501 -0.00000000000E+00  0.00000000000E+00  0.50632651399E+02  0.50632651399E+02  0.00000000000E+00 0.  1.
          2   -1    0    0  502    0  0.00000000000E+00 -0.00000000000E+00 -0.86181141069E+03  0.86181141069E+03  0.00000000000E+00 0. -1.
          6    1    1    2  502    0 -0.11229365655E+03  0.24465135708E+02 -0.46901557375E+03  0.51260902898E+03  0.17200000000E+03 0. -1.
         -6    1    1    2    0  501  0.11229365655E+03 -0.24465135708E+02 -0.34216318554E+03  0.39983503311E+03  0.17200000000E+03 0. -1.
</event>
<event>
 4    1  0.3169553E-002  0.3925600E+03  0.7818608E-02  0.1046387E+00
          1   -1    0    0  502    0  0.00000000000E+00  0.00000000000E+00  0.33875858462E+04  0.33875858462E+04  0.00000000000E+00 0. -1.
         -1   -1    0    0    0  501 -0.00000000000E+00 -0.00000000000E+00 -0.10831871359E+03  0.10831871359E+03  0.00000000000E+00 0.  1.
          6    1    1    2  502    0  0.94655299667E+02  0.33994079438E+03  0.29708687198E+04  0.29966922297E+04  0.17200000000E+03 0. -1.
         -6    1    1    2    0  501 -0.94655299667E+02 -0.33994079438E+03  0.30839841276E+03  0.49921233001E+03  0.17200000000E+03 0. -1.
</event>
<event>
 4    1  0.3169553E-002  0.1860877E+03  0.7818608E-02  0.1162038E+00
          2   -1    0    0  502    0  0.00000000000E+00  0.00000000000E+00  0.46971081488E+03  0.46971081488E+03  0.00000000000E+00 0. -1.
         -2   -1    0    0    0  501 -0.00000000000E+00 -0.00000000000E+00 -0.86671832761E+02  0.86671832761E+02  0.00000000000E+00 0.  1.
          6    1    1    2  502    0 -0.67316828044E+02  0.22651068322E+02  0.29904587788E+03  0.35221735237E+03  0.17200000000E+03 0. -1.
         -6    1    1    2    0  501  0.67316828044E+02 -0.22651068322E+02  0.83993104244E+02  0.20416529527E+03  0.17200000000E+03 0.  1.
</event>
<event>
 4    1  0.3169553E-002  0.2047845E+03  0.7818608E-02  0.1145764E+00
         -1   -1    0    0    0  501 -0.00000000000E+00  0.00000000000E+00  0.36260624376E+02  0.36260624376E+02  0.00000000000E+00 0.  1.
          1   -1    0    0  502    0  0.00000000000E+00 -0.00000000000E+00 -0.11966732656E+04  0.11966732656E+04  0.00000000000E+00 0. -1.
          6    1    1    2  502    0  0.59747481838E+02 -0.93717394954E+02 -0.46730558995E+03  0.51020704239E+03  0.17200000000E+03 0.  1.
         -6    1    1    2    0  501 -0.59747481838E+02  0.93717394954E+02 -0.69310705131E+03  0.72272684763E+03  0.17200000000E+03 0. -1.
</event>
<event>
 4    1  0.3169553E-002  0.2493576E+03  0.7818608E-02  0.1113712E+00
          4   -1    0    0  502    0  0.00000000000E+00  0.00000000000E+00  0.58730098990E+03  0.58730098990E+03  0.00000000000E+00 0. -1.
         -4   -1    0    0    0  501 -0.00000000000E+00 -0.00000000000E+00 -0.20023423110E+03  0.20023423110E+03  0.00000000000E+00 0.  1.
          6    1    1    2  502    0  0.13572250834E+03  0.11905709596E+03  0.46384711991E+03  0.52662447913E+03  0.17200000000E+03 0. -1.
         -6    1    1    2    0  501 -0.13572250834E+03 -0.11905709596E+03 -0.76780361114E+02  0.26091074186E+03  0.17200000000E+03 0.  1.
</event>
<event>
 4    1  0.3169553E-002  0.1873006E+03  0.7818608E-02  0.1160919E+00
         -1   -1    0    0    0  501 -0.00000000000E+00  0.00000000000E+00  0.38725634183E+02  0.38725634183E+02  0.00000000000E+00 0.  1.
          1   -1    0    0  502    0  0.00000000000E+00 -0.00000000000E+00 -0.90737084946E+03  0.90737084946E+03  0.00000000000E+00 0. -1.
          6    1    1    2  502    0 -0.58119020182E+02 -0.46040112071E+02 -0.45337493228E+03  0.49054086644E+03  0.17200000000E+03 0. -1.
         -6    1    1    2    0  501  0.58119020182E+02  0.46040112071E+02 -0.41527028300E+03  0.45555561720E+03  0.17200000000E+03 0. -1.
</event>
<event>
 4    1  0.3169553E-002  0.2835600E+03  0.7818608E-02  0.1093760E+00
         -1   -1    0    0    0  501 -0.00000000000E+00  0.00000000000E+00  0.14598990680E+03  0.14598990680E+03  0.00000000000E+00 0.  1.
          1   -1    0    0  502    0  0.00000000000E+00 -0.00000000000E+00 -0.62534741286E+03  0.62534741286E+03  0.00000000000E+00 0. -1.
          6    1    1    2  502    0 -0.59724783005E+02  0.21738272004E+03 -0.10648968475E+03  0.30289659891E+03  0.17200000000E+03 0.  1.
         -6    1    1    2    0  501  0.59724783005E+02 -0.21738272004E+03 -0.37286782131E+03  0.46844072074E+03  0.17200000000E+03 0. -1.
</event>
<event>
 4    1  0.3169553E-002  0.1792002E+03  0.7818608E-02  0.1168579E+00
          1   -1    0    0  502    0  0.00000000000E+00  0.00000000000E+00  0.25439635472E+03  0.25439635472E+03  0.00000000000E+00 0. -1.
         -1   -1    0    0    0  501 -0.00000000000E+00 -0.00000000000E+00 -0.14935174776E+03  0.14935174776E+03  0.00000000000E+00 0.  1.
          6    1    1    2  502    0 -0.15958995061E+02  0.47686640264E+02  0.13195079623E+03  0.22253925004E+03  0.17200000000E+03 0. -1.
         -6    1    1    2    0  501  0.15958995061E+02 -0.47686640264E+02 -0.26906189273E+02  0.18120885244E+03  0.17200000000E+03 0.  1.
</event>
<event>
 4    1  0.3169553E-002  0.2106908E+03  0.7818608E-02  0.1141020E+00
          1   -1    0    0  502    0  0.00000000000E+00  0.00000000000E+00  0.23035072670E+03  0.23035072670E+03  0.00000000000E+00 0. -1.
         -1   -1    0    0    0  501 -0.00000000000E+00 -0.00000000000E+00 -0.24036016713E+03  0.24036016713E+03  0.00000000000E+00 0.  1.
          6    1    1    2  502    0  0.80769660807E+02  0.91010271128E+02  0.99787918933E+02  0.23312708192E+03  0.17200000000E+03 0. -1.
         -6    1    1    2    0  501 -0.80769660807E+02 -0.91010271128E+02 -0.10979735936E+03  0.23758381191E+03  0.17200000000E+03 0.  1.
</event>
<event>
 4    1  0.3169553E-002  0.2298731E+03  0.7818608E-02  0.1126729E+00
         -2   -1    0    0    0  501 -0.00000000000E+00  0.00000000000E+00  0.31391836703E+02  0.31391836703E+02  0.00000000000E+00 0.  1.
          2   -1    0    0  502    0  0.00000000000E+00 -0.00000000000E+00 -0.32081147681E+04  0.32081147681E+04  0.00000000000E+00 0. -1.
          6    1    1    2  502    0 -0.92076200355E+02 -0.12157153276E+03 -0.27050535652E+04  0.27148032074E+04  0.17200000000E+03 0. -1.
         -6    1    1    2    0  501  0.92076200355E+02  0.12157153276E+03 -0.47166936622E+03  0.52470339744E+03  0.17200000000E+03 0.  1.
</event>
<event>
 4    1  0.3169553E-002  0.3754082E+03  0.7818608E-02  0.1052644E+00
         -1   -1    0    0    0  501 -0.00000000000E+00  0.00000000000E+00  0.23259821633E+03  0.23259821633E+03  0.00000000000E+00 0.  1.
          1   -1    0    0  502    0  0.00000000000E+00 -0.00000000000E+00 -0.61520283912E+03  0.61520283912E+03  0.00000000000E+00 0. -1.
          6    1    1    2  502    0 -0.33357284168E+03 -0.87470412830E+01 -0.13917644366E+03  0.40037661509E+03  0.17200000000E+03 0. -1.
         -6    1    1    2    0  501  0.33357284168E+03  0.87470412830E+01 -0.24342817913E+03  0.44742444036E+03  0.17200000000E+03 0.  1.
</event>
<event>
 4    1  0.3169553E-002  0.1850395E+03  0.7818608E-02  0.1163013E+00
          1   -1    0    0  502    0  0.00000000000E+00  0.00000000000E+00  0.34045590809E+03  0.34045590809E+03  0.00000000000E+00 0. -1.
         -1   -1    0    0    0  501 -0.00000000000E+00 -0.00000000000E+00 -0.26451506593E+03  0.26451506593E+03  0.00000000000E+00 0.  1.
          6    1    1    2  502    0 -0.12787692387E+02 -0.67023122827E+02  0.27610837330E+03  0.33237848588E+03  0.17200000000E+03 0. -1.
         -6    1    1    2    0  501  0.12787692387E+02  0.67023122827E+02 -0.20016753114E+03  0.27259248814E+03  0.17200000000E+03 0.  1.
</event>
<event>
 4    1  0.3169553E-002  0.2819483E+03  0.7818608E-02  0.1094630E+00
          2   -1    0    0  502    0  0.00000000000E+00  0.00000000000E+00  0.15382664516E+04  0.15382664516E+04  0.00000000000E+00 0. -1.
         -2   -1    0    0    0  501 -0.00000000000E+00 -0.00000000000E+00 -0.55029462770E+02  0.55029462770E+02  0.00000000000E+00 0.  1.
          6    1    1    2  502    0  0.63227676623E+02 -0.21427338199E+03  0.54502284875E+03  0.61363240379E+03  0.17200000000E+03 0. -1.
         -6    1    1    2    0  501 -0.63227676623E+02  0.21427338199E+03  0.93821414008E+03  0.97966351058E+03  0.17200000000E+03 0.  1.
</event>
<event>
 4    1  0.3169553E-002  0.1740875E+03  0.7818608E-02  0.1173651E+00
         -2   -1    0    0    0  501 -0.00000000000E+00  0.00000000000E+00  0.18809095929E+02  0.18809095929E+02  0.00000000000E+00 0.  1.
          2   -1    0    0  502    0  0.00000000000E+00 -0.00000000000E+00 -0.16512689696E+04  0.16512689696E+04  0.00000000000E+00 0. -1.
          6    1    1    2  502    0 -0.51798905724E+01  0.26374730924E+02 -0.94620011450E+03  0.96208165682E+03  0.17200000000E+03 0. -1.
         -6    1    1    2    0  501  0.51798905724E+01 -0.26374730924E+02 -0.68625975918E+03  0.70799640872E+03  0.17200000000E+03 0.  1.
</event>
<event>
 4    1  0.3169553E-002  0.1818079E+03  0.7818608E-02  0.1166065E+00
         -2   -1    0    0    0  501 -0.00000000000E+00  0.00000000000E+00  0.31869090857E+02  0.31869090857E+02  0.00000000000E+00 0.  1.
          2   -1    0    0  502    0  0.00000000000E+00 -0.00000000000E+00 -0.11089707081E+04  0.11089707081E+04  0.00000000000E+00 0. -1.
          6    1    1    2  502    0  0.57328677156E+02 -0.13548167552E+02 -0.68368002554E+03  0.70744081547E+03  0.17200000000E+03 0. -1.
         -6    1    1    2    0  501 -0.57328677156E+02  0.13548167552E+02 -0.39342159167E+03  0.43339898345E+03  0.17200000000E+03 0. -1.
</event>
<event>
 4    1  0.3169553E-002  0.2738287E+03  0.7818608E-02  0.1099108E+00
          2   -1    0    0  502    0  0.00000000000E+00  0.00000000000E+00  0.75588082128E+03  0.75588082128E+03  0.00000000000E+00 0. -1.
         -2   -1    0    0    0  501 -0.00000000000E+00 -0.00000000000E+00 -0.10919169656E+03  0.10919169656E+03  0.00000000000E+00 0.  1.
          6    1    1    2  502    0  0.20896561520E+03  0.41611883865E+02  0.45419700597E+03  0.53035563300E+03  0.17200000000E+03 0. -1.
         -6    1    1    2    0  501 -0.20896561520E+03 -0.41611883865E+02  0.19249211875E+03  0.33471688484E+03  0.17200000000E+03 0.  1.
</event>
<event>
 4    1  0.3169553E-002  0.2000245E+03  0.7818608E-02  0.1149718E+00
         -1   -1    0    0    0  501 -0.00000000000E+00  0.00000000000E+00  0.74472249283E+02  0.74472249283E+02  0.00000000000E+00 0.  1.
          1   -1    0    0  502    0  0.00000000000E+00 -0.00000000000E+00 -0.78140483035E+03  0.78140483035E+03  0.00000000000E+00 0. -1.
          6    1    1    2  502    0  0.99168222743E+02 -0.24320138033E+02 -0.59267716373E+03  0.62552060391E+03  0.17200000000E+03 0. -1.
         -6    1    1    2    0  501 -0.99168222743E+02  0.24320138033E+02 -0.11425541735E+03  0.23035647573E+03  0.17200000000E+03 0.  1.
</event>
<event>
 4    1  0.3169553E-002  0.2020504E+03  0.7818608E-02  0.1148021E+00
         -2   -1    0    0    0  501 -0.00000000000E+00  0.00000000000E+00  0.11248566961E+03  0.11248566961E+03  0.00000000000E+00 0.  1.
          2   -1    0    0  502    0  0.00000000000E+00 -0.00000000000E+00 -0.36788772614E+03  0.36788772614E+03  0.00000000000E+00 0. -1.
          6    1    1    2  502    0 -0.50149488388E+02  0.93409782792E+02 -0.99816839213E+02  0.22536139886E+03  0.17200000000E+03 0.  1.
         -6    1    1    2    0  501  0.50149488388E+02 -0.93409782792E+02 -0.15558521732E+03  0.25501199688E+03  0.17200000000E+03 0. -1.
</event>
<event>
 4    1  0.3169553E-002  0.4368179E+03  0.7818608E-02  0.1031728E+00
          2   -1    0    0  502    0  0.00000000000E+00  0.00000000000E+00  0.59149972230E+03  0.59149972230E+03  0.00000000000E+00 0. -1.
         -2   -1    0    0    0  501 -0.00000000000E+00 -0.00000000000E+00 -0.17435626000E+04  0.17435626000E+04  0.00000000000E+00 0.  1.
          6    1    1    2  502    0 -0.23795528024E+03  0.32342413493E+03  0.47797455147E+03  0.64751027660E+03  0.17200000000E+03 0. -1.
         -6    1    1    2    0  501  0.23795528024E+03 -0.32342413493E+03 -0.16300374291E+04  0.16875520457E+04  0.17200000000E+03 0.  1.
</event>
<event>
 4    1  0.3169553E-002  0.3787185E+03  0.7818608E-02  0.1051408E+00
          1   -1    0    0  502    0  0.00000000000E+00  0.00000000000E+00  0.23782722370E+03  0.23782722370E+03  0.00000000000E+00 0. -1.
         -1   -1    0    0    0  501 -0.00000000000E+00 -0.00000000000E+00 -0.80638400707E+03  0.80638400707E+03  0.00000000000E+00 0.  1.
          6    1    1    2  502    0  0.13645261826E+03  0.30858452352E+03 -0.22119014592E+02  0.37936390971E+03  0.17200000000E+03 0. -1.
         -6    1    1    2    0  501 -0.13645261826E+03 -0.30858452352E+03 -0.54643776878E+03  0.66484732107E+03  0.17200000000E+03 0.  1.
</event>
<event>
 4    1  0.3169553E-002  0.4669173E+03  0.7818608E-02  0.1022794E+00
          2   -1    0    0  502    0  0.00000000000E+00  0.00000000000E+00  0.23736035563E+03  0.23736035563E+03  0.00000000000E+00 0. -1.
         -2   -1    0    0    0  501 -0.00000000000E+00 -0.00000000000E+00 -0.98945168196E+03  0.98945168196E+03  0.00000000000E+00 0.  1.
          6    1    1    2  502    0  0.40439667528E+03  0.15776903084E+03 -0.21176728247E+03  0.51269593328E+03  0.17200000000E+03 0. -1.
         -6    1    1    2    0  501 -0.40439667528E+03 -0.15776903084E+03 -0.54032404386E+03  0.71411610432E+03  0.17200000000E+03 0.  1.
</event>
<event>
 4    1  0.3169553E-002  0.1884037E+03  0.7818608E-02  0.1159909E+00
         -1   -1    0    0    0  501 -0.00000000000E+00  0.00000000000E+00  0.60697640461E+02  0.60697640461E+02  0.00000000000E+00 0.  1.
          1   -1    0    0  502    0  0.00000000000E+00 -0.00000000000E+00 -0.58481022396E+03  0.58481022396E+03  0.00000000000E+00 0. -1.
          6    1    1    2  502    0 -0.45354814427E+02 -0.62087841870E+02 -0.26068431478E+03  0.32163997151E+03  0.17200000000E+03 0. -1.
         -6    1    1    2    0  501  0.45354814427E+02  0.62087841870E+02 -0.26342826872E+03  0.32386789292E+03  0.17200000000E+03 0.  1.
</event>
<event>
 4    1  0.3169553E-002  0.2141693E+03  0.7818608E-02  0.1138306E+00
         -2   -1    0    0    0  501 -0.00000000000E+00  0.00000000000E+00  0.71512308495E+03  0.71512308495E+03  0.00000000000E+00 0.  1.
          2   -1    0    0  502    0  0.00000000000E+00 -0.00000000000E+00 -0.44177374041E+03  0.44177374041E+03  0.00000000000E+00 0. -1.
          6    1    1    2  502    0  0.11494605478E+03 -0.55424513330E+02 -0.39813554565E+03  0.45208448867E+03  0.17200000000E+03 0. -1.
         -6    1    1    2    0  501 -0.11494605478E+03  0.55424513330E+02  0.67148489020E+03  0.70481233669E+03  0.17200000000E+03 0.  1.
</event>
<event>
 4    1  0.3169553E-002  0.2558527E+03  0.7818608E-02  0.1109661E+00
         -2   -1    0    0    0  501 -0.00000000000E+00  0.00000000000E+00  0.16136123718E+04  0.16136123718E+04  0.00000000000E+00 0.  1.
          2   -1    0    0  502    0  0.00000000000E+00 -0.00000000000E+00 -0.41343108006E+02  0.41343108006E+02  0.00000000000E+00 0. -1.
          6    1    1    2  502    0 -0.11440044847E+03  0.15096065756E+03  0.67281296996E+03  0.71981794593E+03  0.17200000000E+03 0. -1.
         -6    1    1    2    0  501  0.11440044847E+03 -0.15096065756E+03  0.89945629386E+03  0.93513753390E+03  0.17200000000E+03 0.  1.
</event>
<event>
 4    1  0.3169553E-002  0.2942505E+03  0.7818608E-02  0.1088151E+00
         -2   -1    0    0    0  501 -0.00000000000E+00  0.00000000000E+00  0.45373785517E+02  0.45373785517E+02  0.00000000000E+00 0.  1.
          2   -1    0    0  502    0  0.00000000000E+00 -0.00000000000E+00 -0.20094850487E+04  0.20094850487E+04  0.00000000000E+00 0. -1.
          6    1    1    2  502    0  0.23068254615E+03  0.61521865538E+02 -0.12126928404E+04  0.12478811250E+04  0.17200000000E+03 0. -1.
         -6    1    1    2    0  501 -0.23068254615E+03 -0.61521865538E+02 -0.75141842286E+03  0.80697770926E+03  0.17200000000E+03 0.  1.
</event>
<event>
 4    1  0.3169553E-002  0.2576280E+03  0.7818608E-02  0.1108577E+00
          1   -1    0    0  502    0  0.00000000000E+00  0.00000000000E+00  0.16464622194E+04  0.16464622194E+04  0.00000000000E+00 0. -1.
         -1   -1    0    0    0  501 -0.00000000000E+00 -0.00000000000E+00 -0.41077331355E+02  0.41077331355E+02  0.00000000000E+00 0.  1.
          6    1    1    2  502    0  0.11009501408E+03 -0.15705816740E+03  0.91786485378E+03  0.95333523478E+03  0.17200000000E+03 0. -1.
         -6    1    1    2    0  501 -0.11009501408E+03  0.15705816740E+03  0.68752003422E+03  0.73420431593E+03  0.17200000000E+03 0.  1.
</event>
<event>
 4    1  0.3169553E-002  0.4313787E+03  0.7818608E-02  0.1033425E+00
          1   -1    0    0  502    0  0.00000000000E+00  0.00000000000E+00  0.44388946395E+03  0.44388946395E+03  0.00000000000E+00 0. -1.
         -1   -1    0    0    0  501 -0.00000000000E+00 -0.00000000000E+00 -0.45749589365E+03  0.45749589365E+03  0.00000000000E+00 0.  1.
          6    1    1    2  502    0 -0.85443345106E+02  0.38626810871E+03  0.12355729364E+03  0.44872488436E+03  0.17200000000E+03 0. -1.
         -6    1    1    2    0  501  0.85443345106E+02 -0.38626810871E+03 -0.13716372335E+03  0.45266047324E+03  0.17200000000E+03 0.  1.
</event>
<event>
 4    1  0.3169553E-002  0.2378843E+03  0.7818608E-02  0.1121210E+00
          2   -1    0    0  502    0  0.00000000000E+00  0.00000000000E+00  0.23416134711E+04  0.23416134711E+04  0.00000000000E+00 0. -1.
         -2   -1    0    0    0  501 -0.00000000000E+00 -0.00000000000E+00 -0.24439657164E+02  0.24439657164E+02  0.00000000000E+00 0.  1.
          6    1    1    2  502    0 -0.10688165808E+03 -0.12482484240E+03  0.10335489694E+04  0.10605717337E+04  0.17200000000E+03 0. -1.
         -6    1    1    2    0  501  0.10688165808E+03  0.12482484240E+03  0.12836248445E+04  0.13054813945E+04  0.17200000000E+03 0.  1.
</event>
<event>
 4    1  0.3169553E-002  0.2589311E+03  0.7818608E-02  0.1107787E+00
          2   -1    0    0  502    0  0.00000000000E+00  0.00000000000E+00  0.12649454790E+04  0.12649454790E+04  0.00000000000E+00 0. -1.
         -2   -1    0    0    0  501 -0.00000000000E+00 -0.00000000000E+00 -0.59969324064E+02  0.59969324064E+02  0.00000000000E+00 0.  1.
          6    1    1    2  502    0 -0.65849227400E+02  0.18200334856E+03  0.37669576395E+03  0.45710506256E+03  0.17200000000E+03 0. -1.
         -6    1    1    2    0  501  0.65849227400E+02 -0.18200334856E+03  0.82828039103E+03  0.86780974055E+03  0.17200000000E+03 0.  1.
</event>
<event>
 4    1  0.3169553E-002  0.1931413E+03  0.7818608E-02  0.1155658E+00
         -2   -1    0    0    0  501 -0.00000000000E+00  0.00000000000E+00  0.32297090902E+03  0.32297090902E+03  0.00000000000E+00 0.  1.
          2   -1    0    0  502    0  0.00000000000E+00 -0.00000000000E+00 -0.11603305297E+03  0.11603305297E+03  0.00000000000E+00 0. -1.
          6    1    1    2  502    0 -0.64324833057E+02  0.59848636319E+02  0.88608773365E+02  0.21249719559E+03  0.17200000000E+03 0.  1.
         -6    1    1    2    0  501  0.64324833057E+02 -0.59848636319E+02  0.11832908268E+03  0.22650676640E+03  0.17200000000E+03 0.  1.
</event>
<event>
 4    1  0.3169553E-002  0.2446852E+03  0.7818608E-02  0.1116710E+00
         -2   -1    0    0    0  501 -0.00000000000E+00  0.00000000000E+00  0.16514869497E+03  0.16514869497E+03  0.00000000000E+00 0.  1.
          2   -1    0    0  502    0  0.00000000000E+00 -0.00000000000E+00 -0.36483431893E+03  0.36483431893E+03  0.00000000000E+00 0. -1.
          6    1    1    2  502    0 -0.10760001173E+03  0.13678123961E+03 -0.12091612142E+03  0.27293145377E+03  0.17200000000E+03 0. -1.
         -6    1    1    2    0  501  0.10760001173E+03 -0.13678123961E+03 -0.78769502536E+02  0.25705156013E+03  0.17200000000E+03 0. -1.
</event>
<event>
 4    1  0.3169553E-002  0.3368363E+03  0.7818608E-02  0.1068151E+00
         -2   -1    0    0    0  501 -0.00000000000E+00  0.00000000000E+00  0.71133712479E+03  0.71133712479E+03  0.00000000000E+00 0.  1.
          2   -1    0    0  502    0  0.00000000000E+00 -0.00000000000E+00 -0.16007843678E+03  0.16007843678E+03  0.00000000000E+00 0. -1.
          6    1    1    2  502    0 -0.28820924924E+03 -0.28463184407E+02  0.30180621593E+03  0.45226730613E+03  0.17200000000E+03 0. -1.
         -6    1    1    2    0  501  0.28820924924E+03  0.28463184407E+02  0.24945247207E+03  0.41914825544E+03  0.17200000000E+03 0.  1.
</event>
<event>
 4    1  0.3169553E-002  0.2409646E+03  0.7818608E-02  0.1119152E+00
          1   -1    0    0  502    0  0.00000000000E+00  0.00000000000E+00  0.10575869730E+04  0.10575869730E+04  0.00000000000E+00 0. -1.
         -1   -1    0    0    0  501 -0.00000000000E+00 -0.00000000000E+00 -0.22324754524E+03  0.22324754524E+03  0.00000000000E+00 0.  1.
          6    1    1    2  502    0 -0.12456408455E+03 -0.11385840103E+03  0.97329177246E+03  0.10026768278E+04  0.17200000000E+03 0. -1.
         -6    1    1    2    0  501  0.12456408455E+03  0.11385840103E+03 -0.13895234472E+03  0.27815769044E+03  0.17200000000E+03 0.  1.
</event>
<event>
 4    1  0.3169553E-002  0.1892463E+03  0.7818608E-02  0.1159143E+00
         -2   -1    0    0    0  501 -0.00000000000E+00  0.00000000000E+00  0.10633007137E+03  0.10633007137E+03  0.00000000000E+00 0.  1.
          2   -1    0    0  502    0  0.00000000000E+00 -0.00000000000E+00 -0.34822160073E+03  0.34822160073E+03  0.00000000000E+00 0. -1.
          6    1    1    2  502    0  0.10051056076E+02  0.78288922751E+02 -0.16206955975E+03  0.24916003161E+03  0.17200000000E+03 0. -1.
         -6    1    1    2    0  501 -0.10051056076E+02 -0.78288922751E+02 -0.79821969613E+02  0.20539164050E+03  0.17200000000E+03 0.  1.
</event>
<event>
 4    1  0.3169553E-002  0.3236815E+03  0.7818608E-02  0.1073967E+00
         -3   -1    0    0    0  501 -0.00000000000E+00  0.00000000000E+00  0.13585694506E+04  0.13585694506E+04  0.00000000000E+00 0.  1.
          3   -1    0    0  502    0  0.00000000000E+00 -0.00000000000E+00 -0.23230412965E+03  0.23230412965E+03  0.00000000000E+00 0. -1.
          6    1    1    2  502    0  0.19164927110E+03  0.19610264678E+03 -0.87003229517E+02  0.33517048368E+03  0.17200000000E+03 0. -1.
         -6    1    1    2    0  501 -0.19164927110E+03 -0.19610264678E+03  0.12132685504E+04  0.12557030965E+04  0.17200000000E+03 0.  1.
</event>
<event>
 4    1  0.3169553E-002  0.2918356E+03  0.7818608E-02  0.1089395E+00
          1   -1    0    0  502    0  0.00000000000E+00  0.00000000000E+00  0.95223117773E+03  0.95223117773E+03  0.00000000000E+00 0. -1.
         -1   -1    0    0    0  501 -0.00000000000E+00 -0.00000000000E+00 -0.13210091981E+03  0.13210091981E+03  0.00000000000E+00 0.  1.
          6    1    1    2  502    0  0.66565798813E+02 -0.22617037352E+03  0.71816527345E+03  0.77519636442E+03  0.17200000000E+03 0. -1.
         -6    1    1    2    0  501 -0.66565798813E+02  0.22617037352E+03  0.10196498448E+03  0.30913573311E+03  0.17200000000E+03 0.  1.
</event>
<event>
 4    1  0.3169553E-002  0.2627864E+03  0.7818608E-02  0.1105481E+00
         -2   -1    0    0    0  501 -0.00000000000E+00  0.00000000000E+00  0.27973609338E+03  0.27973609338E+03  0.00000000000E+00 0.  1.
          2   -1    0    0  502    0  0.00000000000E+00 -0.00000000000E+00 -0.28034379217E+03  0.28034379217E+03  0.00000000000E+00 0. -1.
          6    1    1    2  502    0  0.56342053477E+02  0.19052104956E+03  0.96472133865E+02  0.27993493874E+03  0.17200000000E+03 0.  1.
         -6    1    1    2    0  501 -0.56342053477E+02 -0.19052104956E+03 -0.97079832657E+02  0.28014494681E+03  0.17200000000E+03 0. -1.
</event>
<event>
 4    1  0.3169553E-002  0.1912348E+03  0.7818608E-02  0.1157352E+00
          2   -1    0    0  502    0  0.00000000000E+00  0.00000000000E+00  0.60727188366E+03  0.60727188366E+03  0.00000000000E+00 0. -1.
         -2   -1    0    0    0  501 -0.00000000000E+00 -0.00000000000E+00 -0.60604039994E+02  0.60604039994E+02  0.00000000000E+00 0.  1.
          6    1    1    2  502    0  0.28990862150E+02  0.78398279364E+02  0.29986853289E+03  0.35565699390E+03  0.17200000000E+03 0. -1.
         -6    1    1    2    0  501 -0.28990862150E+02 -0.78398279364E+02  0.24679931078E+03  0.31221892976E+03  0.17200000000E+03 0.  1.
</event>
<event>
 4    1  0.3169553E-002  0.3199316E+03  0.7818608E-02  0.1075681E+00
         -2   -1    0    0    0  501 -0.00000000000E+00  0.00000000000E+00  0.90316701615E+02  0.90316701615E+02  0.00000000000E+00 0.  1.
          2   -1    0    0  502    0  0.00000000000E+00 -0.00000000000E+00 -0.11333429660E+04  0.11333429660E+04  0.00000000000E+00 0. -1.
          6    1    1    2  502    0 -0.25960349088E+03  0.73336471261E+02 -0.52513549557E+03  0.61491747349E+03  0.17200000000E+03 0. -1.
         -6    1    1    2    0  501  0.25960349088E+03 -0.73336471261E+02 -0.51789076886E+03  0.60874219417E+03  0.17200000000E+03 0.  1.
</event>
<event>
 4    1  0.3169553E-002  0.1875992E+03  0.7818608E-02  0.1160645E+00
         -2   -1    0    0    0  501 -0.00000000000E+00  0.00000000000E+00  0.77325834971E+02  0.77325834971E+02  0.00000000000E+00 0.  1.
          2   -1    0    0  502    0  0.00000000000E+00 -0.00000000000E+00 -0.65487544775E+03  0.65487544775E+03  0.00000000000E+00 0. -1.
          6    1    1    2  502    0  0.47680688178E+02  0.57758333012E+02 -0.86585934132E+02  0.20661702991E+03  0.17200000000E+03 0.  1.
         -6    1    1    2    0  501 -0.47680688178E+02 -0.57758333012E+02 -0.49096367865E+03  0.52558425282E+03  0.17200000000E+03 0. -1.
</event>
<event>
 4    1  0.3169553E-002  0.2427489E+03  0.7818608E-02  0.1117975E+00
         -2   -1    0    0    0  501 -0.00000000000E+00  0.00000000000E+00  0.15916929192E+03  0.15916929192E+03  0.00000000000E+00 0.  1.
          2   -1    0    0  502    0  0.00000000000E+00 -0.00000000000E+00 -0.37091881993E+03  0.37091881993E+03  0.00000000000E+00 0. -1.
          6    1    1    2  502    0 -0.12266748641E+03  0.11956470354E+03 -0.11741135309E+03  0.26965247336E+03  0.17200000000E+03 0. -1.
         -6    1    1    2    0  501  0.12266748641E+03 -0.11956470354E+03 -0.94338174915E+02  0.26043563850E+03  0.17200000000E+03 0.  1.
</event>
<event>
 4    1  0.3169553E-002  0.1964657E+03  0.7818608E-02  0.1152756E+00
         -2   -1    0    0    0  501 -0.00000000000E+00  0.00000000000E+00  0.42973395016E+02  0.42973395016E+02  0.00000000000E+00 0.  1.
          2   -1    0    0  502    0  0.00000000000E+00 -0.00000000000E+00 -0.90499702622E+03  0.90499702622E+03  0.00000000000E+00 0. -1.
          6    1    1    2  502    0  0.71364293412E+02 -0.62625233348E+02 -0.47208345902E+03  0.51133313457E+03  0.17200000000E+03 0. -1.
         -6    1    1    2    0  501 -0.71364293412E+02  0.62625233348E+02 -0.38994017218E+03  0.43663728667E+03  0.17200000000E+03 0. -1.
</event>
<event>
 4    1  0.3169553E-002  0.1760470E+03  0.7818608E-02  0.1171685E+00
         -2   -1    0    0    0  501 -0.00000000000E+00  0.00000000000E+00  0.12149947136E+03  0.12149947136E+03  0.00000000000E+00 0.  1.
          2   -1    0    0  502    0  0.00000000000E+00 -0.00000000000E+00 -0.25647192291E+03  0.25647192291E+03  0.00000000000E+00 0. -1.
          6    1    1    2  502    0  0.36885005073E+02  0.69315980372E+01 -0.81389532123E+02  0.19395052614E+03  0.17200000000E+03 0. -1.
         -6    1    1    2    0  501 -0.36885005073E+02 -0.69315980372E+01 -0.53582919426E+02  0.18402086812E+03  0.17200000000E+03 0.  1.
</event>
<event>
 4    1  0.3169553E-002  0.3243490E+03  0.7818608E-02  0.1073665E+00
         -2   -1    0    0    0  501 -0.00000000000E+00  0.00000000000E+00  0.36450070347E+02  0.36450070347E+02  0.00000000000E+00 0.  1.
          2   -1    0    0  502    0  0.00000000000E+00 -0.00000000000E+00 -0.36465347119E+04  0.36465347119E+04  0.00000000000E+00 0. -1.
          6    1    1    2  502    0 -0.16184586442E+03  0.22231551785E+03 -0.26459174990E+04  0.26657234824E+04  0.17200000000E+03 0. -1.
         -6    1    1    2    0  501  0.16184586442E+03 -0.22231551785E+03 -0.96416714255E+03  0.10172612998E+04  0.17200000000E+03 0.  1.
</event>
<event>
 4    1  0.3169553E-002  0.2261051E+03  0.7818608E-02  0.1129412E+00
         -2   -1    0    0    0  501 -0.00000000000E+00  0.00000000000E+00  0.46527047991E+02  0.46527047991E+02  0.00000000000E+00 0.  1.
          2   -1    0    0  502    0  0.00000000000E+00 -0.00000000000E+00 -0.14023907298E+04  0.14023907298E+04  0.00000000000E+00 0. -1.
          6    1    1    2  502    0  0.14676141887E+03 -0.78046335110E+00 -0.10150092038E+04  0.10398880742E+04  0.17200000000E+03 0. -1.
         -6    1    1    2    0  501 -0.14676141887E+03  0.78046335110E+00 -0.34085447802E+03  0.40902970354E+03  0.17200000000E+03 0.  1.
</event>
<event>
 4    1  0.3169553E-002  0.1999140E+03  0.7818608E-02  0.1149812E+00
          1   -1    0    0  502    0  0.00000000000E+00  0.00000000000E+00  0.33482957492E+03  0.33482957492E+03  0.00000000000E+00 0. -1.
         -1   -1    0    0    0  501 -0.00000000000E+00 -0.00000000000E+00 -0.15967803376E+03  0.15967803376E+03  0.00000000000E+00 0.  1.
          6    1    1    2  502    0  0.20649403029E+02  0.99775887336E+02  0.21181654662E+03  0.29125911996E+03  0.17200000000E+03 0. -1.
         -6    1    1    2    0  501 -0.20649403029E+02 -0.99775887336E+02 -0.36665005467E+02  0.20324848872E+03  0.17200000000E+03 0.  1.
</event>
<event>
 4    1  0.3169553E-002  0.3707276E+03  0.7818608E-02  0.1054415E+00
         -2   -1    0    0    0  501 -0.00000000000E+00  0.00000000000E+00  0.51883721604E+03  0.51883721604E+03  0.00000000000E+00 0.  1.
          2   -1    0    0  502    0  0.00000000000E+00 -0.00000000000E+00 -0.12819908746E+04  0.12819908746E+04  0.00000000000E+00 0. -1.
          6    1    1    2  502    0 -0.28416486249E+03  0.16463677828E+03 -0.11835874159E+04  0.12402895263E+04  0.17200000000E+03 0. -1.
         -6    1    1    2    0  501  0.28416486249E+03 -0.16463677828E+03  0.42043375736E+03  0.56053856439E+03  0.17200000000E+03 0.  1.
</event>
<event>
 4    1  0.3169553E-002  0.2114454E+03  0.7818608E-02  0.1140426E+00
         -1   -1    0    0    0  501 -0.00000000000E+00  0.00000000000E+00  0.28161486942E+02  0.28161486942E+02  0.00000000000E+00 0.  1.
          1   -1    0    0  502    0  0.00000000000E+00 -0.00000000000E+00 -0.18824100722E+04  0.18824100722E+04  0.00000000000E+00 0. -1.
          6    1    1    2  502    0 -0.62502292386E+01 -0.12282544827E+03 -0.54907546967E+03  0.58838170222E+03  0.17200000000E+03 0. -1.
         -6    1    1    2    0  501  0.62502292386E+01  0.12282544827E+03 -0.13051731156E+04  0.13221898569E+04  0.17200000000E+03 0.  1.
</event>
<event>
 4    1  0.3169553E-002  0.5849235E+03  0.7818608E-02  0.9937188E-01
          2   -1    0    0  502    0  0.00000000000E+00  0.00000000000E+00  0.11847751763E+04  0.11847751763E+04  0.00000000000E+00 0. -1.
         -2   -1    0    0    0  501 -0.00000000000E+00 -0.00000000000E+00 -0.32765071621E+03  0.32765071621E+03  0.00000000000E+00 0.  1.
          6    1    1    2  502    0 -0.38126458467E+03 -0.40888727071E+03  0.68903850238E+03  0.90383048269E+03  0.17200000000E+03 0. -1.
         -6    1    1    2    0  501  0.38126458467E+03  0.40888727071E+03  0.16808595770E+03  0.60859540981E+03  0.17200000000E+03 0.  1.
</event>
<event>
 4    1  0.3169553E-002  0.2034935E+03  0.7818608E-02  0.1146825E+00
          1   -1    0    0  502    0  0.00000000000E+00  0.00000000000E+00  0.52123542383E+02  0.52123542383E+02  0.00000000000E+00 0. -1.
         -1   -1    0    0    0  501 -0.00000000000E+00 -0.00000000000E+00 -0.79559405109E+03  0.79559405109E+03  0.00000000000E+00 0.  1.
          6    1    1    2  502    0  0.55708581339E+02 -0.93392569424E+02 -0.35567162110E+03  0.40977057009E+03  0.17200000000E+03 0. -1.
         -6    1    1    2    0  501 -0.55708581339E+02  0.93392569424E+02 -0.38779888760E+03  0.43794702338E+03  0.17200000000E+03 0.  1.
</event>
<event>
 4    1  0.3169553E-002  0.2527482E+03  0.7818608E-02  0.1111580E+00
         -1   -1    0    0    0  501 -0.00000000000E+00  0.00000000000E+00  0.10170200499E+04  0.10170200499E+04  0.00000000000E+00 0.  1.
          1   -1    0    0  502    0  0.00000000000E+00 -0.00000000000E+00 -0.90043792546E+02  0.90043792546E+02  0.00000000000E+00 0. -1.
          6    1    1    2  502    0  0.12761710609E+03 -0.13420697684E+03  0.15908480647E+03  0.29864630259E+03  0.17200000000E+03 0. -1.
         -6    1    1    2    0  501 -0.12761710609E+03  0.13420697684E+03  0.76789145085E+03  0.80841753982E+03  0.17200000000E+03 0.  1.
</event>
<event>
 4    1  0.3169553E-002  0.2218108E+03  0.7818608E-02  0.1132540E+00
         -1   -1    0    0    0  501 -0.00000000000E+00  0.00000000000E+00  0.54069731619E+02  0.54069731619E+02  0.00000000000E+00 0.  1.
          1   -1    0    0  502    0  0.00000000000E+00 -0.00000000000E+00 -0.11652868971E+04  0.11652868971E+04  0.00000000000E+00 0. -1.
          6    1    1    2  502    0 -0.18830877122E+02  0.13878548292E+03 -0.84100777831E+03  0.86976669020E+03  0.17200000000E+03 0.  1.
         -6    1    1    2    0  501  0.18830877122E+02 -0.13878548292E+03 -0.27020938718E+03  0.34958993853E+03  0.17200000000E+03 0.  1.
</event>
<event>
 4    1  0.3169553E-002  0.1999097E+03  0.7818608E-02  0.1149815E+00
         -1   -1    0    0    0  501 -0.00000000000E+00  0.00000000000E+00  0.33873003415E+03  0.33873003415E+03  0.00000000000E+00 0.  1.
          1   -1    0    0  502    0  0.00000000000E+00 -0.00000000000E+00 -0.39130814034E+03  0.39130814034E+03  0.00000000000E+00 0. -1.
          6    1    1    2  502    0 -0.52526043938E+02 -0.87297725062E+02 -0.33135737543E+03  0.38699042410E+03  0.17200000000E+03 0. -1.
         -6    1    1    2    0  501  0.52526043938E+02  0.87297725062E+02  0.27877926923E+03  0.34304775039E+03  0.17200000000E+03 0.  1.
</event>
<event>
 4    1  0.3169553E-002  0.3544809E+03  0.7818608E-02  0.1060791E+00
         -2   -1    0    0    0  501 -0.00000000000E+00  0.00000000000E+00  0.77968338383E+03  0.77968338383E+03  0.00000000000E+00 0.  1.
          2   -1    0    0  502    0  0.00000000000E+00 -0.00000000000E+00 -0.19544192431E+03  0.19544192431E+03  0.00000000000E+00 0. -1.
          6    1    1    2  502    0 -0.30955725500E+03  0.15717400345E+02  0.87932764194E+02  0.36522445402E+03  0.17200000000E+03 0. -1.
         -6    1    1    2    0  501  0.30955725500E+03 -0.15717400345E+02  0.49630869533E+03  0.60990085412E+03  0.17200000000E+03 0.  1.
</event>
<event>
 4    1  0.3169553E-002  0.3648489E+03  0.7818608E-02  0.1056680E+00
         -1   -1    0    0    0  501 -0.00000000000E+00  0.00000000000E+00  0.13228640751E+03  0.13228640751E+03  0.00000000000E+00 0.  1.
          1   -1    0    0  502    0  0.00000000000E+00 -0.00000000000E+00 -0.10956176706E+04  0.10956176706E+04  0.00000000000E+00 0. -1.
          6    1    1    2  502    0  0.31740146996E+03  0.52792442675E+02 -0.65699994092E+03  0.75150758978E+03  0.17200000000E+03 0. -1.
         -6    1    1    2    0  501 -0.31740146996E+03 -0.52792442675E+02 -0.30633132216E+03  0.47639648831E+03  0.17200000000E+03 0.  1.
</event>
<event>
 4    1  0.3169553E-002  0.2795720E+03  0.7818608E-02  0.1095923E+00
          1   -1    0    0  502    0  0.00000000000E+00  0.00000000000E+00  0.81203426596E+03  0.81203426596E+03  0.00000000000E+00 0. -1.
         -1   -1    0    0    0  501 -0.00000000000E+00 -0.00000000000E+00 -0.27630719680E+03  0.27630719680E+03  0.00000000000E+00 0.  1.
          6    1    1    2  502    0  0.42552284880E+02 -0.21625402230E+03  0.70714315380E+03  0.76040248492E+03  0.17200000000E+03 0. -1.
         -6    1    1    2    0  501 -0.42552284880E+02  0.21625402230E+03 -0.17141608464E+03  0.32793897784E+03  0.17200000000E+03 0.  1.
</event>
<event>
 4    1  0.3169553E-002  0.5509112E+03  0.7818608E-02  0.1001283E+00
          1   -1    0    0  502    0  0.00000000000E+00  0.00000000000E+00  0.15071042508E+04  0.15071042508E+04  0.00000000000E+00 0. -1.
         -1   -1    0    0    0  501 -0.00000000000E+00 -0.00000000000E+00 -0.21632559884E+03  0.21632559884E+03  0.00000000000E+00 0.  1.
          6    1    1    2  502    0 -0.40591051351E+03  0.33038739115E+03  0.87187567496E+03  0.10313439610E+04  0.17200000000E+03 0. -1.
         -6    1    1    2    0  501  0.40591051351E+03 -0.33038739115E+03  0.41890297704E+03  0.69208588873E+03  0.17200000000E+03 0.  1.
</event>
<event>
 4    1  0.3169553E-002  0.3210251E+03  0.7818608E-02  0.1075178E+00
          1   -1    0    0  502    0  0.00000000000E+00  0.00000000000E+00  0.28554667744E+03  0.28554667744E+03  0.00000000000E+00 0. -1.
         -1   -1    0    0    0  501 -0.00000000000E+00 -0.00000000000E+00 -0.44417119328E+03  0.44417119328E+03  0.00000000000E+00 0.  1.
          6    1    1    2  502    0  0.22388285017E+03  0.15280569082E+03  0.78654942252E+02  0.33052036198E+03  0.17200000000E+03 0. -1.
         -6    1    1    2    0  501 -0.22388285017E+03 -0.15280569082E+03 -0.23727945810E+03  0.39919750874E+03  0.17200000000E+03 0.  1.
</event>
<event>
 4    1  0.3169553E-002  0.3292430E+03  0.7818608E-02  0.1071472E+00
          2   -1    0    0  502    0  0.00000000000E+00  0.00000000000E+00  0.49628703897E+03  0.49628703897E+03  0.00000000000E+00 0. -1.
         -2   -1    0    0    0  501 -0.00000000000E+00 -0.00000000000E+00 -0.48680881217E+03  0.48680881217E+03  0.00000000000E+00 0.  1.
          6    1    1    2  502    0  0.26232286533E+01  0.28073132974E+03  0.36971627048E+03  0.49506674448E+03  0.17200000000E+03 0. -1.
         -6    1    1    2    0  501 -0.26232286533E+01 -0.28073132974E+03 -0.36023804369E+03  0.48802910666E+03  0.17200000000E+03 0.  1.
</event>
<event>
 4    1  0.3169553E-002  0.2311687E+03  0.7818608E-02  0.1125820E+00
          1   -1    0    0  502    0  0.00000000000E+00  0.00000000000E+00  0.12767371388E+04  0.12767371388E+04  0.00000000000E+00 0. -1.
         -1   -1    0    0    0  501 -0.00000000000E+00 -0.00000000000E+00 -0.75579835457E+02  0.75579835457E+02  0.00000000000E+00 0.  1.
          6    1    1    2  502    0  0.15438488482E+03  0.45021197584E+01  0.14891539718E+03  0.27498137621E+03  0.17200000000E+03 0. -1.
         -6    1    1    2    0  501 -0.15438488482E+03 -0.45021197584E+01  0.10522419061E+04  0.10773355980E+04  0.17200000000E+03 0.  1.
</event>
<event>
 4    1  0.3169553E-002  0.2123169E+03  0.7818608E-02  0.1139744E+00
         -1   -1    0    0    0  501 -0.00000000000E+00  0.00000000000E+00  0.85776686718E+02  0.85776686718E+02  0.00000000000E+00 0.  1.
          1   -1    0    0  502    0  0.00000000000E+00 -0.00000000000E+00 -0.67336694878E+03  0.67336694878E+03  0.00000000000E+00 0. -1.
          6    1    1    2  502    0 -0.15314234849E+02  0.12353108055E+03 -0.47164583688E+03  0.51723133035E+03  0.17200000000E+03 0. -1.
         -6    1    1    2    0  501  0.15314234849E+02 -0.12353108055E+03 -0.11594442518E+03  0.24191230515E+03  0.17200000000E+03 0.  1.
</event>
<event>
 4    1  0.3169553E-002  0.2158035E+03  0.7818608E-02  0.1137051E+00
         -2   -1    0    0    0  501 -0.00000000000E+00  0.00000000000E+00  0.41553289926E+03  0.41553289926E+03  0.00000000000E+00 0.  1.
          2   -1    0    0  502    0  0.00000000000E+00 -0.00000000000E+00 -0.11222042177E+03  0.11222042177E+03  0.00000000000E+00 0. -1.
          6    1    1    2  502    0  0.91415214168E+02  0.92899970850E+02  0.14218051415E+03  0.25843073457E+03  0.17200000000E+03 0. -1.
         -6    1    1    2    0  501 -0.91415214168E+02 -0.92899970850E+02  0.16113196334E+03  0.26932258645E+03  0.17200000000E+03 0.  1.
</event>
<event>
 4    1  0.3169553E-002  0.2241513E+03  0.7818608E-02  0.1130825E+00
         -2   -1    0    0    0  501 -0.00000000000E+00  0.00000000000E+00  0.23787099462E+03  0.23787099462E+03  0.00000000000E+00 0.  1.
          2   -1    0    0  502    0  0.00000000000E+00 -0.00000000000E+00 -0.24621667148E+03  0.24621667148E+03  0.00000000000E+00 0. -1.
          6    1    1    2  502    0  0.13087226824E+03 -0.59432670858E+02 -0.95422421206E+02  0.24361697689E+03  0.17200000000E+03 0. -1.
         -6    1    1    2    0  501 -0.13087226824E+03  0.59432670858E+02  0.87076744354E+02  0.24047068921E+03  0.17200000000E+03 0. -1.
</event>
<event>
 4    1  0.3169553E-002  0.1750917E+03  0.7818608E-02  0.1172640E+00
         -1   -1    0    0    0  501 -0.00000000000E+00  0.00000000000E+00  0.16626873589E+03  0.16626873589E+03  0.00000000000E+00 0.  1.
          1   -1    0    0  502    0  0.00000000000E+00 -0.00000000000E+00 -0.19407463318E+03  0.19407463318E+03  0.00000000000E+00 0. -1.
          6    1    1    2  502    0 -0.32758070960E+02 -0.12995665589E+00 -0.54165691928E+02  0.18327855926E+03  0.17200000000E+03 0. -1.
         -6    1    1    2    0  501  0.32758070960E+02  0.12995665589E+00  0.26359794642E+02  0.17706480982E+03  0.17200000000E+03 0.  1.
</event>
<event>
 4    1  0.3169553E-002  0.2367299E+03  0.7818608E-02  0.1121991E+00
          1   -1    0    0  502    0  0.00000000000E+00  0.00000000000E+00  0.26004241160E+03  0.26004241160E+03  0.00000000000E+00 0. -1.
         -1   -1    0    0    0  501 -0.00000000000E+00 -0.00000000000E+00 -0.24499972987E+03  0.24499972987E+03  0.00000000000E+00 0.  1.
          6    1    1    2  502    0 -0.35921820180E+02  0.15864004557E+03  0.95134634310E+02  0.25513063295E+03  0.17200000000E+03 0. -1.
         -6    1    1    2    0  501  0.35921820180E+02 -0.15864004557E+03 -0.80091952578E+02  0.24991150852E+03  0.17200000000E+03 0.  1.
</event>
<event>
 4    1  0.3169553E-002  0.2517030E+03  0.7818608E-02  0.1112233E+00
          2   -1    0    0  502    0  0.00000000000E+00  0.00000000000E+00  0.61099654359E+03  0.61099654359E+03  0.00000000000E+00 0. -1.
         -2   -1    0    0    0  501 -0.00000000000E+00 -0.00000000000E+00 -0.12498276176E+03  0.12498276176E+03  0.00000000000E+00 0.  1.
          6    1    1    2  502    0 -0.10192005539E+03 -0.15291405615E+03  0.39489494945E+03  0.46829096442E+03  0.17200000000E+03 0. -1.
         -6    1    1    2    0  501  0.10192005539E+03  0.15291405615E+03  0.91118832381E+02  0.26768834093E+03  0.17200000000E+03 0.  1.
</event>
<event>
 4    1  0.3169553E-002  0.1887255E+03  0.7818608E-02  0.1159616E+00
         -2   -1    0    0    0  501 -0.00000000000E+00  0.00000000000E+00  0.10421049460E+03  0.10421049460E+03  0.00000000000E+00 0.  1.
          2   -1    0    0  502    0  0.00000000000E+00 -0.00000000000E+00 -0.40084521671E+03  0.40084521671E+03  0.00000000000E+00 0. -1.
          6    1    1    2  502    0 -0.48111345802E+02  0.60980279454E+02 -0.51382808318E+02  0.19559521740E+03  0.17200000000E+03 0.  1.
         -6    1    1    2    0  501  0.48111345802E+02 -0.60980279454E+02 -0.24525191379E+03  0.30946049391E+03  0.17200000000E+03 0. -1.
</event>
<event>
 4    1  0.3169553E-002  0.1889982E+03  0.7818608E-02  0.1159368E+00
         -3   -1    0    0    0  501 -0.00000000000E+00  0.00000000000E+00  0.10756819235E+04  0.10756819235E+04  0.00000000000E+00 0.  1.
          3   -1    0    0  502    0  0.00000000000E+00 -0.00000000000E+00 -0.90527720976E+02  0.90527720976E+02  0.00000000000E+00 0. -1.
          6    1    1    2  502    0  0.37792739464E+02  0.68614943333E+02  0.28584348971E+02  0.19114749962E+03  0.17200000000E+03 0. -1.
         -6    1    1    2    0  501 -0.37792739464E+02 -0.68614943333E+02  0.95656985357E+03  0.97506214488E+03  0.17200000000E+03 0.  1.
</event>
<event>
 4    1  0.3169553E-002  0.2028699E+03  0.7818608E-02  0.1147340E+00
         -1   -1    0    0    0  501 -0.00000000000E+00  0.00000000000E+00  0.87263821068E+03  0.87263821068E+03  0.00000000000E+00 0.  1.
          1   -1    0    0  502    0  0.00000000000E+00 -0.00000000000E+00 -0.11412447206E+03  0.11412447206E+03  0.00000000000E+00 0. -1.
          6    1    1    2  502    0  0.10460436038E+03 -0.25102363359E+02  0.13315773885E+01  0.20287428116E+03  0.17200000000E+03 0. -1.
         -6    1    1    2    0  501 -0.10460436038E+03  0.25102363359E+02  0.75718216123E+03  0.78388840159E+03  0.17200000000E+03 0.  1.
</event>
<event>
 4    1  0.3169553E-002  0.4898988E+03  0.7818608E-02  0.1016450E+00
          2   -1    0    0  502    0  0.00000000000E+00  0.00000000000E+00  0.58914580981E+03  0.58914580981E+03  0.00000000000E+00 0. -1.
         -2   -1    0    0    0  501 -0.00000000000E+00 -0.00000000000E+00 -0.43918243872E+03  0.43918243872E+03  0.00000000000E+00 0.  1.
          6    1    1    2  502    0  0.40165996536E+03 -0.22155384579E+03 -0.63397862750E+02  0.49398393027E+03  0.17200000000E+03 0. -1.
         -6    1    1    2    0  501 -0.40165996536E+03  0.22155384579E+03  0.21336123383E+03  0.53434431827E+03  0.17200000000E+03 0. -1.
</event>
<event>
 4    1  0.3169553E-002  0.3469291E+03  0.7818608E-02  0.1063883E+00
         -2   -1    0    0    0  501 -0.00000000000E+00  0.00000000000E+00  0.94202476307E+02  0.94202476307E+02  0.00000000000E+00 0.  1.
          2   -1    0    0  502    0  0.00000000000E+00 -0.00000000000E+00 -0.16761195618E+04  0.16761195618E+04  0.00000000000E+00 0. -1.
          6    1    1    2  502    0 -0.21335635619E+03 -0.21273199152E+03 -0.12225328191E+04  0.12708053858E+04  0.17200000000E+03 0. -1.
         -6    1    1    2    0  501  0.21335635619E+03  0.21273199152E+03 -0.35938426638E+03  0.49951665223E+03  0.17200000000E+03 0.  1.
</event>
<event>
 4    1  0.3169553E-002  0.1768655E+03  0.7818608E-02  0.1170872E+00
          2   -1    0    0  502    0  0.00000000000E+00  0.00000000000E+00  0.26273591082E+04  0.26273591082E+04  0.00000000000E+00 0. -1.
         -2   -1    0    0    0  501 -0.00000000000E+00 -0.00000000000E+00 -0.12943541498E+02  0.12943541498E+02  0.00000000000E+00 0.  1.
          6    1    1    2  502    0 -0.40094615463E+02  0.94782225115E+01  0.16809685673E+04  0.16902475378E+04  0.17200000000E+03 0. -1.
         -6    1    1    2    0  501  0.40094615463E+02 -0.94782225115E+01  0.93344699938E+03  0.95005511184E+03  0.17200000000E+03 0.  1.
</event>
<event>
 4    1  0.3169553E-002  0.1825038E+03  0.7818608E-02  0.1165402E+00
          1   -1    0    0  502    0  0.00000000000E+00  0.00000000000E+00  0.16259577434E+04  0.16259577434E+04  0.00000000000E+00 0. -1.
         -1   -1    0    0    0  501 -0.00000000000E+00 -0.00000000000E+00 -0.30069881806E+02  0.30069881806E+02  0.00000000000E+00 0.  1.
          6    1    1    2  502    0 -0.17675415129E+02  0.58405768693E+02  0.12654275090E+04  0.12785204084E+04  0.17200000000E+03 0. -1.
         -6    1    1    2    0  501  0.17675415129E+02 -0.58405768693E+02  0.33046035258E+03  0.37750721681E+03  0.17200000000E+03 0.  1.
</event>
<event>
 4    1  0.3169553E-002  0.1864318E+03  0.7818608E-02  0.1161720E+00
         -2   -1    0    0    0  501 -0.00000000000E+00  0.00000000000E+00  0.71984091001E+02  0.71984091001E+02  0.00000000000E+00 0.  1.
          2   -1    0    0  502    0  0.00000000000E+00 -0.00000000000E+00 -0.57998437804E+03  0.57998437804E+03  0.00000000000E+00 0. -1.
          6    1    1    2  502    0  0.65448628340E+02  0.29821303278E+02 -0.38741254789E+03  0.42993640848E+03  0.17200000000E+03 0. -1.
         -6    1    1    2    0  501 -0.65448628340E+02 -0.29821303278E+02 -0.12058773915E+03  0.22203206056E+03  0.17200000000E+03 0.  1.
</event>
<event>
 4    1  0.3169553E-002  0.3192769E+03  0.7818608E-02  0.1075983E+00
         -2   -1    0    0    0  501 -0.00000000000E+00  0.00000000000E+00  0.72138279411E+03  0.72138279411E+03  0.00000000000E+00 0.  1.
          2   -1    0    0  502    0  0.00000000000E+00 -0.00000000000E+00 -0.15148487431E+03  0.15148487431E+03  0.00000000000E+00 0. -1.
          6    1    1    2  502    0 -0.24865947269E+03  0.10257781240E+03  0.17183302396E+03  0.36258010022E+03  0.17200000000E+03 0. -1.
         -6    1    1    2    0  501  0.24865947269E+03 -0.10257781240E+03  0.39806489585E+03  0.51028756820E+03  0.17200000000E+03 0.  1.
</event>
<event>
 4    1  0.3169553E-002  0.3254546E+03  0.7818608E-02  0.1073166E+00
          2   -1    0    0  502    0  0.00000000000E+00  0.00000000000E+00  0.41212356991E+03  0.41212356991E+03  0.00000000000E+00 0. -1.
         -2   -1    0    0    0  501 -0.00000000000E+00 -0.00000000000E+00 -0.39457427818E+03  0.39457427818E+03  0.00000000000E+00 0.  1.
          6    1    1    2  502    0  0.22360774289E+03 -0.16228444891E+03  0.24693328631E+03  0.40852994128E+03  0.17200000000E+03 0. -1.
         -6    1    1    2    0  501 -0.22360774289E+03  0.16228444891E+03 -0.22938399458E+03  0.39816790680E+03  0.17200000000E+03 0.  1.
</event>
<event>
 4    1  0.3169553E-002  0.4833928E+03  0.7818608E-02  0.1018207E+00
          2   -1    0    0  502    0  0.00000000000E+00  0.00000000000E+00  0.15919952472E+04  0.15919952472E+04  0.00000000000E+00 0. -1.
         -2   -1    0    0    0  501 -0.00000000000E+00 -0.00000000000E+00 -0.14711874748E+03  0.14711874748E+03  0.00000000000E+00 0.  1.
          6    1    1    2  502    0 -0.29892256752E+03 -0.33871806121E+03  0.68054143838E+03  0.83474863026E+03  0.17200000000E+03 0. -1.
         -6    1    1    2    0  501  0.29892256752E+03  0.33871806121E+03  0.76433506132E+03  0.90436536440E+03  0.17200000000E+03 0.  1.
</event>
<event>
 4    1  0.3169553E-002  0.3233747E+03  0.7818608E-02  0.1074107E+00
         -1   -1    0    0    0  501 -0.00000000000E+00  0.00000000000E+00  0.75206398653E+02  0.75206398653E+02  0.00000000000E+00 0.  1.
          1   -1    0    0  502    0  0.00000000000E+00 -0.00000000000E+00 -0.16703012141E+04  0.16703012141E+04  0.00000000000E+00 0. -1.
          6    1    1    2  502    0 -0.26947789559E+03  0.48670821577E+02 -0.44031296243E+03  0.54630274571E+03  0.17200000000E+03 0.  1.
         -6    1    1    2    0  501  0.26947789559E+03 -0.48670821577E+02 -0.11547818530E+04  0.11992048670E+04  0.17200000000E+03 0. -1.
</event>
<event>
 4    1  0.3169553E-002  0.2417766E+03  0.7818608E-02  0.1118615E+00
         -2   -1    0    0    0  501 -0.00000000000E+00  0.00000000000E+00  0.23935628567E+03  0.23935628567E+03  0.00000000000E+00 0.  1.
          2   -1    0    0  502    0  0.00000000000E+00 -0.00000000000E+00 -0.33700722226E+03  0.33700722226E+03  0.00000000000E+00 0. -1.
          6    1    1    2  502    0 -0.74381302807E+02  0.15277217810E+03  0.10238706526E+03  0.26256242637E+03  0.17200000000E+03 0.  1.
         -6    1    1    2    0  501  0.74381302807E+02 -0.15277217810E+03 -0.20003800185E+03  0.31380108157E+03  0.17200000000E+03 0. -1.
</event>
<event>
 4    1  0.3169553E-002  0.2528429E+03  0.7818608E-02  0.1111521E+00
         -1   -1    0    0    0  501 -0.00000000000E+00  0.00000000000E+00  0.31371990492E+02  0.31371990492E+02  0.00000000000E+00 0.  1.
          1   -1    0    0  502    0  0.00000000000E+00 -0.00000000000E+00 -0.20378122962E+04  0.20378122962E+04  0.00000000000E+00 0. -1.
          6    1    1    2  502    0 -0.14615919337E+03  0.11394297702E+03 -0.10066829092E+04  0.10379498983E+04  0.17200000000E+03 0. -1.
         -6    1    1    2    0  501  0.14615919337E+03 -0.11394297702E+03 -0.99975739657E+03  0.10312343884E+04  0.17200000000E+03 0.  1.
</event>
<event>
 4    1  0.3169553E-002  0.2475493E+03  0.7818608E-02  0.1114863E+00
         -1   -1    0    0    0  501 -0.00000000000E+00  0.00000000000E+00  0.36843617936E+03  0.36843617936E+03  0.00000000000E+00 0.  1.
          1   -1    0    0  502    0  0.00000000000E+00 -0.00000000000E+00 -0.17235063358E+03  0.17235063358E+03  0.00000000000E+00 0. -1.
          6    1    1    2  502    0  0.17790354145E+03 -0.68542269669E+01  0.47490368772E+02  0.25206345553E+03  0.17200000000E+03 0. -1.
         -6    1    1    2    0  501 -0.17790354145E+03  0.68542269669E+01  0.14859517701E+03  0.28872335742E+03  0.17200000000E+03 0. -1.
</event>
<event>
 4    1  0.3169553E-002  0.2769195E+03  0.7818608E-02  0.1097383E+00
         -1   -1    0    0    0  501 -0.00000000000E+00  0.00000000000E+00  0.13456181786E+03  0.13456181786E+03  0.00000000000E+00 0.  1.
          1   -1    0    0  502    0  0.00000000000E+00 -0.00000000000E+00 -0.68136877189E+03  0.68136877189E+03  0.00000000000E+00 0. -1.
          6    1    1    2  502    0  0.11060462880E+03  0.18672709358E+03 -0.43842602654E+03  0.51855739522E+03  0.17200000000E+03 0. -1.
         -6    1    1    2    0  501 -0.11060462880E+03 -0.18672709358E+03 -0.10838092749E+03  0.29737319454E+03  0.17200000000E+03 0.  1.
</event>
<event>
 4    1  0.3169553E-002  0.2218379E+03  0.7818608E-02  0.1132520E+00
         -1   -1    0    0    0  501 -0.00000000000E+00  0.00000000000E+00  0.72093051316E+02  0.72093051316E+02  0.00000000000E+00 0.  1.
          1   -1    0    0  502    0  0.00000000000E+00 -0.00000000000E+00 -0.71928192844E+03  0.71928192844E+03  0.00000000000E+00 0. -1.
          6    1    1    2  502    0  0.96265838879E+02  0.10178878260E+03 -0.41292865835E+03  0.46874528786E+03  0.17200000000E+03 0. -1.
         -6    1    1    2    0  501 -0.96265838879E+02 -0.10178878260E+03 -0.23426021877E+03  0.32262969190E+03  0.17200000000E+03 0.  1.
</event>
<event>
 4    1  0.3169553E-002  0.2206905E+03  0.7818608E-02  0.1133369E+00
          4   -1    0    0  502    0  0.00000000000E+00  0.00000000000E+00  0.46233628358E+03  0.46233628358E+03  0.00000000000E+00 0. -1.
         -4   -1    0    0    0  501 -0.00000000000E+00 -0.00000000000E+00 -0.10737449570E+03  0.10737449570E+03  0.00000000000E+00 0.  1.
          6    1    1    2  502    0 -0.13520772913E+03 -0.28968731912E+02  0.13830821810E+03  0.26044861420E+03  0.17200000000E+03 0. -1.
         -6    1    1    2    0  501  0.13520772913E+03  0.28968731912E+02  0.21665356978E+03  0.30926216507E+03  0.17200000000E+03 0.  1.
</event>
<event>
 4    1  0.3169553E-002  0.4805978E+03  0.7818608E-02  0.1018971E+00
          2   -1    0    0  502    0  0.00000000000E+00  0.00000000000E+00  0.55175141754E+03  0.55175141754E+03  0.00000000000E+00 0. -1.
         -2   -1    0    0    0  501 -0.00000000000E+00 -0.00000000000E+00 -0.41863932847E+03  0.41863932847E+03  0.00000000000E+00 0.  1.
          6    1    1    2  502    0  0.99222729909E+01  0.44865555498E+03  0.63271629048E+02  0.48474483758E+03  0.17200000000E+03 0. -1.
         -6    1    1    2    0  501 -0.99222729909E+01 -0.44865555498E+03  0.69840460022E+02  0.48564590843E+03  0.17200000000E+03 0.  1.
</event>
<event>
 4    1  0.3169553E-002  0.2562695E+03  0.7818608E-02  0.1109406E+00
          2   -1    0    0  502    0  0.00000000000E+00  0.00000000000E+00  0.10089897395E+04  0.10089897395E+04  0.00000000000E+00 0. -1.
         -2   -1    0    0    0  501 -0.00000000000E+00 -0.00000000000E+00 -0.11342466576E+03  0.11342466576E+03  0.00000000000E+00 0.  1.
          6    1    1    2  502    0  0.17352056957E+03 -0.77334646187E+02  0.81426148460E+02  0.26889450202E+03  0.17200000000E+03 0.  1.
         -6    1    1    2    0  501 -0.17352056957E+03  0.77334646187E+02  0.81413892524E+03  0.85351990320E+03  0.17200000000E+03 0. -1.
</event>
<event>
 4    1  0.3169553E-002  0.2715452E+03  0.7818608E-02  0.1100399E+00
         -2   -1    0    0    0  501 -0.00000000000E+00  0.00000000000E+00  0.12695531285E+04  0.12695531285E+04  0.00000000000E+00 0.  1.
          2   -1    0    0  502    0  0.00000000000E+00 -0.00000000000E+00 -0.60796959268E+02  0.60796959268E+02  0.00000000000E+00 0. -1.
          6    1    1    2  502    0 -0.64563905519E+02  0.19996071466E+03  0.46378471900E+03  0.53743190348E+03  0.17200000000E+03 0.  1.
         -6    1    1    2    0  501  0.64563905519E+02 -0.19996071466E+03  0.74497145019E+03  0.79291818424E+03  0.17200000000E+03 0.  1.
</event>
<event>
 4    1  0.3169553E-002  0.2285771E+03  0.7818608E-02  0.1127645E+00
          2   -1    0    0  502    0  0.00000000000E+00  0.00000000000E+00  0.17043693765E+04  0.17043693765E+04  0.00000000000E+00 0. -1.
         -2   -1    0    0    0  501 -0.00000000000E+00 -0.00000000000E+00 -0.35214263953E+02  0.35214263953E+02  0.00000000000E+00 0.  1.
          6    1    1    2  502    0  0.11017783285E+03  0.10258815360E+03  0.11475472157E+04  0.11700906360E+04  0.17200000000E+03 0. -1.
         -6    1    1    2    0  501 -0.11017783285E+03 -0.10258815360E+03  0.52160789689E+03  0.56949300453E+03  0.17200000000E+03 0.  1.
</event>
<event>
 4    1  0.3169553E-002  0.3094476E+03  0.7818608E-02  0.1080611E+00
          3   -1    0    0  502    0  0.00000000000E+00  0.00000000000E+00  0.66427435968E+03  0.66427435968E+03  0.00000000000E+00 0. -1.
         -3   -1    0    0    0  501 -0.00000000000E+00 -0.00000000000E+00 -0.15380304524E+03  0.15380304524E+03  0.00000000000E+00 0.  1.
          6    1    1    2  502    0 -0.23936233938E+03  0.94230974817E+02  0.35768852123E+03  0.47296816421E+03  0.17200000000E+03 0. -1.
         -6    1    1    2    0  501  0.23936233938E+03 -0.94230974817E+02  0.15278279321E+03  0.34510924072E+03  0.17200000000E+03 0.  1.
</event>
<event>
 4    1  0.3169553E-002  0.3622770E+03  0.7818608E-02  0.1057686E+00
         -2   -1    0    0    0  501 -0.00000000000E+00  0.00000000000E+00  0.69911222905E+03  0.69911222905E+03  0.00000000000E+00 0.  1.
          2   -1    0    0  502    0  0.00000000000E+00 -0.00000000000E+00 -0.26594590133E+03  0.26594590133E+03  0.00000000000E+00 0. -1.
          6    1    1    2  502    0  0.13365894670E+03 -0.28947529125E+03 -0.45098375444E+02  0.36507331009E+03  0.17200000000E+03 0. -1.
         -6    1    1    2    0  501 -0.13365894670E+03  0.28947529125E+03  0.47826470317E+03  0.59998482028E+03  0.17200000000E+03 0.  1.
</event>
<event>
 4    1  0.3169553E-002  0.3612576E+03  0.7818608E-02  0.1058087E+00
         -1   -1    0    0    0  501 -0.00000000000E+00  0.00000000000E+00  0.13325826775E+03  0.13325826775E+03  0.00000000000E+00 0.  1.
          1   -1    0    0  502    0  0.00000000000E+00 -0.00000000000E+00 -0.98062826857E+03  0.98062826857E+03  0.00000000000E+00 0. -1.
          6    1    1    2  502    0  0.20741145666E+03  0.24063161956E+03 -0.44375735225E+03  0.57221296417E+03  0.17200000000E+03 0. -1.
         -6    1    1    2    0  501 -0.20741145666E+03 -0.24063161956E+03 -0.40361264856E+03  0.54167357215E+03  0.17200000000E+03 0.  1.
</event>
<event>
 4    1  0.3169553E-002  0.2879012E+03  0.7818608E-02  0.1091450E+00
         -1   -1    0    0    0  501 -0.00000000000E+00  0.00000000000E+00  0.19637911805E+03  0.19637911805E+03  0.00000000000E+00 0.  1.
          1   -1    0    0  502    0  0.00000000000E+00 -0.00000000000E+00 -0.47087565411E+03  0.47087565411E+03  0.00000000000E+00 0. -1.
          6    1    1    2  502    0  0.33985465987E+02 -0.22835960273E+03 -0.24465023776E+03  0.37781061247E+03  0.17200000000E+03 0. -1.
         -6    1    1    2    0  501 -0.33985465987E+02  0.22835960273E+03 -0.29846298307E+02  0.28944415969E+03  0.17200000000E+03 0.  1.
</event>
<event>
 4    1  0.3169553E-002  0.1757739E+03  0.7818608E-02  0.1171957E+00
         -2   -1    0    0    0  501 -0.00000000000E+00  0.00000000000E+00  0.23982448186E+02  0.23982448186E+02  0.00000000000E+00 0.  1.
          2   -1    0    0  502    0  0.00000000000E+00 -0.00000000000E+00 -0.13860483175E+04  0.13860483175E+04  0.00000000000E+00 0. -1.
          6    1    1    2  502    0  0.29866372485E+01  0.36104567434E+02 -0.86826314652E+03  0.88587660054E+03  0.17200000000E+03 0. -1.
         -6    1    1    2    0  501 -0.29866372485E+01 -0.36104567434E+02 -0.49380272276E+03  0.52415416511E+03  0.17200000000E+03 0.  1.
</event>
<event>
 4    1  0.3169553E-002  0.2167443E+03  0.7818608E-02  0.1136334E+00
          2   -1    0    0  502    0  0.00000000000E+00  0.00000000000E+00  0.28459203780E+03  0.28459203780E+03  0.00000000000E+00 0. -1.
         -2   -1    0    0    0  501 -0.00000000000E+00 -0.00000000000E+00 -0.17585386682E+03  0.17585386682E+03  0.00000000000E+00 0.  1.
          6    1    1    2  502    0 -0.13153128100E+03 -0.96745965548E+01 -0.26377322349E+01  0.21676031309E+03  0.17200000000E+03 0.  1.
         -6    1    1    2    0  501  0.13153128100E+03  0.96745965548E+01  0.11137590322E+03  0.24368559153E+03  0.17200000000E+03 0.  1.
</event>
<event>
 4    1  0.3169553E-002  0.1732421E+03  0.7818608E-02  0.1174508E+00
         -1   -1    0    0    0  501 -0.00000000000E+00  0.00000000000E+00  0.78816479746E+03  0.78816479746E+03  0.00000000000E+00 0.  1.
          1   -1    0    0  502    0  0.00000000000E+00 -0.00000000000E+00 -0.68168724046E+02  0.68168724046E+02  0.00000000000E+00 0. -1.
          6    1    1    2  502    0  0.16483403729E+02 -0.12535177090E+02  0.75534459003E+02  0.18899282463E+03  0.17200000000E+03 0. -1.
         -6    1    1    2    0  501 -0.16483403729E+02  0.12535177090E+02  0.64446161441E+03  0.66734069688E+03  0.17200000000E+03 0.  1.
</event>
<event>
 4    1  0.3169553E-002  0.2755453E+03  0.7818608E-02  0.1098147E+00
          2   -1    0    0  502    0  0.00000000000E+00  0.00000000000E+00  0.18978095530E+04  0.18978095530E+04  0.00000000000E+00 0. -1.
         -2   -1    0    0    0  501 -0.00000000000E+00 -0.00000000000E+00 -0.48420087538E+02  0.48420087538E+02  0.00000000000E+00 0.  1.
          6    1    1    2  502    0 -0.16198709610E+03  0.14177945913E+03  0.13303292341E+04  0.13585658267E+04  0.17200000000E+03 0. -1.
         -6    1    1    2    0  501  0.16198709610E+03 -0.14177945913E+03  0.51906023137E+03  0.58766381386E+03  0.17200000000E+03 0.  1.
</event>
<event>
 4    1  0.3169553E-002  0.1778024E+03  0.7818608E-02  0.1169947E+00
         -1   -1    0    0    0  501 -0.00000000000E+00  0.00000000000E+00  0.60384347597E+02  0.60384347597E+02  0.00000000000E+00 0.  1.
          1   -1    0    0  502    0  0.00000000000E+00 -0.00000000000E+00 -0.52354866181E+03  0.52354866181E+03  0.00000000000E+00 0. -1.
          6    1    1    2  502    0  0.33131167760E+02  0.30529173023E+02 -0.23049330558E+03  0.29110284883E+03  0.17200000000E+03 0. -1.
         -6    1    1    2    0  501 -0.33131167760E+02 -0.30529173023E+02 -0.23267100863E+03  0.29283016057E+03  0.17200000000E+03 0.  1.
</event>
<event>
 4    1  0.3169553E-002  0.2703306E+03  0.7818608E-02  0.1101091E+00
         -2   -1    0    0    0  501 -0.00000000000E+00  0.00000000000E+00  0.54087350861E+02  0.54087350861E+02  0.00000000000E+00 0.  1.
          2   -1    0    0  502    0  0.00000000000E+00 -0.00000000000E+00 -0.16218176544E+04  0.16218176544E+04  0.00000000000E+00 0. -1.
          6    1    1    2  502    0  0.41821581779E+02 -0.20431732020E+03 -0.44152408679E+03  0.51770853891E+03  0.17200000000E+03 0.  1.
         -6    1    1    2    0  501 -0.41821581779E+02  0.20431732020E+03 -0.11262062167E+04  0.11581964663E+04  0.17200000000E+03 0.  1.
</event>
<event>
 4    1  0.3169553E-002  0.1839710E+03  0.7818608E-02  0.1164014E+00
         -2   -1    0    0    0  501 -0.00000000000E+00  0.00000000000E+00  0.27279755320E+03  0.27279755320E+03  0.00000000000E+00 0.  1.
          2   -1    0    0  502    0  0.00000000000E+00 -0.00000000000E+00 -0.16228451388E+03  0.16228451388E+03  0.00000000000E+00 0. -1.
          6    1    1    2  502    0  0.65035737817E+02  0.56292584427E+01 -0.50311043299E+02  0.19072634014E+03  0.17200000000E+03 0. -1.
         -6    1    1    2    0  501 -0.65035737817E+02 -0.56292584427E+01  0.16082408261E+03  0.24435572695E+03  0.17200000000E+03 0.  1.
</event>
<event>
 4    1  0.3169553E-002  0.2445016E+03  0.7818608E-02  0.1116830E+00
         -1   -1    0    0    0  501 -0.00000000000E+00  0.00000000000E+00  0.80495896037E+03  0.80495896037E+03  0.00000000000E+00 0.  1.
          1   -1    0    0  502    0  0.00000000000E+00 -0.00000000000E+00 -0.90110030771E+02  0.90110030771E+02  0.00000000000E+00 0. -1.
          6    1    1    2  502    0 -0.62953662537E+02  0.16196871764E+03  0.16976361075E+03  0.29765871843E+03  0.17200000000E+03 0. -1.
         -6    1    1    2    0  501  0.62953662537E+02 -0.16196871764E+03  0.54508531885E+03  0.59741027271E+03  0.17200000000E+03 0.  1.
</event>
<event>
 4    1  0.3169553E-002  0.1797587E+03  0.7818608E-02  0.1168037E+00
          2   -1    0    0  502    0  0.00000000000E+00  0.00000000000E+00  0.15942686717E+04  0.15942686717E+04  0.00000000000E+00 0. -1.
         -2   -1    0    0    0  501 -0.00000000000E+00 -0.00000000000E+00 -0.24124173811E+02  0.24124173811E+02  0.00000000000E+00 0.  1.
          6    1    1    2  502    0  0.26517284321E+02 -0.45011206694E+02  0.11085817490E+04  0.11230612937E+04  0.17200000000E+03 0. -1.
         -6    1    1    2    0  501 -0.26517284321E+02  0.45011206694E+02  0.46156274881E+03  0.49533155178E+03  0.17200000000E+03 0.  1.
</event>
<event>
 4    1  0.3169553E-002  0.1936426E+03  0.7818608E-02  0.1155216E+00
         -1   -1    0    0    0  501 -0.00000000000E+00  0.00000000000E+00  0.10606533105E+04  0.10606533105E+04  0.00000000000E+00 0.  1.
          1   -1    0    0  502    0  0.00000000000E+00 -0.00000000000E+00 -0.35434372626E+02  0.35434372626E+02  0.00000000000E+00 0. -1.
          6    1    1    2  502    0  0.84029025836E+02  0.29198833420E+02  0.48637287347E+03  0.52350360180E+03  0.17200000000E+03 0. -1.
         -6    1    1    2    0  501 -0.84029025836E+02 -0.29198833420E+02  0.53884606439E+03  0.57258408130E+03  0.17200000000E+03 0.  1.
</event>
<event>
 4    1  0.3169553E-002  0.2651349E+03  0.7818608E-02  0.1104097E+00
         -2   -1    0    0    0  501 -0.00000000000E+00  0.00000000000E+00  0.14958013497E+03  0.14958013497E+03  0.00000000000E+00 0.  1.
          2   -1    0    0  502    0  0.00000000000E+00 -0.00000000000E+00 -0.47250961786E+03  0.47250961786E+03  0.00000000000E+00 0. -1.
          6    1    1    2  502    0  0.20054590244E+03  0.22222722063E+02 -0.18431826189E+03  0.32290823778E+03  0.17200000000E+03 0. -1.
         -6    1    1    2    0  501 -0.20054590244E+03 -0.22222722063E+02 -0.13861122100E+03  0.29918151505E+03  0.17200000000E+03 0.  1.
</event>
<event>
 4    1  0.3169553E-002  0.1095723E+04  0.7818608E-02  0.9209371E-01
         -1   -1    0    0    0  501 -0.00000000000E+00  0.00000000000E+00  0.70127826055E+03  0.70127826055E+03  0.00000000000E+00 0.  1.
          1   -1    0    0  502    0  0.00000000000E+00 -0.00000000000E+00 -0.23272034592E+04  0.23272034592E+04  0.00000000000E+00 0. -1.
          6    1    1    2  502    0 -0.10815244502E+04 -0.36453028947E+02 -0.15914961163E+04  0.19322183748E+04  0.17200000000E+03 0. -1.
         -6    1    1    2    0  501  0.10815244502E+04  0.36453028947E+02 -0.34429082370E+02  0.10962633450E+04  0.17200000000E+03 0.  1.
</event>
<event>
 4    1  0.3169553E-002  0.2617385E+03  0.7818608E-02  0.1106103E+00
          2   -1    0    0  502    0  0.00000000000E+00  0.00000000000E+00  0.22748300620E+04  0.22748300620E+04  0.00000000000E+00 0. -1.
         -2   -1    0    0    0  501 -0.00000000000E+00 -0.00000000000E+00 -0.48314537209E+02  0.48314537209E+02  0.00000000000E+00 0.  1.
          6    1    1    2  502    0  0.19536361743E+03 -0.27497498991E+02  0.18261676399E+04  0.18448293429E+04  0.17200000000E+03 0. -1.
         -6    1    1    2    0  501 -0.19536361743E+03  0.27497498991E+02  0.40034788490E+03  0.47831525630E+03  0.17200000000E+03 0.  1.
</event>
<event>
 4    1  0.3169553E-002  0.2619514E+03  0.7818608E-02  0.1105976E+00
         -1   -1    0    0    0  501 -0.00000000000E+00  0.00000000000E+00  0.56089556599E+02  0.56089556599E+02  0.00000000000E+00 0.  1.
          1   -1    0    0  502    0  0.00000000000E+00 -0.00000000000E+00 -0.12523377935E+04  0.12523377935E+04  0.00000000000E+00 0. -1.
          6    1    1    2  502    0  0.10446255607E+03 -0.16769651027E+03 -0.49863370074E+03  0.56325315152E+03  0.17200000000E+03 0. -1.
         -6    1    1    2    0  501 -0.10446255607E+03  0.16769651027E+03 -0.69761453620E+03  0.74517419862E+03  0.17200000000E+03 0.  1.
</event>
<event>
 4    1  0.3169553E-002  0.1914310E+03  0.7818608E-02  0.1157177E+00
          2   -1    0    0  502    0  0.00000000000E+00  0.00000000000E+00  0.16933165257E+03  0.16933165257E+03  0.00000000000E+00 0. -1.
         -2   -1    0    0    0  501 -0.00000000000E+00 -0.00000000000E+00 -0.27607964246E+03  0.27607964246E+03  0.00000000000E+00 0.  1.
          6    1    1    2  502    0 -0.38248478964E+02 -0.74825739327E+02  0.50157887619E+02  0.19789302944E+03  0.17200000000E+03 0. -1.
         -6    1    1    2    0  501  0.38248478964E+02  0.74825739327E+02 -0.15690587751E+03  0.24751826560E+03  0.17200000000E+03 0.  1.
</event>
<event>
 4    1  0.3169553E-002  0.2150224E+03  0.7818608E-02  0.1137649E+00
          1   -1    0    0  502    0  0.00000000000E+00  0.00000000000E+00  0.18775289148E+04  0.18775289148E+04  0.00000000000E+00 0. -1.
         -1   -1    0    0    0  501 -0.00000000000E+00 -0.00000000000E+00 -0.29774413482E+02  0.29774413482E+02  0.00000000000E+00 0.  1.
          6    1    1    2  502    0  0.95949148118E+02 -0.86280919356E+02  0.13204620994E+04  0.13378545481E+04  0.17200000000E+03 0. -1.
         -6    1    1    2    0  501 -0.95949148118E+02  0.86280919356E+02  0.52729240197E+03  0.56944878017E+03  0.17200000000E+03 0.  1.
</event>
<event>
 4    1  0.3169553E-002  0.2058839E+03  0.7818608E-02  0.1144868E+00
          1   -1    0    0  502    0  0.00000000000E+00  0.00000000000E+00  0.60766586765E+03  0.60766586765E+03  0.00000000000E+00 0. -1.
         -1   -1    0    0    0  501 -0.00000000000E+00 -0.00000000000E+00 -0.24254763045E+03  0.24254763045E+03  0.00000000000E+00 0.  1.
          6    1    1    2  502    0 -0.29426005089E+01 -0.11311731570E+03  0.54136632103E+03  0.57919399130E+03  0.17200000000E+03 0. -1.
         -6    1    1    2    0  501  0.29426005089E+01  0.11311731570E+03 -0.17624808383E+03  0.27101950680E+03  0.17200000000E+03 0.  1.
</event>
<event>
 4    1  0.3169553E-002  0.1769125E+03  0.7818608E-02  0.1170825E+00
          2   -1    0    0  502    0  0.00000000000E+00  0.00000000000E+00  0.30087198460E+03  0.30087198460E+03  0.00000000000E+00 0. -1.
         -2   -1    0    0    0  501 -0.00000000000E+00 -0.00000000000E+00 -0.10514011551E+03  0.10514011551E+03  0.00000000000E+00 0.  1.
          6    1    1    2  502    0  0.80239225818E+01  0.40615847744E+02  0.76953734993E+02  0.19292461676E+03  0.17200000000E+03 0. -1.
         -6    1    1    2    0  501 -0.80239225818E+01 -0.40615847744E+02  0.11877813409E+03  0.21308748335E+03  0.17200000000E+03 0.  1.
</event>
<event>
 4    1  0.3169553E-002  0.2096928E+03  0.7818608E-02  0.1141809E+00
         -2   -1    0    0    0  501 -0.00000000000E+00  0.00000000000E+00  0.99207306476E+02  0.99207306476E+02  0.00000000000E+00 0.  1.
          2   -1    0    0  502    0  0.00000000000E+00 -0.00000000000E+00 -0.27302282246E+04  0.27302282246E+04  0.00000000000E+00 0. -1.
          6    1    1    2  502    0  0.26549672189E+02 -0.11697084724E+03 -0.26103137958E+04  0.26187228141E+04  0.17200000000E+03 0. -1.
         -6    1    1    2    0  501 -0.26549672189E+02  0.11697084724E+03 -0.20707122294E+02  0.21071271701E+03  0.17200000000E+03 0.  1.
</event>
<event>
 4    1  0.3169553E-002  0.2479499E+03  0.7818608E-02  0.1114607E+00
          2   -1    0    0  502    0  0.00000000000E+00  0.00000000000E+00  0.29630278091E+04  0.29630278091E+04  0.00000000000E+00 0. -1.
         -2   -1    0    0    0  501 -0.00000000000E+00 -0.00000000000E+00 -0.23883076103E+02  0.23883076103E+02  0.00000000000E+00 0.  1.
          6    1    1    2  502    0  0.62392494847E+02 -0.16733891097E+03  0.20105993983E+04  0.20258304655E+04  0.17200000000E+03 0. -1.
         -6    1    1    2    0  501 -0.62392494847E+02  0.16733891097E+03  0.92854533476E+03  0.96108041976E+03  0.17200000000E+03 0.  1.
</event>
<event>
 4    1  0.3169553E-002  0.4442569E+03  0.7818608E-02  0.1029449E+00
         -1   -1    0    0    0  501 -0.00000000000E+00  0.00000000000E+00  0.80105978472E+02  0.80105978472E+02  0.00000000000E+00 0.  1.
          1   -1    0    0  502    0  0.00000000000E+00 -0.00000000000E+00 -0.25592345439E+04  0.25592345439E+04  0.00000000000E+00 0. -1.
          6    1    1    2  502    0  0.40763741986E+03 -0.40148917256E+02 -0.14944168306E+04  0.15590528744E+04  0.17200000000E+03 0.  1.
         -6    1    1    2    0  501 -0.40763741986E+03  0.40148917256E+02 -0.98471173483E+03  0.10802876480E+04  0.17200000000E+03 0.  1.
</event>
<event>
 4    1  0.3169553E-002  0.2078477E+03  0.7818608E-02  0.1143282E+00
          2   -1    0    0  502    0  0.00000000000E+00  0.00000000000E+00  0.19962757824E+03  0.19962757824E+03  0.00000000000E+00 0. -1.
         -2   -1    0    0    0  501 -0.00000000000E+00 -0.00000000000E+00 -0.28775308912E+03  0.28775308912E+03  0.00000000000E+00 0.  1.
          6    1    1    2  502    0 -0.81810016386E+02  0.83209314112E+02 -0.16540596382E+03  0.26563095001E+03  0.17200000000E+03 0. -1.
         -6    1    1    2    0  501  0.81810016386E+02 -0.83209314112E+02  0.77280452939E+02  0.22174971734E+03  0.17200000000E+03 0. -1.
</event>
<event>
 4    1  0.3169553E-002  0.2156525E+03  0.7818608E-02  0.1137166E+00
         -2   -1    0    0    0  501 -0.00000000000E+00  0.00000000000E+00  0.22303755848E+02  0.22303755848E+02  0.00000000000E+00 0.  1.
          2   -1    0    0  502    0  0.00000000000E+00 -0.00000000000E+00 -0.33278900424E+04  0.33278900424E+04  0.00000000000E+00 0. -1.
          6    1    1    2  502    0 -0.14962598027E+01  0.13007596889E+03 -0.26764418074E+04  0.26851157787E+04  0.17200000000E+03 0. -1.
         -6    1    1    2    0  501  0.14962598027E+01 -0.13007596889E+03 -0.62914447915E+03  0.66507801957E+03  0.17200000000E+03 0.  1.
</event>
<event>
 4    1  0.3169553E-002  0.3528013E+03  0.7818608E-02  0.1061471E+00
         -2   -1    0    0    0  501 -0.00000000000E+00  0.00000000000E+00  0.91950030752E+02  0.91950030752E+02  0.00000000000E+00 0.  1.
          2   -1    0    0  502    0  0.00000000000E+00 -0.00000000000E+00 -0.13576109811E+04  0.13576109811E+04  0.00000000000E+00 0. -1.
          6    1    1    2  502    0  0.12354298735E+03 -0.28217353000E+03 -0.67194654841E+03  0.75893407795E+03  0.17200000000E+03 0. -1.
         -6    1    1    2    0  501 -0.12354298735E+03  0.28217353000E+03 -0.59371440195E+03  0.69062693391E+03  0.17200000000E+03 0.  1.
</event>
<event>
 4    1  0.3169553E-002  0.2080116E+03  0.7818608E-02  0.1143150E+00
         -1   -1    0    0    0  501 -0.00000000000E+00  0.00000000000E+00  0.55803034356E+03  0.55803034356E+03  0.00000000000E+00 0.  1.
          1   -1    0    0  502    0  0.00000000000E+00 -0.00000000000E+00 -0.14734782576E+03  0.14734782576E+03  0.00000000000E+00 0. -1.
          6    1    1    2  502    0 -0.41470008390E+02 -0.10938500435E+03 -0.37418583567E+02  0.21135039903E+03  0.17200000000E+03 0. -1.
         -6    1    1    2    0  501  0.41470008390E+02  0.10938500435E+03  0.44810110137E+03  0.49402777029E+03  0.17200000000E+03 0.  1.
</event>
<event>
 4    1  0.3169553E-002  0.6797820E+03  0.7818608E-02  0.9752446E-01
         -1   -1    0    0    0  501 -0.00000000000E+00  0.00000000000E+00  0.43866476297E+03  0.43866476297E+03  0.00000000000E+00 0.  1.
          1   -1    0    0  502    0  0.00000000000E+00 -0.00000000000E+00 -0.10558185498E+04  0.10558185498E+04  0.00000000000E+00 0. -1.
          6    1    1    2  502    0  0.95905102370E+02 -0.65063184891E+03 -0.34410175674E+03  0.76191181279E+03  0.17200000000E+03 0. -1.
         -6    1    1    2    0  501 -0.95905102370E+02  0.65063184891E+03 -0.27305203014E+03  0.73257150002E+03  0.17200000000E+03 0. -1.
</event>
<event>
 4    1  0.3169553E-002  0.1842590E+03  0.7818608E-02  0.1163744E+00
          1   -1    0    0  502    0  0.00000000000E+00  0.00000000000E+00  0.13812715735E+04  0.13812715735E+04  0.00000000000E+00 0. -1.
         -1   -1    0    0    0  501 -0.00000000000E+00 -0.00000000000E+00 -0.44902708712E+02  0.44902708712E+02  0.00000000000E+00 0.  1.
          6    1    1    2  502    0  0.37988914904E+02  0.54076149292E+02  0.11479169995E+04  0.11626112099E+04  0.17200000000E+03 0. -1.
         -6    1    1    2    0  501 -0.37988914904E+02 -0.54076149292E+02  0.18845186533E+03  0.26356307239E+03  0.17200000000E+03 0.  1.
</event>
<event>
 4    1  0.3169553E-002  0.2554635E+03  0.7818608E-02  0.1109900E+00
          2   -1    0    0  502    0  0.00000000000E+00  0.00000000000E+00  0.15883405865E+04  0.15883405865E+04  0.00000000000E+00 0. -1.
         -2   -1    0    0    0  501 -0.00000000000E+00 -0.00000000000E+00 -0.50960073075E+02  0.50960073075E+02  0.00000000000E+00 0.  1.
          6    1    1    2  502    0  0.13964437011E+03  0.12718906414E+03  0.40792926156E+03  0.48131890736E+03  0.17200000000E+03 0. -1.
         -6    1    1    2    0  501 -0.13964437011E+03 -0.12718906414E+03  0.11294512518E+04  0.11579817522E+04  0.17200000000E+03 0.  1.
</event>
<event>
 4    1  0.3169553E-002  0.4479684E+03  0.7818608E-02  0.1028330E+00
          1   -1    0    0  502    0  0.00000000000E+00  0.00000000000E+00  0.11423273030E+04  0.11423273030E+04  0.00000000000E+00 0. -1.
         -1   -1    0    0    0  501 -0.00000000000E+00 -0.00000000000E+00 -0.57157573082E+03  0.57157573082E+03  0.00000000000E+00 0.  1.
          6    1    1    2  502    0 -0.40753223588E+03 -0.70775212160E+02  0.99857984723E+03  0.10944575667E+04  0.17200000000E+03 0. -1.
         -6    1    1    2    0  501  0.40753223588E+03  0.70775212160E+02 -0.42782827501E+03  0.61944546720E+03  0.17200000000E+03 0.  1.
</event>
<event>
 4    1  0.3169553E-002  0.2116594E+03  0.7818608E-02  0.1140259E+00
         -1   -1    0    0    0  501 -0.00000000000E+00  0.00000000000E+00  0.49085941049E+02  0.49085941049E+02  0.00000000000E+00 0.  1.
          1   -1    0    0  502    0  0.00000000000E+00 -0.00000000000E+00 -0.15739764400E+04  0.15739764400E+04  0.00000000000E+00 0. -1.
          6    1    1    2  502    0  0.34684183094E+02 -0.11837522633E+03 -0.12884681632E+04  0.13057372991E+04  0.17200000000E+03 0. -1.
         -6    1    1    2    0  501 -0.34684183094E+02  0.11837522633E+03 -0.23642233571E+03  0.31732508188E+03  0.17200000000E+03 0.  1.
</event>
<event>
 4    1  0.3169553E-002  0.1743223E+03  0.7818608E-02  0.1173414E+00
          2   -1    0    0  502    0  0.00000000000E+00  0.00000000000E+00  0.77594961533E+03  0.77594961533E+03  0.00000000000E+00 0. -1.
         -2   -1    0    0    0  501 -0.00000000000E+00 -0.00000000000E+00 -0.40365443191E+02  0.40365443191E+02  0.00000000000E+00 0.  1.
          6    1    1    2  502    0  0.11325618586E+02  0.25999626567E+02  0.29733627838E+03  0.34466957025E+03  0.17200000000E+03 0.  1.
         -6    1    1    2    0  501 -0.11325618586E+02 -0.25999626567E+02  0.43824789376E+03  0.47164548827E+03  0.17200000000E+03 0. -1.
</event>
<event>
 4    1  0.3169553E-002  0.1997362E+03  0.7818608E-02  0.1149962E+00
          2   -1    0    0  502    0  0.00000000000E+00  0.00000000000E+00  0.41367167774E+03  0.41367167774E+03  0.00000000000E+00 0. -1.
         -2   -1    0    0    0  501 -0.00000000000E+00 -0.00000000000E+00 -0.10750950245E+03  0.10750950245E+03  0.00000000000E+00 0.  1.
          6    1    1    2  502    0 -0.61683863951E+02 -0.80657534931E+02  0.69463537860E+02  0.21147037642E+03  0.17200000000E+03 0.  1.
         -6    1    1    2    0  501  0.61683863951E+02  0.80657534931E+02  0.23669863742E+03  0.30971080377E+03  0.17200000000E+03 0. -1.
</event>
<event>
 4    1  0.3169553E-002  0.2034898E+03  0.7818608E-02  0.1146828E+00
          2   -1    0    0  502    0  0.00000000000E+00  0.00000000000E+00  0.52434250175E+03  0.52434250175E+03  0.00000000000E+00 0. -1.
         -2   -1    0    0    0  501 -0.00000000000E+00 -0.00000000000E+00 -0.16964966022E+03  0.16964966022E+03  0.00000000000E+00 0.  1.
          6    1    1    2  502    0 -0.61279071498E+02 -0.89827365165E+02  0.43103421765E+03  0.47665351873E+03  0.17200000000E+03 0. -1.
         -6    1    1    2    0  501  0.61279071498E+02  0.89827365165E+02 -0.76341376123E+02  0.21733864324E+03  0.17200000000E+03 0.  1.
</event>
<event>
 4    1  0.3169553E-002  0.2358554E+03  0.7818608E-02  0.1122585E+00
         -1   -1    0    0    0  501 -0.00000000000E+00  0.00000000000E+00  0.56484480517E+02  0.56484480517E+02  0.00000000000E+00 0.  1.
          1   -1    0    0  502    0  0.00000000000E+00 -0.00000000000E+00 -0.13580282842E+04  0.13580282842E+04  0.00000000000E+00 0. -1.
          6    1    1    2  502    0  0.11819495418E+03 -0.10988058503E+03 -0.10215298250E+04  0.10484040125E+04  0.17200000000E+03 0. -1.
         -6    1    1    2    0  501 -0.11819495418E+03  0.10988058503E+03 -0.28001397871E+03  0.36610875220E+03  0.17200000000E+03 0.  1.
</event>
<event>
 4    1  0.3169553E-002  0.1736911E+03  0.7818608E-02  0.1174052E+00
         -2   -1    0    0    0  501 -0.00000000000E+00  0.00000000000E+00  0.23490933173E+02  0.23490933173E+02  0.00000000000E+00 0.  1.
          2   -1    0    0  502    0  0.00000000000E+00 -0.00000000000E+00 -0.14249111952E+04  0.14249111952E+04  0.00000000000E+00 0. -1.
          6    1    1    2  502    0 -0.22883605790E+02 -0.78059848730E+01 -0.92823487144E+03  0.94434557730E+03  0.17200000000E+03 0. -1.
         -6    1    1    2    0  501  0.22883605790E+02  0.78059848730E+01 -0.47318539060E+03  0.50405655109E+03  0.17200000000E+03 0.  1.
</event>
<event>
 4    1  0.3169553E-002  0.3370886E+03  0.7818608E-02  0.1068043E+00
         -2   -1    0    0    0  501 -0.00000000000E+00  0.00000000000E+00  0.97109948681E+03  0.97109948681E+03  0.00000000000E+00 0.  1.
          2   -1    0    0  502    0  0.00000000000E+00 -0.00000000000E+00 -0.18283539411E+03  0.18283539411E+03  0.00000000000E+00 0. -1.
          6    1    1    2  502    0 -0.80420122719E+02 -0.27852706769E+03  0.47940357244E+02  0.34048054485E+03  0.17200000000E+03 0. -1.
         -6    1    1    2    0  501  0.80420122719E+02  0.27852706769E+03  0.74032373546E+03  0.81345433606E+03  0.17200000000E+03 0.  1.
</event>
<event>
 4    1  0.3169553E-002  0.2712999E+03  0.7818608E-02  0.1100538E+00
         -1   -1    0    0    0  501 -0.00000000000E+00  0.00000000000E+00  0.64008110456E+03  0.64008110456E+03  0.00000000000E+00 0.  1.
          1   -1    0    0  502    0  0.00000000000E+00 -0.00000000000E+00 -0.21904173044E+03  0.21904173044E+03  0.00000000000E+00 0. -1.
          6    1    1    2  502    0 -0.15214972571E+03 -0.14446488016E+03 -0.85543329793E+02  0.28446669735E+03  0.17200000000E+03 0. -1.
         -6    1    1    2    0  501  0.15214972571E+03  0.14446488016E+03  0.50658270391E+03  0.57465613765E+03  0.17200000000E+03 0.  1.
</event>
<event>
 4    1  0.3169553E-002  0.2126802E+03  0.7818608E-02  0.1139461E+00
         -2   -1    0    0    0  501 -0.00000000000E+00  0.00000000000E+00  0.13591927156E+03  0.13591927156E+03  0.00000000000E+00 0.  1.
          2   -1    0    0  502    0  0.00000000000E+00 -0.00000000000E+00 -0.34978836411E+03  0.34978836411E+03  0.00000000000E+00 0. -1.
          6    1    1    2  502    0 -0.10483457226E+03 -0.68253790274E+02 -0.16046713874E+03  0.26642554315E+03  0.17200000000E+03 0. -1.
         -6    1    1    2    0  501  0.10483457226E+03  0.68253790274E+02 -0.53401953817E+02  0.21928209252E+03  0.17200000000E+03 0.  1.
</event>
<event>
 4    1  0.3169553E-002  0.2385690E+03  0.7818608E-02  0.1120750E+00
          2   -1    0    0  502    0  0.00000000000E+00  0.00000000000E+00  0.10415818010E+04  0.10415818010E+04  0.00000000000E+00 0. -1.
         -2   -1    0    0    0  501 -0.00000000000E+00 -0.00000000000E+00 -0.67942217864E+02  0.67942217864E+02  0.00000000000E+00 0.  1.
          6    1    1    2  502    0 -0.11097483179E+03 -0.12253879197E+03  0.73226224085E+03  0.77014489430E+03  0.17200000000E+03 0.  1.
         -6    1    1    2    0  501  0.11097483179E+03  0.12253879197E+03  0.24137734230E+03  0.33937912459E+03  0.17200000000E+03 0. -1.
</event>
<event>
 4    1  0.3169553E-002  0.1975409E+03  0.7818608E-02  0.1151831E+00
          1   -1    0    0  502    0  0.00000000000E+00  0.00000000000E+00  0.97103597863E+03  0.97103597863E+03  0.00000000000E+00 0. -1.
         -1   -1    0    0    0  501 -0.00000000000E+00 -0.00000000000E+00 -0.41389113276E+02  0.41389113276E+02  0.00000000000E+00 0.  1.
          6    1    1    2  502    0  0.96258128407E+02  0.13143826736E+02  0.55111745454E+03  0.58545096820E+03  0.17200000000E+03 0. -1.
         -6    1    1    2    0  501 -0.96258128407E+02 -0.13143826736E+02  0.37852941082E+03  0.42697412371E+03  0.17200000000E+03 0.  1.
</event>
<event>
 4    1  0.3169553E-002  0.2503941E+03  0.7818608E-02  0.1113056E+00
         -1   -1    0    0    0  501 -0.00000000000E+00  0.00000000000E+00  0.17855532126E+04  0.17855532126E+04  0.00000000000E+00 0.  1.
          1   -1    0    0  502    0  0.00000000000E+00 -0.00000000000E+00 -0.47591983415E+02  0.47591983415E+02  0.00000000000E+00 0. -1.
          6    1    1    2  502    0  0.15043514497E+03 -0.10238389916E+03  0.39964967517E+03  0.47161113061E+03  0.17200000000E+03 0. -1.
         -6    1    1    2    0  501 -0.15043514497E+03  0.10238389916E+03  0.13383115540E+04  0.13615340654E+04  0.17200000000E+03 0.  1.
</event>
<event>
 4    1  0.3169553E-002  0.2423253E+03  0.7818608E-02  0.1118253E+00
          3   -1    0    0  502    0  0.00000000000E+00  0.00000000000E+00  0.43310924803E+03  0.43310924803E+03  0.00000000000E+00 0. -1.
         -3   -1    0    0    0  501 -0.00000000000E+00 -0.00000000000E+00 -0.33862659577E+03  0.33862659577E+03  0.00000000000E+00 0.  1.
          6    1    1    2  502    0 -0.21004626046E+02  0.16939996543E+03  0.34603716250E+03  0.42244912171E+03  0.17200000000E+03 0. -1.
         -6    1    1    2    0  501  0.21004626046E+02 -0.16939996543E+03 -0.25155451025E+03  0.34928672209E+03  0.17200000000E+03 0.  1.
</event>
<event>
 4    1  0.3169553E-002  0.1843038E+03  0.7818608E-02  0.1163702E+00
          1   -1    0    0  502    0  0.00000000000E+00  0.00000000000E+00  0.46174519931E+03  0.46174519931E+03  0.00000000000E+00 0. -1.
         -1   -1    0    0    0  501 -0.00000000000E+00 -0.00000000000E+00 -0.95835082759E+02  0.95835082759E+02  0.00000000000E+00 0.  1.
          6    1    1    2  502    0 -0.47147685488E+02 -0.46486460250E+02  0.48559687794E+02  0.19059364762E+03  0.17200000000E+03 0.  1.
         -6    1    1    2    0  501  0.47147685488E+02  0.46486460250E+02  0.31735042875E+03  0.36698663445E+03  0.17200000000E+03 0. -1.
</event>
<event>
 4    1  0.3169553E-002  0.1753810E+03  0.7818608E-02  0.1172350E+00
         -2   -1    0    0    0  501 -0.00000000000E+00  0.00000000000E+00  0.10404024248E+03  0.10404024248E+03  0.00000000000E+00 0.  1.
          2   -1    0    0  502    0  0.00000000000E+00 -0.00000000000E+00 -0.30885299751E+03  0.30885299751E+03  0.00000000000E+00 0. -1.
          6    1    1    2  502    0  0.10681659624E+01 -0.34254410214E+02 -0.59706668862E+02  0.18526573322E+03  0.17200000000E+03 0.  1.
         -6    1    1    2    0  501 -0.10681659624E+01  0.34254410214E+02 -0.14510608616E+03  0.22762750677E+03  0.17200000000E+03 0. -1.
</event>
<event>
 4    1  0.3169553E-002  0.1990806E+03  0.7818608E-02  0.1150517E+00
         -1   -1    0    0    0  501 -0.00000000000E+00  0.00000000000E+00  0.13955842780E+03  0.13955842780E+03  0.00000000000E+00 0.  1.
          1   -1    0    0  502    0  0.00000000000E+00 -0.00000000000E+00 -0.30060843831E+03  0.30060843831E+03  0.00000000000E+00 0. -1.
          6    1    1    2  502    0  0.67427031004E+02 -0.74180132809E+02 -0.13227274164E+03  0.23901710147E+03  0.17200000000E+03 0. -1.
         -6    1    1    2    0  501 -0.67427031004E+02  0.74180132809E+02 -0.28777268868E+02  0.20114976465E+03  0.17200000000E+03 0.  1.
</event>
<event>
 4    1  0.3169553E-002  0.1800379E+03  0.7818608E-02  0.1167766E+00
         -3   -1    0    0    0  501 -0.00000000000E+00  0.00000000000E+00  0.74311060159E+03  0.74311060159E+03  0.00000000000E+00 0.  1.
          3   -1    0    0  502    0  0.00000000000E+00 -0.00000000000E+00 -0.34801883089E+03  0.34801883089E+03  0.00000000000E+00 0. -1.
          6    1    1    2  502    0  0.53005390833E+02  0.44814265596E+01 -0.31268552399E+03  0.36081282066E+03  0.17200000000E+03 0. -1.
         -6    1    1    2    0  501 -0.53005390833E+02 -0.44814265596E+01  0.70777729468E+03  0.73031661183E+03  0.17200000000E+03 0.  1.
</event>
<event>
 4    1  0.3169553E-002  0.2322865E+03  0.7818608E-02  0.1125041E+00
          2   -1    0    0  502    0  0.00000000000E+00  0.00000000000E+00  0.22149638085E+04  0.22149638085E+04  0.00000000000E+00 0. -1.
         -2   -1    0    0    0  501 -0.00000000000E+00 -0.00000000000E+00 -0.33661556010E+02  0.33661556010E+02  0.00000000000E+00 0.  1.
          6    1    1    2  502    0 -0.40231075950E+02  0.15084589738E+03  0.16816579387E+04  0.16976249430E+04  0.17200000000E+03 0. -1.
         -6    1    1    2    0  501  0.40231075950E+02 -0.15084589738E+03  0.49964431383E+03  0.55100042157E+03  0.17200000000E+03 0.  1.
</event>
<event>
 4    1  0.3169553E-002  0.4269786E+03  0.7818608E-02  0.1034819E+00
         -1   -1    0    0    0  501 -0.00000000000E+00  0.00000000000E+00  0.10963926819E+04  0.10963926819E+04  0.00000000000E+00 0.  1.
          1   -1    0    0  502    0  0.00000000000E+00 -0.00000000000E+00 -0.30669222180E+03  0.30669222180E+03  0.00000000000E+00 0. -1.
          6    1    1    2  502    0  0.39066841106E+03  0.10241458083E+02 -0.79830363696E+02  0.43437723448E+03  0.17200000000E+03 0. -1.
         -6    1    1    2    0  501 -0.39066841106E+03 -0.10241458083E+02  0.86953082383E+03  0.96870766925E+03  0.17200000000E+03 0.  1.
</event>
<event>
 4    1  0.3169553E-002  0.2711224E+03  0.7818608E-02  0.1100639E+00
         -1   -1    0    0    0  501 -0.00000000000E+00  0.00000000000E+00  0.19666526189E+04  0.19666526189E+04  0.00000000000E+00 0.  1.
          1   -1    0    0  502    0  0.00000000000E+00 -0.00000000000E+00 -0.58455715418E+02  0.58455715418E+02  0.00000000000E+00 0. -1.
          6    1    1    2  502    0 -0.48538587283E+02 -0.20388077989E+03  0.34606435275E+03  0.43962245519E+03  0.17200000000E+03 0. -1.
         -6    1    1    2    0  501  0.48538587283E+02  0.20388077989E+03  0.15621325507E+04  0.15854858791E+04  0.17200000000E+03 0.  1.
</event>
<event>
 4    1  0.3169553E-002  0.1903960E+03  0.7818608E-02  0.1158105E+00
          1   -1    0    0  502    0  0.00000000000E+00  0.00000000000E+00  0.50543694704E+03  0.50543694704E+03  0.00000000000E+00 0. -1.
         -1   -1    0    0    0  501 -0.00000000000E+00 -0.00000000000E+00 -0.71782200585E+02  0.71782200585E+02  0.00000000000E+00 0.  1.
          6    1    1    2  502    0  0.79424982970E+02  0.18928691169E+02  0.20842478801E+03  0.28229685709E+03  0.17200000000E+03 0.  1.
         -6    1    1    2    0  501 -0.79424982970E+02 -0.18928691169E+02  0.22522995845E+03  0.29492229053E+03  0.17200000000E+03 0.  1.
</event>
<event>
 4    1  0.3169553E-002  0.2090247E+03  0.7818608E-02  0.1142341E+00
         -1   -1    0    0    0  501 -0.00000000000E+00  0.00000000000E+00  0.89239923168E+02  0.89239923168E+02  0.00000000000E+00 0.  1.
          1   -1    0    0  502    0  0.00000000000E+00 -0.00000000000E+00 -0.84058181619E+03  0.84058181619E+03  0.00000000000E+00 0. -1.
          6    1    1    2  502    0  0.10301560990E+03  0.59119426805E+02 -0.67608883113E+03  0.70766335929E+03  0.17200000000E+03 0. -1.
         -6    1    1    2    0  501 -0.10301560990E+03 -0.59119426805E+02 -0.75253061891E+02  0.22215838006E+03  0.17200000000E+03 0.  1.
</event>
<event>
 4    1  0.3169553E-002  0.1741434E+03  0.7818608E-02  0.1173595E+00
          2   -1    0    0  502    0  0.00000000000E+00  0.00000000000E+00  0.93992961645E+03  0.93992961645E+03  0.00000000000E+00 0. -1.
         -2   -1    0    0    0  501 -0.00000000000E+00 -0.00000000000E+00 -0.37362315479E+02  0.37362315479E+02  0.00000000000E+00 0.  1.
          6    1    1    2  502    0 -0.13266026032E+02  0.23789432745E+02  0.63178862471E+03  0.65534936551E+03  0.17200000000E+03 0. -1.
         -6    1    1    2    0  501  0.13266026032E+02 -0.23789432745E+02  0.27077867626E+03  0.32194256642E+03  0.17200000000E+03 0.  1.
</event>
<event>
 4    1  0.3169553E-002  0.4573027E+03  0.7818608E-02  0.1025566E+00
          2   -1    0    0  502    0  0.00000000000E+00  0.00000000000E+00  0.96525452664E+03  0.96525452664E+03  0.00000000000E+00 0. -1.
         -2   -1    0    0    0  501 -0.00000000000E+00 -0.00000000000E+00 -0.24394229690E+03  0.24394229690E+03  0.00000000000E+00 0.  1.
          6    1    1    2  502    0 -0.42262731973E+03 -0.30461353411E+02  0.56287227427E+03  0.72522475314E+03  0.17200000000E+03 0. -1.
         -6    1    1    2    0  501  0.42262731973E+03  0.30461353411E+02  0.15843995547E+03  0.48397207040E+03  0.17200000000E+03 0.  1.
</event>
<event>
 4    1  0.3169553E-002  0.1936385E+03  0.7818608E-02  0.1155220E+00
          2   -1    0    0  502    0  0.00000000000E+00  0.00000000000E+00  0.85770239875E+03  0.85770239875E+03  0.00000000000E+00 0. -1.
         -2   -1    0    0    0  501 -0.00000000000E+00 -0.00000000000E+00 -0.60849577927E+02  0.60849577927E+02  0.00000000000E+00 0.  1.
          6    1    1    2  502    0  0.64804198625E+02 -0.60928362692E+02  0.64212955549E+03  0.67069084948E+03  0.17200000000E+03 0. -1.
         -6    1    1    2    0  501 -0.64804198625E+02  0.60928362692E+02  0.15472326533E+03  0.24786112719E+03  0.17200000000E+03 0.  1.
</event>
<event>
 4    1  0.3169553E-002  0.1823356E+03  0.7818608E-02  0.1165562E+00
         -1   -1    0    0    0  501 -0.00000000000E+00  0.00000000000E+00  0.38612496085E+03  0.38612496085E+03  0.00000000000E+00 0.  1.
          1   -1    0    0  502    0  0.00000000000E+00 -0.00000000000E+00 -0.86250343063E+02  0.86250343063E+02  0.00000000000E+00 0. -1.
          6    1    1    2  502    0  0.25407086663E+02 -0.54924977925E+02  0.14015431288E+03  0.22997718294E+03  0.17200000000E+03 0. -1.
         -6    1    1    2    0  501 -0.25407086663E+02  0.54924977925E+02  0.15972030490E+03  0.24239812097E+03  0.17200000000E+03 0.  1.
</event>
<event>
 4    1  0.3169553E-002  0.1990824E+03  0.7818608E-02  0.1150515E+00
          2   -1    0    0  502    0  0.00000000000E+00  0.00000000000E+00  0.17892987346E+04  0.17892987346E+04  0.00000000000E+00 0. -1.
         -2   -1    0    0    0  501 -0.00000000000E+00 -0.00000000000E+00 -0.41896554268E+02  0.41896554268E+02  0.00000000000E+00 0.  1.
          6    1    1    2  502    0 -0.49321123198E+02 -0.87276805056E+02  0.15022744487E+04  0.15154083058E+04  0.17200000000E+03 0. -1.
         -6    1    1    2    0  501  0.49321123198E+02  0.87276805056E+02  0.24512773162E+03  0.31578698311E+03  0.17200000000E+03 0.  1.
</event>
<event>
 4    1  0.3169553E-002  0.2987084E+03  0.7818608E-02  0.1085888E+00
         -2   -1    0    0    0  501 -0.00000000000E+00  0.00000000000E+00  0.61211260179E+02  0.61211260179E+02  0.00000000000E+00 0.  1.
          2   -1    0    0  502    0  0.00000000000E+00 -0.00000000000E+00 -0.14633306090E+04  0.14633306090E+04  0.00000000000E+00 0. -1.
          6    1    1    2  502    0  0.23872059056E+03 -0.51528700530E+02 -0.65371197905E+03  0.71872531533E+03  0.17200000000E+03 0. -1.
         -6    1    1    2    0  501 -0.23872059056E+03  0.51528700530E+02 -0.74840736978E+03  0.80581655386E+03  0.17200000000E+03 0.  1.
</event>
<event>
 4    1  0.3169553E-002  0.2866166E+03  0.7818608E-02  0.1092129E+00
          2   -1    0    0  502    0  0.00000000000E+00  0.00000000000E+00  0.10088246656E+04  0.10088246656E+04  0.00000000000E+00 0. -1.
         -2   -1    0    0    0  501 -0.00000000000E+00 -0.00000000000E+00 -0.81496240957E+02  0.81496240957E+02  0.00000000000E+00 0.  1.
          6    1    1    2  502    0  0.65730423567E+02  0.21964645320E+03  0.44817542563E+03  0.53198709112E+03  0.17200000000E+03 0.  1.
         -6    1    1    2    0  501 -0.65730423567E+02 -0.21964645320E+03  0.47915299897E+03  0.55833381539E+03  0.17200000000E+03 0.  1.
</event>
<event>
 4    1  0.3169553E-002  0.2174513E+03  0.7818608E-02  0.1135798E+00
          3   -1    0    0  502    0  0.00000000000E+00  0.00000000000E+00  0.31440732027E+03  0.31440732027E+03  0.00000000000E+00 0. -1.
         -3   -1    0    0    0  501 -0.00000000000E+00 -0.00000000000E+00 -0.28886396510E+03  0.28886396510E+03  0.00000000000E+00 0.  1.
          6    1    1    2  502    0  0.10595344651E+03  0.80466914971E+02  0.22161151824E+03  0.31047821542E+03  0.17200000000E+03 0. -1.
         -6    1    1    2    0  501 -0.10595344651E+03 -0.80466914971E+02 -0.19606816308E+03  0.29279306994E+03  0.17200000000E+03 0.  1.
</event>
<event>
 4    1  0.3169553E-002  0.2213300E+03  0.7818608E-02  0.1132895E+00
          2   -1    0    0  502    0  0.00000000000E+00  0.00000000000E+00  0.93347975250E+03  0.93347975250E+03  0.00000000000E+00 0. -1.
         -2   -1    0    0    0  501 -0.00000000000E+00 -0.00000000000E+00 -0.10152524211E+03  0.10152524211E+03  0.00000000000E+00 0.  1.
          6    1    1    2  502    0 -0.13929450220E+03 -0.95275008743E-01  0.56282920791E+02  0.22837411104E+03  0.17200000000E+03 0.  1.
         -6    1    1    2    0  501  0.13929450220E+03  0.95275008743E-01  0.77567158960E+03  0.80663088357E+03  0.17200000000E+03 0. -1.
</event>
<event>
 4    1  0.3169553E-002  0.2571295E+03  0.7818608E-02  0.1108880E+00
         -1   -1    0    0    0  501 -0.00000000000E+00  0.00000000000E+00  0.11679294464E+03  0.11679294464E+03  0.00000000000E+00 0.  1.
          1   -1    0    0  502    0  0.00000000000E+00 -0.00000000000E+00 -0.76774933138E+03  0.76774933138E+03  0.00000000000E+00 0. -1.
          6    1    1    2  502    0 -0.19070232875E+03  0.12813302742E+02 -0.55214389862E+03  0.60907999778E+03  0.17200000000E+03 0. -1.
         -6    1    1    2    0  501  0.19070232875E+03 -0.12813302742E+02 -0.98812488122E+02  0.27546227823E+03  0.17200000000E+03 0.  1.
</event>
<event>
 4    1  0.3169553E-002  0.3050195E+03  0.7818608E-02  0.1082758E+00
          2   -1    0    0  502    0  0.00000000000E+00  0.00000000000E+00  0.10485676446E+04  0.10485676446E+04  0.00000000000E+00 0. -1.
         -2   -1    0    0    0  501 -0.00000000000E+00 -0.00000000000E+00 -0.11420703466E+03  0.11420703466E+03  0.00000000000E+00 0.  1.
          6    1    1    2  502    0  0.10006153610E+03  0.23117224429E+03  0.74178870445E+03  0.80205199307E+03  0.17200000000E+03 0. -1.
         -6    1    1    2    0  501 -0.10006153610E+03 -0.23117224429E+03  0.19257190547E+03  0.36072268616E+03  0.17200000000E+03 0.  1.
</event>
<event>
 4    1  0.3169553E-002  0.3518775E+03  0.7818608E-02  0.1061847E+00
         -2   -1    0    0    0  501 -0.00000000000E+00  0.00000000000E+00  0.66388882682E+02  0.66388882682E+02  0.00000000000E+00 0.  1.
          2   -1    0    0  502    0  0.00000000000E+00 -0.00000000000E+00 -0.23407122456E+04  0.23407122456E+04  0.00000000000E+00 0. -1.
          6    1    1    2  502    0  0.17575038190E+03  0.25168552409E+03 -0.16797183078E+04  0.17161793010E+04  0.17200000000E+03 0. -1.
         -6    1    1    2    0  501 -0.17575038190E+03 -0.25168552409E+03 -0.59460505509E+03  0.69092182721E+03  0.17200000000E+03 0.  1.
</event>
<event>
 4    1  0.3169553E-002  0.7823110E+03  0.7818608E-02  0.9585980E-01
          2   -1    0    0  502    0  0.00000000000E+00  0.00000000000E+00  0.14972301820E+04  0.14972301820E+04  0.00000000000E+00 0. -1.
         -2   -1    0    0    0  501 -0.00000000000E+00 -0.00000000000E+00 -0.40955395374E+03  0.40955395374E+03  0.00000000000E+00 0.  1.
          6    1    1    2  502    0  0.50886756242E+02  0.76147026444E+03  0.58576910345E+03  0.97731052800E+03  0.17200000000E+03 0. -1.
         -6    1    1    2    0  501 -0.50886756242E+02 -0.76147026444E+03  0.50190712484E+03  0.92947360778E+03  0.17200000000E+03 0.  1.
</event>
<event>
 4    1  0.3169553E-002  0.3323874E+03  0.7818608E-02  0.1070085E+00
          2   -1    0    0  502    0  0.00000000000E+00  0.00000000000E+00  0.14361881433E+03  0.14361881433E+03  0.00000000000E+00 0. -1.
         -2   -1    0    0    0  501 -0.00000000000E+00 -0.00000000000E+00 -0.77053400405E+03  0.77053400405E+03  0.00000000000E+00 0.  1.
          6    1    1    2  502    0  0.66784029226E+02  0.27647290649E+03 -0.29493120843E+03  0.44437123252E+03  0.17200000000E+03 0.  1.
         -6    1    1    2    0  501 -0.66784029226E+02 -0.27647290649E+03 -0.33198398130E+03  0.46978158586E+03  0.17200000000E+03 0. -1.
</event>
<event>
 4    1  0.3169553E-002  0.3130378E+03  0.7818608E-02  0.1078899E+00
          2   -1    0    0  502    0  0.00000000000E+00  0.00000000000E+00  0.76873967586E+03  0.76873967586E+03  0.00000000000E+00 0. -1.
         -2   -1    0    0    0  501 -0.00000000000E+00 -0.00000000000E+00 -0.13621631394E+03  0.13621631394E+03  0.00000000000E+00 0.  1.
          6    1    1    2  502    0  0.22496222048E+03 -0.13341907245E+03  0.43090535991E+03  0.53260874827E+03  0.17200000000E+03 0. -1.
         -6    1    1    2    0  501 -0.22496222048E+03  0.13341907245E+03  0.20161800202E+03  0.37234724153E+03  0.17200000000E+03 0.  1.
</event>
<event>
 4    1  0.3169553E-002  0.2034890E+03  0.7818608E-02  0.1146828E+00
         -1   -1    0    0    0  501 -0.00000000000E+00  0.00000000000E+00  0.51990478045E+03  0.51990478045E+03  0.00000000000E+00 0.  1.
          1   -1    0    0  502    0  0.00000000000E+00 -0.00000000000E+00 -0.17236525847E+03  0.17236525847E+03  0.00000000000E+00 0. -1.
          6    1    1    2  502    0  0.10871343454E+03  0.22717642034E+01 -0.80098372524E+02  0.21868589585E+03  0.17200000000E+03 0. -1.
         -6    1    1    2    0  501 -0.10871343454E+03 -0.22717642034E+01  0.42763789450E+03  0.47358414308E+03  0.17200000000E+03 0.  1.
</event>
<event>
 4    1  0.3169553E-002  0.2209502E+03  0.7818608E-02  0.1133177E+00
         -1   -1    0    0    0  501 -0.00000000000E+00  0.00000000000E+00  0.21894424478E+03  0.21894424478E+03  0.00000000000E+00 0.  1.
          1   -1    0    0  502    0  0.00000000000E+00 -0.00000000000E+00 -0.22816884629E+03  0.22816884629E+03  0.00000000000E+00 0. -1.
          6    1    1    2  502    0  0.10162713196E+03  0.94376424488E+02 -0.38342948252E+02  0.22425245847E+03  0.17200000000E+03 0. -1.
         -6    1    1    2    0  501 -0.10162713196E+03 -0.94376424488E+02  0.29118346744E+02  0.22286063261E+03  0.17200000000E+03 0. -1.
</event>
<event>
 4    1  0.3169553E-002  0.3125047E+03  0.7818608E-02  0.1079152E+00
         -2   -1    0    0    0  501 -0.00000000000E+00  0.00000000000E+00  0.14625514629E+03  0.14625514629E+03  0.00000000000E+00 0.  1.
          2   -1    0    0  502    0  0.00000000000E+00 -0.00000000000E+00 -0.70191005782E+03  0.70191005782E+03  0.00000000000E+00 0. -1.
          6    1    1    2  502    0 -0.11236626491E+03  0.23547612479E+03 -0.37140808364E+03  0.48538968616E+03  0.17200000000E+03 0. -1.
         -6    1    1    2    0  501  0.11236626491E+03 -0.23547612479E+03 -0.18424682789E+03  0.36277551795E+03  0.17200000000E+03 0.  1.
</event>
<event>
 4    1  0.3169553E-002  0.1922364E+03  0.7818608E-02  0.1156460E+00
          2   -1    0    0  502    0  0.00000000000E+00  0.00000000000E+00  0.33788663802E+03  0.33788663802E+03  0.00000000000E+00 0. -1.
         -2   -1    0    0    0  501 -0.00000000000E+00 -0.00000000000E+00 -0.12310490967E+03  0.12310490967E+03  0.00000000000E+00 0.  1.
          6    1    1    2  502    0  0.85836512930E+02  0.17116042197E+01  0.18438009809E+03  0.26636602094E+03  0.17200000000E+03 0. -1.
         -6    1    1    2    0  501 -0.85836512930E+02 -0.17116042197E+01  0.30401630267E+02  0.19462552675E+03  0.17200000000E+03 0.  1.
</event>
<event>
 4    1  0.3169553E-002  0.1841145E+03  0.7818608E-02  0.1163879E+00
         -3   -1    0    0    0  501 -0.00000000000E+00  0.00000000000E+00  0.11246787018E+03  0.11246787018E+03  0.00000000000E+00 0.  1.
          3   -1    0    0  502    0  0.00000000000E+00 -0.00000000000E+00 -0.30351213493E+03  0.30351213493E+03  0.00000000000E+00 0. -1.
          6    1    1    2  502    0 -0.11778393676E+02 -0.64617550391E+02 -0.78184007545E+02  0.20002724167E+03  0.17200000000E+03 0.  1.
         -6    1    1    2    0  501  0.11778393676E+02  0.64617550391E+02 -0.11286025720E+03  0.21595276343E+03  0.17200000000E+03 0.  1.
</event>
<event>
 4    1  0.3169553E-002  0.1757667E+03  0.7818608E-02  0.1171964E+00
         -1   -1    0    0    0  501 -0.00000000000E+00  0.00000000000E+00  0.13810603522E+03  0.13810603522E+03  0.00000000000E+00 0.  1.
          1   -1    0    0  502    0  0.00000000000E+00 -0.00000000000E+00 -0.24749357793E+03  0.24749357793E+03  0.00000000000E+00 0. -1.
          6    1    1    2  502    0 -0.24302922627E+02 -0.26819938840E+02  0.50894814279E+01  0.17584039351E+03  0.17200000000E+03 0.  1.
         -6    1    1    2    0  501  0.24302922627E+02  0.26819938840E+02 -0.11447702414E+03  0.20975921964E+03  0.17200000000E+03 0. -1.
</event>
<event>
 4    1  0.3169553E-002  0.2174917E+03  0.7818608E-02  0.1135767E+00
          2   -1    0    0  502    0  0.00000000000E+00  0.00000000000E+00  0.45413865547E+03  0.45413865547E+03  0.00000000000E+00 0. -1.
         -2   -1    0    0    0  501 -0.00000000000E+00 -0.00000000000E+00 -0.13455507865E+03  0.13455507865E+03  0.00000000000E+00 0.  1.
          6    1    1    2  502    0  0.10728632444E+03  0.78792573495E+02  0.29969194481E+03  0.37029432461E+03  0.17200000000E+03 0. -1.
         -6    1    1    2    0  501 -0.10728632444E+03 -0.78792573495E+02  0.19891632007E+02  0.21839940951E+03  0.17200000000E+03 0.  1.
</event>
<event>
 4    1  0.3169553E-002  0.2346331E+03  0.7818608E-02  0.1123421E+00
          2   -1    0    0  502    0  0.00000000000E+00  0.00000000000E+00  0.24111835586E+04  0.24111835586E+04  0.00000000000E+00 0. -1.
         -2   -1    0    0    0  501 -0.00000000000E+00 -0.00000000000E+00 -0.23278019838E+02  0.23278019838E+02  0.00000000000E+00 0.  1.
          6    1    1    2  502    0 -0.13355435768E+03 -0.87360798129E+02  0.10255033749E+04  0.10520027792E+04  0.17200000000E+03 0.  1.
         -6    1    1    2    0  501  0.13355435768E+03  0.87360798129E+02  0.13624021639E+04  0.13824587992E+04  0.17200000000E+03 0.  1.
</event>
<event>
 4    1  0.3169553E-002  0.2830495E+03  0.7818608E-02  0.1094035E+00
          2   -1    0    0  502    0  0.00000000000E+00  0.00000000000E+00  0.16346857782E+04  0.16346857782E+04  0.00000000000E+00 0. -1.
         -2   -1    0    0    0  501 -0.00000000000E+00 -0.00000000000E+00 -0.63534515593E+02  0.63534515593E+02  0.00000000000E+00 0.  1.
          6    1    1    2  502    0 -0.15648364354E+03 -0.16138740941E+03  0.11915514357E+04  0.12247088840E+04  0.17200000000E+03 0. -1.
         -6    1    1    2    0  501  0.15648364354E+03  0.16138740941E+03  0.37959982683E+03  0.47351140973E+03  0.17200000000E+03 0.  1.
</event>
<event>
 4    1  0.3169553E-002  0.2201947E+03  0.7818608E-02  0.1133738E+00
         -1   -1    0    0    0  501 -0.00000000000E+00  0.00000000000E+00  0.21109096736E+03  0.21109096736E+03  0.00000000000E+00 0.  1.
          1   -1    0    0  502    0  0.00000000000E+00 -0.00000000000E+00 -0.33048174817E+03  0.33048174817E+03  0.00000000000E+00 0. -1.
          6    1    1    2  502    0  0.65593395330E+02  0.12082725160E+03 -0.20923737583E+03  0.30375318547E+03  0.17200000000E+03 0. -1.
         -6    1    1    2    0  501 -0.65593395330E+02 -0.12082725160E+03  0.89846595021E+02  0.23781953006E+03  0.17200000000E+03 0.  1.
</event>
<event>
 4    1  0.3169553E-002  0.1841774E+03  0.7818608E-02  0.1163820E+00
         -3   -1    0    0    0  501 -0.00000000000E+00  0.00000000000E+00  0.15758531269E+03  0.15758531269E+03  0.00000000000E+00 0.  1.
          3   -1    0    0  502    0  0.00000000000E+00 -0.00000000000E+00 -0.10038310311E+04  0.10038310311E+04  0.00000000000E+00 0. -1.
          6    1    1    2  502    0  0.63331058493E+02 -0.18069404085E+02 -0.93781660553E+03  0.95573077378E+03  0.17200000000E+03 0. -1.
         -6    1    1    2    0  501 -0.63331058493E+02  0.18069404085E+02  0.91570887135E+02  0.20568557000E+03  0.17200000000E+03 0.  1.
</event>
<event>
 4    1  0.3169553E-002  0.1836307E+03  0.7818608E-02  0.1164335E+00
          1   -1    0    0  502    0  0.00000000000E+00  0.00000000000E+00  0.14188814639E+04  0.14188814639E+04  0.00000000000E+00 0. -1.
         -1   -1    0    0    0  501 -0.00000000000E+00 -0.00000000000E+00 -0.24314948707E+02  0.24314948707E+02  0.00000000000E+00 0.  1.
          6    1    1    2  502    0  0.96641003107E+01  0.63583277208E+02  0.80577030568E+03  0.82642967849E+03  0.17200000000E+03 0. -1.
         -6    1    1    2    0  501 -0.96641003107E+01 -0.63583277208E+02  0.58879620952E+03  0.61676673413E+03  0.17200000000E+03 0.  1.
</event>
<event>
 4    1  0.3169553E-002  0.1843359E+03  0.7818608E-02  0.1163672E+00
         -2   -1    0    0    0  501 -0.00000000000E+00  0.00000000000E+00  0.26501650233E+03  0.26501650233E+03  0.00000000000E+00 0.  1.
          2   -1    0    0  502    0  0.00000000000E+00 -0.00000000000E+00 -0.12938505004E+03  0.12938505004E+03  0.00000000000E+00 0. -1.
          6    1    1    2  502    0 -0.28513852570E+02 -0.59855398551E+02  0.86549954269E+02  0.20364332326E+03  0.17200000000E+03 0.  1.
         -6    1    1    2    0  501  0.28513852570E+02  0.59855398551E+02  0.49081498029E+02  0.19075822911E+03  0.17200000000E+03 0. -1.
</event>
<event>
 4    1  0.3169553E-002  0.1786479E+03  0.7818608E-02  0.1169118E+00
          2   -1    0    0  502    0  0.00000000000E+00  0.00000000000E+00  0.37634559131E+02  0.37634559131E+02  0.00000000000E+00 0. -1.
         -2   -1    0    0    0  501 -0.00000000000E+00 -0.00000000000E+00 -0.91679409072E+03  0.91679409072E+03  0.00000000000E+00 0.  1.
          6    1    1    2  502    0  0.32630985555E+02  0.35585080355E+02 -0.30888099227E+03  0.35682285037E+03  0.17200000000E+03 0. -1.
         -6    1    1    2    0  501 -0.32630985555E+02 -0.35585080355E+02 -0.57027853932E+03  0.59760579948E+03  0.17200000000E+03 0.  1.
</event>
<event>
 4    1  0.3169553E-002  0.2086054E+03  0.7818608E-02  0.1142675E+00
         -2   -1    0    0    0  501 -0.00000000000E+00  0.00000000000E+00  0.10409180843E+03  0.10409180843E+03  0.00000000000E+00 0.  1.
          2   -1    0    0  502    0  0.00000000000E+00 -0.00000000000E+00 -0.11346002695E+04  0.11346002695E+04  0.00000000000E+00 0. -1.
          6    1    1    2  502    0  0.11736186459E+02 -0.11744990185E+03 -0.10074449273E+04  0.10288155807E+04  0.17200000000E+03 0. -1.
         -6    1    1    2    0  501 -0.11736186459E+02  0.11744990185E+03 -0.23063533808E+02  0.20987649728E+03  0.17200000000E+03 0.  1.
</event>
<event>
 4    1  0.3169553E-002  0.3238890E+03  0.7818608E-02  0.1073873E+00
          2   -1    0    0  502    0  0.00000000000E+00  0.00000000000E+00  0.37020347295E+03  0.37020347295E+03  0.00000000000E+00 0. -1.
         -2   -1    0    0    0  501 -0.00000000000E+00 -0.00000000000E+00 -0.29932986013E+03  0.29932986013E+03  0.00000000000E+00 0.  1.
          6    1    1    2  502    0  0.25703515845E+03 -0.96192715619E+02 -0.41866514526E+02  0.32658370482E+03  0.17200000000E+03 0. -1.
         -6    1    1    2    0  501 -0.25703515845E+03  0.96192715619E+02  0.11274012735E+03  0.34294962827E+03  0.17200000000E+03 0. -1.
</event>
<event>
 4    1  0.3169553E-002  0.8030392E+03  0.7818608E-02  0.9555628E-01
         -2   -1    0    0    0  501 -0.00000000000E+00  0.00000000000E+00  0.41808897799E+03  0.41808897799E+03  0.00000000000E+00 0.  1.
          2   -1    0    0  502    0  0.00000000000E+00 -0.00000000000E+00 -0.16192437206E+04  0.16192437206E+04  0.00000000000E+00 0. -1.
          6    1    1    2  502    0  0.61264010554E+03  0.48985717512E+03 -0.82244923094E+03  0.11494758320E+04  0.17200000000E+03 0. -1.
         -6    1    1    2    0  501 -0.61264010554E+03 -0.48985717512E+03 -0.37870551166E+03  0.88785686655E+03  0.17200000000E+03 0.  1.
</event>
<event>
 4    1  0.3169553E-002  0.2333143E+03  0.7818608E-02  0.1124329E+00
          1   -1    0    0  502    0  0.00000000000E+00  0.00000000000E+00  0.12434822993E+04  0.12434822993E+04  0.00000000000E+00 0. -1.
         -1   -1    0    0    0  501 -0.00000000000E+00 -0.00000000000E+00 -0.49426936770E+02  0.49426936770E+02  0.00000000000E+00 0.  1.
          6    1    1    2  502    0 -0.15708318136E+03 -0.13282597427E+02  0.81559713429E+03  0.84831258315E+03  0.17200000000E+03 0. -1.
         -6    1    1    2    0  501  0.15708318136E+03  0.13282597427E+02  0.37845822819E+03  0.44459665288E+03  0.17200000000E+03 0.  1.
</event>
<event>
 4    1  0.3169553E-002  0.2601303E+03  0.7818608E-02  0.1107065E+00
         -2   -1    0    0    0  501 -0.00000000000E+00  0.00000000000E+00  0.33752093357E+02  0.33752093357E+02  0.00000000000E+00 0.  1.
          2   -1    0    0  502    0  0.00000000000E+00 -0.00000000000E+00 -0.21513624876E+04  0.21513624876E+04  0.00000000000E+00 0. -1.
          6    1    1    2  502    0 -0.71530782089E+02  0.18156848072E+03 -0.13439266814E+04  0.13688705895E+04  0.17200000000E+03 0. -1.
         -6    1    1    2    0  501  0.71530782089E+02 -0.18156848072E+03 -0.77368371287E+03  0.81624399143E+03  0.17200000000E+03 0.  1.
</event>
<event>
 4    1  0.3169553E-002  0.2345827E+03  0.7818608E-02  0.1123455E+00
         -2   -1    0    0    0  501 -0.00000000000E+00  0.00000000000E+00  0.58301426432E+03  0.58301426432E+03  0.00000000000E+00 0.  1.
          2   -1    0    0  502    0  0.00000000000E+00 -0.00000000000E+00 -0.98012907745E+02  0.98012907745E+02  0.00000000000E+00 0. -1.
          6    1    1    2  502    0 -0.14617908722E+03  0.63849271652E+02  0.17700808653E+03  0.29387228132E+03  0.17200000000E+03 0. -1.
         -6    1    1    2    0  501  0.14617908722E+03 -0.63849271652E+02  0.30799327005E+03  0.38715489074E+03  0.17200000000E+03 0. -1.
</event>
<event>
 4    1  0.3169553E-002  0.1727605E+03  0.7818608E-02  0.1174999E+00
          2   -1    0    0  502    0  0.00000000000E+00  0.00000000000E+00  0.75650963576E+03  0.75650963576E+03  0.00000000000E+00 0. -1.
         -2   -1    0    0    0  501 -0.00000000000E+00 -0.00000000000E+00 -0.48215185454E+02  0.48215185454E+02  0.00000000000E+00 0.  1.
          6    1    1    2  502    0 -0.94919974276E+01 -0.13117916659E+02  0.52567904800E+03  0.55333953344E+03  0.17200000000E+03 0. -1.
         -6    1    1    2    0  501  0.94919974276E+01  0.13117916659E+02  0.18261540230E+03  0.25138528777E+03  0.17200000000E+03 0.  1.
</event>
<event>
 4    1  0.3169553E-002  0.7369515E+03  0.7818608E-02  0.9656047E-01
         -2   -1    0    0    0  501 -0.00000000000E+00  0.00000000000E+00  0.13530129737E+03  0.13530129737E+03  0.00000000000E+00 0.  1.
          2   -1    0    0  502    0  0.00000000000E+00 -0.00000000000E+00 -0.49864780577E+04  0.49864780577E+04  0.00000000000E+00 0. -1.
          6    1    1    2  502    0  0.71543799902E+03  0.40766948771E+02 -0.35565217250E+04  0.36320716203E+04  0.17200000000E+03 0. -1.
         -6    1    1    2    0  501 -0.71543799902E+03 -0.40766948771E+02 -0.12946550353E+04  0.14897077348E+04  0.17200000000E+03 0.  1.
</event>
<event>
 4    1  0.3169553E-002  0.1806086E+03  0.7818608E-02  0.1167215E+00
          1   -1    0    0  502    0  0.00000000000E+00  0.00000000000E+00  0.17101717999E+03  0.17101717999E+03  0.00000000000E+00 0. -1.
         -1   -1    0    0    0  501 -0.00000000000E+00 -0.00000000000E+00 -0.28490348863E+03  0.28490348863E+03  0.00000000000E+00 0.  1.
          6    1    1    2  502    0 -0.10663949870E+02  0.54053202147E+02  0.74112683129E+02  0.19522335488E+03  0.17200000000E+03 0. -1.
         -6    1    1    2    0  501  0.10663949870E+02 -0.54053202147E+02 -0.18799899177E+03  0.26069731375E+03  0.17200000000E+03 0.  1.
</event>
<event>
 4    1  0.3169553E-002  0.1892508E+03  0.7818608E-02  0.1159139E+00
         -2   -1    0    0    0  501 -0.00000000000E+00  0.00000000000E+00  0.74365412474E+02  0.74365412474E+02  0.00000000000E+00 0.  1.
          2   -1    0    0  502    0  0.00000000000E+00 -0.00000000000E+00 -0.64629854485E+03  0.64629854485E+03  0.00000000000E+00 0. -1.
          6    1    1    2  502    0 -0.63416697025E+02 -0.47012544894E+02 -0.46785494850E+03  0.50468218681E+03  0.17200000000E+03 0. -1.
         -6    1    1    2    0  501  0.63416697025E+02  0.47012544894E+02 -0.10407818388E+03  0.21598177052E+03  0.17200000000E+03 0.  1.
</event>
<event>
 4    1  0.3169553E-002  0.1786262E+03  0.7818608E-02  0.1169139E+00
          4   -1    0    0  502    0  0.00000000000E+00  0.00000000000E+00  0.20071156979E+03  0.20071156979E+03  0.00000000000E+00 0. -1.
         -4   -1    0    0    0  501 -0.00000000000E+00 -0.00000000000E+00 -0.39923338724E+03  0.39923338724E+03  0.00000000000E+00 0.  1.
          6    1    1    2  502    0 -0.48144266732E+02  0.23379133373E+01  0.13344681647E+03  0.22296948016E+03  0.17200000000E+03 0. -1.
         -6    1    1    2    0  501  0.48144266732E+02 -0.23379133373E+01 -0.33196863392E+03  0.37697547687E+03  0.17200000000E+03 0.  1.
</event>
<event>
 4    1  0.3169553E-002  0.2238833E+03  0.7818608E-02  0.1131021E+00
         -2   -1    0    0    0  501 -0.00000000000E+00  0.00000000000E+00  0.10080793444E+03  0.10080793444E+03  0.00000000000E+00 0.  1.
          2   -1    0    0  502    0  0.00000000000E+00 -0.00000000000E+00 -0.10489963819E+04  0.10489963819E+04  0.00000000000E+00 0. -1.
          6    1    1    2  502    0 -0.26188958300E+02  0.14090378859E+03 -0.89104849498E+03  0.91874433853E+03  0.17200000000E+03 0. -1.
         -6    1    1    2    0  501  0.26188958300E+02 -0.14090378859E+03 -0.57139952481E+02  0.23105997781E+03  0.17200000000E+03 0.  1.
</event>
<event>
 4    1  0.3169553E-002  0.1744824E+03  0.7818608E-02  0.1173252E+00
          1   -1    0    0  502    0  0.00000000000E+00  0.00000000000E+00  0.80699328695E+02  0.80699328695E+02  0.00000000000E+00 0. -1.
         -1   -1    0    0    0  501 -0.00000000000E+00 -0.00000000000E+00 -0.42146083261E+03  0.42146083261E+03  0.00000000000E+00 0.  1.
          6    1    1    2  502    0 -0.18568134830E+02 -0.22700813387E+02 -0.89063835018E+02  0.19589913034E+03  0.17200000000E+03 0. -1.
         -6    1    1    2    0  501  0.18568134830E+02  0.22700813387E+02 -0.25169766889E+03  0.30626103096E+03  0.17200000000E+03 0.  1.
</event>
<event>
 4    1  0.3169553E-002  0.1946537E+03  0.7818608E-02  0.1154330E+00
         -1   -1    0    0    0  501 -0.00000000000E+00  0.00000000000E+00  0.10651964679E+03  0.10651964679E+03  0.00000000000E+00 0.  1.
          1   -1    0    0  502    0  0.00000000000E+00 -0.00000000000E+00 -0.87000580407E+03  0.87000580407E+03  0.00000000000E+00 0. -1.
          6    1    1    2  502    0 -0.98693860544E+01  0.90601713084E+02 -0.75714725428E+03  0.78176853343E+03  0.17200000000E+03 0. -1.
         -6    1    1    2    0  501  0.98693860544E+01 -0.90601713084E+02 -0.63389029936E+01  0.19475691743E+03  0.17200000000E+03 0.  1.
</event>
<event>
 4    1  0.3169553E-002  0.2101615E+03  0.7818608E-02  0.1141438E+00
          2   -1    0    0  502    0  0.00000000000E+00  0.00000000000E+00  0.48260944756E+03  0.48260944756E+03  0.00000000000E+00 0. -1.
         -2   -1    0    0    0  501 -0.00000000000E+00 -0.00000000000E+00 -0.92349241958E+02  0.92349241958E+02  0.00000000000E+00 0.  1.
          6    1    1    2  502    0 -0.11401987870E+03  0.39790775698E+02  0.16786896074E+03  0.26897551292E+03  0.17200000000E+03 0.  1.
         -6    1    1    2    0  501  0.11401987870E+03 -0.39790775698E+02  0.22239124486E+03  0.30598317660E+03  0.17200000000E+03 0. -1.
</event>
<event>
 4    1  0.3169553E-002  0.2074886E+03  0.7818608E-02  0.1143570E+00
          2   -1    0    0  502    0  0.00000000000E+00  0.00000000000E+00  0.71401445474E+03  0.71401445474E+03  0.00000000000E+00 0. -1.
         -2   -1    0    0    0  501 -0.00000000000E+00 -0.00000000000E+00 -0.60379985933E+02  0.60379985933E+02  0.00000000000E+00 0.  1.
          6    1    1    2  502    0 -0.11478128554E+03 -0.17110288480E+02  0.34134320542E+03  0.39945799450E+03  0.17200000000E+03 0.  1.
         -6    1    1    2    0  501  0.11478128554E+03  0.17110288480E+02  0.31229126338E+03  0.37493644617E+03  0.17200000000E+03 0. -1.
</event>
<event>
 4    1  0.3169553E-002  0.3018056E+03  0.7818608E-02  0.1084341E+00
          2   -1    0    0  502    0  0.00000000000E+00  0.00000000000E+00  0.76522156113E+03  0.76522156113E+03  0.00000000000E+00 0. -1.
         -2   -1    0    0    0  501 -0.00000000000E+00 -0.00000000000E+00 -0.18128162261E+03  0.18128162261E+03  0.00000000000E+00 0.  1.
          6    1    1    2  502    0 -0.24752526136E+03 -0.15293445778E+02  0.56928917408E+03  0.64434215152E+03  0.17200000000E+03 0. -1.
         -6    1    1    2    0  501  0.24752526136E+03  0.15293445778E+02  0.14650764438E+02  0.30216103222E+03  0.17200000000E+03 0.  1.
</event>
<event>
 4    1  0.3169553E-002  0.1802735E+03  0.7818608E-02  0.1167539E+00
          1   -1    0    0  502    0  0.00000000000E+00  0.00000000000E+00  0.61770731567E+03  0.61770731567E+03  0.00000000000E+00 0. -1.
         -1   -1    0    0    0  501 -0.00000000000E+00 -0.00000000000E+00 -0.23478446627E+03  0.23478446627E+03  0.00000000000E+00 0.  1.
          6    1    1    2  502    0 -0.38648288192E+02  0.37693876398E+02  0.56692470575E+03  0.59489674776E+03  0.17200000000E+03 0. -1.
         -6    1    1    2    0  501  0.38648288192E+02 -0.37693876398E+02 -0.18400185635E+03  0.25759503419E+03  0.17200000000E+03 0.  1.
</event>
<event>
 4    1  0.3169553E-002  0.1803950E+03  0.7818608E-02  0.1167421E+00
          2   -1    0    0  502    0  0.00000000000E+00  0.00000000000E+00  0.83577989305E+03  0.83577989305E+03  0.00000000000E+00 0. -1.
         -2   -1    0    0    0  501 -0.00000000000E+00 -0.00000000000E+00 -0.39338952386E+02  0.39338952386E+02  0.00000000000E+00 0.  1.
          6    1    1    2  502    0 -0.20863194200E+01  0.54350881618E+02  0.35396516894E+03  0.39728291164E+03  0.17200000000E+03 0.  1.
         -6    1    1    2    0  501  0.20863194200E+01 -0.54350881618E+02  0.44247577173E+03  0.47783593380E+03  0.17200000000E+03 0. -1.
</event>
<event>
 4    1  0.3169553E-002  0.2463839E+03  0.7818608E-02  0.1115612E+00
          2   -1    0    0  502    0  0.00000000000E+00  0.00000000000E+00  0.18071637317E+04  0.18071637317E+04  0.00000000000E+00 0. -1.
         -2   -1    0    0    0  501 -0.00000000000E+00 -0.00000000000E+00 -0.39553370087E+02  0.39553370087E+02  0.00000000000E+00 0.  1.
          6    1    1    2  502    0 -0.12930926664E+03  0.12000050540E+03  0.12422948043E+04  0.12664917641E+04  0.17200000000E+03 0. -1.
         -6    1    1    2    0  501  0.12930926664E+03 -0.12000050540E+03  0.52531555727E+03  0.58022533765E+03  0.17200000000E+03 0.  1.
</event>
<event>
 4    1  0.3169553E-002  0.1763674E+03  0.7818608E-02  0.1171366E+00
          1   -1    0    0  502    0  0.00000000000E+00  0.00000000000E+00  0.27308997869E+03  0.27308997869E+03  0.00000000000E+00 0. -1.
         -1   -1    0    0    0  501 -0.00000000000E+00 -0.00000000000E+00 -0.11692975974E+03  0.11692975974E+03  0.00000000000E+00 0.  1.
          6    1    1    2  502    0 -0.35237017770E+02 -0.16727315720E+02  0.46699137890E+02  0.18244522464E+03  0.17200000000E+03 0. -1.
         -6    1    1    2    0  501  0.35237017770E+02  0.16727315720E+02  0.10946108106E+03  0.20757451380E+03  0.17200000000E+03 0. -1.
</event>
<event>
 4    1  0.3169553E-002  0.5185290E+03  0.7818608E-02  0.1009053E+00
          1   -1    0    0  502    0  0.00000000000E+00  0.00000000000E+00  0.11291957861E+04  0.11291957861E+04  0.00000000000E+00 0. -1.
         -1   -1    0    0    0  501 -0.00000000000E+00 -0.00000000000E+00 -0.38389847366E+03  0.38389847366E+03  0.00000000000E+00 0.  1.
          6    1    1    2  502    0 -0.33794870711E+03  0.35366503634E+03  0.83886777433E+03  0.98619036163E+03  0.17200000000E+03 0. -1.
         -6    1    1    2    0  501  0.33794870711E+03 -0.35366503634E+03 -0.93570461850E+02  0.52690389816E+03  0.17200000000E+03 0.  1.
</event>
<event>
 4    1  0.3169553E-002  0.3050875E+03  0.7818608E-02  0.1082725E+00
         -2   -1    0    0    0  501 -0.00000000000E+00  0.00000000000E+00  0.30860308671E+03  0.30860308671E+03  0.00000000000E+00 0.  1.
          2   -1    0    0  502    0  0.00000000000E+00 -0.00000000000E+00 -0.35422496816E+03  0.35422496816E+03  0.00000000000E+00 0. -1.
          6    1    1    2  502    0 -0.12850914669E+03  0.21674824927E+03 -0.15053642771E+03  0.34020526218E+03  0.17200000000E+03 0. -1.
         -6    1    1    2    0  501  0.12850914669E+03 -0.21674824927E+03  0.10491454626E+03  0.32262279269E+03  0.17200000000E+03 0.  1.
</event>
<event>
 4    1  0.3169553E-002  0.1979274E+03  0.7818608E-02  0.1151500E+00
         -1   -1    0    0    0  501 -0.00000000000E+00  0.00000000000E+00  0.24207598459E+03  0.24207598459E+03  0.00000000000E+00 0.  1.
          1   -1    0    0  502    0  0.00000000000E+00 -0.00000000000E+00 -0.20113125005E+03  0.20113125005E+03  0.00000000000E+00 0. -1.
          6    1    1    2  502    0  0.96403485409E+02  0.17251695224E+02 -0.77485213440E+02  0.21255401970E+03  0.17200000000E+03 0. -1.
         -6    1    1    2    0  501 -0.96403485409E+02 -0.17251695224E+02  0.11842994798E+03  0.23065321495E+03  0.17200000000E+03 0. -1.
</event>
<event>
 4    1  0.3169553E-002  0.2031494E+03  0.7818608E-02  0.1147109E+00
          1   -1    0    0  502    0  0.00000000000E+00  0.00000000000E+00  0.10023123906E+04  0.10023123906E+04  0.00000000000E+00 0. -1.
         -1   -1    0    0    0  501 -0.00000000000E+00 -0.00000000000E+00 -0.76862157814E+02  0.76862157814E+02  0.00000000000E+00 0.  1.
          6    1    1    2  502    0  0.64661319445E+02 -0.86629085584E+02  0.83040053721E+03  0.85488872779E+03  0.17200000000E+03 0. -1.
         -6    1    1    2    0  501 -0.64661319445E+02  0.86629085584E+02  0.95049695566E+02  0.22428582061E+03  0.17200000000E+03 0.  1.
</event>
<event>
 4    1  0.3169553E-002  0.3019253E+03  0.7818608E-02  0.1084282E+00
          2   -1    0    0  502    0  0.00000000000E+00  0.00000000000E+00  0.12098881651E+04  0.12098881651E+04  0.00000000000E+00 0. -1.
         -2   -1    0    0    0  501 -0.00000000000E+00 -0.00000000000E+00 -0.15216958395E+03  0.15216958395E+03  0.00000000000E+00 0.  1.
          6    1    1    2  502    0 -0.20500592774E+03  0.13981212729E+03  0.10127553518E+04  0.10568028501E+04  0.17200000000E+03 0. -1.
         -6    1    1    2    0  501  0.20500592774E+03 -0.13981212729E+03  0.44963229348E+02  0.30525489896E+03  0.17200000000E+03 0.  1.
</event>
<event>
 4    1  0.3169553E-002  0.2112401E+03  0.7818608E-02  0.1140588E+00
          2   -1    0    0  502    0  0.00000000000E+00  0.00000000000E+00  0.74579591445E+02  0.74579591445E+02  0.00000000000E+00 0. -1.
         -2   -1    0    0    0  501 -0.00000000000E+00 -0.00000000000E+00 -0.60618565539E+03  0.60618565539E+03  0.00000000000E+00 0.  1.
          6    1    1    2  502    0 -0.88066678920E+02 -0.85338465048E+02 -0.30457849864E+03  0.37066218500E+03  0.17200000000E+03 0.  1.
         -6    1    1    2    0  501  0.88066678920E+02  0.85338465048E+02 -0.22702756530E+03  0.31010306183E+03  0.17200000000E+03 0.  1.
</event>
<event>
 4    1  0.3169553E-002  0.2483001E+03  0.7818608E-02  0.1114384E+00
          1   -1    0    0  502    0  0.00000000000E+00  0.00000000000E+00  0.16559973135E+04  0.16559973135E+04  0.00000000000E+00 0. -1.
         -1   -1    0    0    0  501 -0.00000000000E+00 -0.00000000000E+00 -0.55663880599E+02  0.55663880599E+02  0.00000000000E+00 0.  1.
          6    1    1    2  502    0  0.16668016513E+03 -0.65472624614E+02  0.12926690602E+04  0.13163002093E+04  0.17200000000E+03 0. -1.
         -6    1    1    2    0  501 -0.16668016513E+03  0.65472624614E+02  0.30766437278E+03  0.39536098480E+03  0.17200000000E+03 0.  1.
</event>
<event>
 4    1  0.3169553E-002  0.3463483E+03  0.7818608E-02  0.1064124E+00
         -2   -1    0    0    0  501 -0.00000000000E+00  0.00000000000E+00  0.43169052570E+03  0.43169052570E+03  0.00000000000E+00 0.  1.
          2   -1    0    0  502    0  0.00000000000E+00 -0.00000000000E+00 -0.28058016943E+03  0.28058016943E+03  0.00000000000E+00 0. -1.
          6    1    1    2  502    0  0.27174612235E+02  0.29939054075E+03  0.40603359934E+02  0.34872021489E+03  0.17200000000E+03 0. -1.
         -6    1    1    2    0  501 -0.27174612235E+02 -0.29939054075E+03  0.11050699633E+03  0.36355048023E+03  0.17200000000E+03 0.  1.
</event>
<event>
 4    1  0.3169553E-002  0.1795617E+03  0.7818608E-02  0.1168228E+00
          2   -1    0    0  502    0  0.00000000000E+00  0.00000000000E+00  0.31935243105E+03  0.31935243105E+03  0.00000000000E+00 0. -1.
         -2   -1    0    0    0  501 -0.00000000000E+00 -0.00000000000E+00 -0.10696690989E+03  0.10696690989E+03  0.00000000000E+00 0.  1.
          6    1    1    2  502    0 -0.38029215114E+02  0.34816415938E+02  0.55687116065E+02  0.18799856094E+03  0.17200000000E+03 0.  1.
         -6    1    1    2    0  501  0.38029215114E+02 -0.34816415938E+02  0.15669840510E+03  0.23832078000E+03  0.17200000000E+03 0. -1.
</event>
<event>
 4    1  0.3169553E-002  0.1753948E+03  0.7818608E-02  0.1172336E+00
         -2   -1    0    0    0  501 -0.00000000000E+00  0.00000000000E+00  0.17082607583E+03  0.17082607583E+03  0.00000000000E+00 0.  1.
          2   -1    0    0  502    0  0.00000000000E+00 -0.00000000000E+00 -0.18618131094E+03  0.18618131094E+03  0.00000000000E+00 0. -1.
          6    1    1    2  502    0 -0.30210456640E+02 -0.16329352367E+02  0.24621503537E+02  0.17711447675E+03  0.17200000000E+03 0.  1.
         -6    1    1    2    0  501  0.30210456640E+02  0.16329352367E+02 -0.39976738649E+02  0.17989291001E+03  0.17200000000E+03 0. -1.
</event>
<event>
 4    1  0.3169553E-002  0.1853457E+03  0.7818608E-02  0.1162728E+00
         -2   -1    0    0    0  501 -0.00000000000E+00  0.00000000000E+00  0.92661900321E+02  0.92661900321E+02  0.00000000000E+00 0.  1.
          2   -1    0    0  502    0  0.00000000000E+00 -0.00000000000E+00 -0.97821720706E+03  0.97821720706E+03  0.00000000000E+00 0. -1.
          6    1    1    2  502    0  0.42736815249E+02 -0.54245528859E+02 -0.86472627246E+03  0.88436674466E+03  0.17200000000E+03 0. -1.
         -6    1    1    2    0  501 -0.42736815249E+02  0.54245528859E+02 -0.20829034281E+02  0.18651236272E+03  0.17200000000E+03 0.  1.
</event>
<event>
 4    1  0.3169553E-002  0.1727837E+03  0.7818608E-02  0.1174976E+00
          2   -1    0    0  502    0  0.00000000000E+00  0.00000000000E+00  0.66157676691E+03  0.66157676691E+03  0.00000000000E+00 0. -1.
         -2   -1    0    0    0  501 -0.00000000000E+00 -0.00000000000E+00 -0.49761696120E+02  0.49761696120E+02  0.00000000000E+00 0.  1.
          6    1    1    2  502    0  0.14082027888E+02 -0.84793749254E+01  0.41446606898E+03  0.44903933641E+03  0.17200000000E+03 0. -1.
         -6    1    1    2    0  501 -0.14082027888E+02  0.84793749254E+01  0.19734900180E+03  0.26229912661E+03  0.17200000000E+03 0.  1.
</event>
<event>
 4    1  0.3169553E-002  0.2102480E+03  0.7818608E-02  0.1141370E+00
          1   -1    0    0  502    0  0.00000000000E+00  0.00000000000E+00  0.29772451349E+03  0.29772451349E+03  0.00000000000E+00 0. -1.
         -1   -1    0    0    0  501 -0.00000000000E+00 -0.00000000000E+00 -0.15264262509E+03  0.15264262509E+03  0.00000000000E+00 0.  1.
          6    1    1    2  502    0 -0.10563842735E+03 -0.58828250776E+02  0.10975562291E+03  0.23717195699E+03  0.17200000000E+03 0.  1.
         -6    1    1    2    0  501  0.10563842735E+03  0.58828250776E+02  0.35326265495E+02  0.21319518159E+03  0.17200000000E+03 0.  1.
</event>
<event>
 4    1  0.3169553E-002  0.2421526E+03  0.7818608E-02  0.1118367E+00
          1   -1    0    0  502    0  0.00000000000E+00  0.00000000000E+00  0.48686060900E+03  0.48686060900E+03  0.00000000000E+00 0. -1.
         -1   -1    0    0    0  501 -0.00000000000E+00 -0.00000000000E+00 -0.15681714924E+03  0.15681714924E+03  0.00000000000E+00 0.  1.
          6    1    1    2  502    0  0.24567932045E+02 -0.16867212455E+03  0.10014685084E+02  0.24235957337E+03  0.17200000000E+03 0. -1.
         -6    1    1    2    0  501 -0.24567932045E+02  0.16867212455E+03  0.32002877468E+03  0.40131818487E+03  0.17200000000E+03 0. -1.
</event>
<event>
 4    1  0.3169553E-002  0.2961272E+03  0.7818608E-02  0.1087193E+00
          2   -1    0    0  502    0  0.00000000000E+00  0.00000000000E+00  0.37920615345E+04  0.37920615345E+04  0.00000000000E+00 0. -1.
         -2   -1    0    0    0  501 -0.00000000000E+00 -0.00000000000E+00 -0.28899455932E+02  0.28899455932E+02  0.00000000000E+00 0.  1.
          6    1    1    2  502    0 -0.69953145951E+02 -0.23068138132E+03  0.10275884333E+04  0.10694060644E+04  0.17200000000E+03 0.  1.
         -6    1    1    2    0  501  0.69953145951E+02  0.23068138132E+03  0.27355736453E+04  0.27515549260E+04  0.17200000000E+03 0. -1.
</event>
<event>
 4    1  0.3169553E-002  0.2140445E+03  0.7818608E-02  0.1138403E+00
          1   -1    0    0  502    0  0.00000000000E+00  0.00000000000E+00  0.92067209954E+03  0.92067209954E+03  0.00000000000E+00 0. -1.
         -1   -1    0    0    0  501 -0.00000000000E+00 -0.00000000000E+00 -0.86402922112E+02  0.86402922112E+02  0.00000000000E+00 0.  1.
          6    1    1    2  502    0 -0.18177546089E+02 -0.12609760301E+03  0.74503903931E+03  0.77517623723E+03  0.17200000000E+03 0. -1.
         -6    1    1    2    0  501  0.18177546089E+02  0.12609760301E+03  0.89230138115E+02  0.23189878442E+03  0.17200000000E+03 0.  1.
</event>
<event>
 4    1  0.3169553E-002  0.2010461E+03  0.7818608E-02  0.1148859E+00
         -2   -1    0    0    0  501 -0.00000000000E+00  0.00000000000E+00  0.36889825912E+02  0.36889825912E+02  0.00000000000E+00 0.  1.
          2   -1    0    0  502    0  0.00000000000E+00 -0.00000000000E+00 -0.13756577313E+04  0.13756577313E+04  0.00000000000E+00 0. -1.
          6    1    1    2  502    0 -0.67999398875E+02 -0.78813715429E+02 -0.98800762822E+03  0.10082552224E+04  0.17200000000E+03 0. -1.
         -6    1    1    2    0  501  0.67999398875E+02  0.78813715429E+02 -0.35076027720E+03  0.40429233489E+03  0.17200000000E+03 0.  1.
</event>
<event>
 4    1  0.3169553E-002  0.1992333E+03  0.7818608E-02  0.1150388E+00
          1   -1    0    0  502    0  0.00000000000E+00  0.00000000000E+00  0.81478516289E+03  0.81478516289E+03  0.00000000000E+00 0. -1.
         -1   -1    0    0    0  501 -0.00000000000E+00 -0.00000000000E+00 -0.50458798257E+02  0.50458798257E+02  0.00000000000E+00 0.  1.
          6    1    1    2  502    0  0.10042790941E+03  0.49115150276E+01  0.30178481508E+03  0.36161853186E+03  0.17200000000E+03 0.  1.
         -6    1    1    2    0  501 -0.10042790941E+03 -0.49115150276E+01  0.46254154955E+03  0.50362542929E+03  0.17200000000E+03 0.  1.
</event>
<event>
 4    1  0.3169553E-002  0.2984607E+03  0.7818608E-02  0.1086013E+00
         -1   -1    0    0    0  501 -0.00000000000E+00  0.00000000000E+00  0.46552719447E+03  0.46552719447E+03  0.00000000000E+00 0.  1.
          1   -1    0    0  502    0  0.00000000000E+00 -0.00000000000E+00 -0.26654648232E+03  0.26654648232E+03  0.00000000000E+00 0. -1.
          6    1    1    2  502    0  0.35763265155E+02 -0.24127940248E+03  0.29390826070E+03  0.41888044464E+03  0.17200000000E+03 0. -1.
         -6    1    1    2    0  501 -0.35763265155E+02  0.24127940248E+03 -0.94927548544E+02  0.31319323215E+03  0.17200000000E+03 0.  1.
</event>
<event>
 4    1  0.3169553E-002  0.2458832E+03  0.7818608E-02  0.1115935E+00
         -1   -1    0    0    0  501 -0.00000000000E+00  0.00000000000E+00  0.71366734983E+03  0.71366734983E+03  0.00000000000E+00 0.  1.
          1   -1    0    0  502    0  0.00000000000E+00 -0.00000000000E+00 -0.99441603853E+02  0.99441603853E+02  0.00000000000E+00 0. -1.
          6    1    1    2  502    0 -0.13478912984E+03 -0.11272285420E+03  0.15066076963E+03  0.28836993409E+03  0.17200000000E+03 0. -1.
         -6    1    1    2    0  501  0.13478912984E+03  0.11272285420E+03  0.46356497635E+03  0.52473901959E+03  0.17200000000E+03 0.  1.
</event>
<event>
 4    1  0.3169553E-002  0.4903850E+03  0.7818608E-02  0.1016319E+00
         -2   -1    0    0    0  501 -0.00000000000E+00  0.00000000000E+00  0.39834269353E+03  0.39834269353E+03  0.00000000000E+00 0.  1.
          2   -1    0    0  502    0  0.00000000000E+00 -0.00000000000E+00 -0.85809893240E+03  0.85809893240E+03  0.00000000000E+00 0. -1.
          6    1    1    2  502    0  0.40839445234E+03 -0.21001766282E+03 -0.57194076165E+03  0.75338813518E+03  0.17200000000E+03 0.  1.
         -6    1    1    2    0  501 -0.40839445234E+03  0.21001766282E+03  0.11218452278E+03  0.50305349074E+03  0.17200000000E+03 0.  1.
</event>
<event>
 4    1  0.3169553E-002  0.1816851E+03  0.7818608E-02  0.1166182E+00
          4   -1    0    0  502    0  0.00000000000E+00  0.00000000000E+00  0.48113360679E+03  0.48113360679E+03  0.00000000000E+00 0. -1.
         -4   -1    0    0    0  501 -0.00000000000E+00 -0.00000000000E+00 -0.35598902840E+03  0.35598902840E+03  0.00000000000E+00 0.  1.
          6    1    1    2  502    0  0.73920274273E+01 -0.58058784262E+02  0.43864348036E+03  0.47478159964E+03  0.17200000000E+03 0. -1.
         -6    1    1    2    0  501 -0.73920274273E+01  0.58058784262E+02 -0.31349890197E+03  0.36234103554E+03  0.17200000000E+03 0.  1.
</event>
<event>
 4    1  0.3169553E-002  0.2958396E+03  0.7818608E-02  0.1087339E+00
         -1   -1    0    0    0  501 -0.00000000000E+00  0.00000000000E+00  0.15790269368E+03  0.15790269368E+03  0.00000000000E+00 0.  1.
          1   -1    0    0  502    0  0.00000000000E+00 -0.00000000000E+00 -0.76368036468E+03  0.76368036468E+03  0.00000000000E+00 0. -1.
          6    1    1    2  502    0 -0.52950707790E+02  0.23480473781E+03 -0.54418236928E+03  0.61939930044E+03  0.17200000000E+03 0. -1.
         -6    1    1    2    0  501  0.52950707790E+02 -0.23480473781E+03 -0.61595301728E+02  0.30218375792E+03  0.17200000000E+03 0.  1.
</event>
<event>
 4    1  0.3169553E-002  0.2017082E+03  0.7818608E-02  0.1148306E+00
          2   -1    0    0  502    0  0.00000000000E+00  0.00000000000E+00  0.18886878295E+03  0.18886878295E+03  0.00000000000E+00 0. -1.
         -2   -1    0    0    0  501 -0.00000000000E+00 -0.00000000000E+00 -0.26141537100E+03  0.26141537100E+03  0.00000000000E+00 0.  1.
          6    1    1    2  502    0 -0.99278532235E+02 -0.35298112213E+02  0.58164625262E+02  0.20992690947E+03  0.17200000000E+03 0. -1.
         -6    1    1    2    0  501  0.99278532235E+02  0.35298112213E+02 -0.13071121331E+03  0.24035724448E+03  0.17200000000E+03 0. -1.
</event>
<event>
 4    1  0.3169553E-002  0.1886581E+03  0.7818608E-02  0.1159677E+00
         -2   -1    0    0    0  501 -0.00000000000E+00  0.00000000000E+00  0.67492771027E+03  0.67492771027E+03  0.00000000000E+00 0.  1.
          2   -1    0    0  502    0  0.00000000000E+00 -0.00000000000E+00 -0.54697642700E+02  0.54697642700E+02  0.00000000000E+00 0. -1.
          6    1    1    2  502    0 -0.59369931915E+02 -0.49830693376E+02  0.37923062974E+03  0.42356552899E+03  0.17200000000E+03 0.  1.
         -6    1    1    2    0  501  0.59369931915E+02  0.49830693376E+02  0.24099943783E+03  0.30605982397E+03  0.17200000000E+03 0.  1.
</event>
<event>
 4    1  0.3169553E-002  0.2409481E+03  0.7818608E-02  0.1119163E+00
         -2   -1    0    0    0  501 -0.00000000000E+00  0.00000000000E+00  0.16691267665E+03  0.16691267665E+03  0.00000000000E+00 0.  1.
          2   -1    0    0  502    0  0.00000000000E+00 -0.00000000000E+00 -0.40830869303E+03  0.40830869303E+03  0.00000000000E+00 0. -1.
          6    1    1    2  502    0 -0.16503914410E+03  0.35129441911E+02 -0.23139569965E+03  0.33406581177E+03  0.17200000000E+03 0. -1.
         -6    1    1    2    0  501  0.16503914410E+03 -0.35129441911E+02 -0.10000316730E+02  0.24115555791E+03  0.17200000000E+03 0.  1.
</event>
<event>
 4    1  0.3169553E-002  0.2392730E+03  0.7818608E-02  0.1120278E+00
         -2   -1    0    0    0  501 -0.00000000000E+00  0.00000000000E+00  0.66182358743E+02  0.66182358743E+02  0.00000000000E+00 0.  1.
          2   -1    0    0  502    0  0.00000000000E+00 -0.00000000000E+00 -0.92806418373E+03  0.92806418373E+03  0.00000000000E+00 0. -1.
          6    1    1    2  502    0 -0.13124658478E+03  0.10218553146E+03 -0.30141154669E+03  0.38483823788E+03  0.17200000000E+03 0. -1.
         -6    1    1    2    0  501  0.13124658478E+03 -0.10218553146E+03 -0.56047027830E+03  0.60940830460E+03  0.17200000000E+03 0. -1.
</event>
<event>
 4    1  0.3169553E-002  0.3226231E+03  0.7818608E-02  0.1074448E+00
          1   -1    0    0  502    0  0.00000000000E+00  0.00000000000E+00  0.22972224333E+04  0.22972224333E+04  0.00000000000E+00 0. -1.
         -1   -1    0    0    0  501 -0.00000000000E+00 -0.00000000000E+00 -0.45345572405E+02  0.45345572405E+02  0.00000000000E+00 0.  1.
          6    1    1    2  502    0 -0.23853767678E+03  0.13267043620E+03  0.11590401421E+04  0.12031042012E+04  0.17200000000E+03 0. -1.
         -6    1    1    2    0  501  0.23853767678E+03 -0.13267043620E+03  0.10928367188E+04  0.11394638045E+04  0.17200000000E+03 0. -1.
</event>
<event>
 4    1  0.3169553E-002  0.3809478E+03  0.7818608E-02  0.1050584E+00
         -2   -1    0    0    0  501 -0.00000000000E+00  0.00000000000E+00  0.21732980561E+03  0.21732980561E+03  0.00000000000E+00 0.  1.
          2   -1    0    0  502    0  0.00000000000E+00 -0.00000000000E+00 -0.18553016334E+04  0.18553016334E+04  0.00000000000E+00 0. -1.
          6    1    1    2  502    0 -0.96143865996E+02 -0.32602699477E+03 -0.16480950298E+04  0.16915491336E+04  0.17200000000E+03 0. -1.
         -6    1    1    2    0  501  0.96143865996E+02  0.32602699477E+03  0.10123201949E+02  0.38108230542E+03  0.17200000000E+03 0.  1.
</event>
<event>
 4    1  0.3169553E-002  0.2203362E+03  0.7818608E-02  0.1133633E+00
          1   -1    0    0  502    0  0.00000000000E+00  0.00000000000E+00  0.61833516182E+02  0.61833516182E+02  0.00000000000E+00 0. -1.
         -1   -1    0    0    0  501 -0.00000000000E+00 -0.00000000000E+00 -0.79979497482E+03  0.79979497482E+03  0.00000000000E+00 0.  1.
          6    1    1    2  502    0  0.11212433036E+03 -0.79951137480E+02 -0.31066665576E+03  0.38086982139E+03  0.17200000000E+03 0. -1.
         -6    1    1    2    0  501 -0.11212433036E+03  0.79951137480E+02 -0.42729480288E+03  0.48075866962E+03  0.17200000000E+03 0.  1.
</event>
<event>
 4    1  0.3169553E-002  0.6986713E+03  0.7818608E-02  0.9719507E-01
         -1   -1    0    0    0  501 -0.00000000000E+00  0.00000000000E+00  0.34102697758E+03  0.34102697758E+03  0.00000000000E+00 0.  1.
          1   -1    0    0  502    0  0.00000000000E+00 -0.00000000000E+00 -0.14946851877E+04  0.14946851877E+04  0.00000000000E+00 0. -1.
          6    1    1    2  502    0 -0.55948786382E+03  0.38148515593E+03 -0.38794507241E+03  0.79915140816E+03  0.17200000000E+03 0.  1.
         -6    1    1    2    0  501  0.55948786382E+03 -0.38148515593E+03 -0.76571313775E+03  0.10365607572E+04  0.17200000000E+03 0. -1.
</event>
<event>
 4    1  0.3169553E-002  0.2102341E+03  0.7818608E-02  0.1141381E+00
         -1   -1    0    0    0  501 -0.00000000000E+00  0.00000000000E+00  0.13475633771E+03  0.13475633771E+03  0.00000000000E+00 0.  1.
          1   -1    0    0  502    0  0.00000000000E+00 -0.00000000000E+00 -0.32822137856E+03  0.32822137856E+03  0.00000000000E+00 0. -1.
          6    1    1    2  502    0  0.91549703007E+02 -0.78949411398E+02 -0.90549593552E+02  0.22890519123E+03  0.17200000000E+03 0.  1.
         -6    1    1    2    0  501 -0.91549703007E+02  0.78949411398E+02 -0.10291544730E+03  0.23407252503E+03  0.17200000000E+03 0.  1.
</event>
<event>
 4    1  0.3169553E-002  0.1783593E+03  0.7818608E-02  0.1169400E+00
          2   -1    0    0  502    0  0.00000000000E+00  0.00000000000E+00  0.68923605712E+03  0.68923605712E+03  0.00000000000E+00 0. -1.
         -2   -1    0    0    0  501 -0.00000000000E+00 -0.00000000000E+00 -0.46718576694E+02  0.46718576694E+02  0.00000000000E+00 0.  1.
          6    1    1    2  502    0  0.36861919689E+02  0.29482787425E+02  0.28086077981E+03  0.33270830094E+03  0.17200000000E+03 0.  1.
         -6    1    1    2    0  501 -0.36861919689E+02 -0.29482787425E+02  0.36165670062E+03  0.40324633288E+03  0.17200000000E+03 0. -1.
</event>
<event>
 4    1  0.3169553E-002  0.1868676E+03  0.7818608E-02  0.1161317E+00
          1   -1    0    0  502    0  0.00000000000E+00  0.00000000000E+00  0.35733141657E+03  0.35733141657E+03  0.00000000000E+00 0. -1.
         -1   -1    0    0    0  501 -0.00000000000E+00 -0.00000000000E+00 -0.10221651553E+03  0.10221651553E+03  0.00000000000E+00 0.  1.
          6    1    1    2  502    0  0.70891012351E+02 -0.17606073967E+02  0.17573357489E+03  0.25651861300E+03  0.17200000000E+03 0. -1.
         -6    1    1    2    0  501 -0.70891012351E+02  0.17606073967E+02  0.79381326161E+02  0.20302931910E+03  0.17200000000E+03 0.  1.
</event>
<event>
 4    1  0.3169553E-002  0.2555290E+03  0.7818608E-02  0.1109860E+00
          2   -1    0    0  502    0  0.00000000000E+00  0.00000000000E+00  0.75366772070E+03  0.75366772070E+03  0.00000000000E+00 0. -1.
         -2   -1    0    0    0  501 -0.00000000000E+00 -0.00000000000E+00 -0.10117096517E+03  0.10117096517E+03  0.00000000000E+00 0.  1.
          6    1    1    2  502    0  0.18885177134E+03  0.67862831719E+01  0.16424371891E+03  0.30376149259E+03  0.17200000000E+03 0. -1.
         -6    1    1    2    0  501 -0.18885177134E+03 -0.67862831719E+01  0.48825303662E+03  0.55107719328E+03  0.17200000000E+03 0. -1.
</event>
<event>
 4    1  0.3169553E-002  0.1931667E+03  0.7818608E-02  0.1155636E+00
          1   -1    0    0  502    0  0.00000000000E+00  0.00000000000E+00  0.59167581849E+03  0.59167581849E+03  0.00000000000E+00 0. -1.
         -1   -1    0    0    0  501 -0.00000000000E+00 -0.00000000000E+00 -0.63336319494E+02  0.63336319494E+02  0.00000000000E+00 0.  1.
          6    1    1    2  502    0  0.80282823626E+02  0.35833702697E+02  0.24269094088E+03  0.31018104198E+03  0.17200000000E+03 0.  1.
         -6    1    1    2    0  501 -0.80282823626E+02 -0.35833702697E+02  0.28564855812E+03  0.34483109601E+03  0.17200000000E+03 0.  1.
</event>
<event>
 4    1  0.3169553E-002  0.2804332E+03  0.7818608E-02  0.1095453E+00
          2   -1    0    0  502    0  0.00000000000E+00  0.00000000000E+00  0.12900029263E+04  0.12900029263E+04  0.00000000000E+00 0. -1.
         -2   -1    0    0    0  501 -0.00000000000E+00 -0.00000000000E+00 -0.68265304967E+02  0.68265304967E+02  0.00000000000E+00 0.  1.
          6    1    1    2  502    0 -0.20112958372E+03 -0.92766643613E+02  0.38875358028E+03  0.47934549731E+03  0.17200000000E+03 0. -1.
         -6    1    1    2    0  501  0.20112958372E+03  0.92766643613E+02  0.83298404106E+03  0.87892273396E+03  0.17200000000E+03 0.  1.
</event>
<event>
 4    1  0.3169553E-002  0.2835052E+03  0.7818608E-02  0.1093790E+00
          1   -1    0    0  502    0  0.00000000000E+00  0.00000000000E+00  0.63233355660E+03  0.63233355660E+03  0.00000000000E+00 0. -1.
         -1   -1    0    0    0  501 -0.00000000000E+00 -0.00000000000E+00 -0.22551248868E+03  0.22551248868E+03  0.00000000000E+00 0.  1.
          6    1    1    2  502    0 -0.22067216637E+03 -0.45771341756E+02 -0.79924015252E+02  0.29455571451E+03  0.17200000000E+03 0.  1.
         -6    1    1    2    0  501  0.22067216637E+03  0.45771341756E+02  0.48674508318E+03  0.56329033077E+03  0.17200000000E+03 0.  1.
</event>
<event>
 4    1  0.3169553E-002  0.4917377E+03  0.7818608E-02  0.1015958E+00
          2   -1    0    0  502    0  0.00000000000E+00  0.00000000000E+00  0.96382410735E+03  0.96382410735E+03  0.00000000000E+00 0. -1.
         -2   -1    0    0    0  501 -0.00000000000E+00 -0.00000000000E+00 -0.33941818903E+03  0.33941818903E+03  0.00000000000E+00 0.  1.
          6    1    1    2  502    0 -0.13126853863E+03 -0.44157736506E+03  0.64500680411E+03  0.81107322476E+03  0.17200000000E+03 0. -1.
         -6    1    1    2    0  501  0.13126853863E+03  0.44157736506E+03 -0.20600885781E+02  0.49216907162E+03  0.17200000000E+03 0.  1.
</event>
<event>
 4    1  0.3169553E-002  0.4911431E+03  0.7818608E-02  0.1016117E+00
          2   -1    0    0  502    0  0.00000000000E+00  0.00000000000E+00  0.18729573104E+04  0.18729573104E+04  0.00000000000E+00 0. -1.
         -2   -1    0    0    0  501 -0.00000000000E+00 -0.00000000000E+00 -0.13347001506E+03  0.13347001506E+03  0.00000000000E+00 0.  1.
          6    1    1    2  502    0 -0.85619721592E+02  0.45200309962E+03  0.68192366882E+03  0.84038171617E+03  0.17200000000E+03 0. -1.
         -6    1    1    2    0  501  0.85619721592E+02 -0.45200309962E+03  0.10575636265E+04  0.11660456093E+04  0.17200000000E+03 0.  1.
</event>
<event>
 4    1  0.3169553E-002  0.1785697E+03  0.7818608E-02  0.1169195E+00
         -2   -1    0    0    0  501 -0.00000000000E+00  0.00000000000E+00  0.43449080539E+03  0.43449080539E+03  0.00000000000E+00 0.  1.
          2   -1    0    0  502    0  0.00000000000E+00 -0.00000000000E+00 -0.32589944346E+03  0.32589944346E+03  0.00000000000E+00 0. -1.
          6    1    1    2  502    0  0.14216976144E+02 -0.45836717404E+02 -0.28036435181E+03  0.33240231172E+03  0.17200000000E+03 0. -1.
         -6    1    1    2    0  501 -0.14216976144E+02  0.45836717404E+02  0.38895571374E+03  0.42798793712E+03  0.17200000000E+03 0.  1.
</event>
<event>
 4    1  0.3169553E-002  0.2835027E+03  0.7818608E-02  0.1093791E+00
         -2   -1    0    0    0  501 -0.00000000000E+00  0.00000000000E+00  0.17033349471E+03  0.17033349471E+03  0.00000000000E+00 0.  1.
          2   -1    0    0  502    0  0.00000000000E+00 -0.00000000000E+00 -0.60326124604E+03  0.60326124604E+03  0.00000000000E+00 0. -1.
          6    1    1    2  502    0  0.20907538905E+03  0.84126460355E+02 -0.39698516955E+03  0.48782271829E+03  0.17200000000E+03 0.  1.
         -6    1    1    2    0  501 -0.20907538905E+03 -0.84126460355E+02 -0.35942581781E+02  0.28577202247E+03  0.17200000000E+03 0.  1.
</event>
<event>
 4    1  0.3169553E-002  0.4220466E+03  0.7818608E-02  0.1036402E+00
         -2   -1    0    0    0  501 -0.00000000000E+00  0.00000000000E+00  0.11893931361E+03  0.11893931361E+03  0.00000000000E+00 0.  1.
          2   -1    0    0  502    0  0.00000000000E+00 -0.00000000000E+00 -0.17974811916E+04  0.17974811916E+04  0.00000000000E+00 0. -1.
          6    1    1    2  502    0  0.35046609812E+03 -0.16035236477E+03 -0.44788595570E+03  0.61540652916E+03  0.17200000000E+03 0. -1.
         -6    1    1    2    0  501 -0.35046609812E+03  0.16035236477E+03 -0.12306559222E+04  0.13010139760E+04  0.17200000000E+03 0.  1.
</event>
<event>
 4    1  0.3169553E-002  0.2273076E+03  0.7818608E-02  0.1128549E+00
          2   -1    0    0  502    0  0.00000000000E+00  0.00000000000E+00  0.11595160845E+04  0.11595160845E+04  0.00000000000E+00 0. -1.
         -2   -1    0    0    0  501 -0.00000000000E+00 -0.00000000000E+00 -0.89005210225E+02  0.89005210225E+02  0.00000000000E+00 0.  1.
          6    1    1    2  502    0 -0.12521297106E+03  0.80040384248E+02  0.97638657580E+03  0.10024966317E+04  0.17200000000E+03 0. -1.
         -6    1    1    2    0  501  0.12521297106E+03 -0.80040384248E+02  0.94124298453E+02  0.24602466297E+03  0.17200000000E+03 0.  1.
</event>
<event>
 4    1  0.3169553E-002  0.2347318E+03  0.7818608E-02  0.1123353E+00
         -2   -1    0    0    0  501 -0.00000000000E+00  0.00000000000E+00  0.26775440620E+02  0.26775440620E+02  0.00000000000E+00 0.  1.
          2   -1    0    0  502    0  0.00000000000E+00 -0.00000000000E+00 -0.21267861265E+04  0.21267861265E+04  0.00000000000E+00 0. -1.
          6    1    1    2  502    0 -0.13098680747E+03 -0.91419138120E+02 -0.12439096169E+04  0.12658633961E+04  0.17200000000E+03 0. -1.
         -6    1    1    2    0  501  0.13098680747E+03  0.91419138120E+02 -0.85610106902E+03  0.88769817107E+03  0.17200000000E+03 0.  1.
</event>
<event>
 4    1  0.3169553E-002  0.2156966E+03  0.7818608E-02  0.1137133E+00
          1   -1    0    0  502    0  0.00000000000E+00  0.00000000000E+00  0.91750824953E+02  0.91750824953E+02  0.00000000000E+00 0. -1.
         -1   -1    0    0    0  501 -0.00000000000E+00 -0.00000000000E+00 -0.52089423551E+03  0.52089423551E+03  0.00000000000E+00 0.  1.
          6    1    1    2  502    0  0.49238997581E+02  0.12048454225E+03 -0.16468689028E+03  0.27137939427E+03  0.17200000000E+03 0. -1.
         -6    1    1    2    0  501 -0.49238997581E+02 -0.12048454225E+03 -0.26445652028E+03  0.34126566619E+03  0.17200000000E+03 0.  1.
</event>
<event>
 4    1  0.3169553E-002  0.2207782E+03  0.7818608E-02  0.1133304E+00
          2   -1    0    0  502    0  0.00000000000E+00  0.00000000000E+00  0.49200468657E+03  0.49200468657E+03  0.00000000000E+00 0. -1.
         -2   -1    0    0    0  501 -0.00000000000E+00 -0.00000000000E+00 -0.18301731074E+03  0.18301731074E+03  0.00000000000E+00 0.  1.
          6    1    1    2  502    0 -0.39594136401E+02  0.13263231401E+03  0.38307704018E+03  0.44214369278E+03  0.17200000000E+03 0. -1.
         -6    1    1    2    0  501  0.39594136401E+02 -0.13263231401E+03 -0.74089664344E+02  0.23287830453E+03  0.17200000000E+03 0. -1.
</event>
<event>
 4    1  0.3169553E-002  0.1720396E+03  0.7818608E-02  0.1175737E+00
          1   -1    0    0  502    0  0.00000000000E+00  0.00000000000E+00  0.40153570989E+03  0.40153570989E+03  0.00000000000E+00 0. -1.
         -1   -1    0    0    0  501 -0.00000000000E+00 -0.00000000000E+00 -0.10139647794E+03  0.10139647794E+03  0.00000000000E+00 0.  1.
          6    1    1    2  502    0  0.36609414617E+01 -0.48786990274E+00  0.28146895998E+03  0.32988242745E+03  0.17200000000E+03 0. -1.
         -6    1    1    2    0  501 -0.36609414617E+01  0.48786990274E+00  0.18670271973E+02  0.17304976037E+03  0.17200000000E+03 0.  1.
</event>
<event>
 4    1  0.3169553E-002  0.4351966E+03  0.7818608E-02  0.1032231E+00
         -3   -1    0    0    0  501 -0.00000000000E+00  0.00000000000E+00  0.65036996483E+03  0.65036996483E+03  0.00000000000E+00 0.  1.
          3   -1    0    0  502    0  0.00000000000E+00 -0.00000000000E+00 -0.34922243729E+03  0.34922243729E+03  0.00000000000E+00 0. -1.
          6    1    1    2  502    0  0.39900633029E+03  0.24617537380E+02 -0.53126627215E+02  0.43842731813E+03  0.17200000000E+03 0. -1.
         -6    1    1    2    0  501 -0.39900633029E+03 -0.24617537380E+02  0.35427415476E+03  0.56116508399E+03  0.17200000000E+03 0.  1.
</event>
<event>
 4    1  0.3169553E-002  0.1987973E+03  0.7818608E-02  0.1150758E+00
         -2   -1    0    0    0  501 -0.00000000000E+00  0.00000000000E+00  0.12300772052E+02  0.12300772052E+02  0.00000000000E+00 0.  1.
          2   -1    0    0  502    0  0.00000000000E+00 -0.00000000000E+00 -0.32508815345E+04  0.32508815345E+04  0.00000000000E+00 0. -1.
          6    1    1    2  502    0 -0.94381586960E+02 -0.32070039103E+02 -0.14427846297E+04  0.14564161010E+04  0.17200000000E+03 0.  1.
         -6    1    1    2    0  501  0.94381586960E+02  0.32070039103E+02 -0.17957961327E+04  0.18067662056E+04  0.17200000000E+03 0. -1.
</event>
<event>
 4    1  0.3169553E-002  0.1934332E+03  0.7818608E-02  0.1155401E+00
          2   -1    0    0  502    0  0.00000000000E+00  0.00000000000E+00  0.31674506562E+04  0.31674506562E+04  0.00000000000E+00 0. -1.
         -2   -1    0    0    0  501 -0.00000000000E+00 -0.00000000000E+00 -0.33969799169E+02  0.33969799169E+02  0.00000000000E+00 0.  1.
          6    1    1    2  502    0 -0.37296860334E+02 -0.80258015432E+02  0.28595122435E+04  0.28660472215E+04  0.17200000000E+03 0. -1.
         -6    1    1    2    0  501  0.37296860334E+02  0.80258015432E+02  0.27396861353E+03  0.33537323392E+03  0.17200000000E+03 0.  1.
</event>
<event>
 4    1  0.3169553E-002  0.3461845E+03  0.7818608E-02  0.1064192E+00
         -2   -1    0    0    0  501 -0.00000000000E+00  0.00000000000E+00  0.70712279352E+02  0.70712279352E+02  0.00000000000E+00 0.  1.
          2   -1    0    0  502    0  0.00000000000E+00 -0.00000000000E+00 -0.17510875902E+04  0.17510875902E+04  0.00000000000E+00 0. -1.
          6    1    1    2  502    0 -0.26675034047E+03 -0.13821704975E+03 -0.67688457808E+03  0.76027391710E+03  0.17200000000E+03 0.  1.
         -6    1    1    2    0  501  0.26675034047E+03  0.13821704975E+03 -0.10034907328E+04  0.10615259525E+04  0.17200000000E+03 0.  1.
</event>
<event>
 4    1  0.3169553E-002  0.3558114E+03  0.7818608E-02  0.1060255E+00
          2   -1    0    0  502    0  0.00000000000E+00  0.00000000000E+00  0.14911738897E+04  0.14911738897E+04  0.00000000000E+00 0. -1.
         -2   -1    0    0    0  501 -0.00000000000E+00 -0.00000000000E+00 -0.89904747184E+02  0.89904747184E+02  0.00000000000E+00 0.  1.
          6    1    1    2  502    0 -0.30837208334E+03 -0.43868213715E+02  0.88713990797E+03  0.95583417928E+03  0.17200000000E+03 0. -1.
         -6    1    1    2    0  501  0.30837208334E+03  0.43868213715E+02  0.51412923458E+03  0.62524445764E+03  0.17200000000E+03 0.  1.
</event>
<event>
 4    1  0.3169553E-002  0.2955012E+03  0.7818608E-02  0.1087511E+00
         -3   -1    0    0    0  501 -0.00000000000E+00  0.00000000000E+00  0.12591432238E+04  0.12591432238E+04  0.00000000000E+00 0.  1.
          3   -1    0    0  502    0  0.00000000000E+00 -0.00000000000E+00 -0.77849149761E+02  0.77849149761E+02  0.00000000000E+00 0. -1.
          6    1    1    2  502    0 -0.17418561958E+03  0.16551841996E+03  0.36975909079E+03  0.47333155677E+03  0.17200000000E+03 0. -1.
         -6    1    1    2    0  501  0.17418561958E+03 -0.16551841996E+03  0.81153498328E+03  0.86366081681E+03  0.17200000000E+03 0.  1.
</event>
<event>
 4    1  0.3169553E-002  0.2779009E+03  0.7818608E-02  0.1096841E+00
          4   -1    0    0  502    0  0.00000000000E+00  0.00000000000E+00  0.99155311123E+02  0.99155311123E+02  0.00000000000E+00 0. -1.
         -4   -1    0    0    0  501 -0.00000000000E+00 -0.00000000000E+00 -0.79998015377E+03  0.79998015377E+03  0.00000000000E+00 0.  1.
          6    1    1    2  502    0 -0.16660987768E+03 -0.14101789138E+03 -0.27737894277E+03  0.39264229894E+03  0.17200000000E+03 0.  1.
         -6    1    1    2    0  501  0.16660987768E+03  0.14101789138E+03 -0.42344589987E+03  0.50649316595E+03  0.17200000000E+03 0. -1.
</event>
<event>
 4    1  0.3169553E-002  0.2543820E+03  0.7818608E-02  0.1110566E+00
         -1   -1    0    0    0  501 -0.00000000000E+00  0.00000000000E+00  0.22204658931E+04  0.22204658931E+04  0.00000000000E+00 0.  1.
          1   -1    0    0  502    0  0.00000000000E+00 -0.00000000000E+00 -0.90771832972E+02  0.90771832972E+02  0.00000000000E+00 0. -1.
          6    1    1    2  502    0 -0.11967640250E+03 -0.14423501930E+03  0.11263777392E+03  0.27820397233E+03  0.17200000000E+03 0. -1.
         -6    1    1    2    0  501  0.11967640250E+03  0.14423501930E+03  0.20170562862E+04  0.20330337537E+04  0.17200000000E+03 0.  1.
</event>
<event>
 4    1  0.3169553E-002  0.2795899E+03  0.7818608E-02  0.1095913E+00
         -2   -1    0    0    0  501 -0.00000000000E+00  0.00000000000E+00  0.66137147929E+02  0.66137147929E+02  0.00000000000E+00 0.  1.
          2   -1    0    0  502    0  0.00000000000E+00 -0.00000000000E+00 -0.12068991031E+04  0.12068991031E+04  0.00000000000E+00 0. -1.
          6    1    1    2  502    0  0.19878157403E+03  0.95249139975E+02 -0.66190620375E+03  0.71853346158E+03  0.17200000000E+03 0. -1.
         -6    1    1    2    0  501 -0.19878157403E+03 -0.95249139975E+02 -0.47885575138E+03  0.55450278941E+03  0.17200000000E+03 0.  1.
</event>
<event>
 4    1  0.3169553E-002  0.3470678E+03  0.7818608E-02  0.1063825E+00
         -2   -1    0    0    0  501 -0.00000000000E+00  0.00000000000E+00  0.32256550995E+03  0.32256550995E+03  0.00000000000E+00 0.  1.
          2   -1    0    0  502    0  0.00000000000E+00 -0.00000000000E+00 -0.40696039916E+03  0.40696039916E+03  0.00000000000E+00 0. -1.
          6    1    1    2  502    0 -0.21662073860E+03  0.20963661569E+03 -0.14689719493E+03  0.37687509988E+03  0.17200000000E+03 0. -1.
         -6    1    1    2    0  501  0.21662073860E+03 -0.20963661569E+03  0.62502305720E+02  0.35265080923E+03  0.17200000000E+03 0. -1.
</event>
<event>
 4    1  0.3169553E-002  0.1754361E+03  0.7818608E-02  0.1172295E+00
         -2   -1    0    0    0  501 -0.00000000000E+00  0.00000000000E+00  0.15240036877E+02  0.15240036877E+02  0.00000000000E+00 0.  1.
          2   -1    0    0  502    0  0.00000000000E+00 -0.00000000000E+00 -0.22095877712E+04  0.22095877712E+04  0.00000000000E+00 0. -1.
          6    1    1    2  502    0 -0.33221467536E+02 -0.94954278123E+01 -0.77092816768E+03  0.79063776078E+03  0.17200000000E+03 0.  1.
         -6    1    1    2    0  501  0.33221467536E+02  0.94954278123E+01 -0.14234195667E+04  0.14341900473E+04  0.17200000000E+03 0. -1.
</event>
<event>
 4    1  0.3169553E-002  0.1802438E+03  0.7818608E-02  0.1167567E+00
         -1   -1    0    0    0  501 -0.00000000000E+00  0.00000000000E+00  0.33104396724E+02  0.33104396724E+02  0.00000000000E+00 0.  1.
          1   -1    0    0  502    0  0.00000000000E+00 -0.00000000000E+00 -0.10885600128E+04  0.10885600128E+04  0.00000000000E+00 0. -1.
          6    1    1    2  502    0  0.19285897962E+02  0.50317793279E+02 -0.70371208103E+03  0.72642860569E+03  0.17200000000E+03 0. -1.
         -6    1    1    2    0  501 -0.19285897962E+02 -0.50317793279E+02 -0.35174353502E+03  0.39523580380E+03  0.17200000000E+03 0.  1.
</event>
<event>
 4    1  0.3169553E-002  0.3191869E+03  0.7818608E-02  0.1076024E+00
          1   -1    0    0  502    0  0.00000000000E+00  0.00000000000E+00  0.19385922104E+04  0.19385922104E+04  0.00000000000E+00 0. -1.
         -1   -1    0    0    0  501 -0.00000000000E+00 -0.00000000000E+00 -0.62701881175E+02  0.62701881175E+02  0.00000000000E+00 0.  1.
          6    1    1    2  502    0 -0.20939094000E+03 -0.16867639477E+03  0.13405079751E+04  0.13779847325E+04  0.17200000000E+03 0. -1.
         -6    1    1    2    0  501  0.20939094000E+03  0.16867639477E+03  0.53538235413E+03  0.62330935901E+03  0.17200000000E+03 0.  1.
</event>
<event>
 4    1  0.3169553E-002  0.2444343E+03  0.7818608E-02  0.1116874E+00
         -1   -1    0    0    0  501 -0.00000000000E+00  0.00000000000E+00  0.18314670696E+03  0.18314670696E+03  0.00000000000E+00 0.  1.
          1   -1    0    0  502    0  0.00000000000E+00 -0.00000000000E+00 -0.98019898768E+03  0.98019898768E+03  0.00000000000E+00 0. -1.
          6    1    1    2  502    0 -0.16559585211E+03 -0.52365456909E+02 -0.87364243169E+03  0.90719304769E+03  0.17200000000E+03 0. -1.
         -6    1    1    2    0  501  0.16559585211E+03  0.52365456909E+02  0.76590150981E+02  0.25615264695E+03  0.17200000000E+03 0.  1.
</event>
<event>
 4    1  0.3169553E-002  0.3382010E+03  0.7818608E-02  0.1067565E+00
          1   -1    0    0  502    0  0.00000000000E+00  0.00000000000E+00  0.29655807161E+03  0.29655807161E+03  0.00000000000E+00 0. -1.
         -1   -1    0    0    0  501 -0.00000000000E+00 -0.00000000000E+00 -0.39528125064E+03  0.39528125064E+03  0.00000000000E+00 0.  1.
          6    1    1    2  502    0  0.28433515737E+03  0.62844417718E+02 -0.10324160345E+03  0.35360816059E+03  0.17200000000E+03 0.  1.
         -6    1    1    2    0  501 -0.28433515737E+03 -0.62844417718E+02  0.45184244238E+01  0.33823116166E+03  0.17200000000E+03 0.  1.
</event>
<event>
 4    1  0.3169553E-002  0.4855414E+03  0.7818608E-02  0.1017623E+00
          2   -1    0    0  502    0  0.00000000000E+00  0.00000000000E+00  0.26045131135E+03  0.26045131135E+03  0.00000000000E+00 0. -1.
         -2   -1    0    0    0  501 -0.00000000000E+00 -0.00000000000E+00 -0.10252666059E+04  0.10252666059E+04  0.00000000000E+00 0.  1.
          6    1    1    2  502    0 -0.19077125127E+03 -0.41203489007E+03 -0.60243596379E+03  0.77374382803E+03  0.17200000000E+03 0. -1.
         -6    1    1    2    0  501  0.19077125127E+03  0.41203489007E+03 -0.16237933072E+03  0.51197408918E+03  0.17200000000E+03 0.  1.
</event>
<event>
 4    1  0.3169553E-002  0.1823863E+03  0.7818608E-02  0.1165513E+00
          2   -1    0    0  502    0  0.00000000000E+00  0.00000000000E+00  0.50824824998E+03  0.50824824998E+03  0.00000000000E+00 0. -1.
         -2   -1    0    0    0  501 -0.00000000000E+00 -0.00000000000E+00 -0.65893935763E+02  0.65893935763E+02  0.00000000000E+00 0.  1.
          6    1    1    2  502    0  0.52036009283E+02  0.31193287430E+02  0.24474415605E+03  0.30522855267E+03  0.17200000000E+03 0. -1.
         -6    1    1    2    0  501 -0.52036009283E+02 -0.31193287430E+02  0.19761015817E+03  0.26891363307E+03  0.17200000000E+03 0.  1.
</event>
<event>
 4    1  0.3169553E-002  0.2219736E+03  0.7818608E-02  0.1132420E+00
         -2   -1    0    0    0  501 -0.00000000000E+00  0.00000000000E+00  0.29812871061E+02  0.29812871061E+02  0.00000000000E+00 0.  1.
          2   -1    0    0  502    0  0.00000000000E+00 -0.00000000000E+00 -0.19309528259E+04  0.19309528259E+04  0.00000000000E+00 0. -1.
          6    1    1    2  502    0  0.10391195599E+03  0.94289924848E+02 -0.13227175590E+04  0.13412136390E+04  0.17200000000E+03 0. -1.
         -6    1    1    2    0  501 -0.10391195599E+03 -0.94289924848E+02 -0.57842239581E+03  0.61955205794E+03  0.17200000000E+03 0.  1.
</event>
<event>
 4    1  0.3169553E-002  0.1835765E+03  0.7818608E-02  0.1164386E+00
         -3   -1    0    0    0  501 -0.00000000000E+00  0.00000000000E+00  0.38390235361E+03  0.38390235361E+03  0.00000000000E+00 0.  1.
          3   -1    0    0  502    0  0.00000000000E+00 -0.00000000000E+00 -0.88459245884E+02  0.88459245884E+02  0.00000000000E+00 0. -1.
          6    1    1    2  502    0 -0.28624366269E+02 -0.57419435829E+02  0.16836203067E+03  0.24909058458E+03  0.17200000000E+03 0.  1.
         -6    1    1    2    0  501  0.28624366269E+02  0.57419435829E+02  0.12708107706E+03  0.22327101492E+03  0.17200000000E+03 0. -1.
</event>
<event>
 4    1  0.3169553E-002  0.1806129E+03  0.7818608E-02  0.1167211E+00
          3   -1    0    0  502    0  0.00000000000E+00  0.00000000000E+00  0.20645932437E+03  0.20645932437E+03  0.00000000000E+00 0. -1.
         -3   -1    0    0    0  501 -0.00000000000E+00 -0.00000000000E+00 -0.19907413316E+03  0.19907413316E+03  0.00000000000E+00 0.  1.
          6    1    1    2  502    0  0.10647522859E+01 -0.55098726248E+02  0.95793197471E+02  0.20444397769E+03  0.17200000000E+03 0. -1.
         -6    1    1    2    0  501 -0.10647522859E+01  0.55098726248E+02 -0.88408006260E+02  0.20108947984E+03  0.17200000000E+03 0.  1.
</event>
<event>
 4    1  0.3169553E-002  0.5281197E+03  0.7818608E-02  0.1006689E+00
         -1   -1    0    0    0  501 -0.00000000000E+00  0.00000000000E+00  0.65184356463E+03  0.65184356463E+03  0.00000000000E+00 0.  1.
          1   -1    0    0  502    0  0.00000000000E+00 -0.00000000000E+00 -0.47776333324E+03  0.47776333324E+03  0.00000000000E+00 0. -1.
          6    1    1    2  502    0  0.49845822674E+03  0.29425501577E+02 -0.95463331606E+02  0.53667840615E+03  0.17200000000E+03 0. -1.
         -6    1    1    2    0  501 -0.49845822674E+03 -0.29425501577E+02  0.26954356300E+03  0.59292849172E+03  0.17200000000E+03 0.  1.
</event>
<event>
 4    1  0.3169553E-002  0.1839091E+03  0.7818608E-02  0.1164073E+00
          1   -1    0    0  502    0  0.00000000000E+00  0.00000000000E+00  0.32145198993E+04  0.32145198993E+04  0.00000000000E+00 0. -1.
         -1   -1    0    0    0  501 -0.00000000000E+00 -0.00000000000E+00 -0.14298862151E+02  0.14298862151E+02  0.00000000000E+00 0.  1.
          6    1    1    2  502    0  0.23011587401E+02 -0.60901799450E+02  0.24298457250E+04  0.24367956028E+04  0.17200000000E+03 0. -1.
         -6    1    1    2    0  501 -0.23011587401E+02  0.60901799450E+02  0.77037531211E+03  0.79202315865E+03  0.17200000000E+03 0.  1.
</event>
<event>
 4    1  0.3169553E-002  0.4336942E+03  0.7818608E-02  0.1032699E+00
         -2   -1    0    0    0  501 -0.00000000000E+00  0.00000000000E+00  0.57327495763E+03  0.57327495763E+03  0.00000000000E+00 0.  1.
          2   -1    0    0  502    0  0.00000000000E+00 -0.00000000000E+00 -0.36207191950E+03  0.36207191950E+03  0.00000000000E+00 0. -1.
          6    1    1    2  502    0 -0.33092184830E+03  0.22135355949E+03 -0.37655118764E+02  0.43532582734E+03  0.17200000000E+03 0. -1.
         -6    1    1    2    0  501  0.33092184830E+03 -0.22135355949E+03  0.24885815690E+03  0.50002104979E+03  0.17200000000E+03 0.  1.
</event>
<event>
 4    1  0.3169553E-002  0.2397227E+03  0.7818608E-02  0.1119978E+00
         -1   -1    0    0    0  501 -0.00000000000E+00  0.00000000000E+00  0.10549668626E+03  0.10549668626E+03  0.00000000000E+00 0.  1.
          1   -1    0    0  502    0  0.00000000000E+00 -0.00000000000E+00 -0.57153989491E+03  0.57153989491E+03  0.00000000000E+00 0. -1.
          6    1    1    2  502    0 -0.10639924562E+03 -0.12869409430E+03 -0.30634201445E+03  0.38898894482E+03  0.17200000000E+03 0. -1.
         -6    1    1    2    0  501  0.10639924562E+03  0.12869409430E+03 -0.15970119420E+03  0.28804763635E+03  0.17200000000E+03 0.  1.
</event>
<event>
 4    1  0.3169553E-002  0.2751244E+03  0.7818608E-02  0.1098382E+00
         -2   -1    0    0    0  501 -0.00000000000E+00  0.00000000000E+00  0.40709019567E+02  0.40709019567E+02  0.00000000000E+00 0.  1.
          2   -1    0    0  502    0  0.00000000000E+00 -0.00000000000E+00 -0.19471151617E+04  0.19471151617E+04  0.00000000000E+00 0. -1.
          6    1    1    2  502    0  0.85964722236E+02  0.19677273486E+03 -0.74222140425E+03  0.79157188908E+03  0.17200000000E+03 0. -1.
         -6    1    1    2    0  501 -0.85964722236E+02 -0.19677273486E+03 -0.11641847379E+04  0.11962522922E+04  0.17200000000E+03 0.  1.
</event>
<event>
 4    1  0.3169553E-002  0.2433944E+03  0.7818608E-02  0.1117552E+00
          2   -1    0    0  502    0  0.00000000000E+00  0.00000000000E+00  0.96581854558E+03  0.96581854558E+03  0.00000000000E+00 0. -1.
         -2   -1    0    0    0  501 -0.00000000000E+00 -0.00000000000E+00 -0.69566731313E+02  0.69566731313E+02  0.00000000000E+00 0.  1.
          6    1    1    2  502    0  0.13684723241E+03 -0.10454495175E+03  0.62618046503E+03  0.67182050188E+03  0.17200000000E+03 0. -1.
         -6    1    1    2    0  501 -0.13684723241E+03  0.10454495175E+03  0.27007134924E+03  0.36356477502E+03  0.17200000000E+03 0.  1.
</event>
<event>
 4    1  0.3169553E-002  0.5747644E+03  0.7818608E-02  0.9959191E-01
         -3   -1    0    0    0  501 -0.00000000000E+00  0.00000000000E+00  0.12215339064E+04  0.12215339064E+04  0.00000000000E+00 0.  1.
          3   -1    0    0  502    0  0.00000000000E+00 -0.00000000000E+00 -0.27077466619E+03  0.27077466619E+03  0.00000000000E+00 0. -1.
          6    1    1    2  502    0 -0.26427460516E+03 -0.48055081727E+03  0.50153042329E+03  0.76281512858E+03  0.17200000000E+03 0. -1.
         -6    1    1    2    0  501  0.26427460516E+03  0.48055081727E+03  0.44922881693E+03  0.72949344402E+03  0.17200000000E+03 0.  1.
</event>
<event>
 4    1  0.3169553E-002  0.3212375E+03  0.7818608E-02  0.1075081E+00
          1   -1    0    0  502    0  0.00000000000E+00  0.00000000000E+00  0.31972927008E+03  0.31972927008E+03  0.00000000000E+00 0. -1.
         -1   -1    0    0    0  501 -0.00000000000E+00 -0.00000000000E+00 -0.34353754179E+03  0.34353754179E+03  0.00000000000E+00 0.  1.
          6    1    1    2  502    0 -0.26391921104E+03 -0.62898319712E+02  0.69668117520E+02  0.32870533184E+03  0.17200000000E+03 0. -1.
         -6    1    1    2    0  501  0.26391921104E+03  0.62898319712E+02 -0.93476389229E+02  0.33456148004E+03  0.17200000000E+03 0.  1.
</event>
<event>
 4    1  0.3169553E-002  0.2248899E+03  0.7818608E-02  0.1130289E+00
          1   -1    0    0  502    0  0.00000000000E+00  0.00000000000E+00  0.64603297233E+02  0.64603297233E+02  0.00000000000E+00 0. -1.
         -1   -1    0    0    0  501 -0.00000000000E+00 -0.00000000000E+00 -0.78661392565E+03  0.78661392565E+03  0.00000000000E+00 0.  1.
          6    1    1    2  502    0 -0.99143731547E+02 -0.10565040504E+03 -0.33161272880E+03  0.40067753804E+03  0.17200000000E+03 0. -1.
         -6    1    1    2    0  501  0.99143731547E+02  0.10565040504E+03 -0.39039789961E+03  0.45053968484E+03  0.17200000000E+03 0.  1.
</event>
<event>
 4    1  0.3169553E-002  0.1896328E+03  0.7818608E-02  0.1158793E+00
          2   -1    0    0  502    0  0.00000000000E+00  0.00000000000E+00  0.12935770499E+04  0.12935770499E+04  0.00000000000E+00 0. -1.
         -2   -1    0    0    0  501 -0.00000000000E+00 -0.00000000000E+00 -0.28099968180E+02  0.28099968180E+02  0.00000000000E+00 0.  1.
          6    1    1    2  502    0  0.27898187627E+02 -0.74821790732E+02  0.56438743622E+03  0.59539380867E+03  0.17200000000E+03 0.  1.
         -6    1    1    2    0  501 -0.27898187627E+02  0.74821790732E+02  0.70108964548E+03  0.72628320939E+03  0.17200000000E+03 0. -1.
</event>
<event>
 4    1  0.3169553E-002  0.4146110E+03  0.7818608E-02  0.1038835E+00
         -2   -1    0    0    0  501 -0.00000000000E+00  0.00000000000E+00  0.29014804492E+03  0.29014804492E+03  0.00000000000E+00 0.  1.
          2   -1    0    0  502    0  0.00000000000E+00 -0.00000000000E+00 -0.76541811265E+03  0.76541811265E+03  0.00000000000E+00 0. -1.
          6    1    1    2  502    0  0.37707804873E+03  0.11421299532E+02 -0.48851813727E+03  0.64074353009E+03  0.17200000000E+03 0. -1.
         -6    1    1    2    0  501 -0.37707804873E+03 -0.11421299532E+02  0.13248069545E+02  0.41482262748E+03  0.17200000000E+03 0.  1.
</event>
<event>
 4    1  0.3169553E-002  0.2395876E+03  0.7818608E-02  0.1120068E+00
          2   -1    0    0  502    0  0.00000000000E+00  0.00000000000E+00  0.11561676975E+03  0.11561676975E+03  0.00000000000E+00 0. -1.
         -2   -1    0    0    0  501 -0.00000000000E+00 -0.00000000000E+00 -0.52849901509E+03  0.52849901509E+03  0.00000000000E+00 0.  1.
          6    1    1    2  502    0 -0.52269635095E+02  0.15838592432E+03 -0.12717843487E+03  0.27125001396E+03  0.17200000000E+03 0. -1.
         -6    1    1    2    0  501  0.52269635095E+02 -0.15838592432E+03 -0.28570381047E+03  0.37286577088E+03  0.17200000000E+03 0.  1.
</event>
<event>
 4    1  0.3169553E-002  0.2905289E+03  0.7818608E-02  0.1090073E+00
         -2   -1    0    0    0  501 -0.00000000000E+00  0.00000000000E+00  0.11567644899E+03  0.11567644899E+03  0.00000000000E+00 0.  1.
          2   -1    0    0  502    0  0.00000000000E+00 -0.00000000000E+00 -0.75255726294E+03  0.75255726294E+03  0.00000000000E+00 0. -1.
          6    1    1    2  502    0 -0.13738243711E+03  0.18960242330E+03 -0.39412730688E+03  0.48963593310E+03  0.17200000000E+03 0. -1.
         -6    1    1    2    0  501  0.13738243711E+03 -0.18960242330E+03 -0.24275350706E+03  0.37859777883E+03  0.17200000000E+03 0.  1.
</event>
<event>
 4    1  0.3169553E-002  0.2292746E+03  0.7818608E-02  0.1127151E+00
         -2   -1    0    0    0  501 -0.00000000000E+00  0.00000000000E+00  0.45953087744E+03  0.45953087744E+03  0.00000000000E+00 0.  1.
          2   -1    0    0  502    0  0.00000000000E+00 -0.00000000000E+00 -0.26692824449E+03  0.26692824449E+03  0.00000000000E+00 0. -1.
          6    1    1    2  502    0  0.14127919618E+03 -0.54981917372E+02 -0.17827933434E+03  0.29043130610E+03  0.17200000000E+03 0. -1.
         -6    1    1    2    0  501 -0.14127919618E+03  0.54981917372E+02  0.37088196730E+03  0.43602781583E+03  0.17200000000E+03 0.  1.
</event>
<event>
 4    1  0.3169553E-002  0.1811870E+03  0.7818608E-02  0.1166659E+00
          1   -1    0    0  502    0  0.00000000000E+00  0.00000000000E+00  0.23388877499E+02  0.23388877499E+02  0.00000000000E+00 0. -1.
         -1   -1    0    0    0  501 -0.00000000000E+00 -0.00000000000E+00 -0.14158773680E+04  0.14158773680E+04  0.00000000000E+00 0.  1.
          6    1    1    2  502    0  0.20027896434E+02  0.53325611525E+02 -0.62924521724E+03  0.65481163773E+03  0.17200000000E+03 0. -1.
         -6    1    1    2    0  501 -0.20027896434E+02 -0.53325611525E+02 -0.76324327323E+03  0.78445460774E+03  0.17200000000E+03 0.  1.
</event>
<event>
 4    1  0.3169553E-002  0.3769784E+03  0.7818608E-02  0.1052056E+00
          1   -1    0    0  502    0  0.00000000000E+00  0.00000000000E+00  0.18953337130E+04  0.18953337130E+04  0.00000000000E+00 0. -1.
         -1   -1    0    0    0  501 -0.00000000000E+00 -0.00000000000E+00 -0.75176033882E+02  0.75176033882E+02  0.00000000000E+00 0.  1.
          6    1    1    2  502    0  0.28470373779E+03  0.17740493809E+03  0.85980772703E+03  0.93881950226E+03  0.17200000000E+03 0. -1.
         -6    1    1    2    0  501 -0.28470373779E+03 -0.17740493809E+03  0.96034995214E+03  0.10316902447E+04  0.17200000000E+03 0.  1.
</event>
<event>
 4    1  0.3169553E-002  0.2872037E+03  0.7818608E-02  0.1091818E+00
         -2   -1    0    0    0  501 -0.00000000000E+00  0.00000000000E+00  0.14440638810E+03  0.14440638810E+03  0.00000000000E+00 0.  1.
          2   -1    0    0  502    0  0.00000000000E+00 -0.00000000000E+00 -0.61873085707E+03  0.61873085707E+03  0.00000000000E+00 0. -1.
          6    1    1    2  502    0 -0.15681760497E+02 -0.22946904183E+03 -0.34291141354E+03  0.44729654180E+03  0.17200000000E+03 0. -1.
         -6    1    1    2    0  501  0.15681760497E+02  0.22946904183E+03 -0.13141305543E+03  0.31584070337E+03  0.17200000000E+03 0.  1.
</event>
<event>
 4    1  0.3169553E-002  0.2185758E+03  0.7818608E-02  0.1134949E+00
          1   -1    0    0  502    0  0.00000000000E+00  0.00000000000E+00  0.68079894202E+03  0.68079894202E+03  0.00000000000E+00 0. -1.
         -1   -1    0    0    0  501 -0.00000000000E+00 -0.00000000000E+00 -0.72083707327E+02  0.72083707327E+02  0.00000000000E+00 0.  1.
          6    1    1    2  502    0  0.13372332778E+03  0.17590661888E+02  0.36560665471E+03  0.42596195340E+03  0.17200000000E+03 0. -1.
         -6    1    1    2    0  501 -0.13372332778E+03 -0.17590661888E+02  0.24310857999E+03  0.32692069595E+03  0.17200000000E+03 0.  1.
</event>
<event>
 4    1  0.3169553E-002  0.2008804E+03  0.7818608E-02  0.1148998E+00
          2   -1    0    0  502    0  0.00000000000E+00  0.00000000000E+00  0.16007196241E+04  0.16007196241E+04  0.00000000000E+00 0. -1.
         -2   -1    0    0    0  501 -0.00000000000E+00 -0.00000000000E+00 -0.19367182733E+03  0.19367182733E+03  0.00000000000E+00 0.  1.
          6    1    1    2  502    0 -0.95220703605E+02 -0.41254892290E+02  0.15402930966E+04  0.15533369795E+04  0.17200000000E+03 0. -1.
         -6    1    1    2    0  501  0.95220703605E+02  0.41254892290E+02 -0.13324529978E+03  0.24105447195E+03  0.17200000000E+03 0.  1.
</event>
<event>
 4    1  0.3169553E-002  0.4402950E+03  0.7818608E-02  0.1030656E+00
         -1   -1    0    0    0  501 -0.00000000000E+00  0.00000000000E+00  0.58891800392E+03  0.58891800392E+03  0.00000000000E+00 0.  1.
          1   -1    0    0  502    0  0.00000000000E+00 -0.00000000000E+00 -0.11595780622E+04  0.11595780622E+04  0.00000000000E+00 0. -1.
          6    1    1    2  502    0  0.32938269196E+03 -0.23618367930E+03 -0.10251532924E+04  0.11157055889E+04  0.17200000000E+03 0. -1.
         -6    1    1    2    0  501 -0.32938269196E+03  0.23618367930E+03  0.45449323416E+03  0.63279047720E+03  0.17200000000E+03 0.  1.
</event>
<event>
 4    1  0.3169553E-002  0.2329048E+03  0.7818608E-02  0.1124612E+00
          2   -1    0    0  502    0  0.00000000000E+00  0.00000000000E+00  0.10426884799E+04  0.10426884799E+04  0.00000000000E+00 0. -1.
         -2   -1    0    0    0  501 -0.00000000000E+00 -0.00000000000E+00 -0.13602068217E+03  0.13602068217E+03  0.00000000000E+00 0.  1.
          6    1    1    2  502    0  0.15557751242E+03  0.21361074256E+02  0.91646683879E+03  0.94559828917E+03  0.17200000000E+03 0. -1.
         -6    1    1    2    0  501 -0.15557751242E+03 -0.21361074256E+02 -0.97990410463E+01  0.23311087291E+03  0.17200000000E+03 0.  1.
</event>
<event>
 4    1  0.3169553E-002  0.1756852E+03  0.7818608E-02  0.1172045E+00
         -1   -1    0    0    0  501 -0.00000000000E+00  0.00000000000E+00  0.57211369815E+03  0.57211369815E+03  0.00000000000E+00 0.  1.
          1   -1    0    0  502    0  0.00000000000E+00 -0.00000000000E+00 -0.53984395325E+02  0.53984395325E+02  0.00000000000E+00 0. -1.
          6    1    1    2  502    0 -0.35752685589E+02 -0.17408555836E+01  0.26701630536E+03  0.31962946114E+03  0.17200000000E+03 0. -1.
         -6    1    1    2    0  501  0.35752685589E+02  0.17408555836E+01  0.25111299746E+03  0.30646863233E+03  0.17200000000E+03 0.  1.
</event>
<event>
 4    1  0.3169553E-002  0.2812916E+03  0.7818608E-02  0.1094986E+00
          1   -1    0    0  502    0  0.00000000000E+00  0.00000000000E+00  0.47409118252E+03  0.47409118252E+03  0.00000000000E+00 0. -1.
         -1   -1    0    0    0  501 -0.00000000000E+00 -0.00000000000E+00 -0.18091109760E+03  0.18091109760E+03  0.00000000000E+00 0.  1.
          6    1    1    2  502    0  0.17788641549E+02  0.22186599983E+03  0.23773747216E+03  0.36829887770E+03  0.17200000000E+03 0. -1.
         -6    1    1    2    0  501 -0.17788641549E+02 -0.22186599983E+03  0.55442612761E+02  0.28670340242E+03  0.17200000000E+03 0.  1.
</event>
<event>
 4    1  0.3169553E-002  0.3814005E+03  0.7818608E-02  0.1050417E+00
          2   -1    0    0  502    0  0.00000000000E+00  0.00000000000E+00  0.17669623165E+04  0.17669623165E+04  0.00000000000E+00 0. -1.
         -2   -1    0    0    0  501 -0.00000000000E+00 -0.00000000000E+00 -0.11698488553E+03  0.11698488553E+03  0.00000000000E+00 0.  1.
          6    1    1    2  502    0  0.23826526385E+03  0.24312963978E+03  0.13377122057E+04  0.13910213166E+04  0.17200000000E+03 0. -1.
         -6    1    1    2    0  501 -0.23826526385E+03 -0.24312963978E+03  0.31226522525E+03  0.49292588550E+03  0.17200000000E+03 0.  1.
</event>
<event>
 4    1  0.3169553E-002  0.2158917E+03  0.7818608E-02  0.1136984E+00
          3   -1    0    0  502    0  0.00000000000E+00  0.00000000000E+00  0.24282052230E+03  0.24282052230E+03  0.00000000000E+00 0. -1.
         -3   -1    0    0    0  501 -0.00000000000E+00 -0.00000000000E+00 -0.44080121081E+03  0.44080121081E+03  0.00000000000E+00 0.  1.
          6    1    1    2  502    0 -0.74830185368E+02  0.10689083678E+03  0.15783332333E+03  0.26743329184E+03  0.17200000000E+03 0. -1.
         -6    1    1    2    0  501  0.74830185368E+02 -0.10689083678E+03 -0.35581401184E+03  0.41618844127E+03  0.17200000000E+03 0.  1.
</event>
<event>
 4    1  0.3169553E-002  0.2104576E+03  0.7818608E-02  0.1141204E+00
         -2   -1    0    0    0  501 -0.00000000000E+00  0.00000000000E+00  0.14299007249E+03  0.14299007249E+03  0.00000000000E+00 0.  1.
          2   -1    0    0  502    0  0.00000000000E+00 -0.00000000000E+00 -0.37406730190E+03  0.37406730190E+03  0.00000000000E+00 0. -1.
          6    1    1    2  502    0 -0.11435484867E+03 -0.40390304484E+02 -0.83450638138E+01  0.21062300017E+03  0.17200000000E+03 0. -1.
         -6    1    1    2    0  501  0.11435484867E+03  0.40390304484E+02 -0.22273216560E+03  0.30643437422E+03  0.17200000000E+03 0. -1.
</event>
<event>
 4    1  0.3169553E-002  0.1994187E+03  0.7818608E-02  0.1150230E+00
         -2   -1    0    0    0  501 -0.00000000000E+00  0.00000000000E+00  0.57814302649E+02  0.57814302649E+02  0.00000000000E+00 0.  1.
          2   -1    0    0  502    0  0.00000000000E+00 -0.00000000000E+00 -0.69284986398E+03  0.69284986398E+03  0.00000000000E+00 0. -1.
          6    1    1    2  502    0 -0.19769384597E+02 -0.98959609286E+02 -0.28564820841E+03  0.34837154276E+03  0.17200000000E+03 0. -1.
         -6    1    1    2    0  501  0.19769384597E+02  0.98959609286E+02 -0.34938735293E+03  0.40229262387E+03  0.17200000000E+03 0.  1.
</event>
<event>
 4    1  0.3169553E-002  0.2007778E+03  0.7818608E-02  0.1149084E+00
          2   -1    0    0  502    0  0.00000000000E+00  0.00000000000E+00  0.25355610400E+04  0.25355610400E+04  0.00000000000E+00 0. -1.
         -2   -1    0    0    0  501 -0.00000000000E+00 -0.00000000000E+00 -0.15987946625E+02  0.15987946625E+02  0.00000000000E+00 0.  1.
          6    1    1    2  502    0  0.62319220143E+01 -0.10338701812E+03  0.13551909472E+04  0.13699832903E+04  0.17200000000E+03 0.  1.
         -6    1    1    2    0  501 -0.62319220143E+01  0.10338701812E+03  0.11643821462E+04  0.11815656963E+04  0.17200000000E+03 0. -1.
</event>
<event>
 4    1  0.3169553E-002  0.2197439E+03  0.7818608E-02  0.1134074E+00
          1   -1    0    0  502    0  0.00000000000E+00  0.00000000000E+00  0.10443912217E+03  0.10443912217E+03  0.00000000000E+00 0. -1.
         -1   -1    0    0    0  501 -0.00000000000E+00 -0.00000000000E+00 -0.46247566896E+03  0.46247566896E+03  0.00000000000E+00 0.  1.
          6    1    1    2  502    0  0.81588649622E+02  0.10975725037E+03 -0.17433388578E+03  0.28049895808E+03  0.17200000000E+03 0. -1.
         -6    1    1    2    0  501 -0.81588649622E+02 -0.10975725037E+03 -0.18370266101E+03  0.28641583305E+03  0.17200000000E+03 0. -1.
</event>
<event>
 4    1  0.3169553E-002  0.2918531E+03  0.7818608E-02  0.1089386E+00
         -2   -1    0    0    0  501 -0.00000000000E+00  0.00000000000E+00  0.13668874389E+03  0.13668874389E+03  0.00000000000E+00 0.  1.
          2   -1    0    0  502    0  0.00000000000E+00 -0.00000000000E+00 -0.69588815094E+03  0.69588815094E+03  0.00000000000E+00 0. -1.
          6    1    1    2  502    0  0.15662775066E+03  0.17624416794E+03 -0.41418300284E+03  0.50668118068E+03  0.17200000000E+03 0. -1.
         -6    1    1    2    0  501 -0.15662775066E+03 -0.17624416794E+03 -0.14501640421E+03  0.32589571415E+03  0.17200000000E+03 0.  1.
</event>
<event>
 4    1  0.3169553E-002  0.3872911E+03  0.7818608E-02  0.1048271E+00
         -2   -1    0    0    0  501 -0.00000000000E+00  0.00000000000E+00  0.17804741876E+03  0.17804741876E+03  0.00000000000E+00 0.  1.
          2   -1    0    0  502    0  0.00000000000E+00 -0.00000000000E+00 -0.12225289157E+04  0.12225289157E+04  0.00000000000E+00 0. -1.
          6    1    1    2  502    0  0.11898343122E+03  0.32596519599E+03 -0.13176910118E+03  0.40909346356E+03  0.17200000000E+03 0.  1.
         -6    1    1    2    0  501 -0.11898343122E+03 -0.32596519599E+03 -0.91271239571E+03  0.99148287085E+03  0.17200000000E+03 0. -1.
</event>
<event>
 4    1  0.3169553E-002  0.2008554E+03  0.7818608E-02  0.1149019E+00
          2   -1    0    0  502    0  0.00000000000E+00  0.00000000000E+00  0.15422976371E+04  0.15422976371E+04  0.00000000000E+00 0. -1.
         -2   -1    0    0    0  501 -0.00000000000E+00 -0.00000000000E+00 -0.43125520105E+02  0.43125520105E+02  0.00000000000E+00 0.  1.
          6    1    1    2  502    0  0.10875043215E+02 -0.10315346557E+03  0.12468208513E+04  0.12628955377E+04  0.17200000000E+03 0. -1.
         -6    1    1    2    0  501 -0.10875043215E+02  0.10315346557E+03  0.25235126576E+03  0.32252761953E+03  0.17200000000E+03 0.  1.
</event>
<event>
 4    1  0.3169553E-002  0.1882990E+03  0.7818608E-02  0.1160005E+00
          2   -1    0    0  502    0  0.00000000000E+00  0.00000000000E+00  0.14176978848E+04  0.14176978848E+04  0.00000000000E+00 0. -1.
         -2   -1    0    0    0  501 -0.00000000000E+00 -0.00000000000E+00 -0.44124103297E+02  0.44124103297E+02  0.00000000000E+00 0.  1.
          6    1    1    2  502    0 -0.70964106383E+02 -0.28924069869E+02  0.11678526620E+04  0.11829354785E+04  0.17200000000E+03 0. -1.
         -6    1    1    2    0  501  0.70964106383E+02  0.28924069869E+02  0.20572111951E+03  0.27888650958E+03  0.17200000000E+03 0.  1.
</event>
<event>
 4    1  0.3169553E-002  0.2830620E+03  0.7818608E-02  0.1094028E+00
         -2   -1    0    0    0  501 -0.00000000000E+00  0.00000000000E+00  0.17165262605E+03  0.17165262605E+03  0.00000000000E+00 0.  1.
          2   -1    0    0  502    0  0.00000000000E+00 -0.00000000000E+00 -0.47751117082E+03  0.47751117082E+03  0.00000000000E+00 0. -1.
          6    1    1    2  502    0 -0.22441538845E+03 -0.13334311905E+02 -0.20158671564E+03  0.34750722923E+03  0.17200000000E+03 0. -1.
         -6    1    1    2    0  501  0.22441538845E+03  0.13334311905E+02 -0.10427182913E+03  0.30165656764E+03  0.17200000000E+03 0.  1.
</event>
<event>
 4    1  0.3169553E-002  0.2071120E+03  0.7818608E-02  0.1143874E+00
          2   -1    0    0  502    0  0.00000000000E+00  0.00000000000E+00  0.17030883460E+04  0.17030883460E+04  0.00000000000E+00 0. -1.
         -2   -1    0    0    0  501 -0.00000000000E+00 -0.00000000000E+00 -0.25296679890E+02  0.25296679890E+02  0.00000000000E+00 0.  1.
          6    1    1    2  502    0  0.69796633723E+02 -0.91868352949E+02  0.78194290864E+03  0.80890671695E+03  0.17200000000E+03 0.  1.
         -6    1    1    2    0  501 -0.69796633723E+02  0.91868352949E+02  0.89584875747E+03  0.91947830894E+03  0.17200000000E+03 0.  1.
</event>
<event>
 4    1  0.3169553E-002  0.2880739E+03  0.7818608E-02  0.1091359E+00
         -2   -1    0    0    0  501 -0.00000000000E+00  0.00000000000E+00  0.44332849628E+02  0.44332849628E+02  0.00000000000E+00 0.  1.
          2   -1    0    0  502    0  0.00000000000E+00 -0.00000000000E+00 -0.21069893643E+04  0.21069893643E+04  0.00000000000E+00 0. -1.
          6    1    1    2  502    0 -0.17445403940E+03 -0.15155322236E+03 -0.13906324184E+04  0.14201567217E+04  0.17200000000E+03 0. -1.
         -6    1    1    2    0  501  0.17445403940E+03  0.15155322236E+03 -0.67202409632E+03  0.73116549228E+03  0.17200000000E+03 0.  1.
</event>
<event>
 4    1  0.3169553E-002  0.1778231E+03  0.7818608E-02  0.1169927E+00
         -1   -1    0    0    0  501 -0.00000000000E+00  0.00000000000E+00  0.38797856271E+02  0.38797856271E+02  0.00000000000E+00 0.  1.
          1   -1    0    0  502    0  0.00000000000E+00 -0.00000000000E+00 -0.81789634582E+03  0.81789634582E+03  0.00000000000E+00 0. -1.
          6    1    1    2  502    0 -0.35425367385E+02  0.27965920037E+02 -0.41494887046E+03  0.45144613681E+03  0.17200000000E+03 0. -1.
         -6    1    1    2    0  501  0.35425367385E+02 -0.27965920037E+02 -0.36414961909E+03  0.40524806529E+03  0.17200000000E+03 0.  1.
</event>
<event>
 4    1  0.3169553E-002  0.3542746E+03  0.7818608E-02  0.1060874E+00
         -3   -1    0    0    0  501 -0.00000000000E+00  0.00000000000E+00  0.10894281051E+03  0.10894281051E+03  0.00000000000E+00 0.  1.
          3   -1    0    0  502    0  0.00000000000E+00 -0.00000000000E+00 -0.12114754901E+04  0.12114754901E+04  0.00000000000E+00 0. -1.
          6    1    1    2  502    0 -0.73444936547E+01 -0.30963289793E+03 -0.69745478303E+03  0.78227466241E+03  0.17200000000E+03 0. -1.
         -6    1    1    2    0  501  0.73444936547E+01  0.30963289793E+03 -0.40507789658E+03  0.53814363823E+03  0.17200000000E+03 0.  1.
</event>
<event>
 4    1  0.3169553E-002  0.1736961E+03  0.7818608E-02  0.1174047E+00
         -2   -1    0    0    0  501 -0.00000000000E+00  0.00000000000E+00  0.70687852161E+02  0.70687852161E+02  0.00000000000E+00 0.  1.
          2   -1    0    0  502    0  0.00000000000E+00 -0.00000000000E+00 -0.46284171629E+03  0.46284171629E+03  0.00000000000E+00 0. -1.
          6    1    1    2  502    0 -0.21599623972E+02 -0.10945023376E+02 -0.12164658812E+03  0.21205713781E+03  0.17200000000E+03 0.  1.
         -6    1    1    2    0  501  0.21599623972E+02  0.10945023376E+02 -0.27050727600E+03  0.32147243064E+03  0.17200000000E+03 0. -1.
</event>
<event>
 4    1  0.3169553E-002  0.3438860E+03  0.7818608E-02  0.1065153E+00
         -2   -1    0    0    0  501 -0.00000000000E+00  0.00000000000E+00  0.30121527835E+03  0.30121527835E+03  0.00000000000E+00 0.  1.
          2   -1    0    0  502    0  0.00000000000E+00 -0.00000000000E+00 -0.40137541092E+03  0.40137541092E+03  0.00000000000E+00 0. -1.
          6    1    1    2  502    0  0.28128720195E+03  0.97729698128E+02 -0.10201893569E+03  0.35869966143E+03  0.17200000000E+03 0. -1.
         -6    1    1    2    0  501 -0.28128720195E+03 -0.97729698128E+02  0.18588031161E+01  0.34389102783E+03  0.17200000000E+03 0.  1.
</event>
<event>
 4    1  0.3169553E-002  0.1856119E+03  0.7818608E-02  0.1162480E+00
         -2   -1    0    0    0  501 -0.00000000000E+00  0.00000000000E+00  0.11090386849E+02  0.11090386849E+02  0.00000000000E+00 0.  1.
          2   -1    0    0  502    0  0.00000000000E+00 -0.00000000000E+00 -0.31456760706E+04  0.31456760706E+04  0.00000000000E+00 0. -1.
          6    1    1    2  502    0 -0.66362804371E+02  0.21534875983E+02 -0.13910454643E+04  0.14033742396E+04  0.17200000000E+03 0.  1.
         -6    1    1    2    0  501  0.66362804371E+02 -0.21534875983E+02 -0.17435402194E+04  0.17533922178E+04  0.17200000000E+03 0. -1.
</event>
<event>
 4    1  0.3169553E-002  0.1846228E+03  0.7818608E-02  0.1163403E+00
          1   -1    0    0  502    0  0.00000000000E+00  0.00000000000E+00  0.11388945555E+04  0.11388945555E+04  0.00000000000E+00 0. -1.
         -1   -1    0    0    0  501 -0.00000000000E+00 -0.00000000000E+00 -0.74544855043E+02  0.74544855043E+02  0.00000000000E+00 0.  1.
          6    1    1    2  502    0 -0.18673743649E+02 -0.64442659151E+02  0.10015559800E+04  0.10184301380E+04  0.17200000000E+03 0. -1.
         -6    1    1    2    0  501  0.18673743649E+02  0.64442659151E+02  0.62793720427E+02  0.19500927246E+03  0.17200000000E+03 0.  1.
</event>
<event>
 4    1  0.3169553E-002  0.2197276E+03  0.7818608E-02  0.1134086E+00
          1   -1    0    0  502    0  0.00000000000E+00  0.00000000000E+00  0.10063636105E+03  0.10063636105E+03  0.00000000000E+00 0. -1.
         -1   -1    0    0    0  501 -0.00000000000E+00 -0.00000000000E+00 -0.48261514245E+03  0.48261514245E+03  0.00000000000E+00 0.  1.
          6    1    1    2  502    0 -0.13663791410E+03 -0.51278274779E+01 -0.16851650881E+03  0.27690797736E+03  0.17200000000E+03 0. -1.
         -6    1    1    2    0  501  0.13663791410E+03  0.51278274779E+01 -0.21346227260E+03  0.30634352614E+03  0.17200000000E+03 0.  1.
</event>
<event>
 4    1  0.3169553E-002  0.2088108E+03  0.7818608E-02  0.1142511E+00
          2   -1    0    0  502    0  0.00000000000E+00  0.00000000000E+00  0.35596849133E+03  0.35596849133E+03  0.00000000000E+00 0. -1.
         -2   -1    0    0    0  501 -0.00000000000E+00 -0.00000000000E+00 -0.32133061594E+03  0.32133061594E+03  0.00000000000E+00 0.  1.
          6    1    1    2  502    0 -0.10814768545E+03  0.48187308784E+02  0.28371571911E+03  0.35227339932E+03  0.17200000000E+03 0. -1.
         -6    1    1    2    0  501  0.10814768545E+03 -0.48187308784E+02 -0.24907784373E+03  0.32502570795E+03  0.17200000000E+03 0.  1.
</event>
<event>
 4    1  0.3169553E-002  0.1979337E+03  0.7818608E-02  0.1151494E+00
         -2   -1    0    0    0  501 -0.00000000000E+00  0.00000000000E+00  0.20621913133E+02  0.20621913133E+02  0.00000000000E+00 0.  1.
          2   -1    0    0  502    0  0.00000000000E+00 -0.00000000000E+00 -0.19503262889E+04  0.19503262889E+04  0.00000000000E+00 0. -1.
          6    1    1    2  502    0  0.37362284245E+02  0.90541747830E+02 -0.80625309067E+03  0.83019382953E+03  0.17200000000E+03 0. -1.
         -6    1    1    2    0  501 -0.37362284245E+02 -0.90541747830E+02 -0.11234512851E+04  0.11407543725E+04  0.17200000000E+03 0. -1.
</event>
<event>
 4    1  0.3169553E-002  0.5282307E+03  0.7818608E-02  0.1006662E+00
          2   -1    0    0  502    0  0.00000000000E+00  0.00000000000E+00  0.89762081400E+03  0.89762081400E+03  0.00000000000E+00 0. -1.
         -2   -1    0    0    0  501 -0.00000000000E+00 -0.00000000000E+00 -0.33239893448E+03  0.33239893448E+03  0.00000000000E+00 0.  1.
          6    1    1    2  502    0  0.12905395227E+03 -0.48248191922E+03  0.43919206592E+03  0.68696244129E+03  0.17200000000E+03 0. -1.
         -6    1    1    2    0  501 -0.12905395227E+03  0.48248191922E+03  0.12602981360E+03  0.54305730719E+03  0.17200000000E+03 0.  1.
</event>
<event>
 4    1  0.3169553E-002  0.4784018E+03  0.7818608E-02  0.1019575E+00
          2   -1    0    0  502    0  0.00000000000E+00  0.00000000000E+00  0.13547957607E+04  0.13547957607E+04  0.00000000000E+00 0. -1.
         -2   -1    0    0    0  501 -0.00000000000E+00 -0.00000000000E+00 -0.17302250524E+03  0.17302250524E+03  0.00000000000E+00 0.  1.
          6    1    1    2  502    0  0.15384508411E+03  0.41906561091E+03  0.47342898440E+03  0.67305519790E+03  0.17200000000E+03 0. -1.
         -6    1    1    2    0  501 -0.15384508411E+03 -0.41906561091E+03  0.70834427107E+03  0.85476306805E+03  0.17200000000E+03 0.  1.
</event>
<event>
 4    1  0.3169553E-002  0.1734420E+03  0.7818608E-02  0.1174305E+00
         -2   -1    0    0    0  501 -0.00000000000E+00  0.00000000000E+00  0.25273488327E+02  0.25273488327E+02  0.00000000000E+00 0.  1.
          2   -1    0    0  502    0  0.00000000000E+00 -0.00000000000E+00 -0.12122246694E+04  0.12122246694E+04  0.00000000000E+00 0. -1.
          6    1    1    2  502    0 -0.95607174665E+01  0.20167650949E+02 -0.51019597891E+03  0.53887111480E+03  0.17200000000E+03 0.  1.
         -6    1    1    2    0  501  0.95607174665E+01 -0.20167650949E+02 -0.67675520218E+03  0.69862704295E+03  0.17200000000E+03 0. -1.
</event>
<event>
 4    1  0.3169553E-002  0.1763262E+03  0.7818608E-02  0.1171407E+00
          1   -1    0    0  502    0  0.00000000000E+00  0.00000000000E+00  0.14284210801E+03  0.14284210801E+03  0.00000000000E+00 0. -1.
         -1   -1    0    0    0  501 -0.00000000000E+00 -0.00000000000E+00 -0.25473710978E+03  0.25473710978E+03  0.00000000000E+00 0.  1.
          6    1    1    2  502    0 -0.58403150022E+01 -0.38377221792E+02  0.19893544734E+02  0.17744484651E+03  0.17200000000E+03 0. -1.
         -6    1    1    2    0  501  0.58403150022E+01  0.38377221792E+02 -0.13178854650E+03  0.22013437129E+03  0.17200000000E+03 0.  1.
</event>
<event>
 4    1  0.3169553E-002  0.2426313E+03  0.7818608E-02  0.1118052E+00
         -1   -1    0    0    0  501 -0.00000000000E+00  0.00000000000E+00  0.20802203100E+03  0.20802203100E+03  0.00000000000E+00 0.  1.
          1   -1    0    0  502    0  0.00000000000E+00 -0.00000000000E+00 -0.68958243341E+03  0.68958243341E+03  0.00000000000E+00 0. -1.
          6    1    1    2  502    0  0.17000845784E+03 -0.19571840990E+02  0.10383703447E+03  0.26391677178E+03  0.17200000000E+03 0.  1.
         -6    1    1    2    0  501 -0.17000845784E+03  0.19571840990E+02 -0.58539743688E+03  0.63368769264E+03  0.17200000000E+03 0. -1.
</event>
<event>
 4    1  0.3169553E-002  0.1833917E+03  0.7818608E-02  0.1164560E+00
          2   -1    0    0  502    0  0.00000000000E+00  0.00000000000E+00  0.11741706303E+04  0.11741706303E+04  0.00000000000E+00 0. -1.
         -2   -1    0    0    0  501 -0.00000000000E+00 -0.00000000000E+00 -0.29498434893E+02  0.29498434893E+02  0.00000000000E+00 0.  1.
          6    1    1    2  502    0 -0.61869775898E+02  0.14854409987E+02  0.46988699015E+03  0.50440688554E+03  0.17200000000E+03 0.  1.
         -6    1    1    2    0  501  0.61869775898E+02 -0.14854409987E+02  0.67478520529E+03  0.69926217969E+03  0.17200000000E+03 0.  1.
</event>
<event>
 4    1  0.3169553E-002  0.2406342E+03  0.7818608E-02  0.1119371E+00
         -2   -1    0    0    0  501 -0.00000000000E+00  0.00000000000E+00  0.28204016529E+03  0.28204016529E+03  0.00000000000E+00 0.  1.
          2   -1    0    0  502    0  0.00000000000E+00 -0.00000000000E+00 -0.28382949045E+03  0.28382949045E+03  0.00000000000E+00 0. -1.
          6    1    1    2  502    0 -0.61002904066E+02  0.15684217361E+03 -0.14971239040E+03  0.28340540144E+03  0.17200000000E+03 0. -1.
         -6    1    1    2    0  501  0.61002904066E+02 -0.15684217361E+03  0.14792306525E+03  0.28246425430E+03  0.17200000000E+03 0.  1.
</event>
<event>
 4    1  0.3169553E-002  0.2012140E+03  0.7818608E-02  0.1148719E+00
         -1   -1    0    0    0  501 -0.00000000000E+00  0.00000000000E+00  0.47130190137E+02  0.47130190137E+02  0.00000000000E+00 0.  1.
          1   -1    0    0  502    0  0.00000000000E+00 -0.00000000000E+00 -0.86078279526E+03  0.86078279526E+03  0.00000000000E+00 0. -1.
          6    1    1    2  502    0 -0.10230692857E+03  0.20889456526E+02 -0.38644458329E+03  0.43569082270E+03  0.17200000000E+03 0. -1.
         -6    1    1    2    0  501  0.10230692857E+03 -0.20889456526E+02 -0.42720802183E+03  0.47222216270E+03  0.17200000000E+03 0.  1.
</event>
<event>
 4    1  0.3169553E-002  0.1863704E+03  0.7818608E-02  0.1161776E+00
          1   -1    0    0  502    0  0.00000000000E+00  0.00000000000E+00  0.13355888290E+04  0.13355888290E+04  0.00000000000E+00 0. -1.
         -1   -1    0    0    0  501 -0.00000000000E+00 -0.00000000000E+00 -0.26172255885E+02  0.26172255885E+02  0.00000000000E+00 0.  1.
          6    1    1    2  502    0 -0.34972619728E+02 -0.62664384600E+02  0.60051257780E+03  0.62876805367E+03  0.17200000000E+03 0.  1.
         -6    1    1    2    0  501  0.34972619728E+02  0.62664384600E+02  0.70890399534E+03  0.73299303123E+03  0.17200000000E+03 0.  1.
</event>
<event>
 4    1  0.3169553E-002  0.2890433E+03  0.7818608E-02  0.1090850E+00
          2   -1    0    0  502    0  0.00000000000E+00  0.00000000000E+00  0.94658547379E+02  0.94658547379E+02  0.00000000000E+00 0. -1.
         -2   -1    0    0    0  501 -0.00000000000E+00 -0.00000000000E+00 -0.14480547112E+04  0.14480547112E+04  0.00000000000E+00 0.  1.
          6    1    1    2  502    0 -0.22312313528E+03 -0.64638195497E+02 -0.19468365377E+03  0.34849355067E+03  0.17200000000E+03 0. -1.
         -6    1    1    2    0  501  0.22312313528E+03  0.64638195497E+02 -0.11587125101E+04  0.11942197079E+04  0.17200000000E+03 0.  1.
</event>
<event>
 4    1  0.3169553E-002  0.2020411E+03  0.7818608E-02  0.1148028E+00
          1   -1    0    0  502    0  0.00000000000E+00  0.00000000000E+00  0.40990281678E+03  0.40990281678E+03  0.00000000000E+00 0. -1.
         -1   -1    0    0    0  501 -0.00000000000E+00 -0.00000000000E+00 -0.12493329424E+03  0.12493329424E+03  0.00000000000E+00 0.  1.
          6    1    1    2  502    0 -0.58486441429E+02 -0.88407782465E+02  0.26293760551E+03  0.33159732240E+03  0.17200000000E+03 0.  1.
         -6    1    1    2    0  501  0.58486441429E+02  0.88407782465E+02  0.22031917033E+02  0.20323878862E+03  0.17200000000E+03 0.  1.
</event>
<event>
 4    1  0.3169553E-002  0.6010528E+03  0.7818608E-02  0.9903224E-01
         -2   -1    0    0    0  501 -0.00000000000E+00  0.00000000000E+00  0.40600508747E+03  0.40600508747E+03  0.00000000000E+00 0.  1.
          2   -1    0    0  502    0  0.00000000000E+00 -0.00000000000E+00 -0.91272864162E+03  0.91272864162E+03  0.00000000000E+00 0. -1.
          6    1    1    2  502    0 -0.55218212108E+03 -0.16363186175E+03 -0.14886124115E+03  0.61921252420E+03  0.17200000000E+03 0. -1.
         -6    1    1    2    0  501  0.55218212108E+03  0.16363186175E+03 -0.35786231301E+03  0.69952120488E+03  0.17200000000E+03 0.  1.
</event>
<event>
 4    1  0.3169553E-002  0.3220330E+03  0.7818608E-02  0.1074717E+00
          1   -1    0    0  502    0  0.00000000000E+00  0.00000000000E+00  0.11091953988E+04  0.11091953988E+04  0.00000000000E+00 0. -1.
         -1   -1    0    0    0  501 -0.00000000000E+00 -0.00000000000E+00 -0.10132735896E+03  0.10132735896E+03  0.00000000000E+00 0.  1.
          6    1    1    2  502    0 -0.13940770284E+03 -0.23385203656E+03  0.67220120388E+03  0.74535880025E+03  0.17200000000E+03 0. -1.
         -6    1    1    2    0  501  0.13940770284E+03  0.23385203656E+03  0.33566683597E+03  0.46516395753E+03  0.17200000000E+03 0. -1.
</event>
<event>
 4    1  0.3169553E-002  0.2723948E+03  0.7818608E-02  0.1099917E+00
          2   -1    0    0  502    0  0.00000000000E+00  0.00000000000E+00  0.33092572411E+04  0.33092572411E+04  0.00000000000E+00 0. -1.
         -2   -1    0    0    0  501 -0.00000000000E+00 -0.00000000000E+00 -0.31406083181E+02  0.31406083181E+02  0.00000000000E+00 0.  1.
          6    1    1    2  502    0  0.13586278873E+03 -0.16172895491E+03  0.25323165754E+04  0.25469248498E+04  0.17200000000E+03 0. -1.
         -6    1    1    2    0  501 -0.13586278873E+03  0.16172895491E+03  0.74553458248E+03  0.79373847450E+03  0.17200000000E+03 0.  1.
</event>
<event>
 4    1  0.3169553E-002  0.2214505E+03  0.7818608E-02  0.1132806E+00
          2   -1    0    0  502    0  0.00000000000E+00  0.00000000000E+00  0.14533978895E+04  0.14533978895E+04  0.00000000000E+00 0. -1.
         -2   -1    0    0    0  501 -0.00000000000E+00 -0.00000000000E+00 -0.33762717993E+02  0.33762717993E+02  0.00000000000E+00 0.  1.
          6    1    1    2  502    0  0.11034352808E+03  0.85326662216E+02  0.69133127422E+03  0.72593337449E+03  0.17200000000E+03 0. -1.
         -6    1    1    2    0  501 -0.11034352808E+03 -0.85326662216E+02  0.72830389731E+03  0.76122723303E+03  0.17200000000E+03 0. -1.
</event>
<event>
 4    1  0.3169553E-002  0.2820941E+03  0.7818608E-02  0.1094551E+00
          3   -1    0    0  502    0  0.00000000000E+00  0.00000000000E+00  0.60314429876E+02  0.60314429876E+02  0.00000000000E+00 0. -1.
         -3   -1    0    0    0  501 -0.00000000000E+00 -0.00000000000E+00 -0.13310560257E+04  0.13310560257E+04  0.00000000000E+00 0.  1.
          6    1    1    2  502    0  0.75397935060E+02 -0.21049520568E+03 -0.70055442436E+03  0.75521757244E+03  0.17200000000E+03 0. -1.
         -6    1    1    2    0  501 -0.75397935060E+02  0.21049520568E+03 -0.57018717148E+03  0.63615288316E+03  0.17200000000E+03 0.  1.
</event>
<event>
 4    1  0.3169553E-002  0.1830013E+03  0.7818608E-02  0.1164930E+00
          2   -1    0    0  502    0  0.00000000000E+00  0.00000000000E+00  0.65755745273E+03  0.65755745273E+03  0.00000000000E+00 0. -1.
         -2   -1    0    0    0  501 -0.00000000000E+00 -0.00000000000E+00 -0.93423540032E+02  0.93423540032E+02  0.00000000000E+00 0.  1.
          6    1    1    2  502    0 -0.59224582147E+02 -0.19947777440E+02  0.28827280175E+02  0.18525786633E+03  0.17200000000E+03 0.  1.
         -6    1    1    2    0  501  0.59224582147E+02  0.19947777440E+02  0.53530663252E+03  0.56572312643E+03  0.17200000000E+03 0. -1.
</event>
<event>
 4    1  0.3169553E-002  0.2320054E+03  0.7818608E-02  0.1125236E+00
          2   -1    0    0  502    0  0.00000000000E+00  0.00000000000E+00  0.10141537340E+04  0.10141537340E+04  0.00000000000E+00 0. -1.
         -2   -1    0    0    0  501 -0.00000000000E+00 -0.00000000000E+00 -0.56550354405E+02  0.56550354405E+02  0.00000000000E+00 0.  1.
          6    1    1    2  502    0  0.14199877556E+03  0.63865831813E+02  0.61151168941E+03  0.65404360942E+03  0.17200000000E+03 0. -1.
         -6    1    1    2    0  501 -0.14199877556E+03 -0.63865831813E+02  0.34609169016E+03  0.41666047896E+03  0.17200000000E+03 0.  1.
</event>
<event>
 4    1  0.3169553E-002  0.6376034E+03  0.7818608E-02  0.9830323E-01
          2   -1    0    0  502    0  0.00000000000E+00  0.00000000000E+00  0.23450118727E+04  0.23450118727E+04  0.00000000000E+00 0. -1.
         -2   -1    0    0    0  501 -0.00000000000E+00 -0.00000000000E+00 -0.18442857982E+03  0.18442857982E+03  0.00000000000E+00 0.  1.
          6    1    1    2  502    0 -0.46335001709E+03  0.40281620450E+03  0.77050065646E+03  0.10001046918E+04  0.17200000000E+03 0. -1.
         -6    1    1    2    0  501  0.46335001709E+03 -0.40281620450E+03  0.13900826364E+04  0.15293357607E+04  0.17200000000E+03 0.  1.
</event>
<event>
 4    1  0.3169553E-002  0.1983318E+03  0.7818608E-02  0.1151154E+00
          2   -1    0    0  502    0  0.00000000000E+00  0.00000000000E+00  0.11865279613E+03  0.11865279613E+03  0.00000000000E+00 0. -1.
         -2   -1    0    0    0  501 -0.00000000000E+00 -0.00000000000E+00 -0.61292939172E+03  0.61292939172E+03  0.00000000000E+00 0.  1.
          6    1    1    2  502    0  0.57556948431E+02 -0.80241516953E+02  0.71743231217E+00  0.19833309876E+03  0.17200000000E+03 0. -1.
         -6    1    1    2    0  501 -0.57556948431E+02  0.80241516953E+02 -0.49499402790E+03  0.53324908909E+03  0.17200000000E+03 0.  1.
</event>
<event>
 4    1  0.3169553E-002  0.1857444E+03  0.7818608E-02  0.1162357E+00
         -2   -1    0    0    0  501 -0.00000000000E+00  0.00000000000E+00  0.22712113563E+02  0.22712113563E+02  0.00000000000E+00 0.  1.
          2   -1    0    0  502    0  0.00000000000E+00 -0.00000000000E+00 -0.15192849131E+04  0.15192849131E+04  0.00000000000E+00 0. -1.
          6    1    1    2  502    0 -0.69736536064E+02 -0.73359402585E+01 -0.73884813045E+03  0.76183827703E+03  0.17200000000E+03 0.  1.
         -6    1    1    2    0  501  0.69736536064E+02  0.73359402585E+01 -0.75772466906E+03  0.78015874961E+03  0.17200000000E+03 0. -1.
</event>
<event>
 4    1  0.3169553E-002  0.3491665E+03  0.7818608E-02  0.1062958E+00
          2   -1    0    0  502    0  0.00000000000E+00  0.00000000000E+00  0.15109918313E+04  0.15109918313E+04  0.00000000000E+00 0. -1.
         -2   -1    0    0    0  501 -0.00000000000E+00 -0.00000000000E+00 -0.83809715009E+02  0.83809715009E+02  0.00000000000E+00 0.  1.
          6    1    1    2  502    0  0.27200323825E+03 -0.13545290538E+03  0.86751366039E+03  0.93514555132E+03  0.17200000000E+03 0. -1.
         -6    1    1    2    0  501 -0.27200323825E+03  0.13545290538E+03  0.55966845592E+03  0.65965599501E+03  0.17200000000E+03 0.  1.
</event>
<event>
 4    1  0.3169553E-002  0.2325746E+03  0.7818608E-02  0.1124841E+00
          2   -1    0    0  502    0  0.00000000000E+00  0.00000000000E+00  0.10915024833E+04  0.10915024833E+04  0.00000000000E+00 0. -1.
         -2   -1    0    0    0  501 -0.00000000000E+00 -0.00000000000E+00 -0.11979147599E+03  0.11979147599E+03  0.00000000000E+00 0.  1.
          6    1    1    2  502    0  0.94506068386E+02  0.12480198122E+03  0.94960519353E+03  0.97767118965E+03  0.17200000000E+03 0. -1.
         -6    1    1    2    0  501 -0.94506068386E+02 -0.12480198122E+03  0.22105813727E+02  0.23362276960E+03  0.17200000000E+03 0.  1.
</event>
<event>
 4    1  0.3169553E-002  0.1840329E+03  0.7818608E-02  0.1163956E+00
         -2   -1    0    0    0  501 -0.00000000000E+00  0.00000000000E+00  0.17728925271E+03  0.17728925271E+03  0.00000000000E+00 0.  1.
          2   -1    0    0  502    0  0.00000000000E+00 -0.00000000000E+00 -0.73966168997E+03  0.73966168997E+03  0.00000000000E+00 0. -1.
          6    1    1    2  502    0  0.55344907884E+02  0.34943496297E+02 -0.67604225382E+03  0.70064344407E+03  0.17200000000E+03 0. -1.
         -6    1    1    2    0  501 -0.55344907884E+02 -0.34943496297E+02  0.11366981656E+03  0.21630749862E+03  0.17200000000E+03 0.  1.
</event>
<event>
 4    1  0.3169553E-002  0.4921276E+03  0.7818608E-02  0.1015854E+00
          2   -1    0    0  502    0  0.00000000000E+00  0.00000000000E+00  0.16541392207E+04  0.16541392207E+04  0.00000000000E+00 0. -1.
         -2   -1    0    0    0  501 -0.00000000000E+00 -0.00000000000E+00 -0.15267023920E+03  0.15267023920E+03  0.00000000000E+00 0.  1.
          6    1    1    2  502    0  0.27275492110E+00 -0.46109160751E+03  0.93360907002E+03  0.10553745499E+04  0.17200000000E+03 0. -1.
         -6    1    1    2    0  501 -0.27275492110E+00  0.46109160751E+03  0.56785991145E+03  0.75143490998E+03  0.17200000000E+03 0.  1.
</event>
<event>
 4    1  0.3169553E-002  0.1907326E+03  0.7818608E-02  0.1157802E+00
         -3   -1    0    0    0  501 -0.00000000000E+00  0.00000000000E+00  0.14227220690E+03  0.14227220690E+03  0.00000000000E+00 0.  1.
          3   -1    0    0  502    0  0.00000000000E+00 -0.00000000000E+00 -0.47618223623E+03  0.47618223623E+03  0.00000000000E+00 0. -1.
          6    1    1    2  502    0  0.31585161358E+02 -0.76139965119E+02 -0.37737090069E+03  0.42283296158E+03  0.17200000000E+03 0. -1.
         -6    1    1    2    0  501 -0.31585161358E+02  0.76139965119E+02  0.43460871362E+02  0.19562148156E+03  0.17200000000E+03 0.  1.
</event>
<event>
 4    1  0.3169553E-002  0.1748764E+03  0.7818608E-02  0.1172856E+00
          1   -1    0    0  502    0  0.00000000000E+00  0.00000000000E+00  0.13504312631E+04  0.13504312631E+04  0.00000000000E+00 0. -1.
         -1   -1    0    0    0  501 -0.00000000000E+00 -0.00000000000E+00 -0.25802298222E+02  0.25802298222E+02  0.00000000000E+00 0.  1.
          6    1    1    2  502    0 -0.21036776765E+01  0.31516887772E+02  0.42164089911E+03  0.45646772884E+03  0.17200000000E+03 0.  1.
         -6    1    1    2    0  501  0.21036776765E+01 -0.31516887772E+02  0.90298806579E+03  0.91976583250E+03  0.17200000000E+03 0. -1.
</event>
<event>
 4    1  0.3169553E-002  0.1732862E+03  0.7818608E-02  0.1174464E+00
          2   -1    0    0  502    0  0.00000000000E+00  0.00000000000E+00  0.16873964771E+04  0.16873964771E+04  0.00000000000E+00 0. -1.
         -2   -1    0    0    0  501 -0.00000000000E+00 -0.00000000000E+00 -0.18350130232E+02  0.18350130232E+02  0.00000000000E+00 0.  1.
          6    1    1    2  502    0 -0.18930356191E+02 -0.92607536115E+01  0.98279332643E+03  0.99795332677E+03  0.17200000000E+03 0. -1.
         -6    1    1    2    0  501  0.18930356191E+02  0.92607536115E+01  0.68625302043E+03  0.70779328055E+03  0.17200000000E+03 0.  1.
</event>
<event>
 4    1  0.3169553E-002  0.2038152E+03  0.7818608E-02  0.1146559E+00
         -1   -1    0    0    0  501 -0.00000000000E+00  0.00000000000E+00  0.39550151071E+02  0.39550151071E+02  0.00000000000E+00 0.  1.
          1   -1    0    0  502    0  0.00000000000E+00 -0.00000000000E+00 -0.10507883265E+04  0.10507883265E+04  0.00000000000E+00 0. -1.
          6    1    1    2  502    0  0.10931834247E+03  0.24791989090E+01 -0.49421334688E+03  0.53459094518E+03  0.17200000000E+03 0.  1.
         -6    1    1    2    0  501 -0.10931834247E+03 -0.24791989090E+01 -0.51702482851E+03  0.55574753236E+03  0.17200000000E+03 0. -1.
</event>
<event>
 4    1  0.3169553E-002  0.5224346E+03  0.7818608E-02  0.1008084E+00
          2   -1    0    0  502    0  0.00000000000E+00  0.00000000000E+00  0.17128225318E+04  0.17128225318E+04  0.00000000000E+00 0. -1.
         -2   -1    0    0    0  501 -0.00000000000E+00 -0.00000000000E+00 -0.30797179051E+03  0.30797179051E+03  0.00000000000E+00 0.  1.
          6    1    1    2  502    0  0.49096635294E+03 -0.48020221661E+02  0.14043301631E+04  0.14983594724E+04  0.17200000000E+03 0. -1.
         -6    1    1    2    0  501 -0.49096635294E+03  0.48020221661E+02  0.52057816933E+00  0.52243484992E+03  0.17200000000E+03 0.  1.
</event>
<event>
 4    1  0.3169553E-002  0.1972195E+03  0.7818608E-02  0.1152106E+00
          1   -1    0    0  502    0  0.00000000000E+00  0.00000000000E+00  0.13139050965E+04  0.13139050965E+04  0.00000000000E+00 0. -1.
         -1   -1    0    0    0  501 -0.00000000000E+00 -0.00000000000E+00 -0.78294476205E+02  0.78294476205E+02  0.00000000000E+00 0.  1.
          6    1    1    2  502    0 -0.79023448227E+02 -0.55378801916E+02  0.68855723603E+02  0.20889381931E+03  0.17200000000E+03 0.  1.
         -6    1    1    2    0  501  0.79023448227E+02  0.55378801916E+02  0.11667548967E+04  0.11833057534E+04  0.17200000000E+03 0. -1.
</event>
<event>
 4    1  0.3169553E-002  0.1822656E+03  0.7818608E-02  0.1165628E+00
         -3   -1    0    0    0  501 -0.00000000000E+00  0.00000000000E+00  0.15542634987E+04  0.15542634987E+04  0.00000000000E+00 0.  1.
          3   -1    0    0  502    0  0.00000000000E+00 -0.00000000000E+00 -0.27342183126E+02  0.27342183126E+02  0.00000000000E+00 0. -1.
          6    1    1    2  502    0  0.56536695323E+02  0.20984661879E+02  0.39399469833E+03  0.43411124872E+03  0.17200000000E+03 0. -1.
         -6    1    1    2    0  501 -0.56536695323E+02 -0.20984661879E+02  0.11329266173E+04  0.11474944331E+04  0.17200000000E+03 0.  1.
</event>
<event>
 4    1  0.3169553E-002  0.2308897E+03  0.7818608E-02  0.1126015E+00
         -1   -1    0    0    0  501 -0.00000000000E+00  0.00000000000E+00  0.87754666970E+02  0.87754666970E+02  0.00000000000E+00 0.  1.
          1   -1    0    0  502    0  0.00000000000E+00 -0.00000000000E+00 -0.10357934075E+04  0.10357934075E+04  0.00000000000E+00 0. -1.
          6    1    1    2  502    0 -0.14375127620E+03  0.55331861711E+02 -0.83526373334E+03  0.86658845398E+03  0.17200000000E+03 0. -1.
         -6    1    1    2    0  501  0.14375127620E+03 -0.55331861711E+02 -0.11277500723E+03  0.25695962054E+03  0.17200000000E+03 0.  1.
</event>
<event>
 4    1  0.3169553E-002  0.2815024E+03  0.7818608E-02  0.1094871E+00
         -2   -1    0    0    0  501 -0.00000000000E+00  0.00000000000E+00  0.43498971925E+02  0.43498971925E+02  0.00000000000E+00 0.  1.
          2   -1    0    0  502    0  0.00000000000E+00 -0.00000000000E+00 -0.21245688681E+04  0.21245688681E+04  0.00000000000E+00 0. -1.
          6    1    1    2  502    0 -0.25136589289E+02 -0.22142214654E+03 -0.63126540016E+03  0.69118710965E+03  0.17200000000E+03 0.  1.
         -6    1    1    2    0  501  0.25136589289E+02  0.22142214654E+03 -0.14498044960E+04  0.14768807303E+04  0.17200000000E+03 0. -1.
</event>
<event>
 4    1  0.3169553E-002  0.2107711E+03  0.7818608E-02  0.1140957E+00
         -1   -1    0    0    0  501 -0.00000000000E+00  0.00000000000E+00  0.16326003914E+03  0.16326003914E+03  0.00000000000E+00 0.  1.
          1   -1    0    0  502    0  0.00000000000E+00 -0.00000000000E+00 -0.42061104353E+03  0.42061104353E+03  0.00000000000E+00 0. -1.
          6    1    1    2  502    0  0.23870746241E+01  0.12179794706E+03 -0.30214121218E+03  0.36839347189E+03  0.17200000000E+03 0. -1.
         -6    1    1    2    0  501 -0.23870746241E+01 -0.12179794706E+03  0.44790207786E+02  0.21547761078E+03  0.17200000000E+03 0.  1.
</event>
<event>
 4    1  0.3169553E-002  0.1871133E+03  0.7818608E-02  0.1161091E+00
         -2   -1    0    0    0  501 -0.00000000000E+00  0.00000000000E+00  0.72867577123E+02  0.72867577123E+02  0.00000000000E+00 0.  1.
          2   -1    0    0  502    0  0.00000000000E+00 -0.00000000000E+00 -0.24736589837E+04  0.24736589837E+04  0.00000000000E+00 0. -1.
          6    1    1    2  502    0  0.24715268889E+02  0.69401327694E+02 -0.57460822037E+02  0.19573741306E+03  0.17200000000E+03 0.  1.
         -6    1    1    2    0  501 -0.24715268889E+02 -0.69401327694E+02 -0.23433305845E+04  0.23507891478E+04  0.17200000000E+03 0. -1.
</event>
<event>
 4    1  0.3169553E-002  0.1787121E+03  0.7818608E-02  0.1169055E+00
         -2   -1    0    0    0  501 -0.00000000000E+00  0.00000000000E+00  0.19070487726E+03  0.19070487726E+03  0.00000000000E+00 0.  1.
          2   -1    0    0  502    0  0.00000000000E+00 -0.00000000000E+00 -0.18579764365E+03  0.18579764365E+03  0.00000000000E+00 0. -1.
          6    1    1    2  502    0 -0.83923192850E+01  0.47786951609E+02  0.61572875939E+02  0.18902180514E+03  0.17200000000E+03 0.  1.
         -6    1    1    2    0  501  0.83923192850E+01 -0.47786951609E+02 -0.56665642329E+02  0.18748071578E+03  0.17200000000E+03 0. -1.
</event>
<event>
 4    1  0.3169553E-002  0.3542143E+03  0.7818608E-02  0.1060899E+00
          2   -1    0    0  502    0  0.00000000000E+00  0.00000000000E+00  0.28362177188E+03  0.28362177188E+03  0.00000000000E+00 0. -1.
         -2   -1    0    0    0  501 -0.00000000000E+00 -0.00000000000E+00 -0.52349000058E+03  0.52349000058E+03  0.00000000000E+00 0.  1.
          6    1    1    2  502    0 -0.29939445533E+03 -0.79036188621E+02 -0.27878682369E+03  0.45076585059E+03  0.17200000000E+03 0. -1.
         -6    1    1    2    0  501  0.29939445533E+03  0.79036188621E+02  0.38918594984E+02  0.35634592187E+03  0.17200000000E+03 0.  1.
</event>
<event>
 4    1  0.3169553E-002  0.2438726E+03  0.7818608E-02  0.1117240E+00
         -2   -1    0    0    0  501 -0.00000000000E+00  0.00000000000E+00  0.10927308478E+03  0.10927308478E+03  0.00000000000E+00 0.  1.
          2   -1    0    0  502    0  0.00000000000E+00 -0.00000000000E+00 -0.72415333322E+03  0.72415333322E+03  0.00000000000E+00 0. -1.
          6    1    1    2  502    0 -0.16549938913E+03  0.49998048975E+02 -0.51513212668E+03  0.56994294508E+03  0.17200000000E+03 0. -1.
         -6    1    1    2    0  501  0.16549938913E+03 -0.49998048975E+02 -0.99748121758E+02  0.26348347292E+03  0.17200000000E+03 0.  1.
</event>
<event>
 4    1  0.3169553E-002  0.2469140E+03  0.7818608E-02  0.1115271E+00
         -1   -1    0    0    0  501 -0.00000000000E+00  0.00000000000E+00  0.57651223441E+02  0.57651223441E+02  0.00000000000E+00 0.  1.
          1   -1    0    0  502    0  0.00000000000E+00 -0.00000000000E+00 -0.11359899495E+04  0.11359899495E+04  0.00000000000E+00 0. -1.
          6    1    1    2  502    0  0.16568395624E+03 -0.62700306836E+02 -0.69604214295E+03  0.73853988829E+03  0.17200000000E+03 0. -1.
         -6    1    1    2    0  501 -0.16568395624E+03  0.62700306836E+02 -0.38229658308E+03  0.45510128463E+03  0.17200000000E+03 0.  1.
</event>
<event>
 4    1  0.3169553E-002  0.1958670E+03  0.7818608E-02  0.1153274E+00
          1   -1    0    0  502    0  0.00000000000E+00  0.00000000000E+00  0.22524605656E+04  0.22524605656E+04  0.00000000000E+00 0. -1.
         -1   -1    0    0    0  501 -0.00000000000E+00 -0.00000000000E+00 -0.23278162075E+02  0.23278162075E+02  0.00000000000E+00 0.  1.
          6    1    1    2  502    0 -0.92927667455E+02 -0.12014553846E+02  0.52517129339E+03  0.56050761661E+03  0.17200000000E+03 0.  1.
         -6    1    1    2    0  501  0.92927667455E+02  0.12014553846E+02  0.17040111102E+04  0.17152311111E+04  0.17200000000E+03 0. -1.
</event>
<event>
 4    1  0.3169553E-002  0.1832291E+03  0.7818608E-02  0.1164714E+00
         -2   -1    0    0    0  501 -0.00000000000E+00  0.00000000000E+00  0.22302174044E+03  0.22302174044E+03  0.00000000000E+00 0.  1.
          2   -1    0    0  502    0  0.00000000000E+00 -0.00000000000E+00 -0.15205115830E+03  0.15205115830E+03  0.00000000000E+00 0. -1.
          6    1    1    2  502    0 -0.49184293447E+02 -0.39621020155E+02  0.54202590527E+02  0.19107810126E+03  0.17200000000E+03 0.  1.
         -6    1    1    2    0  501  0.49184293447E+02  0.39621020155E+02  0.16767991615E+02  0.18399479749E+03  0.17200000000E+03 0. -1.
</event>
<event>
 4    1  0.3169553E-002  0.3392670E+03  0.7818608E-02  0.1067109E+00
         -2   -1    0    0    0  501 -0.00000000000E+00  0.00000000000E+00  0.11939321429E+03  0.11939321429E+03  0.00000000000E+00 0.  1.
          2   -1    0    0  502    0  0.00000000000E+00 -0.00000000000E+00 -0.99631798392E+03  0.99631798392E+03  0.00000000000E+00 0. -1.
          6    1    1    2  502    0  0.20423083721E+03  0.20930325446E+03 -0.53884281028E+03  0.63675243336E+03  0.17200000000E+03 0. -1.
         -6    1    1    2    0  501 -0.20423083721E+03 -0.20930325446E+03 -0.33808195935E+03  0.47895876485E+03  0.17200000000E+03 0.  1.
</event>
<event>
 4    1  0.3169553E-002  0.2552514E+03  0.7818608E-02  0.1110030E+00
         -1   -1    0    0    0  501 -0.00000000000E+00  0.00000000000E+00  0.11052332601E+03  0.11052332601E+03  0.00000000000E+00 0.  1.
          1   -1    0    0  502    0  0.00000000000E+00 -0.00000000000E+00 -0.13861947945E+04  0.13861947945E+04  0.00000000000E+00 0. -1.
          6    1    1    2  502    0  0.17668692814E+03  0.65962114034E+02 -0.12051770939E+04  0.12319111570E+04  0.17200000000E+03 0. -1.
         -6    1    1    2    0  501 -0.17668692814E+03 -0.65962114034E+02 -0.70494374545E+02  0.26480696348E+03  0.17200000000E+03 0.  1.
</event>
<event>
 4    1  0.3169553E-002  0.2019975E+03  0.7818608E-02  0.1148065E+00
          2   -1    0    0  502    0  0.00000000000E+00  0.00000000000E+00  0.12562571525E+03  0.12562571525E+03  0.00000000000E+00 0. -1.
         -2   -1    0    0    0  501 -0.00000000000E+00 -0.00000000000E+00 -0.35460001943E+03  0.35460001943E+03  0.00000000000E+00 0.  1.
          6    1    1    2  502    0 -0.54964294057E+02 -0.90542313667E+02 -0.44877618794E+02  0.20692265428E+03  0.17200000000E+03 0. -1.
         -6    1    1    2    0  501  0.54964294057E+02  0.90542313667E+02 -0.18409668539E+03  0.27330308040E+03  0.17200000000E+03 0. -1.
</event>
<event>
 4    1  0.3169553E-002  0.3089349E+03  0.7818608E-02  0.1080858E+00
         -1   -1    0    0    0  501 -0.00000000000E+00  0.00000000000E+00  0.32503379529E+03  0.32503379529E+03  0.00000000000E+00 0.  1.
          1   -1    0    0  502    0  0.00000000000E+00 -0.00000000000E+00 -0.31089206396E+03  0.31089206396E+03  0.00000000000E+00 0. -1.
          6    1    1    2  502    0  0.25003151664E+03  0.57801375993E+02 -0.67845384998E+02  0.31629694062E+03  0.17200000000E+03 0. -1.
         -6    1    1    2    0  501 -0.25003151664E+03 -0.57801375993E+02  0.81987116326E+02  0.31962891863E+03  0.17200000000E+03 0.  1.
</event>
<event>
 4    1  0.3169553E-002  0.2295596E+03  0.7818608E-02  0.1126950E+00
         -2   -1    0    0    0  501 -0.00000000000E+00  0.00000000000E+00  0.15394939525E+04  0.15394939525E+04  0.00000000000E+00 0.  1.
          2   -1    0    0  502    0  0.00000000000E+00 -0.00000000000E+00 -0.43400351087E+02  0.43400351087E+02  0.00000000000E+00 0. -1.
          6    1    1    2  502    0 -0.13103957668E+03 -0.77086020555E+02  0.11118418520E+04  0.11352928825E+04  0.17200000000E+03 0.  1.
         -6    1    1    2    0  501  0.13103957668E+03  0.77086020555E+02  0.38425174941E+03  0.44760142108E+03  0.17200000000E+03 0. -1.
</event>
<event>
 4    1  0.3169553E-002  0.1758150E+03  0.7818608E-02  0.1171916E+00
         -1   -1    0    0    0  501 -0.00000000000E+00  0.00000000000E+00  0.11847618032E+04  0.11847618032E+04  0.00000000000E+00 0.  1.
          1   -1    0    0  502    0  0.00000000000E+00 -0.00000000000E+00 -0.34539255008E+02  0.34539255008E+02  0.00000000000E+00 0. -1.
          6    1    1    2  502    0 -0.30147877676E+02 -0.20445540070E+02  0.27358630193E+03  0.32520820906E+03  0.17200000000E+03 0. -1.
         -6    1    1    2    0  501  0.30147877676E+02  0.20445540070E+02  0.87663624628E+03  0.89409284917E+03  0.17200000000E+03 0.  1.
</event>
<event>
 4    1  0.3169553E-002  0.2558027E+03  0.7818608E-02  0.1109692E+00
          2   -1    0    0  502    0  0.00000000000E+00  0.00000000000E+00  0.91537050044E+03  0.91537050044E+03  0.00000000000E+00 0. -1.
         -2   -1    0    0    0  501 -0.00000000000E+00 -0.00000000000E+00 -0.99874418768E+02  0.99874418768E+02  0.00000000000E+00 0.  1.
          6    1    1    2  502    0  0.17225592089E+03 -0.78606015152E+02  0.13710675036E+03  0.29022968300E+03  0.17200000000E+03 0.  1.
         -6    1    1    2    0  501 -0.17225592089E+03  0.78606015152E+02  0.67838933131E+03  0.72501523621E+03  0.17200000000E+03 0. -1.
</event>
<event>
 4    1  0.3169553E-002  0.1996349E+03  0.7818608E-02  0.1150047E+00
         -2   -1    0    0    0  501 -0.00000000000E+00  0.00000000000E+00  0.52320833859E+02  0.52320833859E+02  0.00000000000E+00 0.  1.
          2   -1    0    0  502    0  0.00000000000E+00 -0.00000000000E+00 -0.20485030608E+04  0.20485030608E+04  0.00000000000E+00 0. -1.
          6    1    1    2  502    0  0.81607463746E+02 -0.60085808433E+02 -0.18306082523E+04  0.18414615543E+04  0.17200000000E+03 0. -1.
         -6    1    1    2    0  501 -0.81607463746E+02  0.60085808433E+02 -0.16557397457E+03  0.25936234031E+03  0.17200000000E+03 0.  1.
</event>
<event>
 4    1  0.3169553E-002  0.2285259E+03  0.7818608E-02  0.1127682E+00
         -2   -1    0    0    0  501 -0.00000000000E+00  0.00000000000E+00  0.90714532054E+02  0.90714532054E+02  0.00000000000E+00 0.  1.
          2   -1    0    0  502    0  0.00000000000E+00 -0.00000000000E+00 -0.11181852703E+04  0.11181852703E+04  0.00000000000E+00 0. -1.
          6    1    1    2  502    0 -0.88092743018E+02  0.12198259828E+03 -0.93475136453E+03  0.96228072782E+03  0.17200000000E+03 0. -1.
         -6    1    1    2    0  501  0.88092743018E+02 -0.12198259828E+03 -0.92719373709E+02  0.24661907452E+03  0.17200000000E+03 0.  1.
</event>
<event>
 4    1  0.3169553E-002  0.2063488E+03  0.7818608E-02  0.1144490E+00
         -2   -1    0    0    0  501 -0.00000000000E+00  0.00000000000E+00  0.44070272962E+02  0.44070272962E+02  0.00000000000E+00 0.  1.
          2   -1    0    0  502    0  0.00000000000E+00 -0.00000000000E+00 -0.11592802167E+04  0.11592802167E+04  0.00000000000E+00 0. -1.
          6    1    1    2  502    0 -0.11174587478E+03  0.22554458415E+02 -0.31204441908E+03  0.37410100722E+03  0.17200000000E+03 0.  1.
         -6    1    1    2    0  501  0.11174587478E+03 -0.22554458415E+02 -0.80316552463E+03  0.82924948241E+03  0.17200000000E+03 0. -1.
</event>
<event>
 4    1  0.3169553E-002  0.3131264E+03  0.7818608E-02  0.1078857E+00
          1   -1    0    0  502    0  0.00000000000E+00  0.00000000000E+00  0.70520981045E+03  0.70520981045E+03  0.00000000000E+00 0. -1.
         -1   -1    0    0    0  501 -0.00000000000E+00 -0.00000000000E+00 -0.22549554702E+03  0.22549554702E+03  0.00000000000E+00 0.  1.
          6    1    1    2  502    0 -0.76076829023E+02  0.25035267205E+03  0.52801117746E+03  0.61387616654E+03  0.17200000000E+03 0. -1.
         -6    1    1    2    0  501  0.76076829023E+02 -0.25035267205E+03 -0.48296914030E+02  0.31682919093E+03  0.17200000000E+03 0.  1.
</event>
<event>
 4    1  0.3169553E-002  0.2399895E+03  0.7818608E-02  0.1119800E+00
         -2   -1    0    0    0  501 -0.00000000000E+00  0.00000000000E+00  0.40015962209E+03  0.40015962209E+03  0.00000000000E+00 0.  1.
          2   -1    0    0  502    0  0.00000000000E+00 -0.00000000000E+00 -0.31743022647E+03  0.31743022647E+03  0.00000000000E+00 0. -1.
          6    1    1    2  502    0  0.12386267856E+03  0.11255662357E+03 -0.22389558585E+03  0.32821363471E+03  0.17200000000E+03 0. -1.
         -6    1    1    2    0  501 -0.12386267856E+03 -0.11255662357E+03  0.30662498147E+03  0.38937621385E+03  0.17200000000E+03 0.  1.
</event>
<event>
 4    1  0.3169553E-002  0.1865588E+03  0.7818608E-02  0.1161602E+00
         -1   -1    0    0    0  501 -0.00000000000E+00  0.00000000000E+00  0.30038950944E+03  0.30038950944E+03  0.00000000000E+00 0.  1.
          1   -1    0    0  502    0  0.00000000000E+00 -0.00000000000E+00 -0.17709303686E+03  0.17709303686E+03  0.00000000000E+00 0. -1.
          6    1    1    2  502    0  0.35962841474E+02  0.62664537667E+02 -0.78732450983E+02  0.20249189881E+03  0.17200000000E+03 0. -1.
         -6    1    1    2    0  501 -0.35962841474E+02 -0.62664537667E+02  0.20202892357E+03  0.27499064749E+03  0.17200000000E+03 0. -1.
</event>
<event>
 4    1  0.3169553E-002  0.2248613E+03  0.7818608E-02  0.1130310E+00
          1   -1    0    0  502    0  0.00000000000E+00  0.00000000000E+00  0.15156699291E+03  0.15156699291E+03  0.00000000000E+00 0. -1.
         -1   -1    0    0    0  501 -0.00000000000E+00 -0.00000000000E+00 -0.82133114313E+03  0.82133114313E+03  0.00000000000E+00 0.  1.
          6    1    1    2  502    0  0.49192851638E+02 -0.13623013346E+03  0.39977796980E+02  0.22838741245E+03  0.17200000000E+03 0. -1.
         -6    1    1    2    0  501 -0.49192851638E+02  0.13623013346E+03 -0.70974194721E+03  0.74451072359E+03  0.17200000000E+03 0.  1.
</event>
<event>
 4    1  0.3169553E-002  0.1737768E+03  0.7818608E-02  0.1173966E+00
         -1   -1    0    0    0  501 -0.00000000000E+00  0.00000000000E+00  0.31052394692E+03  0.31052394692E+03  0.00000000000E+00 0.  1.
          1   -1    0    0  502    0  0.00000000000E+00 -0.00000000000E+00 -0.13958416868E+03  0.13958416868E+03  0.00000000000E+00 0. -1.
          6    1    1    2  502    0 -0.24767492375E+02 -0.96870409562E+00 -0.38471316653E+02  0.17798429501E+03  0.17200000000E+03 0. -1.
         -6    1    1    2    0  501  0.24767492375E+02  0.96870409562E+00  0.20941109489E+03  0.27212382059E+03  0.17200000000E+03 0.  1.
</event>
<event>
 4    1  0.3169553E-002  0.1907799E+03  0.7818608E-02  0.1157760E+00
         -2   -1    0    0    0  501 -0.00000000000E+00  0.00000000000E+00  0.28622448472E+03  0.28622448472E+03  0.00000000000E+00 0.  1.
          2   -1    0    0  502    0  0.00000000000E+00 -0.00000000000E+00 -0.12899873732E+03  0.12899873732E+03  0.00000000000E+00 0. -1.
          6    1    1    2  502    0 -0.21824312716E+02  0.79603187495E+02  0.10338396788E+03  0.21699127379E+03  0.17200000000E+03 0.  1.
         -6    1    1    2    0  501  0.21824312716E+02 -0.79603187495E+02  0.53841779518E+02  0.19823194825E+03  0.17200000000E+03 0.  1.
</event>
<event>
 4    1  0.3169553E-002  0.3318650E+03  0.7818608E-02  0.1070315E+00
         -2   -1    0    0    0  501 -0.00000000000E+00  0.00000000000E+00  0.13462326460E+03  0.13462326460E+03  0.00000000000E+00 0.  1.
          2   -1    0    0  502    0  0.00000000000E+00 -0.00000000000E+00 -0.11986995494E+04  0.11986995494E+04  0.00000000000E+00 0. -1.
          6    1    1    2  502    0  0.28312054643E+03 -0.19826859721E+02 -0.90769237069E+03  0.96645733894E+03  0.17200000000E+03 0. -1.
         -6    1    1    2    0  501 -0.28312054643E+03  0.19826859721E+02 -0.15638391408E+03  0.36686547502E+03  0.17200000000E+03 0.  1.
</event>
<event>
 4    1  0.3169553E-002  0.3852308E+03  0.7818608E-02  0.1049017E+00
         -1   -1    0    0    0  501 -0.00000000000E+00  0.00000000000E+00  0.31484147293E+03  0.31484147293E+03  0.00000000000E+00 0.  1.
          1   -1    0    0  502    0  0.00000000000E+00 -0.00000000000E+00 -0.48750964427E+03  0.48750964427E+03  0.00000000000E+00 0. -1.
          6    1    1    2  502    0  0.36694038670E+02  0.34274233812E+03 -0.15935770684E+03  0.41689044309E+03  0.17200000000E+03 0. -1.
         -6    1    1    2    0  501 -0.36694038670E+02 -0.34274233812E+03 -0.13310464502E+02  0.38546067410E+03  0.17200000000E+03 0.  1.
</event>
<event>
 4    1  0.3169553E-002  0.2118379E+03  0.7818608E-02  0.1140119E+00
          2   -1    0    0  502    0  0.00000000000E+00  0.00000000000E+00  0.72251214763E+03  0.72251214763E+03  0.00000000000E+00 0. -1.
         -2   -1    0    0    0  501 -0.00000000000E+00 -0.00000000000E+00 -0.72050127587E+02  0.72050127587E+02  0.00000000000E+00 0.  1.
          6    1    1    2  502    0 -0.97909994905E+02  0.75530849934E+02  0.17766880715E+03  0.27648052631E+03  0.17200000000E+03 0. -1.
         -6    1    1    2    0  501  0.97909994905E+02 -0.75530849934E+02  0.47279321289E+03  0.51808174891E+03  0.17200000000E+03 0. -1.
</event>
<event>
 4    1  0.3169553E-002  0.2020034E+03  0.7818608E-02  0.1148060E+00
          1   -1    0    0  502    0  0.00000000000E+00  0.00000000000E+00  0.79544286416E+03  0.79544286416E+03  0.00000000000E+00 0. -1.
         -1   -1    0    0    0  501 -0.00000000000E+00 -0.00000000000E+00 -0.62207990819E+02  0.62207990819E+02  0.00000000000E+00 0.  1.
          6    1    1    2  502    0  0.45709686074E+02  0.95561399518E+02  0.54619472397E+03  0.58235215547E+03  0.17200000000E+03 0. -1.
         -6    1    1    2    0  501 -0.45709686074E+02 -0.95561399518E+02  0.18704014937E+03  0.27529869951E+03  0.17200000000E+03 0.  1.
</event>
<event>
 4    1  0.3169553E-002  0.1827924E+03  0.7818608E-02  0.1165128E+00
          2   -1    0    0  502    0  0.00000000000E+00  0.00000000000E+00  0.17964742888E+04  0.17964742888E+04  0.00000000000E+00 0. -1.
         -2   -1    0    0    0  501 -0.00000000000E+00 -0.00000000000E+00 -0.23960927378E+02  0.23960927378E+02  0.00000000000E+00 0.  1.
          6    1    1    2  502    0  0.58476542081E+02  0.20237532029E+02  0.13168269140E+04  0.13294533407E+04  0.17200000000E+03 0. -1.
         -6    1    1    2    0  501 -0.58476542081E+02 -0.20237532029E+02  0.45568644739E+03  0.49098187544E+03  0.17200000000E+03 0.  1.
</event>
<event>
 4    1  0.3169553E-002  0.1989795E+03  0.7818608E-02  0.1150603E+00
         -2   -1    0    0    0  501 -0.00000000000E+00  0.00000000000E+00  0.64333881151E+02  0.64333881151E+02  0.00000000000E+00 0.  1.
          2   -1    0    0  502    0  0.00000000000E+00 -0.00000000000E+00 -0.77552858973E+03  0.77552858973E+03  0.00000000000E+00 0. -1.
          6    1    1    2  502    0  0.95265700495E+02  0.30549576852E+02 -0.54639658244E+03  0.58149983288E+03  0.17200000000E+03 0. -1.
         -6    1    1    2    0  501 -0.95265700495E+02 -0.30549576852E+02 -0.16479812614E+03  0.25836263800E+03  0.17200000000E+03 0.  1.
</event>
<event>
 4    1  0.3169553E-002  0.2212393E+03  0.7818608E-02  0.1132962E+00
         -2   -1    0    0    0  501 -0.00000000000E+00  0.00000000000E+00  0.30428655794E+02  0.30428655794E+02  0.00000000000E+00 0.  1.
          2   -1    0    0  502    0  0.00000000000E+00 -0.00000000000E+00 -0.17338092276E+04  0.17338092276E+04  0.00000000000E+00 0. -1.
          6    1    1    2  502    0 -0.12517799652E+03  0.60772463884E+02 -0.10887650176E+04  0.11110157905E+04  0.17200000000E+03 0. -1.
         -6    1    1    2    0  501  0.12517799652E+03 -0.60772463884E+02 -0.61461555420E+03  0.65322209289E+03  0.17200000000E+03 0.  1.
</event>
<event>
 4    1  0.3169553E-002  0.1983995E+03  0.7818608E-02  0.1151096E+00
          2   -1    0    0  502    0  0.00000000000E+00  0.00000000000E+00  0.36592209966E+03  0.36592209966E+03  0.00000000000E+00 0. -1.
         -2   -1    0    0    0  501 -0.00000000000E+00 -0.00000000000E+00 -0.10920075064E+03  0.10920075064E+03  0.00000000000E+00 0.  1.
          6    1    1    2  502    0  0.98808827907E+02  0.38977289721E+01  0.99333336446E+02  0.22187719237E+03  0.17200000000E+03 0. -1.
         -6    1    1    2    0  501 -0.98808827907E+02 -0.38977289721E+01  0.15738801257E+03  0.25324565794E+03  0.17200000000E+03 0. -1.
</event>
<event>
 4    1  0.3169553E-002  0.2620050E+03  0.7818608E-02  0.1105945E+00
         -2   -1    0    0    0  501 -0.00000000000E+00  0.00000000000E+00  0.35491792576E+02  0.35491792576E+02  0.00000000000E+00 0.  1.
          2   -1    0    0  502    0  0.00000000000E+00 -0.00000000000E+00 -0.22040859787E+04  0.22040859787E+04  0.00000000000E+00 0. -1.
          6    1    1    2  502    0  0.16797277060E+01 -0.19763548558E+03 -0.69242102935E+03  0.74033336311E+03  0.17200000000E+03 0.  1.
         -6    1    1    2    0  501 -0.16797277060E+01  0.19763548558E+03 -0.14761731568E+04  0.14992444082E+04  0.17200000000E+03 0. -1.
</event>
<event>
 4    1  0.3169553E-002  0.2881533E+03  0.7818608E-02  0.1091317E+00
          2   -1    0    0  502    0  0.00000000000E+00  0.00000000000E+00  0.12859642708E+04  0.12859642708E+04  0.00000000000E+00 0. -1.
         -2   -1    0    0    0  501 -0.00000000000E+00 -0.00000000000E+00 -0.38185640161E+03  0.38185640161E+03  0.00000000000E+00 0.  1.
          6    1    1    2  502    0 -0.17722432841E+03  0.14845826379E+03  0.12121987241E+04  0.12459767515E+04  0.17200000000E+03 0. -1.
         -6    1    1    2    0  501  0.17722432841E+03 -0.14845826379E+03 -0.30809085493E+03  0.42184392085E+03  0.17200000000E+03 0.  1.
</event>
<event>
 4    1  0.3169553E-002  0.3023820E+03  0.7818608E-02  0.1084056E+00
          2   -1    0    0  502    0  0.00000000000E+00  0.00000000000E+00  0.76794264461E+03  0.76794264461E+03  0.00000000000E+00 0. -1.
         -2   -1    0    0    0  501 -0.00000000000E+00 -0.00000000000E+00 -0.24686485394E+03  0.24686485394E+03  0.00000000000E+00 0.  1.
          6    1    1    2  502    0  0.33220830923E+02  0.24646958914E+03  0.62562027337E+03  0.69486373371E+03  0.17200000000E+03 0. -1.
         -6    1    1    2    0  501 -0.33220830923E+02 -0.24646958914E+03 -0.10454248270E+03  0.31994376485E+03  0.17200000000E+03 0.  1.
</event>
<event>
 4    1  0.3169553E-002  0.2572048E+03  0.7818608E-02  0.1108834E+00
         -2   -1    0    0    0  501 -0.00000000000E+00  0.00000000000E+00  0.22022538297E+02  0.22022538297E+02  0.00000000000E+00 0.  1.
          2   -1    0    0  502    0  0.00000000000E+00 -0.00000000000E+00 -0.30094467023E+04  0.30094467023E+04  0.00000000000E+00 0. -1.
          6    1    1    2  502    0  0.96878568743E+02  0.16487828136E+03 -0.15585705900E+04  0.15796507806E+04  0.17200000000E+03 0. -1.
         -6    1    1    2    0  501 -0.96878568743E+02 -0.16487828136E+03 -0.14288535740E+04  0.14518184600E+04  0.17200000000E+03 0.  1.
</event>
<event>
 4    1  0.3169553E-002  0.2278629E+03  0.7818608E-02  0.1128153E+00
         -2   -1    0    0    0  501 -0.00000000000E+00  0.00000000000E+00  0.12409505882E+03  0.12409505882E+03  0.00000000000E+00 0.  1.
          2   -1    0    0  502    0  0.00000000000E+00 -0.00000000000E+00 -0.45071499928E+03  0.45071499928E+03  0.00000000000E+00 0. -1.
          6    1    1    2  502    0  0.13066924662E+03 -0.72546722319E+02 -0.24026547225E+03  0.33113286773E+03  0.17200000000E+03 0. -1.
         -6    1    1    2    0  501 -0.13066924662E+03  0.72546722319E+02 -0.86354468204E+02  0.24367719038E+03  0.17200000000E+03 0.  1.
</event>
<event>
 4    1  0.3169553E-002  0.2048516E+03  0.7818608E-02  0.1145709E+00
         -1   -1    0    0    0  501 -0.00000000000E+00  0.00000000000E+00  0.14829878783E+03  0.14829878783E+03  0.00000000000E+00 0.  1.
          1   -1    0    0  502    0  0.00000000000E+00 -0.00000000000E+00 -0.28303452638E+03  0.28303452638E+03  0.00000000000E+00 0. -1.
          6    1    1    2  502    0  0.75146378708E+02  0.82056126933E+02 -0.70610891383E+02  0.21667968106E+03  0.17200000000E+03 0. -1.
         -6    1    1    2    0  501 -0.75146378708E+02 -0.82056126933E+02 -0.64124847166E+02  0.21465363315E+03  0.17200000000E+03 0.  1.
</event>
<event>
 4    1  0.3169553E-002  0.2742924E+03  0.7818608E-02  0.1098848E+00
         -2   -1    0    0    0  501 -0.00000000000E+00  0.00000000000E+00  0.33675483550E+02  0.33675483550E+02  0.00000000000E+00 0.  1.
          2   -1    0    0  502    0  0.00000000000E+00 -0.00000000000E+00 -0.25504510209E+04  0.25504510209E+04  0.00000000000E+00 0. -1.
          6    1    1    2  502    0 -0.20489948911E+03  0.60568191386E+02 -0.17133978230E+04  0.17352142249E+04  0.17200000000E+03 0. -1.
         -6    1    1    2    0  501  0.20489948911E+03 -0.60568191386E+02 -0.80337771430E+03  0.84891227950E+03  0.17200000000E+03 0.  1.
</event>
<event>
 4    1  0.3169553E-002  0.1879459E+03  0.7818608E-02  0.1160327E+00
          2   -1    0    0  502    0  0.00000000000E+00  0.00000000000E+00  0.15434127354E+04  0.15434127354E+04  0.00000000000E+00 0. -1.
         -2   -1    0    0    0  501 -0.00000000000E+00 -0.00000000000E+00 -0.26732614342E+02  0.26732614342E+02  0.00000000000E+00 0.  1.
          6    1    1    2  502    0 -0.62404842691E+02 -0.42956733680E+02  0.10561150216E+04  0.10727080610E+04  0.17200000000E+03 0. -1.
         -6    1    1    2    0  501  0.62404842691E+02  0.42956733680E+02  0.46056509949E+03  0.49743728874E+03  0.17200000000E+03 0. -1.
</event>
<event>
 4    1  0.3169553E-002  0.2716930E+03  0.7818608E-02  0.1100315E+00
         -4   -1    0    0    0  501 -0.00000000000E+00  0.00000000000E+00  0.28813021238E+03  0.28813021238E+03  0.00000000000E+00 0.  1.
          4   -1    0    0  502    0  0.00000000000E+00 -0.00000000000E+00 -0.31503088850E+03  0.31503088850E+03  0.00000000000E+00 0. -1.
          6    1    1    2  502    0  0.92850108519E+02  0.18871127018E+03 -0.14378306223E+03  0.30739332317E+03  0.17200000000E+03 0. -1.
         -6    1    1    2    0  501 -0.92850108519E+02 -0.18871127018E+03  0.11688238612E+03  0.29576777771E+03  0.17200000000E+03 0.  1.
</event>
<event>
 4    1  0.3169553E-002  0.5774329E+03  0.7818608E-02  0.9953364E-01
          2   -1    0    0  502    0  0.00000000000E+00  0.00000000000E+00  0.23069947389E+04  0.23069947389E+04  0.00000000000E+00 0. -1.
         -2   -1    0    0    0  501 -0.00000000000E+00 -0.00000000000E+00 -0.17609467977E+03  0.17609467977E+03  0.00000000000E+00 0.  1.
          6    1    1    2  502    0  0.39207356774E+03  0.38745722270E+03  0.15910960996E+04  0.16926356903E+04  0.17200000000E+03 0. -1.
         -6    1    1    2    0  501 -0.39207356774E+03 -0.38745722270E+03  0.53980395954E+03  0.79045372836E+03  0.17200000000E+03 0.  1.
</event>
<event>
 4    1  0.3169553E-002  0.1823378E+03  0.7818608E-02  0.1165560E+00
          2   -1    0    0  502    0  0.00000000000E+00  0.00000000000E+00  0.46218414239E+03  0.46218414239E+03  0.00000000000E+00 0. -1.
         -2   -1    0    0    0  501 -0.00000000000E+00 -0.00000000000E+00 -0.71941289735E+02  0.71941289735E+02  0.00000000000E+00 0.  1.
          6    1    1    2  502    0 -0.59371508450E+02 -0.11750932298E+02  0.19768461830E+03  0.26893543600E+03  0.17200000000E+03 0.  1.
         -6    1    1    2    0  501  0.59371508450E+02  0.11750932298E+02  0.19255823435E+03  0.26518999612E+03  0.17200000000E+03 0.  1.
</event>
<event>
 4    1  0.3169553E-002  0.1823021E+03  0.7818608E-02  0.1165593E+00
         -2   -1    0    0    0  501 -0.00000000000E+00  0.00000000000E+00  0.21131335703E+02  0.21131335703E+02  0.00000000000E+00 0.  1.
          2   -1    0    0  502    0  0.00000000000E+00 -0.00000000000E+00 -0.24369193158E+04  0.24369193158E+04  0.00000000000E+00 0. -1.
          6    1    1    2  502    0 -0.54919732122E+02 -0.25177173516E+02 -0.19397784836E+04  0.19483261104E+04  0.17200000000E+03 0. -1.
         -6    1    1    2    0  501  0.54919732122E+02  0.25177173516E+02 -0.47600949649E+03  0.50972454109E+03  0.17200000000E+03 0.  1.
</event>
<event>
 4    1  0.3169553E-002  0.2037264E+03  0.7818608E-02  0.1146633E+00
          2   -1    0    0  502    0  0.00000000000E+00  0.00000000000E+00  0.83804071554E+03  0.83804071554E+03  0.00000000000E+00 0. -1.
         -2   -1    0    0    0  501 -0.00000000000E+00 -0.00000000000E+00 -0.26985464969E+03  0.26985464969E+03  0.00000000000E+00 0.  1.
          6    1    1    2  502    0  0.62347993721E+02 -0.89628017514E+02  0.78463407784E+03  0.81065102846E+03  0.17200000000E+03 0. -1.
         -6    1    1    2    0  501 -0.62347993721E+02  0.89628017514E+02 -0.21644801199E+03  0.29724433677E+03  0.17200000000E+03 0.  1.
</event>
<event>
 4    1  0.3169553E-002  0.1898587E+03  0.7818608E-02  0.1158589E+00
         -2   -1    0    0    0  501 -0.00000000000E+00  0.00000000000E+00  0.15140740747E+02  0.15140740747E+02  0.00000000000E+00 0.  1.
          2   -1    0    0  502    0  0.00000000000E+00 -0.00000000000E+00 -0.23896659032E+04  0.23896659032E+04  0.00000000000E+00 0. -1.
          6    1    1    2  502    0  0.57068004655E+02  0.56617632240E+02 -0.12607093078E+04  0.12749252026E+04  0.17200000000E+03 0.  1.
         -6    1    1    2    0  501 -0.57068004655E+02 -0.56617632240E+02 -0.11138158546E+04  0.11298814413E+04  0.17200000000E+03 0. -1.
</event>
<event>
 4    1  0.3169553E-002  0.1767449E+03  0.7818608E-02  0.1170991E+00
          3   -1    0    0  502    0  0.00000000000E+00  0.00000000000E+00  0.31575514387E+03  0.31575514387E+03  0.00000000000E+00 0. -1.
         -3   -1    0    0    0  501 -0.00000000000E+00 -0.00000000000E+00 -0.10343459603E+03  0.10343459603E+03  0.00000000000E+00 0.  1.
          6    1    1    2  502    0 -0.24843347751E+02 -0.32211415144E+02  0.62437670802E+02  0.18744927295E+03  0.17200000000E+03 0.  1.
         -6    1    1    2    0  501  0.24843347751E+02  0.32211415144E+02  0.14988287704E+03  0.23174046695E+03  0.17200000000E+03 0.  1.
</event>
<event>
 4    1  0.3169553E-002  0.1896174E+03  0.7818608E-02  0.1158807E+00
          2   -1    0    0  502    0  0.00000000000E+00  0.00000000000E+00  0.31180980258E+03  0.31180980258E+03  0.00000000000E+00 0. -1.
         -2   -1    0    0    0  501 -0.00000000000E+00 -0.00000000000E+00 -0.20945864502E+03  0.20945864502E+03  0.00000000000E+00 0.  1.
          6    1    1    2  502    0 -0.74088584543E+02 -0.29692181665E+02  0.22591450483E+03  0.29494424474E+03  0.17200000000E+03 0. -1.
         -6    1    1    2    0  501  0.74088584543E+02  0.29692181665E+02 -0.12356334727E+03  0.22632420286E+03  0.17200000000E+03 0.  1.
</event>
<event>
 4    1  0.3169553E-002  0.1832709E+03  0.7818608E-02  0.1164674E+00
         -1   -1    0    0    0  501 -0.00000000000E+00  0.00000000000E+00  0.65588937309E+02  0.65588937309E+02  0.00000000000E+00 0.  1.
          1   -1    0    0  502    0  0.00000000000E+00 -0.00000000000E+00 -0.54698486954E+03  0.54698486954E+03  0.00000000000E+00 0. -1.
          6    1    1    2  502    0 -0.42235984506E+02  0.47120704538E+02 -0.31804534813E+03  0.36707095043E+03  0.17200000000E+03 0. -1.
         -6    1    1    2    0  501  0.42235984506E+02 -0.47120704538E+02 -0.16335058410E+03  0.24550285642E+03  0.17200000000E+03 0.  1.
</event>
<event>
 4    1  0.3169553E-002  0.1757643E+03  0.7818608E-02  0.1171966E+00
         -2   -1    0    0    0  501 -0.00000000000E+00  0.00000000000E+00  0.31499290823E+02  0.31499290823E+02  0.00000000000E+00 0.  1.
          2   -1    0    0  502    0  0.00000000000E+00 -0.00000000000E+00 -0.11750740247E+04  0.11750740247E+04  0.00000000000E+00 0. -1.
          6    1    1    2  502    0 -0.32998714507E+02 -0.14838822906E+02 -0.32645881259E+03  0.37076739627E+03  0.17200000000E+03 0.  1.
         -6    1    1    2    0  501  0.32998714507E+02  0.14838822906E+02 -0.81711592128E+03  0.83580591923E+03  0.17200000000E+03 0. -1.
</event>
<event>
 4    1  0.3169553E-002  0.1729183E+03  0.7818608E-02  0.1174838E+00
          1   -1    0    0  502    0  0.00000000000E+00  0.00000000000E+00  0.54855416928E+03  0.54855416928E+03  0.00000000000E+00 0. -1.
         -1   -1    0    0    0  501 -0.00000000000E+00 -0.00000000000E+00 -0.59016148433E+02  0.59016148433E+02  0.00000000000E+00 0.  1.
          6    1    1    2  502    0  0.17796771041E+02 -0.47687590787E-01  0.32872819724E+03  0.37143364817E+03  0.17200000000E+03 0. -1.
         -6    1    1    2    0  501 -0.17796771041E+02  0.47687590787E-01  0.16080982361E+03  0.23613666954E+03  0.17200000000E+03 0.  1.
</event>
<event>
 4    1  0.3169553E-002  0.4469287E+03  0.7818608E-02  0.1028642E+00
          2   -1    0    0  502    0  0.00000000000E+00  0.00000000000E+00  0.77058064408E+03  0.77058064408E+03  0.00000000000E+00 0. -1.
         -2   -1    0    0    0  501 -0.00000000000E+00 -0.00000000000E+00 -0.37042554460E+03  0.37042554460E+03  0.00000000000E+00 0.  1.
          6    1    1    2  502    0  0.41099009324E+03 -0.35332886669E+02  0.51267291240E+03  0.68013144665E+03  0.17200000000E+03 0. -1.
         -6    1    1    2    0  501 -0.41099009324E+03  0.35332886669E+02 -0.11251781292E+03  0.46087474203E+03  0.17200000000E+03 0.  1.
</event>
<event>
 4    1  0.3169553E-002  0.2588706E+03  0.7818608E-02  0.1107824E+00
          2   -1    0    0  502    0  0.00000000000E+00  0.00000000000E+00  0.71072880816E+03  0.71072880816E+03  0.00000000000E+00 0. -1.
         -2   -1    0    0    0  501 -0.00000000000E+00 -0.00000000000E+00 -0.94527241502E+02  0.94527241502E+02  0.00000000000E+00 0.  1.
          6    1    1    2  502    0 -0.13377590750E+03 -0.13976415533E+03  0.32830773798E+03  0.41809087931E+03  0.17200000000E+03 0. -1.
         -6    1    1    2    0  501  0.13377590750E+03  0.13976415533E+03  0.28789382868E+03  0.38716517035E+03  0.17200000000E+03 0.  1.
</event>
<event>
 4    1  0.3169553E-002  0.7009911E+03  0.7818608E-02  0.9715539E-01
          2   -1    0    0  502    0  0.00000000000E+00  0.00000000000E+00  0.78447629567E+03  0.78447629567E+03  0.00000000000E+00 0. -1.
         -2   -1    0    0    0  501 -0.00000000000E+00 -0.00000000000E+00 -0.76417628754E+03  0.76417628754E+03  0.00000000000E+00 0.  1.
          6    1    1    2  502    0 -0.13889061382E+02 -0.67942002189E+03  0.33894825032E+03  0.77863623636E+03  0.17200000000E+03 0. -1.
         -6    1    1    2    0  501  0.13889061382E+02  0.67942002189E+03 -0.31864824219E+03  0.77001634686E+03  0.17200000000E+03 0. -1.
</event>
<event>
 4    1  0.3169553E-002  0.2461496E+03  0.7818608E-02  0.1115763E+00
          2   -1    0    0  502    0  0.00000000000E+00  0.00000000000E+00  0.33431082824E+03  0.33431082824E+03  0.00000000000E+00 0. -1.
         -2   -1    0    0    0  501 -0.00000000000E+00 -0.00000000000E+00 -0.31153899130E+03  0.31153899130E+03  0.00000000000E+00 0.  1.
          6    1    1    2  502    0 -0.37114737883E+02  0.17212828411E+03  0.22022899344E+03  0.33028844895E+03  0.17200000000E+03 0. -1.
         -6    1    1    2    0  501  0.37114737883E+02 -0.17212828411E+03 -0.19745715650E+03  0.31556137060E+03  0.17200000000E+03 0.  1.
</event>
<event>
 4    1  0.3169553E-002  0.2652681E+03  0.7818608E-02  0.1104019E+00
          2   -1    0    0  502    0  0.00000000000E+00  0.00000000000E+00  0.49500979204E+03  0.49500979204E+03  0.00000000000E+00 0. -1.
         -2   -1    0    0    0  501 -0.00000000000E+00 -0.00000000000E+00 -0.14284379599E+03  0.14284379599E+03  0.00000000000E+00 0.  1.
          6    1    1    2  502    0 -0.20038788184E+03  0.25056757662E+02  0.15390490423E+03  0.30668202399E+03  0.17200000000E+03 0. -1.
         -6    1    1    2    0  501  0.20038788184E+03 -0.25056757662E+02  0.19826109183E+03  0.33117156404E+03  0.17200000000E+03 0.  1.
</event>
<event>
 4    1  0.3169553E-002  0.5860791E+03  0.7818608E-02  0.9934716E-01
          1   -1    0    0  502    0  0.00000000000E+00  0.00000000000E+00  0.52126892784E+03  0.52126892784E+03  0.00000000000E+00 0. -1.
         -1   -1    0    0    0  501 -0.00000000000E+00 -0.00000000000E+00 -0.91550036766E+03  0.91550036766E+03  0.00000000000E+00 0.  1.
          6    1    1    2  502    0  0.53421748395E+03  0.16886798396E+03  0.18317562927E+03  0.61403748039E+03  0.17200000000E+03 0. -1.
         -6    1    1    2    0  501 -0.53421748395E+03 -0.16886798396E+03 -0.57740706909E+03  0.82273181511E+03  0.17200000000E+03 0.  1.
</event>
<event>
 4    1  0.3169553E-002  0.1973933E+03  0.7818608E-02  0.1151957E+00
          2   -1    0    0  502    0  0.00000000000E+00  0.00000000000E+00  0.26195653952E+03  0.26195653952E+03  0.00000000000E+00 0. -1.
         -2   -1    0    0    0  501 -0.00000000000E+00 -0.00000000000E+00 -0.18242843108E+03  0.18242843108E+03  0.00000000000E+00 0.  1.
          6    1    1    2  502    0  0.92690638413E+02 -0.28081296449E+02  0.13524271591E+03  0.23927955589E+03  0.17200000000E+03 0. -1.
         -6    1    1    2    0  501 -0.92690638413E+02  0.28081296449E+02 -0.55714607469E+02  0.20510541471E+03  0.17200000000E+03 0.  1.
</event>
<event>
 4    1  0.3169553E-002  0.2023073E+03  0.7818608E-02  0.1147807E+00
         -1   -1    0    0    0  501 -0.00000000000E+00  0.00000000000E+00  0.19139918505E+03  0.19139918505E+03  0.00000000000E+00 0.  1.
          1   -1    0    0  502    0  0.00000000000E+00 -0.00000000000E+00 -0.22716740629E+03  0.22716740629E+03  0.00000000000E+00 0. -1.
          6    1    1    2  502    0  0.89793006965E+02  0.57283916442E+02  0.32812968519E+02  0.20495102363E+03  0.17200000000E+03 0. -1.
         -6    1    1    2    0  501 -0.89793006965E+02 -0.57283916442E+02 -0.68581189755E+02  0.21361556772E+03  0.17200000000E+03 0. -1.
</event>
<event>
 4    1  0.3169553E-002  0.3245155E+03  0.7818608E-02  0.1073590E+00
         -2   -1    0    0    0  501 -0.00000000000E+00  0.00000000000E+00  0.67849549847E+02  0.67849549847E+02  0.00000000000E+00 0.  1.
          2   -1    0    0  502    0  0.00000000000E+00 -0.00000000000E+00 -0.15522683349E+04  0.15522683349E+04  0.00000000000E+00 0. -1.
          6    1    1    2  502    0 -0.24610720120E+03  0.12311602211E+03 -0.75025840670E+03  0.81743378093E+03  0.17200000000E+03 0. -1.
         -6    1    1    2    0  501  0.24610720120E+03 -0.12311602211E+03 -0.73416037837E+03  0.80268410383E+03  0.17200000000E+03 0.  1.
</event>
<event>
 4    1  0.3169553E-002  0.3018407E+03  0.7818608E-02  0.1084324E+00
          1   -1    0    0  502    0  0.00000000000E+00  0.00000000000E+00  0.96047173371E+02  0.96047173371E+02  0.00000000000E+00 0. -1.
         -1   -1    0    0    0  501 -0.00000000000E+00 -0.00000000000E+00 -0.97897778822E+03  0.97897778822E+03  0.00000000000E+00 0.  1.
          6    1    1    2  502    0 -0.78282018747E-01 -0.24803995022E+03 -0.34673954820E+03  0.45971310327E+03  0.17200000000E+03 0.  1.
         -6    1    1    2    0  501  0.78282018747E-01  0.24803995022E+03 -0.53619106666E+03  0.61531185833E+03  0.17200000000E+03 0.  1.
</event>
<event>
 4    1  0.3169553E-002  0.2190107E+03  0.7818608E-02  0.1134623E+00
         -2   -1    0    0    0  501 -0.00000000000E+00  0.00000000000E+00  0.25119326144E+03  0.25119326144E+03  0.00000000000E+00 0.  1.
          2   -1    0    0  502    0  0.00000000000E+00 -0.00000000000E+00 -0.20319717153E+03  0.20319717153E+03  0.00000000000E+00 0. -1.
          6    1    1    2  502    0 -0.11060765803E+03 -0.78406936050E+02 -0.31776195387E+02  0.22130392728E+03  0.17200000000E+03 0. -1.
         -6    1    1    2    0  501  0.11060765803E+03  0.78406936050E+02  0.79772285297E+02  0.23308650569E+03  0.17200000000E+03 0. -1.
</event>
<event>
 4    1  0.3169553E-002  0.2696852E+03  0.7818608E-02  0.1101460E+00
         -2   -1    0    0    0  501 -0.00000000000E+00  0.00000000000E+00  0.28837789846E+03  0.28837789846E+03  0.00000000000E+00 0.  1.
          2   -1    0    0  502    0  0.00000000000E+00 -0.00000000000E+00 -0.88107901488E+03  0.88107901488E+03  0.00000000000E+00 0. -1.
          6    1    1    2  502    0  0.16889745558E+03  0.12091210726E+03 -0.79035281975E+03  0.83509740023E+03  0.17200000000E+03 0. -1.
         -6    1    1    2    0  501 -0.16889745558E+03 -0.12091210726E+03  0.19765170333E+03  0.33435951312E+03  0.17200000000E+03 0.  1.
</event>
<event>
 4    1  0.3169553E-002  0.2063683E+03  0.7818608E-02  0.1144475E+00
          2   -1    0    0  502    0  0.00000000000E+00  0.00000000000E+00  0.35610215965E+03  0.35610215965E+03  0.00000000000E+00 0. -1.
         -2   -1    0    0    0  501 -0.00000000000E+00 -0.00000000000E+00 -0.12762128864E+03  0.12762128864E+03  0.00000000000E+00 0.  1.
          6    1    1    2  502    0  0.10052403752E+03 -0.53840381188E+02  0.17489672069E+03  0.27051198065E+03  0.17200000000E+03 0. -1.
         -6    1    1    2    0  501 -0.10052403752E+03  0.53840381188E+02  0.53584150328E+02  0.21321146764E+03  0.17200000000E+03 0.  1.
</event>
<event>
 4    1  0.3169553E-002  0.2001257E+03  0.7818608E-02  0.1149633E+00
         -2   -1    0    0    0  501 -0.00000000000E+00  0.00000000000E+00  0.68966065621E+02  0.68966065621E+02  0.00000000000E+00 0.  1.
          2   -1    0    0  502    0  0.00000000000E+00 -0.00000000000E+00 -0.64270985222E+03  0.64270985222E+03  0.00000000000E+00 0. -1.
          6    1    1    2  502    0 -0.77724771214E+02 -0.66521875119E+02 -0.17636521569E+03  0.26674892546E+03  0.17200000000E+03 0. -1.
         -6    1    1    2    0  501  0.77724771214E+02  0.66521875119E+02 -0.39737857091E+03  0.44492699238E+03  0.17200000000E+03 0.  1.
</event>
<event>
 4    1  0.3169553E-002  0.3274957E+03  0.7818608E-02  0.1072250E+00
         -2   -1    0    0    0  501 -0.00000000000E+00  0.00000000000E+00  0.14535739103E+03  0.14535739103E+03  0.00000000000E+00 0.  1.
          2   -1    0    0  502    0  0.00000000000E+00 -0.00000000000E+00 -0.11133574701E+04  0.11133574701E+04  0.00000000000E+00 0. -1.
          6    1    1    2  502    0 -0.22453243535E+03  0.16508966778E+03 -0.84949679390E+03  0.91043847446E+03  0.17200000000E+03 0. -1.
         -6    1    1    2    0  501  0.22453243535E+03 -0.16508966778E+03 -0.11850328521E+03  0.34827638670E+03  0.17200000000E+03 0.  1.
</event>
<event>
 4    1  0.3169553E-002  0.1935705E+03  0.7818608E-02  0.1155280E+00
         -2   -1    0    0    0  501 -0.00000000000E+00  0.00000000000E+00  0.62682886393E+02  0.62682886393E+02  0.00000000000E+00 0.  1.
          2   -1    0    0  502    0  0.00000000000E+00 -0.00000000000E+00 -0.19629183527E+04  0.19629183527E+04  0.00000000000E+00 0. -1.
          6    1    1    2  502    0 -0.81176612203E+02 -0.35998736001E+02 -0.17947424266E+04  0.18051509436E+04  0.17200000000E+03 0. -1.
         -6    1    1    2    0  501  0.81176612203E+02  0.35998736001E+02 -0.10549303975E+03  0.22045029553E+03  0.17200000000E+03 0.  1.
</event>
<event>
 4    1  0.3169553E-002  0.2076683E+03  0.7818608E-02  0.1143426E+00
         -2   -1    0    0    0  501 -0.00000000000E+00  0.00000000000E+00  0.61344318800E+03  0.61344318800E+03  0.00000000000E+00 0.  1.
          2   -1    0    0  502    0  0.00000000000E+00 -0.00000000000E+00 -0.70937508346E+02  0.70937508346E+02  0.00000000000E+00 0. -1.
          6    1    1    2  502    0 -0.59517129643E+02 -0.99999129435E+02  0.30364830319E+03  0.36787009479E+03  0.17200000000E+03 0.  1.
         -6    1    1    2    0  501  0.59517129643E+02  0.99999129435E+02  0.23885737646E+03  0.31651060156E+03  0.17200000000E+03 0.  1.
</event>
<event>
 4    1  0.3169553E-002  0.2725272E+03  0.7818608E-02  0.1099842E+00
         -2   -1    0    0    0  501 -0.00000000000E+00  0.00000000000E+00  0.14226200822E+03  0.14226200822E+03  0.00000000000E+00 0.  1.
          2   -1    0    0  502    0  0.00000000000E+00 -0.00000000000E+00 -0.91754701669E+03  0.91754701669E+03  0.00000000000E+00 0. -1.
          6    1    1    2  502    0 -0.14032840388E+03  0.15809813043E+03 -0.73553312142E+03  0.78439789168E+03  0.17200000000E+03 0. -1.
         -6    1    1    2    0  501  0.14032840388E+03 -0.15809813043E+03 -0.39751887064E+02  0.27541113323E+03  0.17200000000E+03 0.  1.
</event>
<event>
 4    1  0.3169553E-002  0.5046709E+03  0.7818608E-02  0.1012567E+00
          2   -1    0    0  502    0  0.00000000000E+00  0.00000000000E+00  0.15511530457E+04  0.15511530457E+04  0.00000000000E+00 0. -1.
         -2   -1    0    0    0  501 -0.00000000000E+00 -0.00000000000E+00 -0.16688202950E+03  0.16688202950E+03  0.00000000000E+00 0.  1.
          6    1    1    2  502    0 -0.31062371867E+03  0.35863859814E+03  0.80112202982E+03  0.94683115989E+03  0.17200000000E+03 0. -1.
         -6    1    1    2    0  501  0.31062371867E+03 -0.35863859814E+03  0.58314898639E+03  0.77120391532E+03  0.17200000000E+03 0.  1.
</event>
<event>
 4    1  0.3169553E-002  0.3161678E+03  0.7818608E-02  0.1077427E+00
         -1   -1    0    0    0  501 -0.00000000000E+00  0.00000000000E+00  0.12218721713E+03  0.12218721713E+03  0.00000000000E+00 0.  1.
          1   -1    0    0  502    0  0.00000000000E+00 -0.00000000000E+00 -0.89256422968E+03  0.89256422968E+03  0.00000000000E+00 0. -1.
          6    1    1    2  502    0  0.16992331175E+03 -0.20372562284E+03 -0.23864481951E+03  0.39612297478E+03  0.17200000000E+03 0. -1.
         -6    1    1    2    0  501 -0.16992331175E+03  0.20372562284E+03 -0.53173219304E+03  0.61862847202E+03  0.17200000000E+03 0. -1.
</event>
<event>
 4    1  0.3169553E-002  0.1918487E+03  0.7818608E-02  0.1156804E+00
         -1   -1    0    0    0  501 -0.00000000000E+00  0.00000000000E+00  0.82094031938E+02  0.82094031938E+02  0.00000000000E+00 0.  1.
          1   -1    0    0  502    0  0.00000000000E+00 -0.00000000000E+00 -0.85228637845E+03  0.85228637845E+03  0.00000000000E+00 0. -1.
          6    1    1    2  502    0  0.19841563674E+02 -0.82633248432E+02 -0.70673128215E+03  0.73230802711E+03  0.17200000000E+03 0. -1.
         -6    1    1    2    0  501 -0.19841563674E+02  0.82633248432E+02 -0.63461064364E+02  0.20207238328E+03  0.17200000000E+03 0.  1.
</event>
<event>
 4    1  0.3169553E-002  0.1840408E+03  0.7818608E-02  0.1163949E+00
          2   -1    0    0  502    0  0.00000000000E+00  0.00000000000E+00  0.13408921134E+03  0.13408921134E+03  0.00000000000E+00 0. -1.
         -2   -1    0    0    0  501 -0.00000000000E+00 -0.00000000000E+00 -0.25660290441E+03  0.25660290441E+03  0.00000000000E+00 0.  1.
          6    1    1    2  502    0 -0.45129615556E+02  0.47437830143E+02 -0.36860601771E+02  0.18769585475E+03  0.17200000000E+03 0. -1.
         -6    1    1    2    0  501  0.45129615556E+02 -0.47437830143E+02 -0.85653091306E+02  0.20299626100E+03  0.17200000000E+03 0.  1.
</event>
<event>
 4    1  0.3169553E-002  0.2279015E+03  0.7818608E-02  0.1128126E+00
          2   -1    0    0  502    0  0.00000000000E+00  0.00000000000E+00  0.23459373461E+03  0.23459373461E+03  0.00000000000E+00 0. -1.
         -2   -1    0    0    0  501 -0.00000000000E+00 -0.00000000000E+00 -0.35039493203E+03  0.35039493203E+03  0.00000000000E+00 0.  1.
          6    1    1    2  502    0  0.12272733560E+03  0.85399739640E+02 -0.23537038676E+03  0.32762529420E+03  0.17200000000E+03 0. -1.
         -6    1    1    2    0  501 -0.12272733560E+03 -0.85399739640E+02  0.11956918934E+03  0.25736337244E+03  0.17200000000E+03 0.  1.
</event>
<event>
 4    1  0.3169553E-002  0.2885694E+03  0.7818608E-02  0.1091098E+00
          4   -1    0    0  502    0  0.00000000000E+00  0.00000000000E+00  0.16172601705E+04  0.16172601705E+04  0.00000000000E+00 0. -1.
         -4   -1    0    0    0  501 -0.00000000000E+00 -0.00000000000E+00 -0.52992588833E+02  0.52992588833E+02  0.00000000000E+00 0.  1.
          6    1    1    2  502    0  0.46426159344E+02 -0.22700857466E+03  0.92277236913E+03  0.96684079686E+03  0.17200000000E+03 0. -1.
         -6    1    1    2    0  501 -0.46426159344E+02  0.22700857466E+03  0.64149521249E+03  0.70341196243E+03  0.17200000000E+03 0. -1.
</event>
<event>
 4    1  0.3169553E-002  0.1748260E+03  0.7818608E-02  0.1172907E+00
         -2   -1    0    0    0  501 -0.00000000000E+00  0.00000000000E+00  0.70412714909E+02  0.70412714909E+02  0.00000000000E+00 0.  1.
          2   -1    0    0  502    0  0.00000000000E+00 -0.00000000000E+00 -0.12197400103E+04  0.12197400103E+04  0.00000000000E+00 0. -1.
          6    1    1    2  502    0 -0.30677047151E+02 -0.62477875523E+01 -0.56940824201E+02  0.18386509601E+03  0.17200000000E+03 0.  1.
         -6    1    1    2    0  501  0.30677047151E+02  0.62477875523E+01 -0.10923864712E+04  0.11062876292E+04  0.17200000000E+03 0. -1.
</event>
<event>
 4    1  0.3169553E-002  0.2765438E+03  0.7818608E-02  0.1097592E+00
          1   -1    0    0  502    0  0.00000000000E+00  0.00000000000E+00  0.43059174061E+03  0.43059174061E+03  0.00000000000E+00 0. -1.
         -1   -1    0    0    0  501 -0.00000000000E+00 -0.00000000000E+00 -0.31124091879E+03  0.31124091879E+03  0.00000000000E+00 0.  1.
          6    1    1    2  502    0 -0.15204849812E+03 -0.15418725753E+03  0.30271926577E+03  0.41001879229E+03  0.17200000000E+03 0. -1.
         -6    1    1    2    0  501  0.15204849812E+03  0.15418725753E+03 -0.18336844395E+03  0.33181386710E+03  0.17200000000E+03 0.  1.
</event>
<event>
 4    1  0.3169553E-002  0.1907524E+03  0.7818608E-02  0.1157784E+00
          1   -1    0    0  502    0  0.00000000000E+00  0.00000000000E+00  0.89970551838E+03  0.89970551838E+03  0.00000000000E+00 0. -1.
         -1   -1    0    0    0  501 -0.00000000000E+00 -0.00000000000E+00 -0.15285778184E+03  0.15285778184E+03  0.00000000000E+00 0.  1.
          6    1    1    2  502    0  0.41271225667E+02 -0.71408400329E+02  0.82474621932E+03  0.84651804469E+03  0.17200000000E+03 0. -1.
         -6    1    1    2    0  501 -0.41271225667E+02  0.71408400329E+02 -0.77898482782E+02  0.20604525553E+03  0.17200000000E+03 0.  1.
</event>
<event>
 4    1  0.3169553E-002  0.2155558E+03  0.7818608E-02  0.1137240E+00
         -2   -1    0    0    0  501 -0.00000000000E+00  0.00000000000E+00  0.97508125870E+02  0.97508125870E+02  0.00000000000E+00 0.  1.
          2   -1    0    0  502    0  0.00000000000E+00 -0.00000000000E+00 -0.99717751926E+03  0.99717751926E+03  0.00000000000E+00 0. -1.
          6    1    1    2  502    0 -0.46372304745E+02 -0.12136683274E+03 -0.84533828648E+03  0.87238816895E+03  0.17200000000E+03 0. -1.
         -6    1    1    2    0  501  0.46372304745E+02  0.12136683274E+03 -0.54331106907E+02  0.22229747618E+03  0.17200000000E+03 0.  1.
</event>
<event>
 4    1  0.3169553E-002  0.2897737E+03  0.7818608E-02  0.1090467E+00
          3   -1    0    0  502    0  0.00000000000E+00  0.00000000000E+00  0.75235564500E+02  0.75235564500E+02  0.00000000000E+00 0. -1.
         -3   -1    0    0    0  501 -0.00000000000E+00 -0.00000000000E+00 -0.11518849514E+04  0.11518849514E+04  0.00000000000E+00 0.  1.
          6    1    1    2  502    0  0.22602711058E+03 -0.57415479839E+02 -0.64650136802E+03  0.70847216664E+03  0.17200000000E+03 0. -1.
         -6    1    1    2    0  501 -0.22602711058E+03  0.57415479839E+02 -0.43014801885E+03  0.51864834923E+03  0.17200000000E+03 0. -1.
</event>
<event>
 4    1  0.3169553E-002  0.1887715E+03  0.7818608E-02  0.1159574E+00
          2   -1    0    0  502    0  0.00000000000E+00  0.00000000000E+00  0.30000815035E+04  0.30000815035E+04  0.00000000000E+00 0. -1.
         -2   -1    0    0    0  501 -0.00000000000E+00 -0.00000000000E+00 -0.12191815247E+02  0.12191815247E+02  0.00000000000E+00 0.  1.
          6    1    1    2  502    0  0.43235194298E+02 -0.64663866451E+02  0.17356186503E+04  0.17458541740E+04  0.17200000000E+03 0.  1.
         -6    1    1    2    0  501 -0.43235194298E+02  0.64663866451E+02  0.12522710379E+04  0.12664191447E+04  0.17200000000E+03 0.  1.
</event>
<event>
 4    1  0.3169553E-002  0.3563463E+03  0.7818608E-02  0.1060040E+00
         -2   -1    0    0    0  501 -0.00000000000E+00  0.00000000000E+00  0.40489503169E+02  0.40489503169E+02  0.00000000000E+00 0.  1.
          2   -1    0    0  502    0  0.00000000000E+00 -0.00000000000E+00 -0.32932262094E+04  0.32932262094E+04  0.00000000000E+00 0. -1.
          6    1    1    2  502    0 -0.27267546993E+02 -0.31089409022E+03 -0.12623763842E+04  0.13117075855E+04  0.17200000000E+03 0. -1.
         -6    1    1    2    0  501  0.27267546993E+02  0.31089409022E+03 -0.19903603221E+04  0.20220081272E+04  0.17200000000E+03 0.  1.
</event>
<event>
 4    1  0.3169553E-002  0.2160373E+03  0.7818608E-02  0.1136872E+00
         -1   -1    0    0    0  501 -0.00000000000E+00  0.00000000000E+00  0.20153907402E+03  0.20153907402E+03  0.00000000000E+00 0.  1.
          1   -1    0    0  502    0  0.00000000000E+00 -0.00000000000E+00 -0.72782333631E+03  0.72782333631E+03  0.00000000000E+00 0. -1.
          6    1    1    2  502    0  0.10172971705E+03  0.82092478585E+02 -0.64684065858E+03  0.68196403715E+03  0.17200000000E+03 0. -1.
         -6    1    1    2    0  501 -0.10172971705E+03 -0.82092478585E+02  0.12055639629E+03  0.24739837319E+03  0.17200000000E+03 0.  1.
</event>
<event>
 4    1  0.3169553E-002  0.3631774E+03  0.7818608E-02  0.1057333E+00
         -3   -1    0    0    0  501 -0.00000000000E+00  0.00000000000E+00  0.31463107392E+03  0.31463107392E+03  0.00000000000E+00 0.  1.
          3   -1    0    0  502    0  0.00000000000E+00 -0.00000000000E+00 -0.68776764485E+03  0.68776764485E+03  0.00000000000E+00 0. -1.
          6    1    1    2  502    0 -0.88017776222E+02 -0.30751695963E+03 -0.49975621245E+03  0.61778158055E+03  0.17200000000E+03 0. -1.
         -6    1    1    2    0  501  0.88017776222E+02  0.30751695963E+03  0.12661964152E+03  0.38461713822E+03  0.17200000000E+03 0.  1.
</event>
<event>
 4    1  0.3169553E-002  0.2188609E+03  0.7818608E-02  0.1134735E+00
         -2   -1    0    0    0  501 -0.00000000000E+00  0.00000000000E+00  0.15411367255E+03  0.15411367255E+03  0.00000000000E+00 0.  1.
          2   -1    0    0  502    0  0.00000000000E+00 -0.00000000000E+00 -0.11071208536E+04  0.11071208536E+04  0.00000000000E+00 0. -1.
          6    1    1    2  502    0  0.13345643424E+03 -0.22482348033E+02 -0.10113260637E+04  0.10347369149E+04  0.17200000000E+03 0. -1.
         -6    1    1    2    0  501 -0.13345643424E+03  0.22482348033E+02  0.58318882727E+02  0.22649761123E+03  0.17200000000E+03 0.  1.
</event>
<event>
 4    1  0.3169553E-002  0.1756352E+03  0.7818608E-02  0.1172095E+00
          1   -1    0    0  502    0  0.00000000000E+00  0.00000000000E+00  0.21885247836E+02  0.21885247836E+02  0.00000000000E+00 0. -1.
         -1   -1    0    0    0  501 -0.00000000000E+00 -0.00000000000E+00 -0.14212179848E+04  0.14212179848E+04  0.00000000000E+00 0.  1.
          6    1    1    2  502    0  0.26907398431E+02 -0.23231842986E+02 -0.63420797181E+03  0.65807862609E+03  0.17200000000E+03 0.  1.
         -6    1    1    2    0  501 -0.26907398431E+02  0.23231842986E+02 -0.76512476514E+03  0.78502460652E+03  0.17200000000E+03 0. -1.
</event>
<event>
 4    1  0.3169553E-002  0.2053329E+03  0.7818608E-02  0.1145316E+00
         -2   -1    0    0    0  501 -0.00000000000E+00  0.00000000000E+00  0.56284128767E+02  0.56284128767E+02  0.00000000000E+00 0.  1.
          2   -1    0    0  502    0  0.00000000000E+00 -0.00000000000E+00 -0.75505148812E+03  0.75505148812E+03  0.00000000000E+00 0. -1.
          6    1    1    2  502    0  0.11097668963E+03 -0.16179985378E+02 -0.38544387638E+03  0.43672485550E+03  0.17200000000E+03 0. -1.
         -6    1    1    2    0  501 -0.11097668963E+03  0.16179985378E+02 -0.31332348297E+03  0.37461076139E+03  0.17200000000E+03 0.  1.
</event>
<event>
 4    1  0.3169553E-002  0.1998949E+03  0.7818608E-02  0.1149828E+00
         -2   -1    0    0    0  501 -0.00000000000E+00  0.00000000000E+00  0.15185680937E+03  0.15185680937E+03  0.00000000000E+00 0.  1.
          2   -1    0    0  502    0  0.00000000000E+00 -0.00000000000E+00 -0.13469539824E+04  0.13469539824E+04  0.00000000000E+00 0. -1.
          6    1    1    2  502    0 -0.50441823744E+01  0.10172766726E+03 -0.12697818111E+04  0.12854197018E+04  0.17200000000E+03 0. -1.
         -6    1    1    2    0  501  0.50441823744E+01 -0.10172766726E+03  0.74684638128E+02  0.21339108987E+03  0.17200000000E+03 0.  1.
</event>
<event>
 4    1  0.3169553E-002  0.2036516E+03  0.7818608E-02  0.1146694E+00
         -2   -1    0    0    0  501 -0.00000000000E+00  0.00000000000E+00  0.43151268910E+02  0.43151268910E+02  0.00000000000E+00 0.  1.
          2   -1    0    0  502    0  0.00000000000E+00 -0.00000000000E+00 -0.10791095727E+04  0.10791095727E+04  0.00000000000E+00 0. -1.
          6    1    1    2  502    0 -0.83821071945E+02  0.69742296164E+02 -0.33244012863E+03  0.38985946070E+03  0.17200000000E+03 0. -1.
         -6    1    1    2    0  501  0.83821071945E+02 -0.69742296164E+02 -0.70351817521E+03  0.73240138095E+03  0.17200000000E+03 0. -1.
</event>
<event>
 4    1  0.3169553E-002  0.1874694E+03  0.7818608E-02  0.1160764E+00
         -2   -1    0    0    0  501 -0.00000000000E+00  0.00000000000E+00  0.74558556929E+02  0.74558556929E+02  0.00000000000E+00 0.  1.
          2   -1    0    0  502    0  0.00000000000E+00 -0.00000000000E+00 -0.54280156693E+03  0.54280156693E+03  0.00000000000E+00 0. -1.
          6    1    1    2  502    0  0.73654879022E+02  0.11649872430E+02 -0.12214438374E+03  0.22374988539E+03  0.17200000000E+03 0.  1.
         -6    1    1    2    0  501 -0.73654879022E+02 -0.11649872430E+02 -0.34609862626E+03  0.39361023848E+03  0.17200000000E+03 0. -1.
</event>
<event>
 4    1  0.3169553E-002  0.1852449E+03  0.7818608E-02  0.1162821E+00
         -2   -1    0    0    0  501 -0.00000000000E+00  0.00000000000E+00  0.44922575965E+03  0.44922575965E+03  0.00000000000E+00 0.  1.
          2   -1    0    0  502    0  0.00000000000E+00 -0.00000000000E+00 -0.10654738109E+03  0.10654738109E+03  0.00000000000E+00 0. -1.
          6    1    1    2  502    0  0.46994560248E+02  0.50231191266E+02  0.23495050099E+02  0.18672889077E+03  0.17200000000E+03 0. -1.
         -6    1    1    2    0  501 -0.46994560248E+02 -0.50231191266E+02  0.31918332846E+03  0.36904424997E+03  0.17200000000E+03 0.  1.
</event>
<event>
 4    1  0.3169553E-002  0.2468406E+03  0.7818608E-02  0.1115318E+00
         -2   -1    0    0    0  501 -0.00000000000E+00  0.00000000000E+00  0.22154291636E+03  0.22154291636E+03  0.00000000000E+00 0.  1.
          2   -1    0    0  502    0  0.00000000000E+00 -0.00000000000E+00 -0.34379745129E+03  0.34379745129E+03  0.00000000000E+00 0. -1.
          6    1    1    2  502    0  0.14504339948E+03 -0.10153184417E+03 -0.18755121148E+03  0.31000929025E+03  0.17200000000E+03 0. -1.
         -6    1    1    2    0  501 -0.14504339948E+03  0.10153184417E+03  0.65296676557E+02  0.25533107739E+03  0.17200000000E+03 0.  1.
</event>
<event>
 4    1  0.3169553E-002  0.2518070E+03  0.7818608E-02  0.1112168E+00
         -1   -1    0    0    0  501 -0.00000000000E+00  0.00000000000E+00  0.10135552115E+03  0.10135552115E+03  0.00000000000E+00 0.  1.
          1   -1    0    0  502    0  0.00000000000E+00 -0.00000000000E+00 -0.17084040022E+04  0.17084040022E+04  0.00000000000E+00 0. -1.
          6    1    1    2  502    0  0.40881479321E+01 -0.18386420996E+03 -0.15239230575E+04  0.15445867557E+04  0.17200000000E+03 0. -1.
         -6    1    1    2    0  501 -0.40881479321E+01  0.18386420996E+03 -0.83125423528E+02  0.26517276763E+03  0.17200000000E+03 0.  1.
</event>
<event>
 4    1  0.3169553E-002  0.1820327E+03  0.7818608E-02  0.1165850E+00
         -2   -1    0    0    0  501 -0.00000000000E+00  0.00000000000E+00  0.10130644628E+03  0.10130644628E+03  0.00000000000E+00 0.  1.
          2   -1    0    0  502    0  0.00000000000E+00 -0.00000000000E+00 -0.65955345228E+03  0.65955345228E+03  0.00000000000E+00 0. -1.
          6    1    1    2  502    0  0.26578585749E+02  0.53343181489E+02 -0.90236833061E+01  0.18225625666E+03  0.17200000000E+03 0.  1.
         -6    1    1    2    0  501 -0.26578585749E+02 -0.53343181489E+02 -0.54922332270E+03  0.57860364190E+03  0.17200000000E+03 0. -1.
</event>
<event>
 4    1  0.3169553E-002  0.1834434E+03  0.7818608E-02  0.1164511E+00
          1   -1    0    0  502    0  0.00000000000E+00  0.00000000000E+00  0.11984533443E+04  0.11984533443E+04  0.00000000000E+00 0. -1.
         -1   -1    0    0    0  501 -0.00000000000E+00 -0.00000000000E+00 -0.29180950860E+02  0.29180950860E+02  0.00000000000E+00 0.  1.
          6    1    1    2  502    0 -0.37005365779E+02 -0.51943160031E+02  0.46536074017E+03  0.50021206249E+03  0.17200000000E+03 0. -1.
         -6    1    1    2    0  501  0.37005365779E+02  0.51943160031E+02  0.70391165325E+03  0.72742223265E+03  0.17200000000E+03 0. -1.
</event>
<event>
 4    1  0.3169553E-002  0.1113599E+04  0.7818608E-02  0.9192038E-01
         -2   -1    0    0    0  501 -0.00000000000E+00  0.00000000000E+00  0.11074331506E+04  0.11074331506E+04  0.00000000000E+00 0.  1.
          2   -1    0    0  502    0  0.00000000000E+00 -0.00000000000E+00 -0.11426303936E+04  0.11426303936E+04  0.00000000000E+00 0. -1.
          6    1    1    2  502    0 -0.92812468563E+03  0.59084925183E+03 -0.17662910529E+03  0.11275194505E+04  0.17200000000E+03 0. -1.
         -6    1    1    2    0  501  0.92812468563E+03 -0.59084925183E+03  0.14143186229E+03  0.11225440936E+04  0.17200000000E+03 0.  1.
</event>
<event>
 4    1  0.3169553E-002  0.2915384E+03  0.7818608E-02  0.1089549E+00
          2   -1    0    0  502    0  0.00000000000E+00  0.00000000000E+00  0.18880803640E+04  0.18880803640E+04  0.00000000000E+00 0. -1.
         -2   -1    0    0    0  501 -0.00000000000E+00 -0.00000000000E+00 -0.45384324198E+02  0.45384324198E+02  0.00000000000E+00 0.  1.
          6    1    1    2  502    0  0.23186147007E+03  0.40631188059E+02  0.10083873731E+04  0.10496855382E+04  0.17200000000E+03 0. -1.
         -6    1    1    2    0  501 -0.23186147007E+03 -0.40631188059E+02  0.83430866666E+03  0.88377915002E+03  0.17200000000E+03 0. -1.
</event>
<event>
 4    1  0.3169553E-002  0.2406659E+03  0.7818608E-02  0.1119350E+00
          2   -1    0    0  502    0  0.00000000000E+00  0.00000000000E+00  0.27003266626E+04  0.27003266626E+04  0.00000000000E+00 0. -1.
         -2   -1    0    0    0  501 -0.00000000000E+00 -0.00000000000E+00 -0.21511098740E+02  0.21511098740E+02  0.00000000000E+00 0.  1.
          6    1    1    2  502    0 -0.70544789653E+02 -0.15283817296E+03  0.14123612075E+04  0.14327191822E+04  0.17200000000E+03 0. -1.
         -6    1    1    2    0  501  0.70544789653E+02  0.15283817296E+03  0.12664543564E+04  0.12891185792E+04  0.17200000000E+03 0.  1.
</event>
<event>
 4    1  0.3169553E-002  0.2314928E+03  0.7818608E-02  0.1125593E+00
          1   -1    0    0  502    0  0.00000000000E+00  0.00000000000E+00  0.25357211370E+03  0.25357211370E+03  0.00000000000E+00 0. -1.
         -1   -1    0    0    0  501 -0.00000000000E+00 -0.00000000000E+00 -0.21435525105E+03  0.21435525105E+03  0.00000000000E+00 0.  1.
          6    1    1    2  502    0 -0.28979211740E+02  0.15220086260E+03 -0.81590422446E+01  0.23163649812E+03  0.17200000000E+03 0.  1.
         -6    1    1    2    0  501  0.28979211740E+02 -0.15220086260E+03  0.47375904888E+02  0.23629086663E+03  0.17200000000E+03 0. -1.
</event>
<event>
 4    1  0.3169553E-002  0.2650559E+03  0.7818608E-02  0.1104143E+00
         -1   -1    0    0    0  501 -0.00000000000E+00  0.00000000000E+00  0.32182789276E+02  0.32182789276E+02  0.00000000000E+00 0.  1.
          1   -1    0    0  502    0  0.00000000000E+00 -0.00000000000E+00 -0.24773647238E+04  0.24773647238E+04  0.00000000000E+00 0. -1.
          6    1    1    2  502    0  0.13316802877E+03  0.15144927107E+03 -0.16551277432E+04  0.16762167079E+04  0.17200000000E+03 0. -1.
         -6    1    1    2    0  501 -0.13316802877E+03 -0.15144927107E+03 -0.79005419130E+03  0.83333080514E+03  0.17200000000E+03 0.  1.
</event>
<event>
 4    1  0.3169553E-002  0.8577107E+03  0.7818608E-02  0.9480046E-01
          1   -1    0    0  502    0  0.00000000000E+00  0.00000000000E+00  0.48185550017E+04  0.48185550017E+04  0.00000000000E+00 0. -1.
         -1   -1    0    0    0  501 -0.00000000000E+00 -0.00000000000E+00 -0.23364134253E+03  0.23364134253E+03  0.00000000000E+00 0.  1.
          6    1    1    2  502    0  0.68784139540E+03  0.48265702203E+03  0.37795240069E+04  0.38756250212E+04  0.17200000000E+03 0. -1.
         -6    1    1    2    0  501 -0.68784139540E+03 -0.48265702203E+03  0.80538965219E+03  0.11765713230E+04  0.17200000000E+03 0.  1.
</event>
<event>
 4    1  0.3169553E-002  0.3995134E+03  0.7818608E-02  0.1043948E+00
         -1   -1    0    0    0  501 -0.00000000000E+00  0.00000000000E+00  0.10751069108E+04  0.10751069108E+04  0.00000000000E+00 0.  1.
          1   -1    0    0  502    0  0.00000000000E+00 -0.00000000000E+00 -0.16159313068E+03  0.16159313068E+03  0.00000000000E+00 0. -1.
          6    1    1    2  502    0  0.33173056725E+03  0.14135689297E+03  0.63303497452E+03  0.74856143328E+03  0.17200000000E+03 0. -1.
         -6    1    1    2    0  501 -0.33173056725E+03 -0.14135689297E+03  0.28047880564E+03  0.48813860823E+03  0.17200000000E+03 0.  1.
</event>
<event>
 4    1  0.3169553E-002  0.2964210E+03  0.7818608E-02  0.1087043E+00
          1   -1    0    0  502    0  0.00000000000E+00  0.00000000000E+00  0.47066317286E+03  0.47066317286E+03  0.00000000000E+00 0. -1.
         -1   -1    0    0    0  501 -0.00000000000E+00 -0.00000000000E+00 -0.34810149861E+03  0.34810149861E+03  0.00000000000E+00 0.  1.
          6    1    1    2  502    0  0.54501383568E+02  0.23518298388E+03  0.34005403846E+03  0.45111216542E+03  0.17200000000E+03 0. -1.
         -6    1    1    2    0  501 -0.54501383568E+02 -0.23518298388E+03 -0.21749236420E+03  0.36765250605E+03  0.17200000000E+03 0.  1.
</event>
<event>
 4    1  0.3169553E-002  0.2742027E+03  0.7818608E-02  0.1098898E+00
          1   -1    0    0  502    0  0.00000000000E+00  0.00000000000E+00  0.70235642816E+03  0.70235642816E+03  0.00000000000E+00 0. -1.
         -1   -1    0    0    0  501 -0.00000000000E+00 -0.00000000000E+00 -0.22068596343E+03  0.22068596343E+03  0.00000000000E+00 0.  1.
          6    1    1    2  502    0 -0.10011273183E+03 -0.18862813152E+03  0.57201403660E+03  0.63433996338E+03  0.17200000000E+03 0. -1.
         -6    1    1    2    0  501  0.10011273183E+03  0.18862813152E+03 -0.90343571873E+02  0.28870242821E+03  0.17200000000E+03 0.  1.
</event>
<event>
 4    1  0.3169553E-002  0.1732181E+03  0.7818608E-02  0.1174533E+00
          3   -1    0    0  502    0  0.00000000000E+00  0.00000000000E+00  0.82432752268E+02  0.82432752268E+02  0.00000000000E+00 0. -1.
         -3   -1    0    0    0  501 -0.00000000000E+00 -0.00000000000E+00 -0.38134680493E+03  0.38134680493E+03  0.00000000000E+00 0.  1.
          6    1    1    2  502    0 -0.20002211934E+02  0.45198319019E+01 -0.99982256942E+02  0.20000242265E+03  0.17200000000E+03 0. -1.
         -6    1    1    2    0  501  0.20002211934E+02 -0.45198319019E+01 -0.19893179572E+03  0.26377713455E+03  0.17200000000E+03 0.  1.
</event>
<event>
 4    1  0.3169553E-002  0.2372297E+03  0.7818608E-02  0.1121652E+00
          2   -1    0    0  502    0  0.00000000000E+00  0.00000000000E+00  0.20657872658E+04  0.20657872658E+04  0.00000000000E+00 0. -1.
         -2   -1    0    0    0  501 -0.00000000000E+00 -0.00000000000E+00 -0.38622753590E+02  0.38622753590E+02  0.00000000000E+00 0.  1.
          6    1    1    2  502    0  0.71530303022E+02  0.14689224767E+03  0.44243487844E+03  0.50202244804E+03  0.17200000000E+03 0.  1.
         -6    1    1    2    0  501 -0.71530303022E+02 -0.14689224767E+03  0.15847296338E+04  0.16023875714E+04  0.17200000000E+03 0. -1.
</event>
<event>
 4    1  0.3169553E-002  0.2221868E+03  0.7818608E-02  0.1132263E+00
          1   -1    0    0  502    0  0.00000000000E+00  0.00000000000E+00  0.17345585721E+04  0.17345585721E+04  0.00000000000E+00 0. -1.
         -1   -1    0    0    0  501 -0.00000000000E+00 -0.00000000000E+00 -0.28558177513E+02  0.28558177513E+02  0.00000000000E+00 0.  1.
          6    1    1    2  502    0  0.21855961260E+02  0.13894350550E+03  0.80153152461E+03  0.83175703526E+03  0.17200000000E+03 0.  1.
         -6    1    1    2    0  501 -0.21855961260E+02 -0.13894350550E+03  0.90446886998E+03  0.93135971435E+03  0.17200000000E+03 0. -1.
</event>
<event>
 4    1  0.3169553E-002  0.4548604E+03  0.7818608E-02  0.1026282E+00
          2   -1    0    0  502    0  0.00000000000E+00  0.00000000000E+00  0.25887123503E+04  0.25887123503E+04  0.00000000000E+00 0. -1.
         -2   -1    0    0    0  501 -0.00000000000E+00 -0.00000000000E+00 -0.20493016906E+03  0.20493016906E+03  0.00000000000E+00 0.  1.
          6    1    1    2  502    0  0.41462814740E+03 -0.73467777952E+02  0.22828417452E+04  0.23277165739E+04  0.17200000000E+03 0. -1.
         -6    1    1    2    0  501 -0.41462814740E+03  0.73467777952E+02  0.10094043610E+03  0.46592594546E+03  0.17200000000E+03 0.  1.
</event>
<event>
 4    1  0.3169553E-002  0.1859760E+03  0.7818608E-02  0.1162142E+00
          2   -1    0    0  502    0  0.00000000000E+00  0.00000000000E+00  0.14487035564E+04  0.14487035564E+04  0.00000000000E+00 0. -1.
         -2   -1    0    0    0  501 -0.00000000000E+00 -0.00000000000E+00 -0.36080810009E+02  0.36080810009E+02  0.00000000000E+00 0.  1.
          6    1    1    2  502    0 -0.10138625299E+02  0.70002088059E+02  0.11381160222E+04  0.11532108065E+04  0.17200000000E+03 0. -1.
         -6    1    1    2    0  501  0.10138625299E+02 -0.70002088059E+02  0.27450672417E+03  0.33157355997E+03  0.17200000000E+03 0.  1.
</event>
<event>
 4    1  0.3169553E-002  0.1797249E+03  0.7818608E-02  0.1168070E+00
          2   -1    0    0  502    0  0.00000000000E+00  0.00000000000E+00  0.11874645856E+04  0.11874645856E+04  0.00000000000E+00 0. -1.
         -2   -1    0    0    0  501 -0.00000000000E+00 -0.00000000000E+00 -0.10651859495E+03  0.10651859495E+03  0.00000000000E+00 0.  1.
          6    1    1    2  502    0 -0.79081134352E+00  0.52119331089E+02  0.10987744837E+04  0.11133761342E+04  0.17200000000E+03 0. -1.
         -6    1    1    2    0  501  0.79081134352E+00 -0.52119331089E+02 -0.17828493018E+02  0.18060704643E+03  0.17200000000E+03 0.  1.
</event>
<event>
 4    1  0.3169553E-002  0.4752986E+03  0.7818608E-02  0.1020435E+00
         -2   -1    0    0    0  501 -0.00000000000E+00  0.00000000000E+00  0.28096637837E+03  0.28096637837E+03  0.00000000000E+00 0.  1.
          2   -1    0    0  502    0  0.00000000000E+00 -0.00000000000E+00 -0.82459448834E+03  0.82459448834E+03  0.00000000000E+00 0. -1.
          6    1    1    2  502    0 -0.36227967080E+03 -0.25510436910E+03 -0.35908376189E+03  0.59569282945E+03  0.17200000000E+03 0.  1.
         -6    1    1    2    0  501  0.36227967080E+03  0.25510436910E+03 -0.18454434808E+03  0.50986803726E+03  0.17200000000E+03 0.  1.
</event>
<event>
 4    1  0.3169553E-002  0.2032765E+03  0.7818608E-02  0.1147004E+00
         -3   -1    0    0    0  501 -0.00000000000E+00  0.00000000000E+00  0.85851684430E+03  0.85851684430E+03  0.00000000000E+00 0.  1.
          3   -1    0    0  502    0  0.00000000000E+00 -0.00000000000E+00 -0.12229094310E+03  0.12229094310E+03  0.00000000000E+00 0. -1.
          6    1    1    2  502    0  0.60851725859E+02 -0.89634867253E+02 -0.13779634003E+02  0.20374302511E+03  0.17200000000E+03 0. -1.
         -6    1    1    2    0  501 -0.60851725859E+02  0.89634867253E+02  0.75000553520E+03  0.77706476230E+03  0.17200000000E+03 0.  1.
</event>
<event>
 4    1  0.3169553E-002  0.1862164E+03  0.7818608E-02  0.1161919E+00
         -1   -1    0    0    0  501 -0.00000000000E+00  0.00000000000E+00  0.73225204249E+02  0.73225204249E+02  0.00000000000E+00 0.  1.
          1   -1    0    0  502    0  0.00000000000E+00 -0.00000000000E+00 -0.51907306193E+03  0.51907306193E+03  0.00000000000E+00 0. -1.
          6    1    1    2  502    0  0.26510333595E+02 -0.66255133149E+02 -0.31061662393E+03  0.36215911906E+03  0.17200000000E+03 0. -1.
         -6    1    1    2    0  501 -0.26510333595E+02  0.66255133149E+02 -0.13523123375E+03  0.23013914712E+03  0.17200000000E+03 0.  1.
</event>
<event>
 4    1  0.3169553E-002  0.2137683E+03  0.7818608E-02  0.1138616E+00
          2   -1    0    0  502    0  0.00000000000E+00  0.00000000000E+00  0.63801967962E+03  0.63801967962E+03  0.00000000000E+00 0. -1.
         -2   -1    0    0    0  501 -0.00000000000E+00 -0.00000000000E+00 -0.84527375172E+02  0.84527375172E+02  0.00000000000E+00 0.  1.
          6    1    1    2  502    0  0.49364396032E+02 -0.11694468215E+03  0.41790413501E+03  0.46940469569E+03  0.17200000000E+03 0. -1.
         -6    1    1    2    0  501 -0.49364396032E+02  0.11694468215E+03  0.13558816944E+03  0.25314235910E+03  0.17200000000E+03 0.  1.
</event>
<event>
 4    1  0.3169553E-002  0.2401945E+03  0.7818608E-02  0.1119663E+00
          2   -1    0    0  502    0  0.00000000000E+00  0.00000000000E+00  0.32796214397E+04  0.32796214397E+04  0.00000000000E+00 0. -1.
         -2   -1    0    0    0  501 -0.00000000000E+00 -0.00000000000E+00 -0.24440045893E+02  0.24440045893E+02  0.00000000000E+00 0.  1.
          6    1    1    2  502    0  0.16742520951E+03 -0.88415858019E+01  0.25021054376E+04  0.25136079637E+04  0.17200000000E+03 0. -1.
         -6    1    1    2    0  501 -0.16742520951E+03  0.88415858019E+01  0.75307595620E+03  0.79045352187E+03  0.17200000000E+03 0.  1.
</event>
<event>
 4    1  0.3169553E-002  0.2461577E+03  0.7818608E-02  0.1115757E+00
          1   -1    0    0  502    0  0.00000000000E+00  0.00000000000E+00  0.27233671162E+02  0.27233671162E+02  0.00000000000E+00 0. -1.
         -1   -1    0    0    0  501 -0.00000000000E+00 -0.00000000000E+00 -0.22528043874E+04  0.22528043874E+04  0.00000000000E+00 0.  1.
          6    1    1    2  502    0 -0.15004560261E+03  0.92173490294E+02 -0.12395431559E+04  0.12637487371E+04  0.17200000000E+03 0.  1.
         -6    1    1    2    0  501  0.15004560261E+03 -0.92173490294E+02 -0.98602756033E+03  0.10162893215E+04  0.17200000000E+03 0.  1.
</event>
<event>
 4    1  0.3169553E-002  0.2830192E+03  0.7818608E-02  0.1094051E+00
          2   -1    0    0  502    0  0.00000000000E+00  0.00000000000E+00  0.57470417821E+03  0.57470417821E+03  0.00000000000E+00 0. -1.
         -2   -1    0    0    0  501 -0.00000000000E+00 -0.00000000000E+00 -0.20240161686E+03  0.20240161686E+03  0.00000000000E+00 0.  1.
          6    1    1    2  502    0  0.22042434623E+03  0.43920357032E+02  0.40297270425E+03  0.49242957928E+03  0.17200000000E+03 0. -1.
         -6    1    1    2    0  501 -0.22042434623E+03 -0.43920357032E+02 -0.30670142905E+02  0.28467621579E+03  0.17200000000E+03 0.  1.
</event>
<event>
 4    1  0.3169553E-002  0.4833184E+03  0.7818608E-02  0.1018227E+00
         -2   -1    0    0    0  501 -0.00000000000E+00  0.00000000000E+00  0.16571282618E+03  0.16571282618E+03  0.00000000000E+00 0.  1.
          2   -1    0    0  502    0  0.00000000000E+00 -0.00000000000E+00 -0.14100626875E+04  0.14100626875E+04  0.00000000000E+00 0. -1.
          6    1    1    2  502    0 -0.11998212579E+03  0.43545032003E+03 -0.63569261514E+03  0.79856232861E+03  0.17200000000E+03 0. -1.
         -6    1    1    2    0  501  0.11998212579E+03 -0.43545032003E+03 -0.60865724622E+03  0.77721318511E+03  0.17200000000E+03 0.  1.
</event>
<event>
 4    1  0.3169553E-002  0.2104333E+03  0.7818608E-02  0.1141223E+00
          3   -1    0    0  502    0  0.00000000000E+00  0.00000000000E+00  0.27582973075E+03  0.27582973075E+03  0.00000000000E+00 0. -1.
         -3   -1    0    0    0  501 -0.00000000000E+00 -0.00000000000E+00 -0.17243413437E+03  0.17243413437E+03  0.00000000000E+00 0.  1.
          6    1    1    2  502    0 -0.43641105133E+00  0.12123518493E+03  0.11055889922E+03  0.23770870980E+03  0.17200000000E+03 0. -1.
         -6    1    1    2    0  501  0.43641105133E+00 -0.12123518493E+03 -0.71633028467E+01  0.21055515531E+03  0.17200000000E+03 0.  1.
</event>
<event>
 4    1  0.3169553E-002  0.1789587E+03  0.7818608E-02  0.1168815E+00
         -1   -1    0    0    0  501 -0.00000000000E+00  0.00000000000E+00  0.91522870847E+03  0.91522870847E+03  0.00000000000E+00 0.  1.
          1   -1    0    0  502    0  0.00000000000E+00 -0.00000000000E+00 -0.42098266655E+02  0.42098266655E+02  0.00000000000E+00 0. -1.
          6    1    1    2  502    0 -0.36930050253E+02  0.32838696325E+02  0.63321859105E+03  0.65802127066E+03  0.17200000000E+03 0.  1.
         -6    1    1    2    0  501  0.36930050253E+02 -0.32838696325E+02  0.23991185076E+03  0.29930570447E+03  0.17200000000E+03 0. -1.
</event>
<event>
 4    1  0.3169553E-002  0.1768090E+03  0.7818608E-02  0.1170927E+00
         -2   -1    0    0    0  501 -0.00000000000E+00  0.00000000000E+00  0.22803412228E+02  0.22803412228E+02  0.00000000000E+00 0.  1.
          2   -1    0    0  502    0  0.00000000000E+00 -0.00000000000E+00 -0.14182647235E+04  0.14182647235E+04  0.00000000000E+00 0. -1.
          6    1    1    2  502    0 -0.39164061350E+02  0.11983916464E+02 -0.82939103102E+03  0.84802766481E+03  0.17200000000E+03 0. -1.
         -6    1    1    2    0  501  0.39164061350E+02 -0.11983916464E+02 -0.56607028024E+03  0.59304047090E+03  0.17200000000E+03 0.  1.
</event>
<event>
 4    1  0.3169553E-002  0.1945237E+03  0.7818608E-02  0.1154443E+00
         -1   -1    0    0    0  501 -0.00000000000E+00  0.00000000000E+00  0.27423323123E+02  0.27423323123E+02  0.00000000000E+00 0.  1.
          1   -1    0    0  502    0  0.00000000000E+00 -0.00000000000E+00 -0.16495891096E+04  0.16495891096E+04  0.00000000000E+00 0. -1.
          6    1    1    2  502    0  0.69875094512E+02 -0.58076998597E+02 -0.11501675503E+04  0.11665011189E+04  0.17200000000E+03 0. -1.
         -6    1    1    2    0  501 -0.69875094512E+02  0.58076998597E+02 -0.47199823613E+03  0.51051131379E+03  0.17200000000E+03 0.  1.
</event>
<event>
 4    1  0.3169553E-002  0.3330917E+03  0.7818608E-02  0.1069777E+00
          2   -1    0    0  502    0  0.00000000000E+00  0.00000000000E+00  0.19591701815E+04  0.19591701815E+04  0.00000000000E+00 0. -1.
         -2   -1    0    0    0  501 -0.00000000000E+00 -0.00000000000E+00 -0.14736848942E+03  0.14736848942E+03  0.00000000000E+00 0.  1.
          6    1    1    2  502    0 -0.23801451033E+02 -0.28425270834E+03  0.17323765343E+04  0.17641084343E+04  0.17200000000E+03 0. -1.
         -6    1    1    2    0  501  0.23801451033E+02  0.28425270834E+03  0.79425157751E+02  0.34243023662E+03  0.17200000000E+03 0.  1.
</event>
<event>
 4    1  0.3169553E-002  0.2139044E+03  0.7818608E-02  0.1138511E+00
         -2   -1    0    0    0  501 -0.00000000000E+00  0.00000000000E+00  0.12188657195E+03  0.12188657195E+03  0.00000000000E+00 0.  1.
          2   -1    0    0  502    0  0.00000000000E+00 -0.00000000000E+00 -0.45792471809E+03  0.45792471809E+03  0.00000000000E+00 0. -1.
          6    1    1    2  502    0 -0.94093918545E+02  0.85541876557E+02 -0.29109589772E+03  0.36123662580E+03  0.17200000000E+03 0. -1.
         -6    1    1    2    0  501  0.94093918545E+02 -0.85541876557E+02 -0.44942248418E+02  0.21857466423E+03  0.17200000000E+03 0. -1.
</event>
<event>
 4    1  0.3169553E-002  0.1899052E+03  0.7818608E-02  0.1158547E+00
          2   -1    0    0  502    0  0.00000000000E+00  0.00000000000E+00  0.16947358409E+04  0.16947358409E+04  0.00000000000E+00 0. -1.
         -2   -1    0    0    0  501 -0.00000000000E+00 -0.00000000000E+00 -0.22269080574E+02  0.22269080574E+02  0.00000000000E+00 0.  1.
          6    1    1    2  502    0  0.63452583858E+02  0.49535560060E+02  0.65530645444E+03  0.68226867972E+03  0.17200000000E+03 0. -1.
         -6    1    1    2    0  501 -0.63452583858E+02 -0.49535560060E+02  0.10171603059E+04  0.10347362418E+04  0.17200000000E+03 0.  1.
</event>
<event>
 4    1  0.3169553E-002  0.2356910E+03  0.7818608E-02  0.1122697E+00
         -2   -1    0    0    0  501 -0.00000000000E+00  0.00000000000E+00  0.21059355694E+03  0.21059355694E+03  0.00000000000E+00 0.  1.
          2   -1    0    0  502    0  0.00000000000E+00 -0.00000000000E+00 -0.48063941758E+03  0.48063941758E+03  0.00000000000E+00 0. -1.
          6    1    1    2  502    0  0.15277083546E+03  0.51257548038E+02 -0.36717598246E+03  0.43631234969E+03  0.17200000000E+03 0. -1.
         -6    1    1    2    0  501 -0.15277083546E+03 -0.51257548038E+02  0.97130121821E+02  0.25492062483E+03  0.17200000000E+03 0.  1.
</event>
<event>
 4    1  0.3169553E-002  0.2263160E+03  0.7818608E-02  0.1129260E+00
          1   -1    0    0  502    0  0.00000000000E+00  0.00000000000E+00  0.11760290422E+04  0.11760290422E+04  0.00000000000E+00 0. -1.
         -1   -1    0    0    0  501 -0.00000000000E+00 -0.00000000000E+00 -0.62038971551E+02  0.62038971551E+02  0.00000000000E+00 0.  1.
          6    1    1    2  502    0 -0.92820883064E+02  0.11410176614E+03  0.89491198823E+03  0.92308525936E+03  0.17200000000E+03 0. -1.
         -6    1    1    2    0  501  0.92820883064E+02 -0.11410176614E+03  0.21907808242E+03  0.31498275439E+03  0.17200000000E+03 0.  1.
</event>
<event>
 4    1  0.3169553E-002  0.2045769E+03  0.7818608E-02  0.1145934E+00
         -1   -1    0    0    0  501 -0.00000000000E+00  0.00000000000E+00  0.14339631211E+03  0.14339631211E+03  0.00000000000E+00 0.  1.
          1   -1    0    0  502    0  0.00000000000E+00 -0.00000000000E+00 -0.50152615371E+03  0.50152615371E+03  0.00000000000E+00 0. -1.
          6    1    1    2  502    0 -0.14436063971E+02  0.10981493950E+03 -0.38755930059E+03  0.43823958328E+03  0.17200000000E+03 0. -1.
         -6    1    1    2    0  501  0.14436063971E+02 -0.10981493950E+03  0.29429458993E+02  0.20668288255E+03  0.17200000000E+03 0.  1.
</event>
<event>
 4    1  0.3169553E-002  0.2265150E+03  0.7818608E-02  0.1129117E+00
         -2   -1    0    0    0  501 -0.00000000000E+00  0.00000000000E+00  0.27889197755E+02  0.27889197755E+02  0.00000000000E+00 0.  1.
          2   -1    0    0  502    0  0.00000000000E+00 -0.00000000000E+00 -0.18531740873E+04  0.18531740873E+04  0.00000000000E+00 0. -1.
          6    1    1    2  502    0 -0.11484680546E+03  0.92386438328E+02 -0.99270340863E+03  0.10182185916E+04  0.17200000000E+03 0. -1.
         -6    1    1    2    0  501  0.11484680546E+03 -0.92386438328E+02 -0.83258148091E+03  0.86284469348E+03  0.17200000000E+03 0.  1.
</event>
<event>
 4    1  0.3169553E-002  0.2191109E+03  0.7818608E-02  0.1134548E+00
         -2   -1    0    0    0  501 -0.00000000000E+00  0.00000000000E+00  0.21892992764E+02  0.21892992764E+02  0.00000000000E+00 0.  1.
          2   -1    0    0  502    0  0.00000000000E+00 -0.00000000000E+00 -0.40404318381E+04  0.40404318381E+04  0.00000000000E+00 0. -1.
          6    1    1    2  502    0  0.13171820571E+03 -0.32800833385E+02 -0.33827558793E+04  0.33898446748E+04  0.17200000000E+03 0. -1.
         -6    1    1    2    0  501 -0.13171820571E+03  0.32800833385E+02 -0.63578296604E+03  0.67248015606E+03  0.17200000000E+03 0.  1.
</event>
<event>
 4    1  0.3169553E-002  0.1793148E+03  0.7818608E-02  0.1168468E+00
          1   -1    0    0  502    0  0.00000000000E+00  0.00000000000E+00  0.58771744314E+03  0.58771744314E+03  0.00000000000E+00 0. -1.
         -1   -1    0    0    0  501 -0.00000000000E+00 -0.00000000000E+00 -0.61240920618E+02  0.61240920618E+02  0.00000000000E+00 0.  1.
          6    1    1    2  502    0 -0.11296089297E+02 -0.49418463203E+02  0.36920424877E+03  0.41044556697E+03  0.17200000000E+03 0. -1.
         -6    1    1    2    0  501  0.11296089297E+02  0.49418463203E+02  0.15727227375E+03  0.23851279679E+03  0.17200000000E+03 0.  1.
</event>
<event>
 4    1  0.3169553E-002  0.6091219E+03  0.7818608E-02  0.9886660E-01
         -1   -1    0    0    0  501 -0.00000000000E+00  0.00000000000E+00  0.28323503818E+03  0.28323503818E+03  0.00000000000E+00 0.  1.
          1   -1    0    0  502    0  0.00000000000E+00 -0.00000000000E+00 -0.15565549986E+04  0.15565549986E+04  0.00000000000E+00 0. -1.
          6    1    1    2  502    0  0.20349926435E+02 -0.58397894984E+03 -0.10027930461E+04  0.11732959672E+04  0.17200000000E+03 0. -1.
         -6    1    1    2    0  501 -0.20349926435E+02  0.58397894984E+03 -0.27052691426E+03  0.66649406951E+03  0.17200000000E+03 0.  1.
</event>
<event>
 4    1  0.3169553E-002  0.2318488E+03  0.7818608E-02  0.1125345E+00
          1   -1    0    0  502    0  0.00000000000E+00  0.00000000000E+00  0.42343228763E+03  0.42343228763E+03  0.00000000000E+00 0. -1.
         -1   -1    0    0    0  501 -0.00000000000E+00 -0.00000000000E+00 -0.13449896101E+03  0.13449896101E+03  0.00000000000E+00 0.  1.
          6    1    1    2  502    0 -0.15546050745E+03 -0.13798608231E+01  0.21056536475E+03  0.31319585921E+03  0.17200000000E+03 0. -1.
         -6    1    1    2    0  501  0.15546050745E+03  0.13798608231E+01  0.78367961874E+02  0.24473538943E+03  0.17200000000E+03 0.  1.
</event>
<event>
 4    1  0.3169553E-002  0.1871954E+03  0.7818608E-02  0.1161015E+00
         -2   -1    0    0    0  501 -0.00000000000E+00  0.00000000000E+00  0.12535226354E+04  0.12535226354E+04  0.00000000000E+00 0.  1.
          2   -1    0    0  502    0  0.00000000000E+00 -0.00000000000E+00 -0.29241819102E+02  0.29241819102E+02  0.00000000000E+00 0. -1.
          6    1    1    2  502    0 -0.53346406573E+02  0.51110561026E+02  0.47758954159E+03  0.51296578715E+03  0.17200000000E+03 0. -1.
         -6    1    1    2    0  501  0.53346406573E+02 -0.51110561026E+02  0.74669127466E+03  0.76979866732E+03  0.17200000000E+03 0.  1.
</event>
<event>
 4    1  0.3169553E-002  0.1866400E+03  0.7818608E-02  0.1161527E+00
         -2   -1    0    0    0  501 -0.00000000000E+00  0.00000000000E+00  0.56196482922E+02  0.56196482922E+02  0.00000000000E+00 0.  1.
          2   -1    0    0  502    0  0.00000000000E+00 -0.00000000000E+00 -0.83586954404E+03  0.83586954404E+03  0.00000000000E+00 0. -1.
          6    1    1    2  502    0  0.61011798020E+02 -0.39090200826E+02 -0.61657474272E+03  0.64420407997E+03  0.17200000000E+03 0. -1.
         -6    1    1    2    0  501 -0.61011798020E+02  0.39090200826E+02 -0.16309831840E+03  0.24786194698E+03  0.17200000000E+03 0.  1.
</event>
<event>
 4    1  0.3169553E-002  0.1805152E+03  0.7818608E-02  0.1167305E+00
         -2   -1    0    0    0  501 -0.00000000000E+00  0.00000000000E+00  0.15649142063E+02  0.15649142063E+02  0.00000000000E+00 0.  1.
          2   -1    0    0  502    0  0.00000000000E+00 -0.00000000000E+00 -0.21642441293E+04  0.21642441293E+04  0.00000000000E+00 0. -1.
          6    1    1    2  502    0  0.47955815172E+02  0.26494828562E+02 -0.12864220794E+04  0.12990255973E+04  0.17200000000E+03 0. -1.
         -6    1    1    2    0  501 -0.47955815172E+02 -0.26494828562E+02 -0.86217290784E+03  0.88086767403E+03  0.17200000000E+03 0.  1.
</event>
<event>
 4    1  0.3169553E-002  0.2841424E+03  0.7818608E-02  0.1093448E+00
         -2   -1    0    0    0  501 -0.00000000000E+00  0.00000000000E+00  0.11180514794E+03  0.11180514794E+03  0.00000000000E+00 0.  1.
          2   -1    0    0  502    0  0.00000000000E+00 -0.00000000000E+00 -0.72225055891E+03  0.72225055891E+03  0.00000000000E+00 0. -1.
          6    1    1    2  502    0  0.13685534382E+03  0.18006531104E+03 -0.29964813232E+03  0.41294782306E+03  0.17200000000E+03 0. -1.
         -6    1    1    2    0  501 -0.13685534382E+03 -0.18006531104E+03 -0.31079727865E+03  0.42110788379E+03  0.17200000000E+03 0.  1.
</event>
<event>
 4    1  0.3169553E-002  0.4428726E+03  0.7818608E-02  0.1029869E+00
          1   -1    0    0  502    0  0.00000000000E+00  0.00000000000E+00  0.13680661971E+03  0.13680661971E+03  0.00000000000E+00 0. -1.
         -1   -1    0    0    0  501 -0.00000000000E+00 -0.00000000000E+00 -0.18589184915E+04  0.18589184915E+04  0.00000000000E+00 0.  1.
          6    1    1    2  502    0  0.18596251609E+03  0.36327689456E+03 -0.13383210110E+04  0.14096947500E+04  0.17200000000E+03 0. -1.
         -6    1    1    2    0  501 -0.18596251609E+03 -0.36327689456E+03 -0.38379086080E+03  0.58603036128E+03  0.17200000000E+03 0.  1.
</event>
<event>
 4    1  0.3169553E-002  0.3139940E+03  0.7818608E-02  0.1078447E+00
          1   -1    0    0  502    0  0.00000000000E+00  0.00000000000E+00  0.23203961396E+03  0.23203961396E+03  0.00000000000E+00 0. -1.
         -1   -1    0    0    0  501 -0.00000000000E+00 -0.00000000000E+00 -0.54024686086E+03  0.54024686086E+03  0.00000000000E+00 0.  1.
          6    1    1    2  502    0  0.28435962805E+02  0.26115063657E+03 -0.33253299109E+03  0.45735155966E+03  0.17200000000E+03 0. -1.
         -6    1    1    2    0  501 -0.28435962805E+02 -0.26115063657E+03  0.24325744186E+02  0.31493491517E+03  0.17200000000E+03 0.  1.
</event>
<event>
 4    1  0.3169553E-002  0.2548860E+03  0.7818608E-02  0.1110255E+00
         -2   -1    0    0    0  501 -0.00000000000E+00  0.00000000000E+00  0.14476561607E+03  0.14476561607E+03  0.00000000000E+00 0.  1.
          2   -1    0    0  502    0  0.00000000000E+00 -0.00000000000E+00 -0.44988712181E+03  0.44988712181E+03  0.00000000000E+00 0. -1.
          6    1    1    2  502    0  0.79585976433E+02  0.17043751798E+03 -0.16735800783E+03  0.30491896951E+03  0.17200000000E+03 0. -1.
         -6    1    1    2    0  501 -0.79585976433E+02 -0.17043751798E+03 -0.13776349791E+03  0.28973376837E+03  0.17200000000E+03 0.  1.
</event>
<event>
 4    1  0.3169553E-002  0.1876835E+03  0.7818608E-02  0.1160567E+00
          2   -1    0    0  502    0  0.00000000000E+00  0.00000000000E+00  0.70304245533E+03  0.70304245533E+03  0.00000000000E+00 0. -1.
         -2   -1    0    0    0  501 -0.00000000000E+00 -0.00000000000E+00 -0.50409164458E+02  0.50409164458E+02  0.00000000000E+00 0.  1.
          6    1    1    2  502    0  0.23045626197E+02  0.71484105947E+02  0.29699418665E+03  0.35132694914E+03  0.17200000000E+03 0. -1.
         -6    1    1    2    0  501 -0.23045626197E+02 -0.71484105947E+02  0.35563910422E+03  0.40212467065E+03  0.17200000000E+03 0.  1.
</event>
<event>
 4    1  0.3169553E-002  0.2087483E+03  0.7818608E-02  0.1142561E+00
         -2   -1    0    0    0  501 -0.00000000000E+00  0.00000000000E+00  0.11241062243E+03  0.11241062243E+03  0.00000000000E+00 0.  1.
          2   -1    0    0  502    0  0.00000000000E+00 -0.00000000000E+00 -0.38774843989E+03  0.38774843989E+03  0.00000000000E+00 0. -1.
          6    1    1    2  502    0 -0.93440458283E+02 -0.72531018938E+02 -0.13366454647E+03  0.24787512771E+03  0.17200000000E+03 0. -1.
         -6    1    1    2    0  501  0.93440458283E+02  0.72531018938E+02 -0.14167327099E+03  0.25228393462E+03  0.17200000000E+03 0. -1.
</event>
<event>
 4    1  0.3169553E-002  0.1763585E+03  0.7818608E-02  0.1171375E+00
          2   -1    0    0  502    0  0.00000000000E+00  0.00000000000E+00  0.19334371457E+04  0.19334371457E+04  0.00000000000E+00 0. -1.
         -2   -1    0    0    0  501 -0.00000000000E+00 -0.00000000000E+00 -0.16401530797E+02  0.16401530797E+02  0.00000000000E+00 0.  1.
          6    1    1    2  502    0 -0.26331789365E+01  0.38876404837E+02  0.82341095199E+03  0.84208544955E+03  0.17200000000E+03 0. -1.
         -6    1    1    2    0  501  0.26331789365E+01 -0.38876404837E+02  0.10936246629E+04  0.11077532269E+04  0.17200000000E+03 0. -1.
</event>
<event>
 4    1  0.3169553E-002  0.2032704E+03  0.7818608E-02  0.1147009E+00
          1   -1    0    0  502    0  0.00000000000E+00  0.00000000000E+00  0.12690471490E+04  0.12690471490E+04  0.00000000000E+00 0. -1.
         -1   -1    0    0    0  501 -0.00000000000E+00 -0.00000000000E+00 -0.33061309101E+02  0.33061309101E+02  0.00000000000E+00 0.  1.
          6    1    1    2  502    0  0.10129862490E+03  0.38385456628E+02  0.69824571844E+03  0.72723169486E+03  0.17200000000E+03 0. -1.
         -6    1    1    2    0  501 -0.10129862490E+03 -0.38385456628E+02  0.53774012142E+03  0.57487676321E+03  0.17200000000E+03 0.  1.
</event>
<event>
 4    1  0.3169553E-002  0.3110934E+03  0.7818608E-02  0.1079823E+00
         -1   -1    0    0    0  501 -0.00000000000E+00  0.00000000000E+00  0.18095794027E+03  0.18095794027E+03  0.00000000000E+00 0.  1.
          1   -1    0    0  502    0  0.00000000000E+00 -0.00000000000E+00 -0.70158921546E+03  0.70158921546E+03  0.00000000000E+00 0. -1.
          6    1    1    2  502    0 -0.20556581488E+03 -0.15791700190E+03 -0.47546024856E+03  0.56819145690E+03  0.17200000000E+03 0. -1.
         -6    1    1    2    0  501  0.20556581488E+03  0.15791700190E+03 -0.45171026643E+02  0.31435569883E+03  0.17200000000E+03 0.  1.
</event>
<event>
 4    1  0.3169553E-002  0.1914150E+03  0.7818608E-02  0.1157191E+00
         -2   -1    0    0    0  501 -0.00000000000E+00  0.00000000000E+00  0.19027903097E+02  0.19027903097E+02  0.00000000000E+00 0.  1.
          2   -1    0    0  502    0  0.00000000000E+00 -0.00000000000E+00 -0.19307348951E+04  0.19307348951E+04  0.00000000000E+00 0. -1.
          6    1    1    2  502    0  0.75980407903E+02  0.35814731607E+02 -0.10062350759E+04  0.10242796226E+04  0.17200000000E+03 0. -1.
         -6    1    1    2    0  501 -0.75980407903E+02 -0.35814731607E+02 -0.90547191612E+03  0.92548317557E+03  0.17200000000E+03 0. -1.
</event>
<event>
 4    1  0.3169553E-002  0.5561865E+03  0.7818608E-02  0.1000072E+00
          1   -1    0    0  502    0  0.00000000000E+00  0.00000000000E+00  0.16391055178E+04  0.16391055178E+04  0.00000000000E+00 0. -1.
         -1   -1    0    0    0  501 -0.00000000000E+00 -0.00000000000E+00 -0.19136946351E+03  0.19136946351E+03  0.00000000000E+00 0.  1.
          6    1    1    2  502    0  0.52462079954E+03 -0.67323557035E+02  0.61631983735E+03  0.83017684053E+03  0.17200000000E+03 0. -1.
         -6    1    1    2    0  501 -0.52462079954E+03  0.67323557035E+02  0.83141621693E+03  0.10002981408E+04  0.17200000000E+03 0.  1.
</event>
<event>
 4    1  0.3169553E-002  0.2527607E+03  0.7818608E-02  0.1111572E+00
         -2   -1    0    0    0  501 -0.00000000000E+00  0.00000000000E+00  0.11655402624E+03  0.11655402624E+03  0.00000000000E+00 0.  1.
          2   -1    0    0  502    0  0.00000000000E+00 -0.00000000000E+00 -0.10596166565E+04  0.10596166565E+04  0.00000000000E+00 0. -1.
          6    1    1    2  502    0 -0.10405880242E+03  0.15321788687E+03 -0.88011287387E+03  0.91568915357E+03  0.17200000000E+03 0. -1.
         -6    1    1    2    0  501  0.10405880242E+03 -0.15321788687E+03 -0.62949756404E+02  0.26048152919E+03  0.17200000000E+03 0.  1.
</event>
<event>
 4    1  0.3169553E-002  0.1862625E+03  0.7818608E-02  0.1161876E+00
          2   -1    0    0  502    0  0.00000000000E+00  0.00000000000E+00  0.73011353663E+03  0.73011353663E+03  0.00000000000E+00 0. -1.
         -2   -1    0    0    0  501 -0.00000000000E+00 -0.00000000000E+00 -0.50660417081E+02  0.50660417081E+02  0.00000000000E+00 0.  1.
          6    1    1    2  502    0 -0.26968281821E+02  0.66199873227E+02  0.24250196144E+03  0.30577918952E+03  0.17200000000E+03 0.  1.
         -6    1    1    2    0  501  0.26968281821E+02 -0.66199873227E+02  0.43695115811E+03  0.47499476419E+03  0.17200000000E+03 0.  1.
</event>
<event>
 4    1  0.3169553E-002  0.4260992E+03  0.7818608E-02  0.1035099E+00
         -2   -1    0    0    0  501 -0.00000000000E+00  0.00000000000E+00  0.17637591959E+03  0.17637591959E+03  0.00000000000E+00 0.  1.
          2   -1    0    0  502    0  0.00000000000E+00 -0.00000000000E+00 -0.11420230776E+04  0.11420230776E+04  0.00000000000E+00 0. -1.
          6    1    1    2  502    0 -0.12877363475E+03  0.36795905110E+03 -0.68983891391E+03  0.81082565292E+03  0.17200000000E+03 0. -1.
         -6    1    1    2    0  501  0.12877363475E+03 -0.36795905110E+03 -0.27580824412E+03  0.50757334427E+03  0.17200000000E+03 0.  1.
</event>
<event>
 4    1  0.3169553E-002  0.3208994E+03  0.7818608E-02  0.1075236E+00
         -1   -1    0    0    0  501 -0.00000000000E+00  0.00000000000E+00  0.12481638883E+03  0.12481638883E+03  0.00000000000E+00 0.  1.
          1   -1    0    0  502    0  0.00000000000E+00 -0.00000000000E+00 -0.10166450669E+04  0.10166450669E+04  0.00000000000E+00 0. -1.
          6    1    1    2  502    0  0.27073494902E+03  0.97484788687E+01 -0.69369582170E+03  0.76432345149E+03  0.17200000000E+03 0. -1.
         -6    1    1    2    0  501 -0.27073494902E+03 -0.97484788687E+01 -0.19813285635E+03  0.37713800422E+03  0.17200000000E+03 0.  1.
</event>
<event>
 4    1  0.3169553E-002  0.3823048E+03  0.7818608E-02  0.1050085E+00
         -1   -1    0    0    0  501 -0.00000000000E+00  0.00000000000E+00  0.11588703252E+04  0.11588703252E+04  0.00000000000E+00 0.  1.
          1   -1    0    0  502    0  0.00000000000E+00 -0.00000000000E+00 -0.19582587223E+03  0.19582587223E+03  0.00000000000E+00 0. -1.
          6    1    1    2  502    0  0.18040824048E+03  0.28987211300E+03  0.77401715957E+02  0.39006153458E+03  0.17200000000E+03 0. -1.
         -6    1    1    2    0  501 -0.18040824048E+03 -0.28987211300E+03  0.88564273704E+03  0.96463466287E+03  0.17200000000E+03 0.  1.
</event>
<event>
 4    1  0.3169553E-002  0.3082405E+03  0.7818608E-02  0.1081192E+00
          2   -1    0    0  502    0  0.00000000000E+00  0.00000000000E+00  0.65864088286E+03  0.65864088286E+03  0.00000000000E+00 0. -1.
         -2   -1    0    0    0  501 -0.00000000000E+00 -0.00000000000E+00 -0.19001956338E+03  0.19001956338E+03  0.00000000000E+00 0.  1.
          6    1    1    2  502    0  0.96804358824E+02 -0.23676379776E+03  0.44255341773E+03  0.53931967085E+03  0.17200000000E+03 0. -1.
         -6    1    1    2    0  501 -0.96804358824E+02  0.23676379776E+03  0.26067901753E+02  0.30934077539E+03  0.17200000000E+03 0.  1.
</event>
<event>
 4    1  0.3169553E-002  0.1856552E+03  0.7818608E-02  0.1162439E+00
          2   -1    0    0  502    0  0.00000000000E+00  0.00000000000E+00  0.19532282839E+04  0.19532282839E+04  0.00000000000E+00 0. -1.
         -2   -1    0    0    0  501 -0.00000000000E+00 -0.00000000000E+00 -0.17750058927E+02  0.17750058927E+02  0.00000000000E+00 0.  1.
          6    1    1    2  502    0  0.69454384920E+02  0.77425439177E+01  0.10429731014E+04  0.10593680894E+04  0.17200000000E+03 0. -1.
         -6    1    1    2    0  501 -0.69454384920E+02 -0.77425439177E+01  0.89250512357E+03  0.91161025343E+03  0.17200000000E+03 0. -1.
</event>
<event>
 4    1  0.3169553E-002  0.4361086E+03  0.7818608E-02  0.1031948E+00
         -2   -1    0    0    0  501 -0.00000000000E+00  0.00000000000E+00  0.21661493573E+03  0.21661493573E+03  0.00000000000E+00 0.  1.
          2   -1    0    0  502    0  0.00000000000E+00 -0.00000000000E+00 -0.93075321872E+03  0.93075321872E+03  0.00000000000E+00 0. -1.
          6    1    1    2  502    0  0.17364232769E+03 -0.36118557383E+03 -0.49363039375E+03  0.65868174587E+03  0.17200000000E+03 0. -1.
         -6    1    1    2    0  501 -0.17364232769E+03  0.36118557383E+03 -0.22050788924E+03  0.48868640858E+03  0.17200000000E+03 0.  1.
</event>
<event>
 4    1  0.3169553E-002  0.2671284E+03  0.7818608E-02  0.1102934E+00
          1   -1    0    0  502    0  0.00000000000E+00  0.00000000000E+00  0.83957172627E+03  0.83957172627E+03  0.00000000000E+00 0. -1.
         -1   -1    0    0    0  501 -0.00000000000E+00 -0.00000000000E+00 -0.56423308718E+03  0.56423308718E+03  0.00000000000E+00 0.  1.
          6    1    1    2  502    0 -0.17086641846E+03 -0.11215289512E+03  0.78454986143E+03  0.82877988025E+03  0.17200000000E+03 0. -1.
         -6    1    1    2    0  501  0.17086641846E+03  0.11215289512E+03 -0.50921122234E+03  0.57502493320E+03  0.17200000000E+03 0.  1.
</event>
<event>
 4    1  0.3169553E-002  0.2109772E+03  0.7818608E-02  0.1140795E+00
         -1   -1    0    0    0  501 -0.00000000000E+00  0.00000000000E+00  0.31900340659E+02  0.31900340659E+02  0.00000000000E+00 0.  1.
          1   -1    0    0  502    0  0.00000000000E+00 -0.00000000000E+00 -0.14311458645E+04  0.14311458645E+04  0.00000000000E+00 0. -1.
          6    1    1    2  502    0 -0.44281981086E+02 -0.11387040780E+03 -0.58389163638E+03  0.62083879281E+03  0.17200000000E+03 0. -1.
         -6    1    1    2    0  501  0.44281981086E+02  0.11387040780E+03 -0.81535388750E+03  0.84220741239E+03  0.17200000000E+03 0.  1.
</event>
<event>
 4    1  0.3169553E-002  0.2928735E+03  0.7818608E-02  0.1088858E+00
         -2   -1    0    0    0  501 -0.00000000000E+00  0.00000000000E+00  0.37372902509E+03  0.37372902509E+03  0.00000000000E+00 0.  1.
          2   -1    0    0  502    0  0.00000000000E+00 -0.00000000000E+00 -0.23173282196E+03  0.23173282196E+03  0.00000000000E+00 0. -1.
          6    1    1    2  502    0  0.19435063343E+03 -0.13571562256E+03  0.10064121028E+03  0.30968298650E+03  0.17200000000E+03 0. -1.
         -6    1    1    2    0  501 -0.19435063343E+03  0.13571562256E+03  0.41354992853E+02  0.29577886056E+03  0.17200000000E+03 0.  1.
</event>
<event>
 4    1  0.3169553E-002  0.2363283E+03  0.7818608E-02  0.1122263E+00
         -1   -1    0    0    0  501 -0.00000000000E+00  0.00000000000E+00  0.48029407530E+02  0.48029407530E+02  0.00000000000E+00 0.  1.
          1   -1    0    0  502    0  0.00000000000E+00 -0.00000000000E+00 -0.12146134195E+04  0.12146134195E+04  0.00000000000E+00 0. -1.
          6    1    1    2  502    0  0.50085326034E+02 -0.15413793701E+03 -0.45296366718E+03  0.51090813978E+03  0.17200000000E+03 0. -1.
         -6    1    1    2    0  501 -0.50085326034E+02  0.15413793701E+03 -0.71362034475E+03  0.75173468720E+03  0.17200000000E+03 0. -1.
</event>
<event>
 4    1  0.3169553E-002  0.2953201E+03  0.7818608E-02  0.1087604E+00
          2   -1    0    0  502    0  0.00000000000E+00  0.00000000000E+00  0.32203960787E+04  0.32203960787E+04  0.00000000000E+00 0. -1.
         -2   -1    0    0    0  501 -0.00000000000E+00 -0.00000000000E+00 -0.32366344496E+02  0.32366344496E+02  0.00000000000E+00 0.  1.
          6    1    1    2  502    0 -0.22658809349E+03  0.79295808131E+02  0.22511898187E+04  0.22704778328E+04  0.17200000000E+03 0. -1.
         -6    1    1    2    0  501  0.22658809349E+03 -0.79295808131E+02  0.93683991549E+03  0.98228459041E+03  0.17200000000E+03 0.  1.
</event>
<event>
 4    1  0.3169553E-002  0.2355347E+03  0.7818608E-02  0.1122804E+00
          1   -1    0    0  502    0  0.00000000000E+00  0.00000000000E+00  0.30809843467E+03  0.30809843467E+03  0.00000000000E+00 0. -1.
         -1   -1    0    0    0  501 -0.00000000000E+00 -0.00000000000E+00 -0.82751214801E+03  0.82751214801E+03  0.00000000000E+00 0.  1.
          6    1    1    2  502    0  0.10581114837E+03  0.12122944368E+03  0.24253820861E+03  0.33808484109E+03  0.17200000000E+03 0. -1.
         -6    1    1    2    0  501 -0.10581114837E+03 -0.12122944368E+03 -0.76195192195E+03  0.79752574159E+03  0.17200000000E+03 0.  1.
</event>
<event>
 4    1  0.3169553E-002  0.2612260E+03  0.7818608E-02  0.1106409E+00
          1   -1    0    0  502    0  0.00000000000E+00  0.00000000000E+00  0.20707652343E+04  0.20707652343E+04  0.00000000000E+00 0. -1.
         -1   -1    0    0    0  501 -0.00000000000E+00 -0.00000000000E+00 -0.84231415662E+02  0.84231415662E+02  0.00000000000E+00 0.  1.
          6    1    1    2  502    0  0.15979900405E+03  0.11453947630E+03  0.18339738463E+04  0.18524845701E+04  0.17200000000E+03 0. -1.
         -6    1    1    2    0  501 -0.15979900405E+03 -0.11453947630E+03  0.15255997229E+03  0.30251207988E+03  0.17200000000E+03 0.  1.
</event>
<event>
 4    1  0.3169553E-002  0.2245331E+03  0.7818608E-02  0.1130548E+00
          1   -1    0    0  502    0  0.00000000000E+00  0.00000000000E+00  0.50744833852E+03  0.50744833852E+03  0.00000000000E+00 0. -1.
         -1   -1    0    0    0  501 -0.00000000000E+00 -0.00000000000E+00 -0.10500367952E+03  0.10500367952E+03  0.00000000000E+00 0.  1.
          6    1    1    2  502    0 -0.28545548845E+02  0.14147889386E+03  0.13016721940E+03  0.25953541333E+03  0.17200000000E+03 0.  1.
         -6    1    1    2    0  501  0.28545548845E+02 -0.14147889386E+03  0.27227743960E+03  0.35291660472E+03  0.17200000000E+03 0. -1.
</event>
<event>
 4    1  0.3169553E-002  0.2753907E+03  0.7818608E-02  0.1098233E+00
          3   -1    0    0  502    0  0.00000000000E+00  0.00000000000E+00  0.79617473491E+03  0.79617473491E+03  0.00000000000E+00 0. -1.
         -3   -1    0    0    0  501 -0.00000000000E+00 -0.00000000000E+00 -0.30026493531E+03  0.30026493531E+03  0.00000000000E+00 0.  1.
          6    1    1    2  502    0 -0.18788851307E+03 -0.10466121295E+03  0.70094562108E+03  0.75310346338E+03  0.17200000000E+03 0. -1.
         -6    1    1    2    0  501  0.18788851307E+03  0.10466121295E+03 -0.20503582148E+03  0.34333620684E+03  0.17200000000E+03 0.  1.
</event>
<event>
 4    1  0.3169553E-002  0.1929341E+03  0.7818608E-02  0.1155841E+00
          1   -1    0    0  502    0  0.00000000000E+00  0.00000000000E+00  0.11519399104E+03  0.11519399104E+03  0.00000000000E+00 0. -1.
         -1   -1    0    0    0  501 -0.00000000000E+00 -0.00000000000E+00 -0.62295404576E+03  0.62295404576E+03  0.00000000000E+00 0.  1.
          6    1    1    2  502    0 -0.86350826729E+02  0.13530934510E+02  0.21629871733E+01  0.19294618415E+03  0.17200000000E+03 0. -1.
         -6    1    1    2    0  501  0.86350826729E+02 -0.13530934510E+02 -0.50992304189E+03  0.54520185264E+03  0.17200000000E+03 0.  1.
</event>
<event>
 4    1  0.3169553E-002  0.2361953E+03  0.7818608E-02  0.1122354E+00
          2   -1    0    0  502    0  0.00000000000E+00  0.00000000000E+00  0.42580151622E+03  0.42580151622E+03  0.00000000000E+00 0. -1.
         -2   -1    0    0    0  501 -0.00000000000E+00 -0.00000000000E+00 -0.17699047855E+03  0.17699047855E+03  0.00000000000E+00 0.  1.
          6    1    1    2  502    0  0.16180716301E+03  0.47598062823E+01  0.27801052817E+03  0.36479866712E+03  0.17200000000E+03 0. -1.
         -6    1    1    2    0  501 -0.16180716301E+03 -0.47598062823E+01 -0.29199490499E+02  0.23799332765E+03  0.17200000000E+03 0.  1.
</event>
<event>
 4    1  0.3169553E-002  0.2829553E+03  0.7818608E-02  0.1094086E+00
         -2   -1    0    0    0  501 -0.00000000000E+00  0.00000000000E+00  0.37149446997E+03  0.37149446997E+03  0.00000000000E+00 0.  1.
          2   -1    0    0  502    0  0.00000000000E+00 -0.00000000000E+00 -0.45369468710E+03  0.45369468710E+03  0.00000000000E+00 0. -1.
          6    1    1    2  502    0  0.70666304419E+02  0.21327436525E+03 -0.34004521715E+03  0.44237363298E+03  0.17200000000E+03 0. -1.
         -6    1    1    2    0  501 -0.70666304419E+02 -0.21327436525E+03  0.25784500001E+03  0.38281552409E+03  0.17200000000E+03 0.  1.
</event>
<event>
 4    1  0.3169553E-002  0.2092770E+03  0.7818608E-02  0.1142140E+00
          2   -1    0    0  502    0  0.00000000000E+00  0.00000000000E+00  0.46042746795E+03  0.46042746795E+03  0.00000000000E+00 0. -1.
         -2   -1    0    0    0  501 -0.00000000000E+00 -0.00000000000E+00 -0.12117011257E+03  0.12117011257E+03  0.00000000000E+00 0.  1.
          6    1    1    2  502    0  0.11620244955E+03  0.26643233687E+02  0.34800287862E+02  0.21215072759E+03  0.17200000000E+03 0.  1.
         -6    1    1    2    0  501 -0.11620244955E+03 -0.26643233687E+02  0.30445706751E+03  0.36944685293E+03  0.17200000000E+03 0. -1.
</event>
<event>
 4    1  0.3169553E-002  0.3456949E+03  0.7818608E-02  0.1064396E+00
         -2   -1    0    0    0  501 -0.00000000000E+00  0.00000000000E+00  0.25476871666E+03  0.25476871666E+03  0.00000000000E+00 0.  1.
          2   -1    0    0  502    0  0.00000000000E+00 -0.00000000000E+00 -0.48923110901E+03  0.48923110901E+03  0.00000000000E+00 0. -1.
          6    1    1    2  502    0 -0.28734442817E+03 -0.85756331711E+02 -0.19274343652E+03  0.39579666642E+03  0.17200000000E+03 0. -1.
         -6    1    1    2    0  501  0.28734442817E+03  0.85756331711E+02 -0.41718955829E+02  0.34820315924E+03  0.17200000000E+03 0.  1.
</event>
<event>
 4    1  0.3169553E-002  0.3767869E+03  0.7818608E-02  0.1052128E+00
         -1   -1    0    0    0  501 -0.00000000000E+00  0.00000000000E+00  0.30608767183E+03  0.30608767183E+03  0.00000000000E+00 0.  1.
          1   -1    0    0  502    0  0.00000000000E+00 -0.00000000000E+00 -0.46582777547E+03  0.46582777547E+03  0.00000000000E+00 0. -1.
          6    1    1    2  502    0  0.17756301539E+03 -0.28435139180E+03 -0.54505671570E+02  0.38070882140E+03  0.17200000000E+03 0. -1.
         -6    1    1    2    0  501 -0.17756301539E+03  0.28435139180E+03 -0.10523443207E+03  0.39120662590E+03  0.17200000000E+03 0.  1.
</event>
<event>
 4    1  0.3169553E-002  0.1814665E+03  0.7818608E-02  0.1166391E+00
          1   -1    0    0  502    0  0.00000000000E+00  0.00000000000E+00  0.69125306321E+03  0.69125306321E+03  0.00000000000E+00 0. -1.
         -1   -1    0    0    0  501 -0.00000000000E+00 -0.00000000000E+00 -0.51380460097E+02  0.51380460097E+02  0.00000000000E+00 0.  1.
          6    1    1    2  502    0 -0.51750166458E+01  0.57613423123E+02  0.42014595309E+03  0.45766003673E+03  0.17200000000E+03 0. -1.
         -6    1    1    2    0  501  0.51750166458E+01 -0.57613423123E+02  0.21972665002E+03  0.28497348657E+03  0.17200000000E+03 0.  1.
</event>
<event>
 4    1  0.3169553E-002  0.7519960E+03  0.7818608E-02  0.9632224E-01
          3   -1    0    0  502    0  0.00000000000E+00  0.00000000000E+00  0.39532653038E+03  0.39532653038E+03  0.00000000000E+00 0. -1.
         -3   -1    0    0    0  501 -0.00000000000E+00 -0.00000000000E+00 -0.15572840019E+04  0.15572840019E+04  0.00000000000E+00 0.  1.
          6    1    1    2  502    0  0.62496653043E+03  0.38122285998E+03 -0.30236294963E+03  0.81050687008E+03  0.17200000000E+03 0. -1.
         -6    1    1    2    0  501 -0.62496653043E+03 -0.38122285998E+03 -0.85959452185E+03  0.11421036622E+04  0.17200000000E+03 0.  1.
</event>
<event>
 4    1  0.3169553E-002  0.2386648E+03  0.7818608E-02  0.1120685E+00
          1   -1    0    0  502    0  0.00000000000E+00  0.00000000000E+00  0.81866465242E+03  0.81866465242E+03  0.00000000000E+00 0. -1.
         -1   -1    0    0    0  501 -0.00000000000E+00 -0.00000000000E+00 -0.15376234146E+03  0.15376234146E+03  0.00000000000E+00 0.  1.
          6    1    1    2  502    0 -0.16235630048E+03  0.31895792842E+02  0.69221549808E+03  0.73220434695E+03  0.17200000000E+03 0. -1.
         -6    1    1    2    0  501  0.16235630048E+03 -0.31895792842E+02 -0.27313187115E+02  0.24022264693E+03  0.17200000000E+03 0.  1.
</event>
<event>
 4    1  0.3169553E-002  0.1767594E+03  0.7818608E-02  0.1170977E+00
          3   -1    0    0  502    0  0.00000000000E+00  0.00000000000E+00  0.60291288603E+03  0.60291288603E+03  0.00000000000E+00 0. -1.
         -3   -1    0    0    0  501 -0.00000000000E+00 -0.00000000000E+00 -0.52057461182E+02  0.52057461182E+02  0.00000000000E+00 0.  1.
          6    1    1    2  502    0 -0.39133999984E+02  0.11331693622E+02  0.29747367400E+03  0.34602668099E+03  0.17200000000E+03 0.  1.
         -6    1    1    2    0  501  0.39133999984E+02 -0.11331693622E+02  0.25338175084E+03  0.30894366622E+03  0.17200000000E+03 0.  1.
</event>
<event>
 4    1  0.3169553E-002  0.1917722E+03  0.7818608E-02  0.1156873E+00
          4   -1    0    0  502    0  0.00000000000E+00  0.00000000000E+00  0.29114120181E+03  0.29114120181E+03  0.00000000000E+00 0. -1.
         -4   -1    0    0    0  501 -0.00000000000E+00 -0.00000000000E+00 -0.13086823697E+03  0.13086823697E+03  0.00000000000E+00 0.  1.
          6    1    1    2  502    0 -0.84767072639E+02 -0.26697689216E+01  0.40794373564E+02  0.19606316631E+03  0.17200000000E+03 0.  1.
         -6    1    1    2    0  501  0.84767072639E+02  0.26697689216E+01  0.11947859128E+03  0.22594627247E+03  0.17200000000E+03 0. -1.
</event>
<event>
 4    1  0.3169553E-002  0.2026389E+03  0.7818608E-02  0.1147531E+00
         -1   -1    0    0    0  501 -0.00000000000E+00  0.00000000000E+00  0.53444077722E+02  0.53444077722E+02  0.00000000000E+00 0.  1.
          1   -1    0    0  502    0  0.00000000000E+00 -0.00000000000E+00 -0.10752544788E+04  0.10752544788E+04  0.00000000000E+00 0. -1.
          6    1    1    2  502    0  0.68490678643E+02  0.82386613792E+02 -0.81242111468E+03  0.83731152791E+03  0.17200000000E+03 0. -1.
         -6    1    1    2    0  501 -0.68490678643E+02 -0.82386613792E+02 -0.20938928645E+03  0.29138702866E+03  0.17200000000E+03 0.  1.
</event>
<event>
 4    1  0.3169553E-002  0.2259977E+03  0.7818608E-02  0.1129489E+00
          2   -1    0    0  502    0  0.00000000000E+00  0.00000000000E+00  0.32594985732E+04  0.32594985732E+04  0.00000000000E+00 0. -1.
         -2   -1    0    0    0  501 -0.00000000000E+00 -0.00000000000E+00 -0.18579852812E+02  0.18579852812E+02  0.00000000000E+00 0.  1.
          6    1    1    2  502    0  0.14326811969E+02  0.14589627066E+03  0.22691459655E+04  0.22803724240E+04  0.17200000000E+03 0. -1.
         -6    1    1    2    0  501 -0.14326811969E+02 -0.14589627066E+03  0.97177275488E+03  0.99770600201E+03  0.17200000000E+03 0.  1.
</event>
<event>
 4    1  0.3169553E-002  0.1723258E+03  0.7818608E-02  0.1175444E+00
          1   -1    0    0  502    0  0.00000000000E+00  0.00000000000E+00  0.20372947179E+03  0.20372947179E+03  0.00000000000E+00 0. -1.
         -1   -1    0    0    0  501 -0.00000000000E+00 -0.00000000000E+00 -0.24177635776E+03  0.24177635776E+03  0.00000000000E+00 0.  1.
          6    1    1    2  502    0 -0.38428207826E+00 -0.10584237237E+02  0.12134930809E+03  0.21076486502E+03  0.17200000000E+03 0. -1.
         -6    1    1    2    0  501  0.38428207826E+00  0.10584237237E+02 -0.15939619406E+03  0.23474096453E+03  0.17200000000E+03 0.  1.
</event>
<event>
 4    1  0.3169553E-002  0.2250787E+03  0.7818608E-02  0.1130152E+00
          2   -1    0    0  502    0  0.00000000000E+00  0.00000000000E+00  0.59007474093E+02  0.59007474093E+02  0.00000000000E+00 0. -1.
         -2   -1    0    0    0  501 -0.00000000000E+00 -0.00000000000E+00 -0.20916511203E+04  0.20916511203E+04  0.00000000000E+00 0.  1.
          6    1    1    2  502    0 -0.55123373311E+02 -0.13430493418E+03 -0.19066877390E+03  0.29498302150E+03  0.17200000000E+03 0. -1.
         -6    1    1    2    0  501  0.55123373311E+02  0.13430493418E+03 -0.18419748723E+04  0.18556755729E+04  0.17200000000E+03 0.  1.
</event>
<event>
 4    1  0.3169553E-002  0.2435126E+03  0.7818608E-02  0.1117475E+00
          2   -1    0    0  502    0  0.00000000000E+00  0.00000000000E+00  0.64552653928E+03  0.64552653928E+03  0.00000000000E+00 0. -1.
         -2   -1    0    0    0  501 -0.00000000000E+00 -0.00000000000E+00 -0.95726529399E+02  0.95726529399E+02  0.00000000000E+00 0.  1.
          6    1    1    2  502    0 -0.60255994400E+02 -0.16150414754E+03  0.20041749022E+03  0.31538158621E+03  0.17200000000E+03 0. -1.
         -6    1    1    2    0  501  0.60255994400E+02  0.16150414754E+03  0.34938251965E+03  0.42587148246E+03  0.17200000000E+03 0.  1.
</event>
<event>
 4    1  0.3169553E-002  0.1841742E+03  0.7818608E-02  0.1163823E+00
          1   -1    0    0  502    0  0.00000000000E+00  0.00000000000E+00  0.21569000775E+03  0.21569000775E+03  0.00000000000E+00 0. -1.
         -1   -1    0    0    0  501 -0.00000000000E+00 -0.00000000000E+00 -0.17236376820E+03  0.17236376820E+03  0.00000000000E+00 0.  1.
          6    1    1    2  502    0  0.65782209159E+02  0.29754572867E+01  0.79092236271E+02  0.20043885408E+03  0.17200000000E+03 0. -1.
         -6    1    1    2    0  501 -0.65782209159E+02 -0.29754572867E+01 -0.35765996718E+02  0.18761492187E+03  0.17200000000E+03 0.  1.
</event>
<event>
 4    1  0.3169553E-002  0.2106911E+03  0.7818608E-02  0.1141020E+00
          1   -1    0    0  502    0  0.00000000000E+00  0.00000000000E+00  0.25329072520E+04  0.25329072520E+04  0.00000000000E+00 0. -1.
         -1   -1    0    0    0  501 -0.00000000000E+00 -0.00000000000E+00 -0.18884352519E+02  0.18884352519E+02  0.00000000000E+00 0.  1.
          6    1    1    2  502    0  0.95555722129E+02  0.75338243086E+02  0.15992528948E+04  0.16130717803E+04  0.17200000000E+03 0. -1.
         -6    1    1    2    0  501 -0.95555722129E+02 -0.75338243086E+02  0.91477000473E+03  0.93871982426E+03  0.17200000000E+03 0.  1.
</event>
<event>
 4    1  0.3169553E-002  0.4935225E+03  0.7818608E-02  0.1015484E+00
          1   -1    0    0  502    0  0.00000000000E+00  0.00000000000E+00  0.35457439709E+03  0.35457439709E+03  0.00000000000E+00 0. -1.
         -1   -1    0    0    0  501 -0.00000000000E+00 -0.00000000000E+00 -0.77063912394E+03  0.77063912394E+03  0.00000000000E+00 0.  1.
          6    1    1    2  502    0  0.42911590402E+03  0.17274248047E+03 -0.22597901087E+02  0.49403956195E+03  0.17200000000E+03 0. -1.
         -6    1    1    2    0  501 -0.42911590402E+03 -0.17274248047E+03 -0.39346682576E+03  0.63117395907E+03  0.17200000000E+03 0.  1.
</event>
<event>
 4    1  0.3169553E-002  0.3286186E+03  0.7818608E-02  0.1071750E+00
         -1   -1    0    0    0  501 -0.00000000000E+00  0.00000000000E+00  0.90262983404E+02  0.90262983404E+02  0.00000000000E+00 0.  1.
          1   -1    0    0  502    0  0.00000000000E+00 -0.00000000000E+00 -0.16726384728E+04  0.16726384728E+04  0.00000000000E+00 0. -1.
          6    1    1    2  502    0  0.21767327901E+02  0.27916368065E+03 -0.12615273417E+04  0.13036262543E+04  0.17200000000E+03 0. -1.
         -6    1    1    2    0  501 -0.21767327901E+02 -0.27916368065E+03 -0.32084814768E+03  0.45927520184E+03  0.17200000000E+03 0.  1.
</event>
<event>
 4    1  0.3169553E-002  0.1844772E+03  0.7818608E-02  0.1163539E+00
         -3   -1    0    0    0  501 -0.00000000000E+00  0.00000000000E+00  0.87333995559E+02  0.87333995559E+02  0.00000000000E+00 0.  1.
          3   -1    0    0  502    0  0.00000000000E+00 -0.00000000000E+00 -0.53347789084E+03  0.53347789084E+03  0.00000000000E+00 0. -1.
          6    1    1    2  502    0  0.58835199149E+02 -0.31404480470E+02 -0.38423167876E+03  0.42622271762E+03  0.17200000000E+03 0.  1.
         -6    1    1    2    0  501 -0.58835199149E+02  0.31404480470E+02 -0.61912216523E+02  0.19458916878E+03  0.17200000000E+03 0.  1.
</event>
<event>
 4    1  0.3169553E-002  0.2724744E+03  0.7818608E-02  0.1099872E+00
          2   -1    0    0  502    0  0.00000000000E+00  0.00000000000E+00  0.39405492101E+04  0.39405492101E+04  0.00000000000E+00 0. -1.
         -2   -1    0    0    0  501 -0.00000000000E+00 -0.00000000000E+00 -0.18881652542E+02  0.18881652542E+02  0.00000000000E+00 0.  1.
          6    1    1    2  502    0  0.14131185277E+03 -0.15712819418E+03  0.20531452964E+04  0.20711465224E+04  0.17200000000E+03 0. -1.
         -6    1    1    2    0  501 -0.14131185277E+03  0.15712819418E+03  0.18685222612E+04  0.18882843402E+04  0.17200000000E+03 0.  1.
</event>
<event>
 4    1  0.3169553E-002  0.1736395E+03  0.7818608E-02  0.1174105E+00
          2   -1    0    0  502    0  0.00000000000E+00  0.00000000000E+00  0.49442621672E+03  0.49442621672E+03  0.00000000000E+00 0. -1.
         -2   -1    0    0    0  501 -0.00000000000E+00 -0.00000000000E+00 -0.77071603380E+02  0.77071603380E+02  0.00000000000E+00 0.  1.
          6    1    1    2  502    0  0.10838818516E+02  0.21193918526E+02  0.33924086972E+03  0.38109713966E+03  0.17200000000E+03 0. -1.
         -6    1    1    2    0  501 -0.10838818516E+02 -0.21193918526E+02  0.78113743618E+02  0.19040068044E+03  0.17200000000E+03 0.  1.
</event>
<event>
 4    1  0.3169553E-002  0.2017970E+03  0.7818608E-02  0.1148232E+00
          1   -1    0    0  502    0  0.00000000000E+00  0.00000000000E+00  0.10849396324E+03  0.10849396324E+03  0.00000000000E+00 0. -1.
         -1   -1    0    0    0  501 -0.00000000000E+00 -0.00000000000E+00 -0.49410331324E+03  0.49410331324E+03  0.00000000000E+00 0.  1.
          6    1    1    2  502    0 -0.18298462602E+02 -0.10393838375E+03 -0.45087439626E+02  0.20677257691E+03  0.17200000000E+03 0. -1.
         -6    1    1    2    0  501  0.18298462602E+02  0.10393838375E+03 -0.34052191037E+03  0.39582469958E+03  0.17200000000E+03 0.  1.
</event>
<event>
 4    1  0.3169553E-002  0.4815468E+03  0.7818608E-02  0.1018711E+00
         -2   -1    0    0    0  501 -0.00000000000E+00  0.00000000000E+00  0.12339625620E+04  0.12339625620E+04  0.00000000000E+00 0.  1.
          2   -1    0    0  502    0  0.00000000000E+00 -0.00000000000E+00 -0.31573279843E+03  0.31573279843E+03  0.00000000000E+00 0. -1.
          6    1    1    2  502    0 -0.44508936443E+03  0.64797690548E+02 -0.33879794986E+02  0.48273711638E+03  0.17200000000E+03 0. -1.
         -6    1    1    2    0  501  0.44508936443E+03 -0.64797690548E+02  0.95210955854E+03  0.10669582440E+04  0.17200000000E+03 0.  1.
</event>
<event>
 4    1  0.3169553E-002  0.2572257E+03  0.7818608E-02  0.1108822E+00
         -2   -1    0    0    0  501 -0.00000000000E+00  0.00000000000E+00  0.47143466792E+02  0.47143466792E+02  0.00000000000E+00 0.  1.
          2   -1    0    0  502    0  0.00000000000E+00 -0.00000000000E+00 -0.14609100953E+04  0.14609100953E+04  0.00000000000E+00 0. -1.
          6    1    1    2  502    0 -0.11268589389E+03 -0.15454102189E+03 -0.85638109321E+03  0.89417761935E+03  0.17200000000E+03 0. -1.
         -6    1    1    2    0  501  0.11268589389E+03  0.15454102189E+03 -0.55738553532E+03  0.61387594277E+03  0.17200000000E+03 0.  1.
</event>
<event>
 4    1  0.3169553E-002  0.2679048E+03  0.7818608E-02  0.1102485E+00
          2   -1    0    0  502    0  0.00000000000E+00  0.00000000000E+00  0.42520781646E+04  0.42520781646E+04  0.00000000000E+00 0. -1.
         -2   -1    0    0    0  501 -0.00000000000E+00 -0.00000000000E+00 -0.22695560039E+02  0.22695560039E+02  0.00000000000E+00 0.  1.
          6    1    1    2  502    0 -0.12008106264E+03 -0.16664191442E+03  0.10326924271E+04  0.10668770492E+04  0.17200000000E+03 0. -1.
         -6    1    1    2    0  501  0.12008106264E+03  0.16664191442E+03  0.31966901774E+04  0.32078966754E+04  0.17200000000E+03 0. -1.
</event>
<event>
 4    1  0.3169553E-002  0.2251765E+03  0.7818608E-02  0.1130082E+00
          1   -1    0    0  502    0  0.00000000000E+00  0.00000000000E+00  0.20054617983E+03  0.20054617983E+03  0.00000000000E+00 0. -1.
         -1   -1    0    0    0  501 -0.00000000000E+00 -0.00000000000E+00 -0.25694825696E+03  0.25694825696E+03  0.00000000000E+00 0.  1.
          6    1    1    2  502    0 -0.14403367407E+03  0.19358264460E+02 -0.57154293403E+02  0.23231671254E+03  0.17200000000E+03 0. -1.
         -6    1    1    2    0  501  0.14403367407E+03 -0.19358264460E+02  0.75221627955E+00  0.22517772425E+03  0.17200000000E+03 0.  1.
</event>
<event>
 4    1  0.3169553E-002  0.1777058E+03  0.7818608E-02  0.1170042E+00
          1   -1    0    0  502    0  0.00000000000E+00  0.00000000000E+00  0.48368403857E+04  0.48368403857E+04  0.00000000000E+00 0. -1.
         -1   -1    0    0    0  501 -0.00000000000E+00 -0.00000000000E+00 -0.65733515026E+01  0.65733515026E+01  0.00000000000E+00 0.  1.
          6    1    1    2  502    0  0.42611500602E+02  0.13401688692E+02  0.26142340027E+04  0.26202669265E+04  0.17200000000E+03 0. -1.
         -6    1    1    2    0  501 -0.42611500602E+02 -0.13401688692E+02  0.22160330314E+04  0.22231468106E+04  0.17200000000E+03 0.  1.
</event>
<event>
 4    1  0.3169553E-002  0.1825132E+03  0.7818608E-02  0.1165393E+00
         -3   -1    0    0    0  501 -0.00000000000E+00  0.00000000000E+00  0.23554101114E+03  0.23554101114E+03  0.00000000000E+00 0.  1.
          3   -1    0    0  502    0  0.00000000000E+00 -0.00000000000E+00 -0.14184868914E+03  0.14184868914E+03  0.00000000000E+00 0. -1.
          6    1    1    2  502    0 -0.42254431575E+02  0.44063978347E+02  0.36517161463E+02  0.18613053016E+03  0.17200000000E+03 0. -1.
         -6    1    1    2    0  501  0.42254431575E+02 -0.44063978347E+02  0.57175160532E+02  0.19125917013E+03  0.17200000000E+03 0. -1.
</event>
<event>
 4    1  0.3169553E-002  0.1886630E+03  0.7818608E-02  0.1159673E+00
          2   -1    0    0  502    0  0.00000000000E+00  0.00000000000E+00  0.67198322989E+03  0.67198322989E+03  0.00000000000E+00 0. -1.
         -2   -1    0    0    0  501 -0.00000000000E+00 -0.00000000000E+00 -0.10542833714E+03  0.10542833714E+03  0.00000000000E+00 0.  1.
          6    1    1    2  502    0 -0.41514455342E+02  0.65469806873E+02  0.55747085682E+03  0.58852994981E+03  0.17200000000E+03 0. -1.
         -6    1    1    2    0  501  0.41514455342E+02 -0.65469806873E+02  0.90840359274E+01  0.18888161722E+03  0.17200000000E+03 0.  1.
</event>
<event>
 4    1  0.3169553E-002  0.3170046E+03  0.7818608E-02  0.1077036E+00
         -2   -1    0    0    0  501 -0.00000000000E+00  0.00000000000E+00  0.17810186424E+03  0.17810186424E+03  0.00000000000E+00 0.  1.
          2   -1    0    0  502    0  0.00000000000E+00 -0.00000000000E+00 -0.63771805612E+03  0.63771805612E+03  0.00000000000E+00 0. -1.
          6    1    1    2  502    0  0.24085451361E+03  0.11356512082E+03 -0.36827090486E+03  0.48591706367E+03  0.17200000000E+03 0. -1.
         -6    1    1    2    0  501 -0.24085451361E+03 -0.11356512082E+03 -0.91345287012E+02  0.32990285670E+03  0.17200000000E+03 0.  1.
</event>
<event>
 4    1  0.3169553E-002  0.2047906E+03  0.7818608E-02  0.1145759E+00
          1   -1    0    0  502    0  0.00000000000E+00  0.00000000000E+00  0.12505489382E+04  0.12505489382E+04  0.00000000000E+00 0. -1.
         -1   -1    0    0    0  501 -0.00000000000E+00 -0.00000000000E+00 -0.56669193748E+02  0.56669193748E+02  0.00000000000E+00 0.  1.
          6    1    1    2  502    0  0.85280195052E+02  0.71291383433E+02  0.10145361460E+04  0.10349989200E+04  0.17200000000E+03 0. -1.
         -6    1    1    2    0  501 -0.85280195052E+02 -0.71291383433E+02  0.17934359853E+03  0.27221921195E+03  0.17200000000E+03 0.  1.
</event>
<event>
 4    1  0.3169553E-002  0.1989865E+03  0.7818608E-02  0.1150597E+00
          2   -1    0    0  502    0  0.00000000000E+00  0.00000000000E+00  0.10661645630E+04  0.10661645630E+04  0.00000000000E+00 0. -1.
         -2   -1    0    0    0  501 -0.00000000000E+00 -0.00000000000E+00 -0.38800865726E+02  0.38800865726E+02  0.00000000000E+00 0.  1.
          6    1    1    2  502    0 -0.98127494955E+02  0.19560554367E+02  0.39932097733E+03  0.44615340802E+03  0.17200000000E+03 0.  1.
         -6    1    1    2    0  501  0.98127494955E+02 -0.19560554367E+02  0.62804271997E+03  0.65881202073E+03  0.17200000000E+03 0. -1.
</event>
<event>
 4    1  0.3169553E-002  0.1907694E+03  0.7818608E-02  0.1157769E+00
         -4   -1    0    0    0  501 -0.00000000000E+00  0.00000000000E+00  0.92540358513E+03  0.92540358513E+03  0.00000000000E+00 0.  1.
          4   -1    0    0  502    0  0.00000000000E+00 -0.00000000000E+00 -0.39329523118E+02  0.39329523118E+02  0.00000000000E+00 0. -1.
          6    1    1    2  502    0  0.64950971649E+02 -0.50895240013E+02  0.44721279823E+03  0.48620185219E+03  0.17200000000E+03 0.  1.
         -6    1    1    2    0  501 -0.64950971649E+02  0.50895240013E+02  0.43886126378E+03  0.47853125605E+03  0.17200000000E+03 0.  1.
</event>
<event>
 4    1  0.3169553E-002  0.1832021E+03  0.7818608E-02  0.1164740E+00
         -1   -1    0    0    0  501 -0.00000000000E+00  0.00000000000E+00  0.84062218597E+03  0.84062218597E+03  0.00000000000E+00 0.  1.
          1   -1    0    0  502    0  0.00000000000E+00 -0.00000000000E+00 -0.40255872778E+02  0.40255872778E+02  0.00000000000E+00 0. -1.
          6    1    1    2  502    0 -0.63052997941E+02  0.18250934283E+01  0.44002925001E+03  0.47664321287E+03  0.17200000000E+03 0.  1.
         -6    1    1    2    0  501  0.63052997941E+02 -0.18250934283E+01  0.36033706319E+03  0.40423484588E+03  0.17200000000E+03 0. -1.
</event>
<event>
 4    1  0.3169553E-002  0.2655061E+03  0.7818608E-02  0.1103879E+00
         -1   -1    0    0    0  501 -0.00000000000E+00  0.00000000000E+00  0.67595711734E+02  0.67595711734E+02  0.00000000000E+00 0.  1.
          1   -1    0    0  502    0  0.00000000000E+00 -0.00000000000E+00 -0.11108305110E+04  0.11108305110E+04  0.00000000000E+00 0. -1.
          6    1    1    2  502    0 -0.13749006753E+03 -0.14834415174E+03 -0.66735728414E+03  0.71823342357E+03  0.17200000000E+03 0. -1.
         -6    1    1    2    0  501  0.13749006753E+03  0.14834415174E+03 -0.37587751509E+03  0.46019279913E+03  0.17200000000E+03 0.  1.
</event>
<event>
 4    1  0.3169553E-002  0.2310698E+03  0.7818608E-02  0.1125889E+00
          2   -1    0    0  502    0  0.00000000000E+00  0.00000000000E+00  0.13370870295E+04  0.13370870295E+04  0.00000000000E+00 0. -1.
         -2   -1    0    0    0  501 -0.00000000000E+00 -0.00000000000E+00 -0.56570367008E+02  0.56570367008E+02  0.00000000000E+00 0.  1.
          6    1    1    2  502    0 -0.36094411495E+02  0.15002144846E+03  0.10181612275E+04  0.10440524541E+04  0.17200000000E+03 0.  1.
         -6    1    1    2    0  501  0.36094411495E+02 -0.15002144846E+03  0.26235543493E+03  0.34960494244E+03  0.17200000000E+03 0.  1.
</event>
<event>
 4    1  0.3169553E-002  0.2330485E+03  0.7818608E-02  0.1124512E+00
          2   -1    0    0  502    0  0.00000000000E+00  0.00000000000E+00  0.24385261004E+04  0.24385261004E+04  0.00000000000E+00 0. -1.
         -2   -1    0    0    0  501 -0.00000000000E+00 -0.00000000000E+00 -0.27437770855E+02  0.27437770855E+02  0.00000000000E+00 0.  1.
          6    1    1    2  502    0  0.69799138575E+02 -0.14091016641E+03  0.17405236011E+04  0.17560563775E+04  0.17200000000E+03 0. -1.
         -6    1    1    2    0  501 -0.69799138575E+02  0.14091016641E+03  0.67056472840E+03  0.70990749378E+03  0.17200000000E+03 0.  1.
</event>
<event>
 4    1  0.3169553E-002  0.3057094E+03  0.7818608E-02  0.1082421E+00
         -1   -1    0    0    0  501 -0.00000000000E+00  0.00000000000E+00  0.86857197416E+03  0.86857197416E+03  0.00000000000E+00 0.  1.
          1   -1    0    0  502    0  0.00000000000E+00 -0.00000000000E+00 -0.15371498911E+03  0.15371498911E+03  0.00000000000E+00 0. -1.
          6    1    1    2  502    0  0.22384185472E+03  0.11734162546E+03  0.77461793451E+02  0.31537051612E+03  0.17200000000E+03 0. -1.
         -6    1    1    2    0  501 -0.22384185472E+03 -0.11734162546E+03  0.63739519159E+03  0.70691644715E+03  0.17200000000E+03 0.  1.
</event>
<event>
 4    1  0.3169553E-002  0.2409878E+03  0.7818608E-02  0.1119137E+00
          1   -1    0    0  502    0  0.00000000000E+00  0.00000000000E+00  0.63966284337E+03  0.63966284337E+03  0.00000000000E+00 0. -1.
         -1   -1    0    0    0  501 -0.00000000000E+00 -0.00000000000E+00 -0.90803182098E+02  0.90803182098E+02  0.00000000000E+00 0.  1.
          6    1    1    2  502    0 -0.67860769659E+02 -0.15455113127E+03  0.27006767668E+03  0.36195536496E+03  0.17200000000E+03 0. -1.
         -6    1    1    2    0  501  0.67860769659E+02  0.15455113127E+03  0.27879198460E+03  0.36851066051E+03  0.17200000000E+03 0. -1.
</event>
<event>
 4    1  0.3169553E-002  0.2799540E+03  0.7818608E-02  0.1095714E+00
         -2   -1    0    0    0  501 -0.00000000000E+00  0.00000000000E+00  0.32953537161E+02  0.32953537161E+02  0.00000000000E+00 0.  1.
          2   -1    0    0  502    0  0.00000000000E+00 -0.00000000000E+00 -0.23820055266E+04  0.23820055266E+04  0.00000000000E+00 0. -1.
          6    1    1    2  502    0 -0.22039205166E+03 -0.14750254227E+02 -0.12219888793E+04  0.12536470985E+04  0.17200000000E+03 0. -1.
         -6    1    1    2    0  501  0.22039205166E+03  0.14750254227E+02 -0.11270631102E+04  0.11613119653E+04  0.17200000000E+03 0.  1.
</event>
<event>
 4    1  0.3169553E-002  0.3173155E+03  0.7818608E-02  0.1076891E+00
          2   -1    0    0  502    0  0.00000000000E+00  0.00000000000E+00  0.21048221028E+04  0.21048221028E+04  0.00000000000E+00 0. -1.
         -2   -1    0    0    0  501 -0.00000000000E+00 -0.00000000000E+00 -0.60457185445E+02  0.60457185445E+02  0.00000000000E+00 0.  1.
          6    1    1    2  502    0  0.25724907576E+03  0.70199913915E+02  0.52754524988E+03  0.61562415934E+03  0.17200000000E+03 0. -1.
         -6    1    1    2    0  501 -0.25724907576E+03 -0.70199913915E+02  0.15168196674E+04  0.15496551289E+04  0.17200000000E+03 0.  1.
</event>
<event>
 4    1  0.3169553E-002  0.1813235E+03  0.7818608E-02  0.1166528E+00
         -1   -1    0    0    0  501 -0.00000000000E+00  0.00000000000E+00  0.14570716331E+03  0.14570716331E+03  0.00000000000E+00 0.  1.
          1   -1    0    0  502    0  0.00000000000E+00 -0.00000000000E+00 -0.23011256770E+03  0.23011256770E+03  0.00000000000E+00 0. -1.
          6    1    1    2  502    0 -0.45723611688E+02 -0.34692573326E+02 -0.68382812098E+02  0.19378965994E+03  0.17200000000E+03 0.  1.
         -6    1    1    2    0  501  0.45723611688E+02  0.34692573326E+02 -0.16022592294E+02  0.18203007107E+03  0.17200000000E+03 0.  1.
</event>
<event>
 4    1  0.3169553E-002  0.3760961E+03  0.7818608E-02  0.1052386E+00
          2   -1    0    0  502    0  0.00000000000E+00  0.00000000000E+00  0.24407600285E+04  0.24407600285E+04  0.00000000000E+00 0. -1.
         -2   -1    0    0    0  501 -0.00000000000E+00 -0.00000000000E+00 -0.12568221874E+03  0.12568221874E+03  0.00000000000E+00 0.  1.
          6    1    1    2  502    0  0.29414104915E+03 -0.15920225015E+03  0.20995456150E+04  0.21329650965E+04  0.17200000000E+03 0. -1.
         -6    1    1    2    0  501 -0.29414104915E+03  0.15920225015E+03  0.21553219470E+03  0.43347715072E+03  0.17200000000E+03 0.  1.
</event>
<event>
 4    1  0.3169553E-002  0.1746737E+03  0.7818608E-02  0.1173060E+00
          2   -1    0    0  502    0  0.00000000000E+00  0.00000000000E+00  0.53092577887E+03  0.53092577887E+03  0.00000000000E+00 0. -1.
         -2   -1    0    0    0  501 -0.00000000000E+00 -0.00000000000E+00 -0.57468751930E+02  0.57468751930E+02  0.00000000000E+00 0.  1.
          6    1    1    2  502    0  0.29373801498E+02  0.80057649761E+01  0.23816693571E+03  0.29535470498E+03  0.17200000000E+03 0. -1.
         -6    1    1    2    0  501 -0.29373801498E+02 -0.80057649761E+01  0.23529009123E+03  0.29303982582E+03  0.17200000000E+03 0.  1.
</event>
<event>
 4    1  0.3169553E-002  0.1881123E+03  0.7818608E-02  0.1160175E+00
         -1   -1    0    0    0  501 -0.00000000000E+00  0.00000000000E+00  0.11072624533E+03  0.11072624533E+03  0.00000000000E+00 0.  1.
          1   -1    0    0  502    0  0.00000000000E+00 -0.00000000000E+00 -0.35671957095E+03  0.35671957095E+03  0.00000000000E+00 0. -1.
          6    1    1    2  502    0 -0.74842368709E+02 -0.14172361340E+02 -0.19840826504E+03  0.27340825814E+03  0.17200000000E+03 0. -1.
         -6    1    1    2    0  501  0.74842368709E+02  0.14172361340E+02 -0.47585060583E+02  0.19403755814E+03  0.17200000000E+03 0.  1.
</event>
<event>
 4    1  0.3169553E-002  0.2147706E+03  0.7818608E-02  0.1137843E+00
         -2   -1    0    0    0  501 -0.00000000000E+00  0.00000000000E+00  0.46664459946E+03  0.46664459946E+03  0.00000000000E+00 0.  1.
          2   -1    0    0  502    0  0.00000000000E+00 -0.00000000000E+00 -0.99051684048E+02  0.99051684048E+02  0.00000000000E+00 0. -1.
          6    1    1    2  502    0 -0.29012556718E+02 -0.12530233947E+03  0.17093778264E+03  0.27449249581E+03  0.17200000000E+03 0. -1.
         -6    1    1    2    0  501  0.29012556718E+02  0.12530233947E+03  0.19665513277E+03  0.29120378769E+03  0.17200000000E+03 0.  1.
</event>
<event>
 4    1  0.3169553E-002  0.2085608E+03  0.7818608E-02  0.1142711E+00
         -2   -1    0    0    0  501 -0.00000000000E+00  0.00000000000E+00  0.83898094900E+02  0.83898094900E+02  0.00000000000E+00 0.  1.
          2   -1    0    0  502    0  0.00000000000E+00 -0.00000000000E+00 -0.72716534741E+03  0.72716534741E+03  0.00000000000E+00 0. -1.
          6    1    1    2  502    0 -0.57867945583E+01  0.11781393254E+03 -0.53889247298E+03  0.57784315097E+03  0.17200000000E+03 0. -1.
         -6    1    1    2    0  501  0.57867945583E+01 -0.11781393254E+03 -0.10437477954E+03  0.23322029134E+03  0.17200000000E+03 0.  1.
</event>
<event>
 4    1  0.3169553E-002  0.3523132E+03  0.7818608E-02  0.1061670E+00
          2   -1    0    0  502    0  0.00000000000E+00  0.00000000000E+00  0.27724719252E+03  0.27724719252E+03  0.00000000000E+00 0. -1.
         -2   -1    0    0    0  501 -0.00000000000E+00 -0.00000000000E+00 -0.47607242518E+03  0.47607242518E+03  0.00000000000E+00 0.  1.
          6    1    1    2  502    0  0.10157724851E+03  0.29021137460E+03 -0.19135866694E+03  0.40092732356E+03  0.17200000000E+03 0. -1.
         -6    1    1    2    0  501 -0.10157724851E+03 -0.29021137460E+03 -0.74665657212E+01  0.35239229414E+03  0.17200000000E+03 0.  1.
</event>
<event>
 4    1  0.3169553E-002  0.2877652E+03  0.7818608E-02  0.1091522E+00
         -1   -1    0    0    0  501 -0.00000000000E+00  0.00000000000E+00  0.99316908330E+02  0.99316908330E+02  0.00000000000E+00 0.  1.
          1   -1    0    0  502    0  0.00000000000E+00 -0.00000000000E+00 -0.87470046984E+03  0.87470046984E+03  0.00000000000E+00 0. -1.
          6    1    1    2  502    0  0.18689539356E+03 -0.13525871197E+03 -0.49302329844E+03  0.57085968513E+03  0.17200000000E+03 0. -1.
         -6    1    1    2    0  501 -0.18689539356E+03  0.13525871197E+03 -0.28236026307E+03  0.40315769304E+03  0.17200000000E+03 0.  1.
</event>
<event>
 4    1  0.3169553E-002  0.2048813E+03  0.7818608E-02  0.1145685E+00
          2   -1    0    0  502    0  0.00000000000E+00  0.00000000000E+00  0.45885241011E+03  0.45885241011E+03  0.00000000000E+00 0. -1.
         -2   -1    0    0    0  501 -0.00000000000E+00 -0.00000000000E+00 -0.91496973822E+02  0.91496973822E+02  0.00000000000E+00 0.  1.
          6    1    1    2  502    0  0.29342938236E+02  0.10738404957E+03  0.18729749144E+03  0.27759087237E+03  0.17200000000E+03 0. -1.
         -6    1    1    2    0  501 -0.29342938236E+02 -0.10738404957E+03  0.18005794485E+03  0.27275851156E+03  0.17200000000E+03 0.  1.
</event>
<event>
 4    1  0.3169553E-002  0.2139591E+03  0.7818608E-02  0.1138469E+00
         -1   -1    0    0    0  501 -0.00000000000E+00  0.00000000000E+00  0.38290462497E+03  0.38290462497E+03  0.00000000000E+00 0.  1.
          1   -1    0    0  502    0  0.00000000000E+00 -0.00000000000E+00 -0.58870913972E+03  0.58870913972E+03  0.00000000000E+00 0. -1.
          6    1    1    2  502    0  0.44456794649E+02 -0.11923969411E+03 -0.53658349007E+03  0.57766803015E+03  0.17200000000E+03 0. -1.
         -6    1    1    2    0  501 -0.44456794649E+02  0.11923969411E+03  0.33077897532E+03  0.39394573453E+03  0.17200000000E+03 0.  1.
</event>
<event>
 4    1  0.3169553E-002  0.1737891E+03  0.7818608E-02  0.1173953E+00
          1   -1    0    0  502    0  0.00000000000E+00  0.00000000000E+00  0.12476178181E+04  0.12476178181E+04  0.00000000000E+00 0. -1.
         -1   -1    0    0    0  501 -0.00000000000E+00 -0.00000000000E+00 -0.24534833678E+02  0.24534833678E+02  0.00000000000E+00 0.  1.
          6    1    1    2  502    0 -0.12047646767E+02 -0.21759987858E+02  0.68492788485E+03  0.70663204733E+03  0.17200000000E+03 0. -1.
         -6    1    1    2    0  501  0.12047646767E+02  0.21759987858E+02  0.53815509958E+03  0.56552060446E+03  0.17200000000E+03 0.  1.
</event>
<event>
 4    1  0.3169553E-002  0.2373059E+03  0.7818608E-02  0.1121601E+00
         -1   -1    0    0    0  501 -0.00000000000E+00  0.00000000000E+00  0.58290192345E+03  0.58290192345E+03  0.00000000000E+00 0.  1.
          1   -1    0    0  502    0  0.00000000000E+00 -0.00000000000E+00 -0.98759907343E+02  0.98759907343E+02  0.00000000000E+00 0. -1.
          6    1    1    2  502    0 -0.15380240326E+03 -0.55451874951E+02  0.19178237828E+03  0.30511402836E+03  0.17200000000E+03 0. -1.
         -6    1    1    2    0  501  0.15380240326E+03  0.55451874951E+02  0.29235963783E+03  0.37654780243E+03  0.17200000000E+03 0.  1.
</event>
<event>
 4    1  0.3169553E-002  0.2509266E+03  0.7818608E-02  0.1112721E+00
         -2   -1    0    0    0  501 -0.00000000000E+00  0.00000000000E+00  0.21561144432E+03  0.21561144432E+03  0.00000000000E+00 0.  1.
          2   -1    0    0  502    0  0.00000000000E+00 -0.00000000000E+00 -0.52021764069E+03  0.52021764069E+03  0.00000000000E+00 0. -1.
          6    1    1    2  502    0 -0.34826369902E+02 -0.17935239272E+03 -0.39597432052E+03  0.46878547260E+03  0.17200000000E+03 0. -1.
         -6    1    1    2    0  501  0.34826369902E+02  0.17935239272E+03  0.91368124155E+02  0.26704361240E+03  0.17200000000E+03 0.  1.
</event>
<event>
 4    1  0.3169553E-002  0.1758658E+03  0.7818608E-02  0.1171865E+00
         -3   -1    0    0    0  501 -0.00000000000E+00  0.00000000000E+00  0.59114964429E+03  0.59114964429E+03  0.00000000000E+00 0.  1.
          3   -1    0    0  502    0  0.00000000000E+00 -0.00000000000E+00 -0.60260722296E+02  0.60260722296E+02  0.00000000000E+00 0. -1.
          6    1    1    2  502    0 -0.35916241259E+02 -0.74040768882E+01  0.14720986578E+03  0.22934589886E+03  0.17200000000E+03 0. -1.
         -6    1    1    2    0  501  0.35916241259E+02  0.74040768882E+01  0.38367905621E+03  0.42206446773E+03  0.17200000000E+03 0.  1.
</event>
<event>
 4    1  0.3169553E-002  0.1972586E+03  0.7818608E-02  0.1152073E+00
          1   -1    0    0  502    0  0.00000000000E+00  0.00000000000E+00  0.40143659638E+02  0.40143659638E+02  0.00000000000E+00 0. -1.
         -1   -1    0    0    0  501 -0.00000000000E+00 -0.00000000000E+00 -0.97780991491E+03  0.97780991491E+03  0.00000000000E+00 0.  1.
          6    1    1    2  502    0  0.17463194018E+02  0.94984154602E+02 -0.51633620693E+03  0.55273323707E+03  0.17200000000E+03 0. -1.
         -6    1    1    2    0  501 -0.17463194018E+02 -0.94984154602E+02 -0.42133004834E+03  0.46522033748E+03  0.17200000000E+03 0.  1.
</event>
<event>
 4    1  0.3169553E-002  0.2014888E+03  0.7818608E-02  0.1148489E+00
         -1   -1    0    0    0  501 -0.00000000000E+00  0.00000000000E+00  0.64841583549E+02  0.64841583549E+02  0.00000000000E+00 0.  1.
          1   -1    0    0  502    0  0.00000000000E+00 -0.00000000000E+00 -0.62903209485E+03  0.62903209485E+03  0.00000000000E+00 0. -1.
          6    1    1    2  502    0  0.10484746740E+03 -0.45559556522E+01 -0.25843560864E+03  0.32769911804E+03  0.17200000000E+03 0. -1.
         -6    1    1    2    0  501 -0.10484746740E+03  0.45559556522E+01 -0.30575490266E+03  0.36617456036E+03  0.17200000000E+03 0.  1.
</event>
<event>
 4    1  0.3169553E-002  0.2388492E+03  0.7818608E-02  0.1120562E+00
         -2   -1    0    0    0  501 -0.00000000000E+00  0.00000000000E+00  0.17491360655E+02  0.17491360655E+02  0.00000000000E+00 0.  1.
          2   -1    0    0  502    0  0.00000000000E+00 -0.00000000000E+00 -0.40089532791E+04  0.40089532791E+04  0.00000000000E+00 0. -1.
          6    1    1    2  502    0 -0.59671849302E+02  0.15460992435E+03 -0.28649986872E+04  0.28749376404E+04  0.17200000000E+03 0. -1.
         -6    1    1    2    0  501  0.59671849302E+02 -0.15460992435E+03 -0.11264632312E+04  0.11515069994E+04  0.17200000000E+03 0.  1.
</event>
<event>
 4    1  0.3169553E-002  0.2279534E+03  0.7818608E-02  0.1128089E+00
          1   -1    0    0  502    0  0.00000000000E+00  0.00000000000E+00  0.79782453209E+03  0.79782453209E+03  0.00000000000E+00 0. -1.
         -1   -1    0    0    0  501 -0.00000000000E+00 -0.00000000000E+00 -0.20670669434E+03  0.20670669434E+03  0.00000000000E+00 0.  1.
          6    1    1    2  502    0  0.10273995070E+03 -0.10873483487E+03 -0.12011348575E+03  0.25766259186E+03  0.17200000000E+03 0.  1.
         -6    1    1    2    0  501 -0.10273995070E+03  0.10873483487E+03  0.71123132350E+03  0.74686863457E+03  0.17200000000E+03 0. -1.
</event>
<event>
 4    1  0.3169553E-002  0.1883237E+03  0.7818608E-02  0.1159982E+00
          1   -1    0    0  502    0  0.00000000000E+00  0.00000000000E+00  0.64646991867E+03  0.64646991867E+03  0.00000000000E+00 0. -1.
         -1   -1    0    0    0  501 -0.00000000000E+00 -0.00000000000E+00 -0.42175601630E+03  0.42175601630E+03  0.00000000000E+00 0.  1.
          6    1    1    2  502    0  0.49154931449E+01  0.76535397614E+02  0.61052231514E+03  0.63890791703E+03  0.17200000000E+03 0. -1.
         -6    1    1    2    0  501 -0.49154931449E+01 -0.76535397614E+02 -0.38580841277E+03  0.42931801794E+03  0.17200000000E+03 0.  1.
</event>
<event>
 4    1  0.3169553E-002  0.3082274E+03  0.7818608E-02  0.1081199E+00
         -2   -1    0    0    0  501 -0.00000000000E+00  0.00000000000E+00  0.18461562529E+04  0.18461562529E+04  0.00000000000E+00 0.  1.
          2   -1    0    0  502    0  0.00000000000E+00 -0.00000000000E+00 -0.55503120536E+02  0.55503120536E+02  0.00000000000E+00 0. -1.
          6    1    1    2  502    0  0.15693827075E+03  0.20196665837E+03  0.63871589971E+03  0.70919824624E+03  0.17200000000E+03 0. -1.
         -6    1    1    2    0  501 -0.15693827075E+03 -0.20196665837E+03  0.11519372326E+04  0.11924611272E+04  0.17200000000E+03 0.  1.
</event>
<event>
 4    1  0.3169553E-002  0.1831565E+03  0.7818608E-02  0.1164783E+00
         -2   -1    0    0    0  501 -0.00000000000E+00  0.00000000000E+00  0.17494520898E+03  0.17494520898E+03  0.00000000000E+00 0.  1.
          2   -1    0    0  502    0  0.00000000000E+00 -0.00000000000E+00 -0.19881399407E+03  0.19881399407E+03  0.00000000000E+00 0. -1.
          6    1    1    2  502    0 -0.52333978121E+02 -0.34977789860E+02 -0.47152613313E+02  0.18912868633E+03  0.17200000000E+03 0. -1.
         -6    1    1    2    0  501  0.52333978121E+02  0.34977789860E+02  0.23283828216E+02  0.18463051672E+03  0.17200000000E+03 0. -1.
</event>
<event>
 4    1  0.3169553E-002  0.2320043E+03  0.7818608E-02  0.1125237E+00
          1   -1    0    0  502    0  0.00000000000E+00  0.00000000000E+00  0.54293725308E+02  0.54293725308E+02  0.00000000000E+00 0. -1.
         -1   -1    0    0    0  501 -0.00000000000E+00 -0.00000000000E+00 -0.10677766902E+04  0.10677766902E+04  0.00000000000E+00 0.  1.
          6    1    1    2  502    0  0.13918959664E+03 -0.69772786592E+02 -0.65680423947E+03  0.69657576368E+03  0.17200000000E+03 0. -1.
         -6    1    1    2    0  501 -0.13918959664E+03  0.69772786592E+02 -0.35667872539E+03  0.42549465179E+03  0.17200000000E+03 0.  1.
</event>
<event>
 4    1  0.3169553E-002  0.2584184E+03  0.7818608E-02  0.1108097E+00
         -1   -1    0    0    0  501 -0.00000000000E+00  0.00000000000E+00  0.60526541480E+02  0.60526541480E+02  0.00000000000E+00 0.  1.
          1   -1    0    0  502    0  0.00000000000E+00 -0.00000000000E+00 -0.11068104709E+04  0.11068104709E+04  0.00000000000E+00 0. -1.
          6    1    1    2  502    0  0.18074985311E+03  0.67272250024E+02 -0.55592525506E+03  0.61305216274E+03  0.17200000000E+03 0. -1.
         -6    1    1    2    0  501 -0.18074985311E+03 -0.67272250024E+02 -0.49035867438E+03  0.55428484967E+03  0.17200000000E+03 0.  1.
</event>
<event>
 4    1  0.3169553E-002  0.2616161E+03  0.7818608E-02  0.1106176E+00
         -1   -1    0    0    0  501 -0.00000000000E+00  0.00000000000E+00  0.47042644095E+03  0.47042644095E+03  0.00000000000E+00 0.  1.
          1   -1    0    0  502    0  0.00000000000E+00 -0.00000000000E+00 -0.10222704591E+04  0.10222704591E+04  0.00000000000E+00 0. -1.
          6    1    1    2  502    0  0.14583845674E+03  0.13262771142E+03 -0.96712217399E+03  0.10018823607E+04  0.17200000000E+03 0. -1.
         -6    1    1    2    0  501 -0.14583845674E+03 -0.13262771142E+03  0.41527815584E+03  0.49081453933E+03  0.17200000000E+03 0.  1.
</event>
<event>
 4    1  0.3169553E-002  0.1986263E+03  0.7818608E-02  0.1150903E+00
          1   -1    0    0  502    0  0.00000000000E+00  0.00000000000E+00  0.39239165352E+03  0.39239165352E+03  0.00000000000E+00 0. -1.
         -1   -1    0    0    0  501 -0.00000000000E+00 -0.00000000000E+00 -0.30649779707E+03  0.30649779707E+03  0.00000000000E+00 0.  1.
          6    1    1    2  502    0 -0.81272153029E+02 -0.57124786341E+02  0.32939790646E+03  0.38464969109E+03  0.17200000000E+03 0. -1.
         -6    1    1    2    0  501  0.81272153029E+02  0.57124786341E+02 -0.24350405002E+03  0.31423975950E+03  0.17200000000E+03 0.  1.
</event>
<event>
 4    1  0.3169553E-002  0.2156186E+03  0.7818608E-02  0.1137192E+00
         -1   -1    0    0    0  501 -0.00000000000E+00  0.00000000000E+00  0.15559078219E+03  0.15559078219E+03  0.00000000000E+00 0.  1.
          1   -1    0    0  502    0  0.00000000000E+00 -0.00000000000E+00 -0.40815664043E+03  0.40815664043E+03  0.00000000000E+00 0. -1.
          6    1    1    2  502    0 -0.26994894158E+02  0.12719526917E+03  0.19616321896E+02  0.21650903190E+03  0.17200000000E+03 0.  1.
         -6    1    1    2    0  501  0.26994894158E+02 -0.12719526917E+03 -0.27218218013E+03  0.34723839072E+03  0.17200000000E+03 0. -1.
</event>
<event>
 4    1  0.3169553E-002  0.2932517E+03  0.7818608E-02  0.1088664E+00
         -2   -1    0    0    0  501 -0.00000000000E+00  0.00000000000E+00  0.12241463534E+03  0.12241463534E+03  0.00000000000E+00 0.  1.
          2   -1    0    0  502    0  0.00000000000E+00 -0.00000000000E+00 -0.14095971720E+04  0.14095971720E+04  0.00000000000E+00 0. -1.
          6    1    1    2  502    0  0.23611719141E+03 -0.25714241173E+02 -0.11861209238E+04  0.12218344389E+04  0.17200000000E+03 0. -1.
         -6    1    1    2    0  501 -0.23611719141E+03  0.25714241173E+02 -0.10106161286E+03  0.31017736840E+03  0.17200000000E+03 0.  1.
</event>
<event>
 4    1  0.3169553E-002  0.1817325E+03  0.7818608E-02  0.1166137E+00
          2   -1    0    0  502    0  0.00000000000E+00  0.00000000000E+00  0.38251773137E+04  0.38251773137E+04  0.00000000000E+00 0. -1.
         -2   -1    0    0    0  501 -0.00000000000E+00 -0.00000000000E+00 -0.10321040679E+02  0.10321040679E+02  0.00000000000E+00 0.  1.
          6    1    1    2  502    0  0.58609344362E+02  0.27663306262E+01  0.26827616690E+04  0.26889099799E+04  0.17200000000E+03 0.  1.
         -6    1    1    2    0  501 -0.58609344362E+02 -0.27663306262E+01  0.11320946041E+04  0.11465883744E+04  0.17200000000E+03 0.  1.
</event>
<event>
 4    1  0.3169553E-002  0.2146843E+03  0.7818608E-02  0.1137909E+00
         -2   -1    0    0    0  501 -0.00000000000E+00  0.00000000000E+00  0.39131242012E+02  0.39131242012E+02  0.00000000000E+00 0.  1.
          2   -1    0    0  502    0  0.00000000000E+00 -0.00000000000E+00 -0.14222980239E+04  0.14222980239E+04  0.00000000000E+00 0. -1.
          6    1    1    2  502    0  0.93214639498E+02 -0.88410399994E+02 -0.38862934017E+03  0.44398438248E+03  0.17200000000E+03 0.  1.
         -6    1    1    2    0  501 -0.93214639498E+02  0.88410399994E+02 -0.99453744172E+03  0.10174448834E+04  0.17200000000E+03 0. -1.
</event>
<event>
 4    1  0.3169553E-002  0.2777066E+03  0.7818608E-02  0.1096948E+00
          1   -1    0    0  502    0  0.00000000000E+00  0.00000000000E+00  0.14600163599E+03  0.14600163599E+03  0.00000000000E+00 0. -1.
         -1   -1    0    0    0  501 -0.00000000000E+00 -0.00000000000E+00 -0.67273867166E+03  0.67273867166E+03  0.00000000000E+00 0.  1.
          6    1    1    2  502    0  0.99348506100E+01 -0.21780323423E+03 -0.73630084371E+02  0.28730182635E+03  0.17200000000E+03 0. -1.
         -6    1    1    2    0  501 -0.99348506100E+01  0.21780323423E+03 -0.45310695130E+03  0.53143848131E+03  0.17200000000E+03 0.  1.
</event>
<event>
 4    1  0.3169553E-002  0.1852670E+03  0.7818608E-02  0.1162801E+00
          2   -1    0    0  502    0  0.00000000000E+00  0.00000000000E+00  0.18285062721E+04  0.18285062721E+04  0.00000000000E+00 0. -1.
         -2   -1    0    0    0  501 -0.00000000000E+00 -0.00000000000E+00 -0.31735485099E+02  0.31735485099E+02  0.00000000000E+00 0.  1.
          6    1    1    2  502    0 -0.61262784976E+02 -0.31412418757E+02  0.30390778186E+03  0.35592669013E+03  0.17200000000E+03 0.  1.
         -6    1    1    2    0  501  0.61262784976E+02  0.31412418757E+02  0.14928630051E+04  0.15043150670E+04  0.17200000000E+03 0. -1.
</event>
<event>
 4    1  0.3169553E-002  0.3160939E+03  0.7818608E-02  0.1077461E+00
         -1   -1    0    0    0  501 -0.00000000000E+00  0.00000000000E+00  0.26183242944E+03  0.26183242944E+03  0.00000000000E+00 0.  1.
          1   -1    0    0  502    0  0.00000000000E+00 -0.00000000000E+00 -0.61314639513E+03  0.61314639513E+03  0.00000000000E+00 0. -1.
          6    1    1    2  502    0  0.12071605772E+03 -0.23613343643E+03 -0.44450328710E+03  0.54543426610E+03  0.17200000000E+03 0. -1.
         -6    1    1    2    0  501 -0.12071605772E+03  0.23613343643E+03  0.93189321404E+02  0.32954455847E+03  0.17200000000E+03 0.  1.
</event>
<event>
 4    1  0.3169553E-002  0.2503693E+03  0.7818608E-02  0.1113072E+00
         -1   -1    0    0    0  501 -0.00000000000E+00  0.00000000000E+00  0.88699089598E+02  0.88699089598E+02  0.00000000000E+00 0.  1.
          1   -1    0    0  502    0  0.00000000000E+00 -0.00000000000E+00 -0.15282079047E+04  0.15282079047E+04  0.00000000000E+00 0. -1.
          6    1    1    2  502    0 -0.15813792890E+03 -0.89962131242E+02 -0.13124972116E+04  0.13361638073E+04  0.17200000000E+03 0. -1.
         -6    1    1    2    0  501  0.15813792890E+03  0.89962131242E+02 -0.12701160357E+03  0.28074318701E+03  0.17200000000E+03 0.  1.
</event>
<event>
 4    1  0.3169553E-002  0.3788962E+03  0.7818608E-02  0.1051342E+00
         -1   -1    0    0    0  501 -0.00000000000E+00  0.00000000000E+00  0.62501156272E+02  0.62501156272E+02  0.00000000000E+00 0.  1.
          1   -1    0    0  502    0  0.00000000000E+00 -0.00000000000E+00 -0.27698372677E+04  0.27698372677E+04  0.00000000000E+00 0. -1.
          6    1    1    2  502    0  0.13644849974E+03 -0.30880438594E+03 -0.19388144687E+04  0.19754907962E+04  0.17200000000E+03 0. -1.
         -6    1    1    2    0  501 -0.13644849974E+03  0.30880438594E+03 -0.76852164270E+03  0.85684762773E+03  0.17200000000E+03 0.  1.
</event>
<event>
 4    1  0.3169553E-002  0.2069559E+03  0.7818608E-02  0.1144000E+00
          2   -1    0    0  502    0  0.00000000000E+00  0.00000000000E+00  0.26015607342E+03  0.26015607342E+03  0.00000000000E+00 0. -1.
         -2   -1    0    0    0  501 -0.00000000000E+00 -0.00000000000E+00 -0.18928063790E+03  0.18928063790E+03  0.00000000000E+00 0.  1.
          6    1    1    2  502    0 -0.42653115112E+02 -0.10689920446E+03  0.11652593527E+03  0.23750583516E+03  0.17200000000E+03 0. -1.
         -6    1    1    2    0  501  0.42653115112E+02  0.10689920446E+03 -0.45650499748E+02  0.21193087616E+03  0.17200000000E+03 0.  1.
</event>
<event>
 4    1  0.3169553E-002  0.2469937E+03  0.7818608E-02  0.1115220E+00
          2   -1    0    0  502    0  0.00000000000E+00  0.00000000000E+00  0.27171829893E+03  0.27171829893E+03  0.00000000000E+00 0. -1.
         -2   -1    0    0    0  501 -0.00000000000E+00 -0.00000000000E+00 -0.32726078284E+03  0.32726078284E+03  0.00000000000E+00 0.  1.
          6    1    1    2  502    0 -0.70970216511E+02  0.16243503167E+03  0.14003507332E+03  0.28392909838E+03  0.17200000000E+03 0. -1.
         -6    1    1    2    0  501  0.70970216511E+02 -0.16243503167E+03 -0.19557755724E+03  0.31504998340E+03  0.17200000000E+03 0.  1.
</event>
<event>
 4    1  0.3169553E-002  0.4130897E+03  0.7818608E-02  0.1039339E+00
          2   -1    0    0  502    0  0.00000000000E+00  0.00000000000E+00  0.17259651230E+04  0.17259651230E+04  0.00000000000E+00 0. -1.
         -2   -1    0    0    0  501 -0.00000000000E+00 -0.00000000000E+00 -0.12269027090E+03  0.12269027090E+03  0.00000000000E+00 0.  1.
          6    1    1    2  502    0 -0.34707150952E+03 -0.14352875200E+03  0.12089335608E+04  0.12775615405E+04  0.17200000000E+03 0. -1.
         -6    1    1    2    0  501  0.34707150952E+03  0.14352875200E+03  0.39434129139E+03  0.57109385346E+03  0.17200000000E+03 0.  1.
</event>
<event>
 4    1  0.3169553E-002  0.4326253E+03  0.7818608E-02  0.1033034E+00
          1   -1    0    0  502    0  0.00000000000E+00  0.00000000000E+00  0.60352018498E+03  0.60352018498E+03  0.00000000000E+00 0. -1.
         -1   -1    0    0    0  501 -0.00000000000E+00 -0.00000000000E+00 -0.35052265501E+03  0.35052265501E+03  0.00000000000E+00 0.  1.
          6    1    1    2  502    0  0.31568870767E+03  0.24066841605E+03  0.28844698413E+03  0.51996760407E+03  0.17200000000E+03 0. -1.
         -6    1    1    2    0  501 -0.31568870767E+03 -0.24066841605E+03 -0.35449454163E+02  0.43407523592E+03  0.17200000000E+03 0.  1.
</event>
<event>
 4    1  0.3169553E-002  0.4154981E+03  0.7818608E-02  0.1038542E+00
          1   -1    0    0  502    0  0.00000000000E+00  0.00000000000E+00  0.38900541656E+03  0.38900541656E+03  0.00000000000E+00 0. -1.
         -1   -1    0    0    0  501 -0.00000000000E+00 -0.00000000000E+00 -0.57712845665E+03  0.57712845665E+03  0.00000000000E+00 0.  1.
          6    1    1    2  502    0 -0.25152781046E+03  0.28246846843E+03  0.13812690734E+03  0.43785581830E+03  0.17200000000E+03 0. -1.
         -6    1    1    2    0  501  0.25152781046E+03 -0.28246846843E+03 -0.32624994743E+03  0.52827805490E+03  0.17200000000E+03 0.  1.
</event>
<event>
 4    1  0.3169553E-002  0.2810113E+03  0.7818608E-02  0.1095138E+00
          2   -1    0    0  502    0  0.00000000000E+00  0.00000000000E+00  0.66879771225E+03  0.66879771225E+03  0.00000000000E+00 0. -1.
         -2   -1    0    0    0  501 -0.00000000000E+00 -0.00000000000E+00 -0.19139024781E+03  0.19139024781E+03  0.00000000000E+00 0.  1.
          6    1    1    2  502    0  0.34333599806E+02 -0.21955541768E+03  0.50490165079E+03  0.57783479860E+03  0.17200000000E+03 0. -1.
         -6    1    1    2    0  501 -0.34333599806E+02  0.21955541768E+03 -0.27494186344E+02  0.28235316147E+03  0.17200000000E+03 0.  1.
</event>
<event>
 4    1  0.3169553E-002  0.1915403E+03  0.7818608E-02  0.1157079E+00
          1   -1    0    0  502    0  0.00000000000E+00  0.00000000000E+00  0.96211502808E+03  0.96211502808E+03  0.00000000000E+00 0. -1.
         -1   -1    0    0    0  501 -0.00000000000E+00 -0.00000000000E+00 -0.65646761002E+02  0.65646761002E+02  0.00000000000E+00 0.  1.
          6    1    1    2  502    0 -0.34709211775E+02  0.76804549268E+02  0.78092145358E+03  0.80406839562E+03  0.17200000000E+03 0. -1.
         -6    1    1    2    0  501  0.34709211775E+02 -0.76804549268E+02  0.11554681350E+03  0.22369339347E+03  0.17200000000E+03 0.  1.
</event>
<event>
 4    1  0.3169553E-002  0.1914596E+03  0.7818608E-02  0.1157151E+00
          2   -1    0    0  502    0  0.00000000000E+00  0.00000000000E+00  0.48429041940E+03  0.48429041940E+03  0.00000000000E+00 0. -1.
         -2   -1    0    0    0  501 -0.00000000000E+00 -0.00000000000E+00 -0.29438762274E+03  0.29438762274E+03  0.00000000000E+00 0.  1.
          6    1    1    2  502    0  0.68819359626E+02 -0.48338960738E+02 -0.24062276363E+03  0.30749971343E+03  0.17200000000E+03 0.  1.
         -6    1    1    2    0  501 -0.68819359626E+02  0.48338960738E+02  0.43052556028E+03  0.47117832871E+03  0.17200000000E+03 0. -1.
</event>
<event>
 4    1  0.3169553E-002  0.2857207E+03  0.7818608E-02  0.1092605E+00
          1   -1    0    0  502    0  0.00000000000E+00  0.00000000000E+00  0.26318840006E+03  0.26318840006E+03  0.00000000000E+00 0. -1.
         -1   -1    0    0    0  501 -0.00000000000E+00 -0.00000000000E+00 -0.49412798273E+03  0.49412798273E+03  0.00000000000E+00 0.  1.
          6    1    1    2  502    0 -0.22810965133E+03 -0.42806410520E+01  0.11556247546E+03  0.30820613663E+03  0.17200000000E+03 0. -1.
         -6    1    1    2    0  501  0.22810965133E+03  0.42806410520E+01 -0.34650205813E+03  0.44911024616E+03  0.17200000000E+03 0.  1.
</event>
<event>
 4    1  0.3169553E-002  0.3687679E+03  0.7818608E-02  0.1055165E+00
         -4   -1    0    0    0  501 -0.00000000000E+00  0.00000000000E+00  0.10727621013E+04  0.10727621013E+04  0.00000000000E+00 0.  1.
          4   -1    0    0  502    0  0.00000000000E+00 -0.00000000000E+00 -0.12678210495E+03  0.12678210495E+03  0.00000000000E+00 0. -1.
          6    1    1    2  502    0 -0.18153645888E+03 -0.27101714110E+03  0.47974668725E+03  0.60510053760E+03  0.17200000000E+03 0.  1.
         -6    1    1    2    0  501  0.18153645888E+03  0.27101714110E+03  0.46623330906E+03  0.59444366860E+03  0.17200000000E+03 0.  1.
</event>
<event>
 4    1  0.3169553E-002  0.4087962E+03  0.7818608E-02  0.1040776E+00
          2   -1    0    0  502    0  0.00000000000E+00  0.00000000000E+00  0.74884609015E+03  0.74884609015E+03  0.00000000000E+00 0. -1.
         -2   -1    0    0    0  501 -0.00000000000E+00 -0.00000000000E+00 -0.30031065895E+03  0.30031065895E+03  0.00000000000E+00 0.  1.
          6    1    1    2  502    0  0.11140710859E+03 -0.35372139743E+03  0.49014900312E+03  0.63824792683E+03  0.17200000000E+03 0. -1.
         -6    1    1    2    0  501 -0.11140710859E+03  0.35372139743E+03 -0.41613571929E+02  0.41090882226E+03  0.17200000000E+03 0.  1.
</event>
<event>
 4    1  0.3169553E-002  0.3243978E+03  0.7818608E-02  0.1073643E+00
         -1   -1    0    0    0  501 -0.00000000000E+00  0.00000000000E+00  0.62036070840E+03  0.62036070840E+03  0.00000000000E+00 0.  1.
          1   -1    0    0  502    0  0.00000000000E+00 -0.00000000000E+00 -0.17222517244E+03  0.17222517244E+03  0.00000000000E+00 0. -1.
          6    1    1    2  502    0  0.24704716257E+03 -0.12090350750E+03  0.17545414158E+03  0.36880633733E+03  0.17200000000E+03 0. -1.
         -6    1    1    2    0  501 -0.24704716257E+03  0.12090350750E+03  0.27268139438E+03  0.42377954351E+03  0.17200000000E+03 0.  1.
</event>
<event>
 4    1  0.3169553E-002  0.3195838E+03  0.7818608E-02  0.1075841E+00
          2   -1    0    0  502    0  0.00000000000E+00  0.00000000000E+00  0.17065841800E+04  0.17065841800E+04  0.00000000000E+00 0. -1.
         -2   -1    0    0    0  501 -0.00000000000E+00 -0.00000000000E+00 -0.61639604686E+02  0.61639604686E+02  0.00000000000E+00 0.  1.
          6    1    1    2  502    0 -0.19454551888E+03 -0.18628427506E+03  0.97324767748E+03  0.10243753374E+04  0.17200000000E+03 0. -1.
         -6    1    1    2    0  501  0.19454551888E+03  0.18628427506E+03  0.67169689787E+03  0.74384844737E+03  0.17200000000E+03 0.  1.
</event>
<event>
 4    1  0.3169553E-002  0.4725747E+03  0.7818608E-02  0.1021196E+00
          1   -1    0    0  502    0  0.00000000000E+00  0.00000000000E+00  0.45291196473E+03  0.45291196473E+03  0.00000000000E+00 0. -1.
         -1   -1    0    0    0  501 -0.00000000000E+00 -0.00000000000E+00 -0.63119756510E+03  0.63119756510E+03  0.00000000000E+00 0.  1.
          6    1    1    2  502    0  0.36643191803E+03 -0.24386575748E+03  0.16440947738E+03  0.50035720688E+03  0.17200000000E+03 0. -1.
         -6    1    1    2    0  501 -0.36643191803E+03  0.24386575748E+03 -0.34269507775E+03  0.58375232294E+03  0.17200000000E+03 0.  1.
</event>
<event>
 4    1  0.3169553E-002  0.3494656E+03  0.7818608E-02  0.1062835E+00
          2   -1    0    0  502    0  0.00000000000E+00  0.00000000000E+00  0.86501575081E+03  0.86501575081E+03  0.00000000000E+00 0. -1.
         -2   -1    0    0    0  501 -0.00000000000E+00 -0.00000000000E+00 -0.37338616279E+03  0.37338616279E+03  0.00000000000E+00 0.  1.
          6    1    1    2  502    0 -0.16705766447E+03  0.25423206230E+03  0.73411379166E+03  0.81304936127E+03  0.17200000000E+03 0. -1.
         -6    1    1    2    0  501  0.16705766447E+03 -0.25423206230E+03 -0.24248420364E+03  0.42535255233E+03  0.17200000000E+03 0.  1.
</event>
<event>
 4    1  0.3169553E-002  0.1969371E+03  0.7818608E-02  0.1152349E+00
         -3   -1    0    0    0  501 -0.00000000000E+00  0.00000000000E+00  0.46291148268E+03  0.46291148268E+03  0.00000000000E+00 0.  1.
          3   -1    0    0  502    0  0.00000000000E+00 -0.00000000000E+00 -0.89915865158E+02  0.89915865158E+02  0.00000000000E+00 0. -1.
          6    1    1    2  502    0  0.69632277772E+02 -0.65966378571E+02  0.11430979741E+03  0.22770803015E+03  0.17200000000E+03 0. -1.
         -6    1    1    2    0  501 -0.69632277772E+02  0.65966378571E+02  0.25868582011E+03  0.32511931769E+03  0.17200000000E+03 0.  1.
</event>
<event>
 4    1  0.3169553E-002  0.2973205E+03  0.7818608E-02  0.1086588E+00
          2   -1    0    0  502    0  0.00000000000E+00  0.00000000000E+00  0.20759080021E+03  0.20759080021E+03  0.00000000000E+00 0. -1.
         -2   -1    0    0    0  501 -0.00000000000E+00 -0.00000000000E+00 -0.43013390517E+03  0.43013390517E+03  0.00000000000E+00 0.  1.
          6    1    1    2  502    0  0.11884405223E+03  0.21140381482E+03 -0.14314781389E+03  0.32998602742E+03  0.17200000000E+03 0.  1.
         -6    1    1    2    0  501 -0.11884405223E+03 -0.21140381482E+03 -0.79395291078E+02  0.30773867797E+03  0.17200000000E+03 0.  1.
</event>
<event>
 4    1  0.3169553E-002  0.2918606E+03  0.7818608E-02  0.1089382E+00
          2   -1    0    0  502    0  0.00000000000E+00  0.00000000000E+00  0.12253505674E+04  0.12253505674E+04  0.00000000000E+00 0. -1.
         -2   -1    0    0    0  501 -0.00000000000E+00 -0.00000000000E+00 -0.70844842405E+02  0.70844842405E+02  0.00000000000E+00 0.  1.
          6    1    1    2  502    0 -0.15354544216E+03  0.17894811868E+03  0.66598237462E+03  0.72712801850E+03  0.17200000000E+03 0.  1.
         -6    1    1    2    0  501  0.15354544216E+03 -0.17894811868E+03  0.48852335042E+03  0.56906739135E+03  0.17200000000E+03 0.  1.
</event>
<event>
 4    1  0.3169553E-002  0.1904883E+03  0.7818608E-02  0.1158022E+00
          2   -1    0    0  502    0  0.00000000000E+00  0.00000000000E+00  0.37738823236E+02  0.37738823236E+02  0.00000000000E+00 0. -1.
         -2   -1    0    0    0  501 -0.00000000000E+00 -0.00000000000E+00 -0.10923184306E+04  0.10923184306E+04  0.00000000000E+00 0.  1.
          6    1    1    2  502    0  0.78976734124E+02  0.21551812781E+02 -0.33175074708E+03  0.38254981813E+03  0.17200000000E+03 0. -1.
         -6    1    1    2    0  501 -0.78976734124E+02 -0.21551812781E+02 -0.72282886029E+03  0.74750743570E+03  0.17200000000E+03 0.  1.
</event>
<event>
 4    1  0.3169553E-002  0.1914266E+03  0.7818608E-02  0.1157181E+00
          3   -1    0    0  502    0  0.00000000000E+00  0.00000000000E+00  0.22784367066E+02  0.22784367066E+02  0.00000000000E+00 0. -1.
         -3   -1    0    0    0  501 -0.00000000000E+00 -0.00000000000E+00 -0.16134594509E+04  0.16134594509E+04  0.00000000000E+00 0.  1.
          6    1    1    2  502    0  0.82899052902E+02  0.13707968246E+02 -0.74908636048E+03  0.77315880440E+03  0.17200000000E+03 0. -1.
         -6    1    1    2    0  501 -0.82899052902E+02 -0.13707968246E+02 -0.84158872341E+03  0.86308501362E+03  0.17200000000E+03 0.  1.
</event>
<event>
 4    1  0.3169553E-002  0.2559237E+03  0.7818608E-02  0.1109617E+00
         -4   -1    0    0    0  501 -0.00000000000E+00  0.00000000000E+00  0.14919589106E+03  0.14919589106E+03  0.00000000000E+00 0.  1.
          4   -1    0    0  502    0  0.00000000000E+00 -0.00000000000E+00 -0.48906859125E+03  0.48906859125E+03  0.00000000000E+00 0. -1.
          6    1    1    2  502    0 -0.16130716309E+03  0.99463316578E+02 -0.27204669894E+03  0.37350550011E+03  0.17200000000E+03 0. -1.
         -6    1    1    2    0  501  0.16130716309E+03 -0.99463316578E+02 -0.67826001252E+02  0.26475898220E+03  0.17200000000E+03 0.  1.
</event>
<event>
 4    1  0.3169553E-002  0.3679535E+03  0.7818608E-02  0.1055478E+00
          2   -1    0    0  502    0  0.00000000000E+00  0.00000000000E+00  0.10054945840E+04  0.10054945840E+04  0.00000000000E+00 0. -1.
         -2   -1    0    0    0  501 -0.00000000000E+00 -0.00000000000E+00 -0.13553998148E+03  0.13553998148E+03  0.00000000000E+00 0.  1.
          6    1    1    2  502    0  0.20127895833E+03  0.25552412789E+03  0.48120868769E+03  0.60576530118E+03  0.17200000000E+03 0. -1.
         -6    1    1    2    0  501 -0.20127895833E+03 -0.25552412789E+03  0.38874591482E+03  0.53526926429E+03  0.17200000000E+03 0.  1.
</event>
<event>
 4    1  0.3169553E-002  0.2067987E+03  0.7818608E-02  0.1144126E+00
         -2   -1    0    0    0  501 -0.00000000000E+00  0.00000000000E+00  0.24634995680E+02  0.24634995680E+02  0.00000000000E+00 0.  1.
          2   -1    0    0  502    0  0.00000000000E+00 -0.00000000000E+00 -0.17799645568E+04  0.17799645568E+04  0.00000000000E+00 0. -1.
          6    1    1    2  502    0  0.11470305037E+03 -0.49892998002E+01 -0.73581432479E+03  0.76432218563E+03  0.17200000000E+03 0. -1.
         -6    1    1    2    0  501 -0.11470305037E+03  0.49892998002E+01 -0.10195152364E+04  0.10402773669E+04  0.17200000000E+03 0. -1.
</event>
<event>
 4    1  0.3169553E-002  0.1894924E+03  0.7818608E-02  0.1158920E+00
          2   -1    0    0  502    0  0.00000000000E+00  0.00000000000E+00  0.18795708464E+03  0.18795708464E+03  0.00000000000E+00 0. -1.
         -2   -1    0    0    0  501 -0.00000000000E+00 -0.00000000000E+00 -0.21604130729E+03  0.21604130729E+03  0.00000000000E+00 0.  1.
          6    1    1    2  502    0  0.12782486176E+02  0.78485570050E+02  0.54674233501E+02  0.19722233258E+03  0.17200000000E+03 0. -1.
         -6    1    1    2    0  501 -0.12782486176E+02 -0.78485570050E+02 -0.82758456147E+02  0.20677605936E+03  0.17200000000E+03 0.  1.
</event>
<event>
 4    1  0.3169553E-002  0.2347839E+03  0.7818608E-02  0.1123317E+00
         -1   -1    0    0    0  501 -0.00000000000E+00  0.00000000000E+00  0.29436484199E+03  0.29436484199E+03  0.00000000000E+00 0.  1.
          1   -1    0    0  502    0  0.00000000000E+00 -0.00000000000E+00 -0.23086702971E+03  0.23086702971E+03  0.00000000000E+00 0. -1.
          6    1    1    2  502    0  0.14335426703E+03  0.70633206186E+02  0.14588051274E+03  0.27641385582E+03  0.17200000000E+03 0.  1.
         -6    1    1    2    0  501 -0.14335426703E+03 -0.70633206186E+02 -0.82382700455E+02  0.24881801588E+03  0.17200000000E+03 0. -1.
</event>
<event>
 4    1  0.3169553E-002  0.1835559E+03  0.7818608E-02  0.1164405E+00
         -2   -1    0    0    0  501 -0.00000000000E+00  0.00000000000E+00  0.14053314631E+03  0.14053314631E+03  0.00000000000E+00 0.  1.
          2   -1    0    0  502    0  0.00000000000E+00 -0.00000000000E+00 -0.27433027563E+03  0.27433027563E+03  0.00000000000E+00 0. -1.
          6    1    1    2  502    0 -0.45167977309E+02  0.45482177848E+02  0.67483592504E+01  0.18367992549E+03  0.17200000000E+03 0. -1.
         -6    1    1    2    0  501  0.45167977309E+02 -0.45482177848E+02 -0.14054548856E+03  0.23118349645E+03  0.17200000000E+03 0. -1.
</event>
<event>
 4    1  0.3169553E-002  0.2467836E+03  0.7818608E-02  0.1115355E+00
         -2   -1    0    0    0  501 -0.00000000000E+00  0.00000000000E+00  0.82977828991E+02  0.82977828991E+02  0.00000000000E+00 0.  1.
          2   -1    0    0  502    0  0.00000000000E+00 -0.00000000000E+00 -0.97186285376E+03  0.97186285376E+03  0.00000000000E+00 0. -1.
          6    1    1    2  502    0  0.29242338746E+02 -0.17453664527E+03 -0.70539232346E+03  0.74731551899E+03  0.17200000000E+03 0. -1.
         -6    1    1    2    0  501 -0.29242338746E+02  0.17453664527E+03 -0.18349270131E+03  0.30752516377E+03  0.17200000000E+03 0.  1.
</event>
<event>
 4    1  0.3169553E-002  0.2093933E+03  0.7818608E-02  0.1142047E+00
         -2   -1    0    0    0  501 -0.00000000000E+00  0.00000000000E+00  0.39131436724E+02  0.39131436724E+02  0.00000000000E+00 0.  1.
          2   -1    0    0  502    0  0.00000000000E+00 -0.00000000000E+00 -0.13289351965E+04  0.13289351965E+04  0.00000000000E+00 0. -1.
          6    1    1    2  502    0  0.91173985264E+02  0.77128921811E+02 -0.91582312169E+03  0.93945598960E+03  0.17200000000E+03 0. -1.
         -6    1    1    2    0  501 -0.91173985264E+02 -0.77128921811E+02 -0.37398063810E+03  0.42861064364E+03  0.17200000000E+03 0.  1.
</event>
<event>
 4    1  0.3169553E-002  0.4214395E+03  0.7818608E-02  0.1036599E+00
         -2   -1    0    0    0  501 -0.00000000000E+00  0.00000000000E+00  0.19008858012E+03  0.19008858012E+03  0.00000000000E+00 0.  1.
          2   -1    0    0  502    0  0.00000000000E+00 -0.00000000000E+00 -0.11296282474E+04  0.11296282474E+04  0.00000000000E+00 0. -1.
          6    1    1    2  502    0  0.36324441022E+03 -0.12680996495E+03 -0.74411555924E+03  0.85517204952E+03  0.17200000000E+03 0. -1.
         -6    1    1    2    0  501 -0.36324441022E+03  0.12680996495E+03 -0.19542410802E+03  0.46454477799E+03  0.17200000000E+03 0.  1.
</event>
<event>
 4    1  0.3169553E-002  0.1983485E+03  0.7818608E-02  0.1151140E+00
          1   -1    0    0  502    0  0.00000000000E+00  0.00000000000E+00  0.14278273823E+03  0.14278273823E+03  0.00000000000E+00 0. -1.
         -1   -1    0    0    0  501 -0.00000000000E+00 -0.00000000000E+00 -0.40849008385E+03  0.40849008385E+03  0.00000000000E+00 0.  1.
          6    1    1    2  502    0  0.17122981844E+02  0.97287957942E+02  0.24397019069E+02  0.19984333316E+03  0.17200000000E+03 0. -1.
         -6    1    1    2    0  501 -0.17122981844E+02 -0.97287957942E+02 -0.29010436469E+03  0.35142948892E+03  0.17200000000E+03 0.  1.
</event>
<event>
 4    1  0.3169553E-002  0.1774281E+03  0.7818608E-02  0.1170316E+00
         -2   -1    0    0    0  501 -0.00000000000E+00  0.00000000000E+00  0.61137376283E+02  0.61137376283E+02  0.00000000000E+00 0.  1.
          2   -1    0    0  502    0  0.00000000000E+00 -0.00000000000E+00 -0.64161313056E+03  0.64161313056E+03  0.00000000000E+00 0. -1.
          6    1    1    2  502    0 -0.17227899851E+02 -0.39999044269E+02 -0.13409764065E+03  0.22240256586E+03  0.17200000000E+03 0.  1.
         -6    1    1    2    0  501  0.17227899851E+02  0.39999044269E+02 -0.44637811363E+03  0.48034794098E+03  0.17200000000E+03 0. -1.
</event>
<event>
 4    1  0.3169553E-002  0.2047391E+03  0.7818608E-02  0.1145801E+00
         -2   -1    0    0    0  501 -0.00000000000E+00  0.00000000000E+00  0.58868028212E+02  0.58868028212E+02  0.00000000000E+00 0.  1.
          2   -1    0    0  502    0  0.00000000000E+00 -0.00000000000E+00 -0.71241630899E+03  0.71241630899E+03  0.00000000000E+00 0. -1.
          6    1    1    2  502    0 -0.10856610434E+03  0.23398668700E+02 -0.33528922770E+03  0.39285743333E+03  0.17200000000E+03 0. -1.
         -6    1    1    2    0  501  0.10856610434E+03 -0.23398668700E+02 -0.31825905308E+03  0.37842690387E+03  0.17200000000E+03 0.  1.
</event>
<event>
 4    1  0.3169553E-002  0.1904034E+03  0.7818608E-02  0.1158098E+00
         -2   -1    0    0    0  501 -0.00000000000E+00  0.00000000000E+00  0.28973356384E+02  0.28973356384E+02  0.00000000000E+00 0.  1.
          2   -1    0    0  502    0  0.00000000000E+00 -0.00000000000E+00 -0.17786370894E+04  0.17786370894E+04  0.00000000000E+00 0. -1.
          6    1    1    2  502    0 -0.74245989344E+02 -0.34014470685E+02 -0.13669714099E+04  0.13801682096E+04  0.17200000000E+03 0. -1.
         -6    1    1    2    0  501  0.74245989344E+02  0.34014470685E+02 -0.38269232309E+03  0.42744223622E+03  0.17200000000E+03 0.  1.
</event>
<event>
 4    1  0.3169553E-002  0.2793969E+03  0.7818608E-02  0.1096019E+00
         -2   -1    0    0    0  501 -0.00000000000E+00  0.00000000000E+00  0.59971144185E+02  0.59971144185E+02  0.00000000000E+00 0.  1.
          2   -1    0    0  502    0  0.00000000000E+00 -0.00000000000E+00 -0.16226661559E+04  0.16226661559E+04  0.00000000000E+00 0. -1.
          6    1    1    2  502    0  0.10288478893E+03 -0.19466218784E+03 -0.11555405875E+04  0.11888383812E+04  0.17200000000E+03 0. -1.
         -6    1    1    2    0  501 -0.10288478893E+03  0.19466218784E+03 -0.40715442419E+03  0.49379891890E+03  0.17200000000E+03 0.  1.
</event>
<event>
 4    1  0.3169553E-002  0.2360560E+03  0.7818608E-02  0.1122448E+00
          2   -1    0    0  502    0  0.00000000000E+00  0.00000000000E+00  0.63576127306E+03  0.63576127306E+03  0.00000000000E+00 0. -1.
         -2   -1    0    0    0  501 -0.00000000000E+00 -0.00000000000E+00 -0.10721972812E+03  0.10721972812E+03  0.00000000000E+00 0.  1.
          6    1    1    2  502    0  0.13196671881E+02 -0.16113442286E+03  0.42299310306E+03  0.48440233238E+03  0.17200000000E+03 0. -1.
         -6    1    1    2    0  501 -0.13196671881E+02  0.16113442286E+03  0.10554844187E+03  0.25857866880E+03  0.17200000000E+03 0.  1.
</event>
<event>
 4    1  0.3169553E-002  0.8496068E+03  0.7818608E-02  0.9490865E-01
          2   -1    0    0  502    0  0.00000000000E+00  0.00000000000E+00  0.13037370005E+04  0.13037370005E+04  0.00000000000E+00 0. -1.
         -2   -1    0    0    0  501 -0.00000000000E+00 -0.00000000000E+00 -0.58091316761E+03  0.58091316761E+03  0.00000000000E+00 0.  1.
          6    1    1    2  502    0  0.33322920022E+03 -0.76236871832E+03  0.56550331231E+03  0.10206006853E+04  0.17200000000E+03 0. -1.
         -6    1    1    2    0  501 -0.33322920022E+03  0.76236871832E+03  0.15732052056E+03  0.86404948281E+03  0.17200000000E+03 0.  1.
</event>
<event>
 4    1  0.3169553E-002  0.2707808E+03  0.7818608E-02  0.1100834E+00
         -2   -1    0    0    0  501 -0.00000000000E+00  0.00000000000E+00  0.13275125099E+03  0.13275125099E+03  0.00000000000E+00 0.  1.
          2   -1    0    0  502    0  0.00000000000E+00 -0.00000000000E+00 -0.75470645710E+03  0.75470645710E+03  0.00000000000E+00 0. -1.
          6    1    1    2  502    0 -0.15157037473E+03 -0.14409944338E+03 -0.54075685807E+03  0.60476458860E+03  0.17200000000E+03 0. -1.
         -6    1    1    2    0  501  0.15157037473E+03  0.14409944338E+03 -0.81198348042E+02  0.28269311948E+03  0.17200000000E+03 0.  1.
</event>
<event>
 4    1  0.3169553E-002  0.2443140E+03  0.7818608E-02  0.1116952E+00
          2   -1    0    0  502    0  0.00000000000E+00  0.00000000000E+00  0.11771929107E+04  0.11771929107E+04  0.00000000000E+00 0. -1.
         -2   -1    0    0    0  501 -0.00000000000E+00 -0.00000000000E+00 -0.68205290965E+02  0.68205290965E+02  0.00000000000E+00 0.  1.
          6    1    1    2  502    0 -0.10901004273E+03  0.13498943873E+03  0.86991745728E+03  0.90357386000E+03  0.17200000000E+03 0. -1.
         -6    1    1    2    0  501  0.10901004273E+03 -0.13498943873E+03  0.23907016246E+03  0.34182434168E+03  0.17200000000E+03 0.  1.
</event>
<event>
 4    1  0.3169553E-002  0.2778248E+03  0.7818608E-02  0.1096883E+00
          2   -1    0    0  502    0  0.00000000000E+00  0.00000000000E+00  0.23404227315E+03  0.23404227315E+03  0.00000000000E+00 0. -1.
         -2   -1    0    0    0  501 -0.00000000000E+00 -0.00000000000E+00 -0.35272199929E+03  0.35272199929E+03  0.00000000000E+00 0.  1.
          6    1    1    2  502    0 -0.19880823009E+03  0.89877057718E+02  0.15453946060E+02  0.27825424040E+03  0.17200000000E+03 0. -1.
         -6    1    1    2    0  501  0.19880823009E+03 -0.89877057718E+02 -0.13413367220E+03  0.30851003204E+03  0.17200000000E+03 0.  1.
</event>
<event>
 4    1  0.3169553E-002  0.3025711E+03  0.7818608E-02  0.1083962E+00
          1   -1    0    0  502    0  0.00000000000E+00  0.00000000000E+00  0.13205847520E+04  0.13205847520E+04  0.00000000000E+00 0. -1.
         -1   -1    0    0    0  501 -0.00000000000E+00 -0.00000000000E+00 -0.95977691924E+02  0.95977691924E+02  0.00000000000E+00 0.  1.
          6    1    1    2  502    0 -0.24540126621E+02  0.24771571545E+03  0.98554734927E+03  0.10309475598E+04  0.17200000000E+03 0. -1.
         -6    1    1    2    0  501  0.24540126621E+02 -0.24771571545E+03  0.23905971081E+03  0.38561488409E+03  0.17200000000E+03 0.  1.
</event>
<event>
 4    1  0.3169553E-002  0.2229188E+03  0.7818608E-02  0.1131725E+00
         -4   -1    0    0    0  501 -0.00000000000E+00  0.00000000000E+00  0.39165638419E+03  0.39165638419E+03  0.00000000000E+00 0.  1.
          4   -1    0    0  502    0  0.00000000000E+00 -0.00000000000E+00 -0.12730121340E+03  0.12730121340E+03  0.00000000000E+00 0. -1.
          6    1    1    2  502    0 -0.14108350738E+03  0.14291712586E+02  0.14712834564E+03  0.26709466336E+03  0.17200000000E+03 0.  1.
         -6    1    1    2    0  501  0.14108350738E+03 -0.14291712586E+02  0.11722682514E+03  0.25186293422E+03  0.17200000000E+03 0. -1.
</event>
<event>
 4    1  0.3169553E-002  0.2282490E+03  0.7818608E-02  0.1127878E+00
         -2   -1    0    0    0  501 -0.00000000000E+00  0.00000000000E+00  0.52313932071E+02  0.52313932071E+02  0.00000000000E+00 0.  1.
          2   -1    0    0  502    0  0.00000000000E+00 -0.00000000000E+00 -0.10257708248E+04  0.10257708248E+04  0.00000000000E+00 0. -1.
          6    1    1    2  502    0 -0.11666499629E+03  0.94355004910E+02 -0.39468789935E+03  0.45593434418E+03  0.17200000000E+03 0. -1.
         -6    1    1    2    0  501  0.11666499629E+03 -0.94355004910E+02 -0.57876899335E+03  0.62215041266E+03  0.17200000000E+03 0.  1.
</event>
<event>
 4    1  0.3169553E-002  0.2126054E+03  0.7818608E-02  0.1139519E+00
         -1   -1    0    0    0  501 -0.00000000000E+00  0.00000000000E+00  0.31308531340E+03  0.31308531340E+03  0.00000000000E+00 0.  1.
          1   -1    0    0  502    0  0.00000000000E+00 -0.00000000000E+00 -0.15526770634E+03  0.15526770634E+03  0.00000000000E+00 0. -1.
          6    1    1    2  502    0 -0.88658554865E+02 -0.88072271764E+02  0.16877540639E+02  0.21327427361E+03  0.17200000000E+03 0. -1.
         -6    1    1    2    0  501  0.88658554865E+02  0.88072271764E+02  0.14094006642E+03  0.25507874613E+03  0.17200000000E+03 0.  1.
</event>
<event>
 4    1  0.3169553E-002  0.1857528E+03  0.7818608E-02  0.1162349E+00
         -1   -1    0    0    0  501 -0.00000000000E+00  0.00000000000E+00  0.14164248230E+03  0.14164248230E+03  0.00000000000E+00 0.  1.
          1   -1    0    0  502    0  0.00000000000E+00 -0.00000000000E+00 -0.29536112193E+03  0.29536112193E+03  0.00000000000E+00 0. -1.
          6    1    1    2  502    0  0.48078177290E+02  0.51074404051E+02 -0.16832965751E+03  0.25067704218E+03  0.17200000000E+03 0. -1.
         -6    1    1    2    0  501 -0.48078177290E+02 -0.51074404051E+02  0.14611017875E+02  0.18632656205E+03  0.17200000000E+03 0.  1.
</event>
<event>
 4    1  0.3169553E-002  0.2427569E+03  0.7818608E-02  0.1117970E+00
          2   -1    0    0  502    0  0.00000000000E+00  0.00000000000E+00  0.74019233580E+03  0.74019233580E+03  0.00000000000E+00 0. -1.
         -2   -1    0    0    0  501 -0.00000000000E+00 -0.00000000000E+00 -0.83410630918E+02  0.83410630918E+02  0.00000000000E+00 0.  1.
          6    1    1    2  502    0 -0.77965076823E+02 -0.15253969714E+03  0.24055322954E+03  0.34175542227E+03  0.17200000000E+03 0.  1.
         -6    1    1    2    0  501  0.77965076823E+02  0.15253969714E+03  0.41622847534E+03  0.48184754445E+03  0.17200000000E+03 0. -1.
</event>
<event>
 4    1  0.3169553E-002  0.2501636E+03  0.7818608E-02  0.1113201E+00
          2   -1    0    0  502    0  0.00000000000E+00  0.00000000000E+00  0.13885634588E+04  0.13885634588E+04  0.00000000000E+00 0. -1.
         -2   -1    0    0    0  501 -0.00000000000E+00 -0.00000000000E+00 -0.45091997851E+02  0.45091997851E+02  0.00000000000E+00 0.  1.
          6    1    1    2  502    0  0.15625425830E+03  0.92641532553E+02  0.68775095323E+03  0.73183551462E+03  0.17200000000E+03 0. -1.
         -6    1    1    2    0  501 -0.15625425830E+03 -0.92641532553E+02  0.65572050773E+03  0.70181994204E+03  0.17200000000E+03 0.  1.
</event>
<event>
 4    1  0.3169553E-002  0.2048677E+03  0.7818608E-02  0.1145696E+00
          2   -1    0    0  502    0  0.00000000000E+00  0.00000000000E+00  0.73023408748E+03  0.73023408748E+03  0.00000000000E+00 0. -1.
         -2   -1    0    0    0  501 -0.00000000000E+00 -0.00000000000E+00 -0.57561441106E+02  0.57561441106E+02  0.00000000000E+00 0.  1.
          6    1    1    2  502    0 -0.34735608203E+02  0.10573647827E+03  0.35153265773E+03  0.40687341368E+03  0.17200000000E+03 0. -1.
         -6    1    1    2    0  501  0.34735608203E+02 -0.10573647827E+03  0.32113998864E+03  0.38092211490E+03  0.17200000000E+03 0.  1.
</event>
<event>
 4    1  0.3169553E-002  0.2367723E+03  0.7818608E-02  0.1121962E+00
         -1   -1    0    0    0  501 -0.00000000000E+00  0.00000000000E+00  0.28901501618E+03  0.28901501618E+03  0.00000000000E+00 0.  1.
          1   -1    0    0  502    0  0.00000000000E+00 -0.00000000000E+00 -0.19538783199E+03  0.19538783199E+03  0.00000000000E+00 0. -1.
          6    1    1    2  502    0 -0.55494094964E+02 -0.15296243292E+03  0.26203245468E+02  0.23821777963E+03  0.17200000000E+03 0. -1.
         -6    1    1    2    0  501  0.55494094964E+02  0.15296243292E+03  0.67423938723E+02  0.24618506854E+03  0.17200000000E+03 0.  1.
</event>
<event>
 4    1  0.3169553E-002  0.2797912E+03  0.7818608E-02  0.1095803E+00
         -2   -1    0    0    0  501 -0.00000000000E+00  0.00000000000E+00  0.33175727050E+03  0.33175727050E+03  0.00000000000E+00 0.  1.
          2   -1    0    0  502    0  0.00000000000E+00 -0.00000000000E+00 -0.39228187647E+03  0.39228187647E+03  0.00000000000E+00 0. -1.
          6    1    1    2  502    0 -0.90364904161E+02  0.20132884164E+03 -0.25878840174E+03  0.38112275615E+03  0.17200000000E+03 0. -1.
         -6    1    1    2    0  501  0.90364904161E+02 -0.20132884164E+03  0.19826379576E+03  0.34291639082E+03  0.17200000000E+03 0.  1.
</event>
<event>
 4    1  0.3169553E-002  0.3760672E+03  0.7818608E-02  0.1052397E+00
         -2   -1    0    0    0  501 -0.00000000000E+00  0.00000000000E+00  0.10229873000E+03  0.10229873000E+03  0.00000000000E+00 0.  1.
          2   -1    0    0  502    0  0.00000000000E+00 -0.00000000000E+00 -0.29253525455E+04  0.29253525455E+04  0.00000000000E+00 0. -1.
          6    1    1    2  502    0  0.33277407190E+03 -0.33225377089E+02 -0.25109149390E+04  0.25389210976E+04  0.17200000000E+03 0. -1.
         -6    1    1    2    0  501 -0.33277407190E+03  0.33225377089E+02 -0.31213887643E+03  0.48873017790E+03  0.17200000000E+03 0.  1.
</event>
<event>
 4    1  0.3169553E-002  0.1800305E+03  0.7818608E-02  0.1167774E+00
          2   -1    0    0  502    0  0.00000000000E+00  0.00000000000E+00  0.96844654812E+03  0.96844654812E+03  0.00000000000E+00 0. -1.
         -2   -1    0    0    0  501 -0.00000000000E+00 -0.00000000000E+00 -0.35486175208E+02  0.35486175208E+02  0.00000000000E+00 0.  1.
          6    1    1    2  502    0 -0.48967216471E+02  0.20716905235E+02  0.34674150171E+03  0.39069252291E+03  0.17200000000E+03 0.  1.
         -6    1    1    2    0  501  0.48967216471E+02 -0.20716905235E+02  0.58621887120E+03  0.61324020041E+03  0.17200000000E+03 0. -1.
</event>
<event>
 4    1  0.3169553E-002  0.2028440E+03  0.7818608E-02  0.1147361E+00
         -1   -1    0    0    0  501 -0.00000000000E+00  0.00000000000E+00  0.26837367470E+02  0.26837367470E+02  0.00000000000E+00 0.  1.
          1   -1    0    0  502    0  0.00000000000E+00 -0.00000000000E+00 -0.21200710403E+04  0.21200710403E+04  0.00000000000E+00 0. -1.
          6    1    1    2  502    0 -0.93658013424E+02 -0.52819354131E+02 -0.16114213844E+04  0.16241381055E+04  0.17200000000E+03 0. -1.
         -6    1    1    2    0  501  0.93658013424E+02  0.52819354131E+02 -0.48181228843E+03  0.52277030226E+03  0.17200000000E+03 0.  1.
</event>
<event>
 4    1  0.3169553E-002  0.2531842E+03  0.7818608E-02  0.1111309E+00
         -2   -1    0    0    0  501 -0.00000000000E+00  0.00000000000E+00  0.39912873480E+02  0.39912873480E+02  0.00000000000E+00 0.  1.
          2   -1    0    0  502    0  0.00000000000E+00 -0.00000000000E+00 -0.16185582914E+04  0.16185582914E+04  0.00000000000E+00 0. -1.
          6    1    1    2  502    0 -0.14162020774E+03 -0.12025784934E+03 -0.86220831892E+03  0.89861305287E+03  0.17200000000E+03 0. -1.
         -6    1    1    2    0  501  0.14162020774E+03  0.12025784934E+03 -0.71643709899E+03  0.75985811200E+03  0.17200000000E+03 0.  1.
</event>
<event>
 4    1  0.3169553E-002  0.1872011E+03  0.7818608E-02  0.1161010E+00
         -2   -1    0    0    0  501 -0.00000000000E+00  0.00000000000E+00  0.12515614852E+02  0.12515614852E+02  0.00000000000E+00 0.  1.
          2   -1    0    0  502    0  0.00000000000E+00 -0.00000000000E+00 -0.35329534658E+04  0.35329534658E+04  0.00000000000E+00 0. -1.
          6    1    1    2  502    0 -0.32804627463E+02 -0.66212571278E+02 -0.25676407494E+04  0.25744559165E+04  0.17200000000E+03 0. -1.
         -6    1    1    2    0  501  0.32804627463E+02  0.66212571278E+02 -0.95279710156E+03  0.97101316414E+03  0.17200000000E+03 0. -1.
</event>
<event>
 4    1  0.3169553E-002  0.2047521E+03  0.7818608E-02  0.1145790E+00
          2   -1    0    0  502    0  0.00000000000E+00  0.00000000000E+00  0.12209298971E+04  0.12209298971E+04  0.00000000000E+00 0. -1.
         -2   -1    0    0    0  501 -0.00000000000E+00 -0.00000000000E+00 -0.38529396851E+02  0.38529396851E+02  0.00000000000E+00 0.  1.
          6    1    1    2  502    0 -0.95115841151E+01 -0.11067494412E+03  0.38348200249E+03  0.43472043859E+03  0.17200000000E+03 0. -1.
         -6    1    1    2    0  501  0.95115841151E+01  0.11067494412E+03  0.79891849772E+03  0.82473885532E+03  0.17200000000E+03 0.  1.
</event>
<event>
 4    1  0.3169553E-002  0.2364276E+03  0.7818608E-02  0.1122196E+00
          2   -1    0    0  502    0  0.00000000000E+00  0.00000000000E+00  0.13855689773E+04  0.13855689773E+04  0.00000000000E+00 0. -1.
         -2   -1    0    0    0  501 -0.00000000000E+00 -0.00000000000E+00 -0.49859138444E+02  0.49859138444E+02  0.00000000000E+00 0.  1.
          6    1    1    2  502    0 -0.12259298191E+03  0.10623084227E+03  0.98140656520E+03  0.10094834705E+04  0.17200000000E+03 0. -1.
         -6    1    1    2    0  501  0.12259298191E+03 -0.10623084227E+03  0.35430327367E+03  0.42594464522E+03  0.17200000000E+03 0.  1.
</event>
<event>
 4    1  0.3169553E-002  0.2436901E+03  0.7818608E-02  0.1117359E+00
          1   -1    0    0  502    0  0.00000000000E+00  0.00000000000E+00  0.28106929996E+03  0.28106929996E+03  0.00000000000E+00 0. -1.
         -1   -1    0    0    0  501 -0.00000000000E+00 -0.00000000000E+00 -0.21712926383E+03  0.21712926383E+03  0.00000000000E+00 0.  1.
          6    1    1    2  502    0  0.52495369054E+02 -0.16445394266E+03 -0.89082408146E+01  0.24385286503E+03  0.17200000000E+03 0. -1.
         -6    1    1    2    0  501 -0.52495369054E+02  0.16445394266E+03  0.72848276942E+02  0.25434569877E+03  0.17200000000E+03 0.  1.
</event>
<event>
 4    1  0.3169553E-002  0.2632515E+03  0.7818608E-02  0.1105205E+00
          2   -1    0    0  502    0  0.00000000000E+00  0.00000000000E+00  0.97801715942E+03  0.97801715942E+03  0.00000000000E+00 0. -1.
         -2   -1    0    0    0  501 -0.00000000000E+00 -0.00000000000E+00 -0.81106849019E+02  0.81106849019E+02  0.00000000000E+00 0.  1.
          6    1    1    2  502    0  0.13566119640E+03 -0.14599099958E+03  0.26021854105E+03  0.37015540152E+03  0.17200000000E+03 0. -1.
         -6    1    1    2    0  501 -0.13566119640E+03  0.14599099958E+03  0.63669176934E+03  0.68896860692E+03  0.17200000000E+03 0.  1.
</event>
<event>
 4    1  0.3169553E-002  0.1976614E+03  0.7818608E-02  0.1151727E+00
          1   -1    0    0  502    0  0.00000000000E+00  0.00000000000E+00  0.20694713879E+03  0.20694713879E+03  0.00000000000E+00 0. -1.
         -1   -1    0    0    0  501 -0.00000000000E+00 -0.00000000000E+00 -0.20428528313E+03  0.20428528313E+03  0.00000000000E+00 0.  1.
          6    1    1    2  502    0 -0.12557339214E+02 -0.96583427362E+02  0.57955515874E+02  0.20598273478E+03  0.17200000000E+03 0. -1.
         -6    1    1    2    0  501  0.12557339214E+02  0.96583427362E+02 -0.55293660208E+02  0.20524968713E+03  0.17200000000E+03 0.  1.
</event>
<event>
 4    1  0.3169553E-002  0.2564640E+03  0.7818608E-02  0.1109287E+00
         -2   -1    0    0    0  501 -0.00000000000E+00  0.00000000000E+00  0.46263776168E+02  0.46263776168E+02  0.00000000000E+00 0.  1.
          2   -1    0    0  502    0  0.00000000000E+00 -0.00000000000E+00 -0.24036408407E+04  0.24036408407E+04  0.00000000000E+00 0. -1.
          6    1    1    2  502    0  0.21257853817E+02  0.18904466020E+03 -0.19616210544E+04  0.19783151774E+04  0.17200000000E+03 0. -1.
         -6    1    1    2    0  501 -0.21257853817E+02 -0.18904466020E+03 -0.39575601010E+03  0.47158943948E+03  0.17200000000E+03 0.  1.
</event>
<event>
 4    1  0.3169553E-002  0.4379986E+03  0.7818608E-02  0.1031363E+00
          2   -1    0    0  502    0  0.00000000000E+00  0.00000000000E+00  0.12575436713E+04  0.12575436713E+04  0.00000000000E+00 0. -1.
         -2   -1    0    0    0  501 -0.00000000000E+00 -0.00000000000E+00 -0.17043857085E+03  0.17043857085E+03  0.00000000000E+00 0.  1.
          6    1    1    2  502    0  0.40141071833E+03 -0.33588522338E+02  0.77484080138E+03  0.89006798679E+03  0.17200000000E+03 0. -1.
         -6    1    1    2    0  501 -0.40141071833E+03  0.33588522338E+02  0.31226429904E+03  0.53791425533E+03  0.17200000000E+03 0.  1.
</event>
<event>
 4    1  0.3169553E-002  0.1824879E+03  0.7818608E-02  0.1165417E+00
          3   -1    0    0  502    0  0.00000000000E+00  0.00000000000E+00  0.20211453283E+03  0.20211453283E+03  0.00000000000E+00 0. -1.
         -3   -1    0    0    0  501 -0.00000000000E+00 -0.00000000000E+00 -0.27463408099E+03  0.27463408099E+03  0.00000000000E+00 0.  1.
          6    1    1    2  502    0 -0.54088704757E+02 -0.28146951775E+02 -0.18703003698E+03  0.26130838794E+03  0.17200000000E+03 0.  1.
         -6    1    1    2    0  501  0.54088704757E+02  0.28146951775E+02  0.11451048882E+03  0.21544022588E+03  0.17200000000E+03 0. -1.
</event>
<event>
 4    1  0.3169553E-002  0.1793172E+03  0.7818608E-02  0.1168466E+00
         -2   -1    0    0    0  501 -0.00000000000E+00  0.00000000000E+00  0.94199421546E+02  0.94199421546E+02  0.00000000000E+00 0.  1.
          2   -1    0    0  502    0  0.00000000000E+00 -0.00000000000E+00 -0.44725254668E+03  0.44725254668E+03  0.00000000000E+00 0. -1.
          6    1    1    2  502    0  0.50656771781E+02 -0.21312688454E+01 -0.44787753053E+02  0.18482584683E+03  0.17200000000E+03 0.  1.
         -6    1    1    2    0  501 -0.50656771781E+02  0.21312688454E+01 -0.30826537208E+03  0.35662612139E+03  0.17200000000E+03 0. -1.
</event>
<event>
 4    1  0.3169553E-002  0.3833426E+03  0.7818608E-02  0.1049705E+00
         -1   -1    0    0    0  501 -0.00000000000E+00  0.00000000000E+00  0.55550173461E+03  0.55550173461E+03  0.00000000000E+00 0.  1.
          1   -1    0    0  502    0  0.00000000000E+00 -0.00000000000E+00 -0.26691253994E+03  0.26691253994E+03  0.00000000000E+00 0. -1.
          6    1    1    2  502    0 -0.14816979905E+03  0.30889034104E+03  0.10551256026E+03  0.39759833062E+03  0.17200000000E+03 0. -1.
         -6    1    1    2    0  501  0.14816979905E+03 -0.30889034104E+03  0.18307663441E+03  0.42481594392E+03  0.17200000000E+03 0.  1.
</event>
<event>
 4    1  0.3169553E-002  0.2085991E+03  0.7818608E-02  0.1142680E+00
         -2   -1    0    0    0  501 -0.00000000000E+00  0.00000000000E+00  0.56944908417E+02  0.56944908417E+02  0.00000000000E+00 0.  1.
          2   -1    0    0  502    0  0.00000000000E+00 -0.00000000000E+00 -0.77530149944E+03  0.77530149944E+03  0.00000000000E+00 0. -1.
          6    1    1    2  502    0  0.10477969499E+03  0.54321224698E+02 -0.40911859888E+03  0.45922936304E+03  0.17200000000E+03 0. -1.
         -6    1    1    2    0  501 -0.10477969499E+03 -0.54321224698E+02 -0.30923799214E+03  0.37301704481E+03  0.17200000000E+03 0.  1.
</event>
<event>
 4    1  0.3169553E-002  0.1785108E+03  0.7818608E-02  0.1169252E+00
          1   -1    0    0  502    0  0.00000000000E+00  0.00000000000E+00  0.64491273773E+03  0.64491273773E+03  0.00000000000E+00 0. -1.
         -1   -1    0    0    0  501 -0.00000000000E+00 -0.00000000000E+00 -0.71131169530E+02  0.71131169530E+02  0.00000000000E+00 0.  1.
          6    1    1    2  502    0 -0.25477873728E+02  0.40410214409E+02  0.48472721250E+03  0.51655258979E+03  0.17200000000E+03 0. -1.
         -6    1    1    2    0  501  0.25477873728E+02 -0.40410214409E+02  0.89054355704E+02  0.19949131748E+03  0.17200000000E+03 0. -1.
</event>
<event>
 4    1  0.3169553E-002  0.2447928E+03  0.7818608E-02  0.1116641E+00
          2   -1    0    0  502    0  0.00000000000E+00  0.00000000000E+00  0.53028265127E+03  0.53028265127E+03  0.00000000000E+00 0. -1.
         -2   -1    0    0    0  501 -0.00000000000E+00 -0.00000000000E+00 -0.12510449214E+03  0.12510449214E+03  0.00000000000E+00 0.  1.
          6    1    1    2  502    0  0.17417652617E+03  0.14253867830E+01  0.10067078105E+03  0.26468490731E+03  0.17200000000E+03 0. -1.
         -6    1    1    2    0  501 -0.17417652617E+03 -0.14253867830E+01  0.30450737807E+03  0.39070223610E+03  0.17200000000E+03 0. -1.
</event>
<event>
 4    1  0.3169553E-002  0.2446755E+03  0.7818608E-02  0.1116717E+00
         -3   -1    0    0    0  501 -0.00000000000E+00  0.00000000000E+00  0.14943833566E+04  0.14943833566E+04  0.00000000000E+00 0.  1.
          3   -1    0    0  502    0  0.00000000000E+00 -0.00000000000E+00 -0.40074001890E+02  0.40074001890E+02  0.00000000000E+00 0. -1.
          6    1    1    2  502    0  0.33976712693E+02 -0.17066830139E+03  0.74111779490E+03  0.78046247317E+03  0.17200000000E+03 0. -1.
         -6    1    1    2    0  501 -0.33976712693E+02  0.17066830139E+03  0.71319155977E+03  0.75399488528E+03  0.17200000000E+03 0.  1.
</event>
<event>
 4    1  0.3169553E-002  0.2810730E+03  0.7818608E-02  0.1095104E+00
          2   -1    0    0  502    0  0.00000000000E+00  0.00000000000E+00  0.74673147449E+03  0.74673147449E+03  0.00000000000E+00 0. -1.
         -2   -1    0    0    0  501 -0.00000000000E+00 -0.00000000000E+00 -0.14709091542E+03  0.14709091542E+03  0.00000000000E+00 0.  1.
          6    1    1    2  502    0 -0.18270415530E+03 -0.12663825963E+03  0.53661421976E+03  0.60576965756E+03  0.17200000000E+03 0.  1.
         -6    1    1    2    0  501  0.18270415530E+03  0.12663825963E+03  0.63026339309E+02  0.28805273235E+03  0.17200000000E+03 0.  1.
</event>
<event>
 4    1  0.3169553E-002  0.2863080E+03  0.7818608E-02  0.1092293E+00
         -1   -1    0    0    0  501 -0.00000000000E+00  0.00000000000E+00  0.39437582808E+02  0.39437582808E+02  0.00000000000E+00 0.  1.
          1   -1    0    0  502    0  0.00000000000E+00 -0.00000000000E+00 -0.32914722601E+04  0.32914722601E+04  0.00000000000E+00 0. -1.
          6    1    1    2  502    0  0.19332927069E+03  0.12252370616E+03 -0.26370322118E+04  0.26525291990E+04  0.17200000000E+03 0. -1.
         -6    1    1    2    0  501 -0.19332927069E+03 -0.12252370616E+03 -0.61500246557E+03  0.67838064399E+03  0.17200000000E+03 0.  1.
</event>
<event>
 4    1  0.3169553E-002  0.2023927E+03  0.7818608E-02  0.1147736E+00
         -1   -1    0    0    0  501 -0.00000000000E+00  0.00000000000E+00  0.23237643858E+03  0.23237643858E+03  0.00000000000E+00 0.  1.
          1   -1    0    0  502    0  0.00000000000E+00 -0.00000000000E+00 -0.18551504751E+03  0.18551504751E+03  0.00000000000E+00 0. -1.
          6    1    1    2  502    0 -0.10666687346E+03  0.98911119650E+00  0.70055386709E+02  0.21417412879E+03  0.17200000000E+03 0.  1.
         -6    1    1    2    0  501  0.10666687346E+03 -0.98911119650E+00 -0.23193995636E+02  0.20371735731E+03  0.17200000000E+03 0. -1.
</event>
<event>
 4    1  0.3169553E-002  0.2421019E+03  0.7818608E-02  0.1118401E+00
         -1   -1    0    0    0  501 -0.00000000000E+00  0.00000000000E+00  0.21639562718E+03  0.21639562718E+03  0.00000000000E+00 0.  1.
          1   -1    0    0  502    0  0.00000000000E+00 -0.00000000000E+00 -0.27746367693E+03  0.27746367693E+03  0.00000000000E+00 0. -1.
          6    1    1    2  502    0  0.16819676706E+03  0.27187395453E+02 -0.68623432445E+02  0.25163958830E+03  0.17200000000E+03 0.  1.
         -6    1    1    2    0  501 -0.16819676706E+03 -0.27187395453E+02  0.75553826923E+01  0.24221971581E+03  0.17200000000E+03 0. -1.
</event>
<event>
 4    1  0.3169553E-002  0.4063132E+03  0.7818608E-02  0.1041615E+00
          1   -1    0    0  502    0  0.00000000000E+00  0.00000000000E+00  0.16060677828E+04  0.16060677828E+04  0.00000000000E+00 0. -1.
         -1   -1    0    0    0  501 -0.00000000000E+00 -0.00000000000E+00 -0.24120519462E+03  0.24120519462E+03  0.00000000000E+00 0.  1.
          6    1    1    2  502    0 -0.35112564250E+03  0.11053157085E+03  0.13821072714E+04  0.14405939590E+04  0.17200000000E+03 0. -1.
         -6    1    1    2    0  501  0.35112564250E+03 -0.11053157085E+03 -0.17244683183E+02  0.40667901848E+03  0.17200000000E+03 0.  1.
</event>
<event>
 4    1  0.3169553E-002  0.4046731E+03  0.7818608E-02  0.1042173E+00
         -2   -1    0    0    0  501 -0.00000000000E+00  0.00000000000E+00  0.11965626345E+04  0.11965626345E+04  0.00000000000E+00 0.  1.
          2   -1    0    0  502    0  0.00000000000E+00 -0.00000000000E+00 -0.47054418096E+03  0.47054418096E+03  0.00000000000E+00 0. -1.
          6    1    1    2  502    0  0.27325178225E+03  0.24394634437E+03 -0.33893352406E+03  0.52786010379E+03  0.17200000000E+03 0. -1.
         -6    1    1    2    0  501 -0.27325178225E+03 -0.24394634437E+03  0.10649519776E+04  0.11392467117E+04  0.17200000000E+03 0.  1.
</event>
<event>
 4    1  0.3169553E-002  0.2546013E+03  0.7818608E-02  0.1110431E+00
          1   -1    0    0  502    0  0.00000000000E+00  0.00000000000E+00  0.23855081555E+03  0.23855081555E+03  0.00000000000E+00 0. -1.
         -1   -1    0    0    0  501 -0.00000000000E+00 -0.00000000000E+00 -0.45917420289E+03  0.45917420289E+03  0.00000000000E+00 0.  1.
          6    1    1    2  502    0 -0.17301933720E+03 -0.72815590052E+02  0.11258297549E+03  0.27838234062E+03  0.17200000000E+03 0. -1.
         -6    1    1    2    0  501  0.17301933720E+03  0.72815590052E+02 -0.33320636283E+03  0.41934267781E+03  0.17200000000E+03 0.  1.
</event>
<event>
 4    1  0.3169553E-002  0.2195478E+03  0.7818608E-02  0.1134221E+00
          2   -1    0    0  502    0  0.00000000000E+00  0.00000000000E+00  0.18104428126E+04  0.18104428126E+04  0.00000000000E+00 0. -1.
         -2   -1    0    0    0  501 -0.00000000000E+00 -0.00000000000E+00 -0.31292487256E+02  0.31292487256E+02  0.00000000000E+00 0.  1.
          6    1    1    2  502    0  0.13333675315E+03 -0.28957484939E+02  0.12452600067E+04  0.12644657805E+04  0.17200000000E+03 0. -1.
         -6    1    1    2    0  501 -0.13333675315E+03  0.28957484939E+02  0.53389031862E+03  0.57726951936E+03  0.17200000000E+03 0.  1.
</event>
<event>
 4    1  0.3169553E-002  0.4223976E+03  0.7818608E-02  0.1036289E+00
          2   -1    0    0  502    0  0.00000000000E+00  0.00000000000E+00  0.83286465796E+03  0.83286465796E+03  0.00000000000E+00 0. -1.
         -2   -1    0    0    0  501 -0.00000000000E+00 -0.00000000000E+00 -0.26531002022E+03  0.26531002022E+03  0.00000000000E+00 0.  1.
          6    1    1    2  502    0  0.16818843336E+03 -0.34720073954E+03  0.52472075930E+03  0.67361085048E+03  0.17200000000E+03 0. -1.
         -6    1    1    2    0  501 -0.16818843336E+03  0.34720073954E+03  0.42833878446E+02  0.42456382770E+03  0.17200000000E+03 0.  1.
</event>
<event>
 4    1  0.3169553E-002  0.1921406E+03  0.7818608E-02  0.1156545E+00
          2   -1    0    0  502    0  0.00000000000E+00  0.00000000000E+00  0.11491153500E+04  0.11491153500E+04  0.00000000000E+00 0. -1.
         -2   -1    0    0    0  501 -0.00000000000E+00 -0.00000000000E+00 -0.32193827195E+02  0.32193827195E+02  0.00000000000E+00 0.  1.
          6    1    1    2  502    0  0.34189335467E+00  0.85638184471E+02  0.58530355446E+03  0.61603430619E+03  0.17200000000E+03 0. -1.
         -6    1    1    2    0  501 -0.34189335467E+00 -0.85638184471E+02  0.53161796833E+03  0.56527487100E+03  0.17200000000E+03 0.  1.
</event>
<event>
 4    1  0.3169553E-002  0.1959812E+03  0.7818608E-02  0.1153175E+00
          2   -1    0    0  502    0  0.00000000000E+00  0.00000000000E+00  0.12321911671E+04  0.12321911671E+04  0.00000000000E+00 0. -1.
         -2   -1    0    0    0  501 -0.00000000000E+00 -0.00000000000E+00 -0.78462128673E+02  0.78462128673E+02  0.00000000000E+00 0.  1.
          6    1    1    2  502    0 -0.49472075599E+02 -0.79857068096E+02  0.10856299560E+04  0.11031777006E+04  0.17200000000E+03 0. -1.
         -6    1    1    2    0  501  0.49472075599E+02  0.79857068096E+02  0.68099082414E+02  0.20747559523E+03  0.17200000000E+03 0.  1.
</event>
<event>
 4    1  0.3169553E-002  0.1994046E+03  0.7818608E-02  0.1150242E+00
          1   -1    0    0  502    0  0.00000000000E+00  0.00000000000E+00  0.49280620725E+03  0.49280620725E+03  0.00000000000E+00 0. -1.
         -1   -1    0    0    0  501 -0.00000000000E+00 -0.00000000000E+00 -0.17893428082E+03  0.17893428082E+03  0.00000000000E+00 0.  1.
          6    1    1    2  502    0  0.72955186513E+02  0.69683180354E+02  0.40581529594E+03  0.45215955069E+03  0.17200000000E+03 0. -1.
         -6    1    1    2    0  501 -0.72955186513E+02 -0.69683180354E+02 -0.91943369509E+02  0.21958093738E+03  0.17200000000E+03 0.  1.
</event>
<event>
 4    1  0.3169553E-002  0.2339212E+03  0.7818608E-02  0.1123910E+00
          2   -1    0    0  502    0  0.00000000000E+00  0.00000000000E+00  0.17549768380E+03  0.17549768380E+03  0.00000000000E+00 0. -1.
         -2   -1    0    0    0  501 -0.00000000000E+00 -0.00000000000E+00 -0.93512321012E+03  0.93512321012E+03  0.00000000000E+00 0.  1.
          6    1    1    2  502    0 -0.15053575609E+03  0.49740540107E+02  0.73564925997E+02  0.24521609557E+03  0.17200000000E+03 0. -1.
         -6    1    1    2    0  501  0.15053575609E+03 -0.49740540107E+02 -0.83319045231E+03  0.86540479836E+03  0.17200000000E+03 0.  1.
</event>
<event>
 4    1  0.3169553E-002  0.4678081E+03  0.7818608E-02  0.1022541E+00
         -2   -1    0    0    0  501 -0.00000000000E+00  0.00000000000E+00  0.20427303330E+03  0.20427303330E+03  0.00000000000E+00 0.  1.
          2   -1    0    0  502    0  0.00000000000E+00 -0.00000000000E+00 -0.37859875504E+04  0.37859875504E+04  0.00000000000E+00 0. -1.
          6    1    1    2  502    0  0.43341732373E+03  0.37547773099E+02 -0.34802824640E+04  0.35115823273E+04  0.17200000000E+03 0. -1.
         -6    1    1    2    0  501 -0.43341732373E+03 -0.37547773099E+02 -0.10143205306E+03  0.47867825642E+03  0.17200000000E+03 0.  1.
</event>
<event>
 4    1  0.3169553E-002  0.2607073E+03  0.7818608E-02  0.1106719E+00
         -2   -1    0    0    0  501 -0.00000000000E+00  0.00000000000E+00  0.12082127518E+03  0.12082127518E+03  0.00000000000E+00 0.  1.
          2   -1    0    0  502    0  0.00000000000E+00 -0.00000000000E+00 -0.10242326221E+04  0.10242326221E+04  0.00000000000E+00 0. -1.
          6    1    1    2  502    0  0.46140311966E+01  0.19586474419E+03 -0.83609145044E+03  0.87579518199E+03  0.17200000000E+03 0. -1.
         -6    1    1    2    0  501 -0.46140311966E+01 -0.19586474419E+03 -0.67319896487E+02  0.26925871530E+03  0.17200000000E+03 0.  1.
</event>
<event>
 4    1  0.3169553E-002  0.2975109E+03  0.7818608E-02  0.1086492E+00
         -1   -1    0    0    0  501 -0.00000000000E+00  0.00000000000E+00  0.48232360155E+02  0.48232360155E+02  0.00000000000E+00 0.  1.
          1   -1    0    0  502    0  0.00000000000E+00 -0.00000000000E+00 -0.29962201555E+04  0.29962201555E+04  0.00000000000E+00 0. -1.
          6    1    1    2  502    0 -0.17397544495E+03 -0.16929636548E+03 -0.24215939430E+04  0.24398012091E+04  0.17200000000E+03 0. -1.
         -6    1    1    2    0  501  0.17397544495E+03  0.16929636548E+03 -0.52639385230E+03  0.60465130658E+03  0.17200000000E+03 0.  1.
</event>
<event>
 4    1  0.3169553E-002  0.1968285E+03  0.7818608E-02  0.1152443E+00
          2   -1    0    0  502    0  0.00000000000E+00  0.00000000000E+00  0.10342780151E+04  0.10342780151E+04  0.00000000000E+00 0. -1.
         -2   -1    0    0    0  501 -0.00000000000E+00 -0.00000000000E+00 -0.43730153574E+02  0.43730153574E+02  0.00000000000E+00 0.  1.
          6    1    1    2  502    0  0.90063788009E+02 -0.32341304157E+02  0.29113399569E+03  0.35142630709E+03  0.17200000000E+03 0. -1.
         -6    1    1    2    0  501 -0.90063788009E+02  0.32341304157E+02  0.69941386580E+03  0.72658186155E+03  0.17200000000E+03 0. -1.
</event>
<event>
 4    1  0.3169553E-002  0.2452620E+03  0.7818608E-02  0.1116336E+00
          2   -1    0    0  502    0  0.00000000000E+00  0.00000000000E+00  0.19336684228E+04  0.19336684228E+04  0.00000000000E+00 0. -1.
         -2   -1    0    0    0  501 -0.00000000000E+00 -0.00000000000E+00 -0.31158773137E+02  0.31158773137E+02  0.00000000000E+00 0.  1.
          6    1    1    2  502    0 -0.14109167248E+03 -0.10325979529E+03  0.99073218059E+03  0.10206388681E+04  0.17200000000E+03 0. -1.
         -6    1    1    2    0  501  0.14109167248E+03  0.10325979529E+03  0.91177746911E+03  0.94418832790E+03  0.17200000000E+03 0.  1.
</event>
<event>
 4    1  0.3169553E-002  0.3059550E+03  0.7818608E-02  0.1082301E+00
         -2   -1    0    0    0  501 -0.00000000000E+00  0.00000000000E+00  0.21616812143E+03  0.21616812143E+03  0.00000000000E+00 0.  1.
          2   -1    0    0  502    0  0.00000000000E+00 -0.00000000000E+00 -0.57844516852E+03  0.57844516852E+03  0.00000000000E+00 0. -1.
          6    1    1    2  502    0 -0.15094063830E+03 -0.20307979637E+03 -0.38033942836E+03  0.48812555838E+03  0.17200000000E+03 0. -1.
         -6    1    1    2    0  501  0.15094063830E+03  0.20307979637E+03  0.18062381274E+02  0.30648773156E+03  0.17200000000E+03 0.  1.
</event>
<event>
 4    1  0.3169553E-002  0.3456065E+03  0.7818608E-02  0.1064433E+00
         -1   -1    0    0    0  501 -0.00000000000E+00  0.00000000000E+00  0.97866198528E+02  0.97866198528E+02  0.00000000000E+00 0.  1.
          1   -1    0    0  502    0  0.00000000000E+00 -0.00000000000E+00 -0.12207053989E+04  0.12207053989E+04  0.00000000000E+00 0. -1.
          6    1    1    2  502    0  0.83012213704E+01  0.29965133748E+03 -0.57035869677E+03  0.66689795120E+03  0.17200000000E+03 0. -1.
         -6    1    1    2    0  501 -0.83012213704E+01 -0.29965133748E+03 -0.55248050357E+03  0.65167364620E+03  0.17200000000E+03 0.  1.
</event>
<event>
 4    1  0.3169553E-002  0.2356154E+03  0.7818608E-02  0.1122749E+00
         -1   -1    0    0    0  501 -0.00000000000E+00  0.00000000000E+00  0.53770485190E+02  0.53770485190E+02  0.00000000000E+00 0.  1.
          1   -1    0    0  502    0  0.00000000000E+00 -0.00000000000E+00 -0.10718707208E+04  0.10718707208E+04  0.00000000000E+00 0. -1.
          6    1    1    2  502    0 -0.15529534259E+03 -0.42590616307E+02 -0.40109675297E+03  0.46518083502E+03  0.17200000000E+03 0. -1.
         -6    1    1    2    0  501  0.15529534259E+03  0.42590616307E+02 -0.61700348263E+03  0.66046037095E+03  0.17200000000E+03 0. -1.
</event>
<event>
 4    1  0.3169553E-002  0.5068755E+03  0.7818608E-02  0.1012000E+00
         -2   -1    0    0    0  501 -0.00000000000E+00  0.00000000000E+00  0.68510212442E+03  0.68510212442E+03  0.00000000000E+00 0.  1.
          2   -1    0    0  502    0  0.00000000000E+00 -0.00000000000E+00 -0.37983555191E+03  0.37983555191E+03  0.00000000000E+00 0. -1.
          6    1    1    2  502    0 -0.30155166219E+03  0.36933099036E+03  0.92640841056E+02  0.51527188051E+03  0.17200000000E+03 0. -1.
         -6    1    1    2    0  501  0.30155166219E+03 -0.36933099036E+03  0.21262573145E+03  0.54966579582E+03  0.17200000000E+03 0.  1.
</event>
<event>
 4    1  0.3169553E-002  0.7290111E+03  0.7818608E-02  0.9668866E-01
          2   -1    0    0  502    0  0.00000000000E+00  0.00000000000E+00  0.61799845928E+03  0.61799845928E+03  0.00000000000E+00 0. -1.
         -2   -1    0    0    0  501 -0.00000000000E+00 -0.00000000000E+00 -0.17117730312E+04  0.17117730312E+04  0.00000000000E+00 0.  1.
          6    1    1    2  502    0 -0.43150035434E+03  0.56185462870E+03  0.27484632417E+03  0.77910055930E+03  0.17200000000E+03 0. -1.
         -6    1    1    2    0  501  0.43150035434E+03 -0.56185462870E+03 -0.13686208961E+04  0.15506709312E+04  0.17200000000E+03 0.  1.
</event>
<event>
 4    1  0.3169553E-002  0.3590401E+03  0.7818608E-02  0.1058965E+00
          2   -1    0    0  502    0  0.00000000000E+00  0.00000000000E+00  0.50523515311E+03  0.50523515311E+03  0.00000000000E+00 0. -1.
         -2   -1    0    0    0  501 -0.00000000000E+00 -0.00000000000E+00 -0.25689098054E+03  0.25689098054E+03  0.00000000000E+00 0.  1.
          6    1    1    2  502    0 -0.20768236966E+03  0.23705231409E+03  0.15555996264E+03  0.39129102757E+03  0.17200000000E+03 0. -1.
         -6    1    1    2    0  501  0.20768236966E+03 -0.23705231409E+03  0.92784209930E+02  0.37083510607E+03  0.17200000000E+03 0.  1.
</event>
<event>
 4    1  0.3169553E-002  0.2367298E+03  0.7818608E-02  0.1121991E+00
         -3   -1    0    0    0  501 -0.00000000000E+00  0.00000000000E+00  0.94955833888E+03  0.94955833888E+03  0.00000000000E+00 0.  1.
          3   -1    0    0  502    0  0.00000000000E+00 -0.00000000000E+00 -0.59038282392E+02  0.59038282392E+02  0.00000000000E+00 0. -1.
          6    1    1    2  502    0 -0.10223643983E+03  0.12650969266E+03  0.45461740545E+03  0.51256021822E+03  0.17200000000E+03 0. -1.
         -6    1    1    2    0  501  0.10223643983E+03 -0.12650969266E+03  0.43590265104E+03  0.49603640305E+03  0.17200000000E+03 0.  1.
</event>
<event>
 4    1  0.3169553E-002  0.2602362E+03  0.7818608E-02  0.1107001E+00
         -1   -1    0    0    0  501 -0.00000000000E+00  0.00000000000E+00  0.13111209333E+04  0.13111209333E+04  0.00000000000E+00 0.  1.
          1   -1    0    0  502    0  0.00000000000E+00 -0.00000000000E+00 -0.57821588767E+02  0.57821588767E+02  0.00000000000E+00 0. -1.
          6    1    1    2  502    0  0.14900984101E+03 -0.12623366611E+03  0.40307869559E+03  0.47978672972E+03  0.17200000000E+03 0. -1.
         -6    1    1    2    0  501 -0.14900984101E+03  0.12623366611E+03  0.85022064893E+03  0.88915579234E+03  0.17200000000E+03 0.  1.
</event>
<event>
 4    1  0.3169553E-002  0.2729940E+03  0.7818608E-02  0.1099578E+00
          3   -1    0    0  502    0  0.00000000000E+00  0.00000000000E+00  0.18755717959E+03  0.18755717959E+03  0.00000000000E+00 0. -1.
         -3   -1    0    0    0  501 -0.00000000000E+00 -0.00000000000E+00 -0.39876240215E+03  0.39876240215E+03  0.00000000000E+00 0.  1.
          6    1    1    2  502    0  0.10477512089E+03  0.18429293318E+03 -0.12305425790E+03  0.29944625823E+03  0.17200000000E+03 0. -1.
         -6    1    1    2    0  501 -0.10477512089E+03 -0.18429293318E+03 -0.88150964657E+02  0.28687332352E+03  0.17200000000E+03 0.  1.
</event>
<event>
 4    1  0.3169553E-002  0.2073823E+03  0.7818608E-02  0.1143656E+00
         -1   -1    0    0    0  501 -0.00000000000E+00  0.00000000000E+00  0.19739189954E+03  0.19739189954E+03  0.00000000000E+00 0.  1.
          1   -1    0    0  502    0  0.00000000000E+00 -0.00000000000E+00 -0.44439783286E+03  0.44439783286E+03  0.00000000000E+00 0. -1.
          6    1    1    2  502    0 -0.52086275308E+01  0.11574239189E+03 -0.35260531274E+03  0.40906960001E+03  0.17200000000E+03 0. -1.
         -6    1    1    2    0  501  0.52086275308E+01 -0.11574239189E+03  0.10559937942E+03  0.23272013238E+03  0.17200000000E+03 0.  1.
</event>
<event>
 4    1  0.3169553E-002  0.3161621E+03  0.7818608E-02  0.1077429E+00
          1   -1    0    0  502    0  0.00000000000E+00  0.00000000000E+00  0.63729643716E+03  0.63729643716E+03  0.00000000000E+00 0. -1.
         -1   -1    0    0    0  501 -0.00000000000E+00 -0.00000000000E+00 -0.77314744315E+03  0.77314744315E+03  0.00000000000E+00 0.  1.
          6    1    1    2  502    0 -0.25191612481E+03  0.83142813562E+02  0.56171210021E+03  0.64457656249E+03  0.17200000000E+03 0. -1.
         -6    1    1    2    0  501  0.25191612481E+03 -0.83142813562E+02 -0.69756310620E+03  0.76586731782E+03  0.17200000000E+03 0.  1.
</event>
<event>
 4    1  0.3169553E-002  0.2315471E+03  0.7818608E-02  0.1125556E+00
          2   -1    0    0  502    0  0.00000000000E+00  0.00000000000E+00  0.20892490268E+03  0.20892490268E+03  0.00000000000E+00 0. -1.
         -2   -1    0    0    0  501 -0.00000000000E+00 -0.00000000000E+00 -0.72022774913E+03  0.72022774913E+03  0.00000000000E+00 0.  1.
          6    1    1    2  502    0  0.14421980141E+03  0.56839214462E+02  0.11708177749E+03  0.25946520006E+03  0.17200000000E+03 0. -1.
         -6    1    1    2    0  501 -0.14421980141E+03 -0.56839214462E+02 -0.62838462394E+03  0.66968745175E+03  0.17200000000E+03 0.  1.
</event>
<event>
 4    1  0.3169553E-002  0.1954305E+03  0.7818608E-02  0.1153653E+00
          1   -1    0    0  502    0  0.00000000000E+00  0.00000000000E+00  0.15964068115E+03  0.15964068115E+03  0.00000000000E+00 0. -1.
         -1   -1    0    0    0  501 -0.00000000000E+00 -0.00000000000E+00 -0.38440419118E+03  0.38440419118E+03  0.00000000000E+00 0.  1.
          6    1    1    2  502    0  0.81969055154E+02 -0.43476011402E+02  0.54778990355E+02  0.20296262551E+03  0.17200000000E+03 0. -1.
         -6    1    1    2    0  501 -0.81969055154E+02  0.43476011402E+02 -0.27954250039E+03  0.34108224682E+03  0.17200000000E+03 0.  1.
</event>
<event>
 4    1  0.3169553E-002  0.1897975E+03  0.7818608E-02  0.1158644E+00
         -3   -1    0    0    0  501 -0.00000000000E+00  0.00000000000E+00  0.13837738358E+03  0.13837738358E+03  0.00000000000E+00 0.  1.
          3   -1    0    0  502    0  0.00000000000E+00 -0.00000000000E+00 -0.26743157712E+03  0.26743157712E+03  0.00000000000E+00 0. -1.
          6    1    1    2  502    0 -0.24730869150E+01 -0.80205858054E+02 -0.31450960695E+02  0.19238570309E+03  0.17200000000E+03 0.  1.
         -6    1    1    2    0  501  0.24730869150E+01  0.80205858054E+02 -0.97603232853E+02  0.21342325761E+03  0.17200000000E+03 0. -1.
</event>
<event>
 4    1  0.3169553E-002  0.2192506E+03  0.7818608E-02  0.1134443E+00
         -1   -1    0    0    0  501 -0.00000000000E+00  0.00000000000E+00  0.75836641460E+02  0.75836641460E+02  0.00000000000E+00 0.  1.
          1   -1    0    0  502    0  0.00000000000E+00 -0.00000000000E+00 -0.79315784793E+03  0.79315784793E+03  0.00000000000E+00 0. -1.
          6    1    1    2  502    0 -0.13422645655E+03 -0.21681530860E+02 -0.55337312862E+03  0.59522487339E+03  0.17200000000E+03 0. -1.
         -6    1    1    2    0  501  0.13422645655E+03  0.21681530860E+02 -0.16394807785E+03  0.27376961601E+03  0.17200000000E+03 0.  1.
</event>
<event>
 4    1  0.3169553E-002  0.1959692E+03  0.7818608E-02  0.1153185E+00
         -2   -1    0    0    0  501 -0.00000000000E+00  0.00000000000E+00  0.77395706623E+02  0.77395706623E+02  0.00000000000E+00 0.  1.
          2   -1    0    0  502    0  0.00000000000E+00 -0.00000000000E+00 -0.73635378334E+03  0.73635378334E+03  0.00000000000E+00 0. -1.
          6    1    1    2  502    0  0.56250348840E+02 -0.75205308250E+02 -0.56183828684E+03  0.59503462143E+03  0.17200000000E+03 0. -1.
         -6    1    1    2    0  501 -0.56250348840E+02  0.75205308250E+02 -0.97119789875E+02  0.21871486854E+03  0.17200000000E+03 0.  1.
</event>
<event>
 4    1  0.3169553E-002  0.2545936E+03  0.7818608E-02  0.1110436E+00
         -3   -1    0    0    0  501 -0.00000000000E+00  0.00000000000E+00  0.13126204679E+04  0.13126204679E+04  0.00000000000E+00 0.  1.
          3   -1    0    0  502    0  0.00000000000E+00 -0.00000000000E+00 -0.23509953146E+03  0.23509953146E+03  0.00000000000E+00 0. -1.
          6    1    1    2  502    0 -0.12573627591E+03 -0.13937106694E+03 -0.14904350020E+03  0.29501164440E+03  0.17200000000E+03 0. -1.
         -6    1    1    2    0  501  0.12573627591E+03  0.13937106694E+03  0.12265644367E+04  0.12527083550E+04  0.17200000000E+03 0.  1.
</event>
<event>
 4    1  0.3169553E-002  0.1789560E+03  0.7818608E-02  0.1168817E+00
          2   -1    0    0  502    0  0.00000000000E+00  0.00000000000E+00  0.45437948884E+02  0.45437948884E+02  0.00000000000E+00 0. -1.
         -2   -1    0    0    0  501 -0.00000000000E+00 -0.00000000000E+00 -0.71406818420E+03  0.71406818420E+03  0.00000000000E+00 0.  1.
          6    1    1    2  502    0 -0.22699290869E+02 -0.43886066482E+02 -0.37754961354E+03  0.41781449870E+03  0.17200000000E+03 0.  1.
         -6    1    1    2    0  501  0.22699290869E+02  0.43886066482E+02 -0.29108062178E+03  0.34169163439E+03  0.17200000000E+03 0. -1.
</event>
<event>
 4    1  0.3169553E-002  0.1767349E+03  0.7818608E-02  0.1171001E+00
         -4   -1    0    0    0  501 -0.00000000000E+00  0.00000000000E+00  0.14764068698E+04  0.14764068698E+04  0.00000000000E+00 0.  1.
          4   -1    0    0  502    0  0.00000000000E+00 -0.00000000000E+00 -0.23294744425E+02  0.23294744425E+02  0.00000000000E+00 0. -1.
          6    1    1    2  502    0 -0.23454496539E+02  0.33182778087E+02  0.49935962970E+03  0.52971242193E+03  0.17200000000E+03 0. -1.
         -6    1    1    2    0  501  0.23454496539E+02 -0.33182778087E+02  0.95375249565E+03  0.96998919227E+03  0.17200000000E+03 0.  1.
</event>
<event>
 4    1  0.3169553E-002  0.3768761E+03  0.7818608E-02  0.1052094E+00
          2   -1    0    0  502    0  0.00000000000E+00  0.00000000000E+00  0.58327138229E+03  0.58327138229E+03  0.00000000000E+00 0. -1.
         -2   -1    0    0    0  501 -0.00000000000E+00 -0.00000000000E+00 -0.31472525570E+03  0.31472525570E+03  0.00000000000E+00 0.  1.
          6    1    1    2  502    0 -0.21606669960E+03  0.25645037321E+03  0.34784722782E+03  0.51286772807E+03  0.17200000000E+03 0. -1.
         -6    1    1    2    0  501  0.21606669960E+03 -0.25645037321E+03 -0.79301101229E+02  0.38512890991E+03  0.17200000000E+03 0.  1.
</event>
<event>
 4    1  0.3169553E-002  0.2278862E+03  0.7818608E-02  0.1128136E+00
          1   -1    0    0  502    0  0.00000000000E+00  0.00000000000E+00  0.46184517169E+03  0.46184517169E+03  0.00000000000E+00 0. -1.
         -1   -1    0    0    0  501 -0.00000000000E+00 -0.00000000000E+00 -0.11307130806E+03  0.11307130806E+03  0.00000000000E+00 0.  1.
          6    1    1    2  502    0  0.32764782336E+02  0.14585810905E+03  0.19578322979E+03  0.30043833311E+03  0.17200000000E+03 0. -1.
         -6    1    1    2    0  501 -0.32764782336E+02 -0.14585810905E+03  0.15299063384E+03  0.27447814663E+03  0.17200000000E+03 0.  1.
</event>
<event>
 4    1  0.3169553E-002  0.1856536E+03  0.7818608E-02  0.1162441E+00
         -2   -1    0    0    0  501 -0.00000000000E+00  0.00000000000E+00  0.10362184998E+03  0.10362184998E+03  0.00000000000E+00 0.  1.
          2   -1    0    0  502    0  0.00000000000E+00 -0.00000000000E+00 -0.10576986140E+04  0.10576986140E+04  0.00000000000E+00 0. -1.
          6    1    1    2  502    0  0.57072641690E+01  0.69646857620E+02 -0.95780250520E+03  0.97562948736E+03  0.17200000000E+03 0. -1.
         -6    1    1    2    0  501 -0.57072641690E+01 -0.69646857620E+02  0.37257411970E+01  0.18569097659E+03  0.17200000000E+03 0.  1.
</event>
<event>
 4    1  0.3169553E-002  0.2044816E+03  0.7818608E-02  0.1146012E+00
          1   -1    0    0  502    0  0.00000000000E+00  0.00000000000E+00  0.30783342885E+03  0.30783342885E+03  0.00000000000E+00 0. -1.
         -1   -1    0    0    0  501 -0.00000000000E+00 -0.00000000000E+00 -0.61324271454E+03  0.61324271454E+03  0.00000000000E+00 0.  1.
          6    1    1    2  502    0 -0.97490709993E+02 -0.52194744861E+02  0.25364206986E+03  0.32580213248E+03  0.17200000000E+03 0. -1.
         -6    1    1    2    0  501  0.97490709993E+02  0.52194744861E+02 -0.55905135555E+03  0.59527401092E+03  0.17200000000E+03 0.  1.
</event>
<event>
 4    1  0.3169553E-002  0.2246356E+03  0.7818608E-02  0.1130473E+00
          2   -1    0    0  502    0  0.00000000000E+00  0.00000000000E+00  0.41985035682E+03  0.41985035682E+03  0.00000000000E+00 0. -1.
         -2   -1    0    0    0  501 -0.00000000000E+00 -0.00000000000E+00 -0.12365161579E+03  0.12365161579E+03  0.00000000000E+00 0.  1.
          6    1    1    2  502    0  0.96995355296E+02 -0.10709358408E+03  0.10262023601E+03  0.24696568089E+03  0.17200000000E+03 0.  1.
         -6    1    1    2    0  501 -0.96995355296E+02  0.10709358408E+03  0.19357850501E+03  0.29653629171E+03  0.17200000000E+03 0. -1.
</event>
<event>
 4    1  0.3169553E-002  0.3307934E+03  0.7818608E-02  0.1070786E+00
         -1   -1    0    0    0  501 -0.00000000000E+00  0.00000000000E+00  0.51431282072E+03  0.51431282072E+03  0.00000000000E+00 0.  1.
          1   -1    0    0  502    0  0.00000000000E+00 -0.00000000000E+00 -0.39340553476E+03  0.39340553476E+03  0.00000000000E+00 0. -1.
          6    1    1    2  502    0 -0.90806196649E+02  0.26757147270E+03 -0.24709703982E+03  0.41289369751E+03  0.17200000000E+03 0. -1.
         -6    1    1    2    0  501  0.90806196649E+02 -0.26757147270E+03  0.36800432577E+03  0.49482465798E+03  0.17200000000E+03 0.  1.
</event>
<event>
 4    1  0.3169553E-002  0.2625146E+03  0.7818608E-02  0.1105642E+00
          1   -1    0    0  502    0  0.00000000000E+00  0.00000000000E+00  0.39159698927E+03  0.39159698927E+03  0.00000000000E+00 0. -1.
         -1   -1    0    0    0  501 -0.00000000000E+00 -0.00000000000E+00 -0.42291085096E+03  0.42291085096E+03  0.00000000000E+00 0.  1.
          6    1    1    2  502    0 -0.13314443384E+03 -0.14697787860E+03  0.29553402480E+03  0.39529014265E+03  0.17200000000E+03 0. -1.
         -6    1    1    2    0  501  0.13314443384E+03  0.14697787860E+03 -0.32684788649E+03  0.41921769758E+03  0.17200000000E+03 0.  1.
</event>
<event>
 4    1  0.3169553E-002  0.1884990E+03  0.7818608E-02  0.1159822E+00
         -2   -1    0    0    0  501 -0.00000000000E+00  0.00000000000E+00  0.33617229435E+02  0.33617229435E+02  0.00000000000E+00 0.  1.
          2   -1    0    0  502    0  0.00000000000E+00 -0.00000000000E+00 -0.11499121372E+04  0.11499121372E+04  0.00000000000E+00 0. -1.
          6    1    1    2  502    0  0.19276442645E+02  0.74674450465E+02 -0.72639980339E+03  0.75045887906E+03  0.17200000000E+03 0. -1.
         -6    1    1    2    0  501 -0.19276442645E+02 -0.74674450465E+02 -0.38989510437E+03  0.43307048757E+03  0.17200000000E+03 0.  1.
</event>
<event>
 4    1  0.3169553E-002  0.3049236E+03  0.7818608E-02  0.1082805E+00
         -1   -1    0    0    0  501 -0.00000000000E+00  0.00000000000E+00  0.66772794598E+03  0.66772794598E+03  0.00000000000E+00 0.  1.
          1   -1    0    0  502    0  0.00000000000E+00 -0.00000000000E+00 -0.33834063839E+03  0.33834063839E+03  0.00000000000E+00 0. -1.
          6    1    1    2  502    0  0.23042882316E+03 -0.10147381866E+03 -0.22118468659E+03  0.37669754977E+03  0.17200000000E+03 0. -1.
         -6    1    1    2    0  501 -0.23042882316E+03  0.10147381866E+03  0.55057199418E+03  0.62937103460E+03  0.17200000000E+03 0.  1.
</event>
<event>
 4    1  0.3169553E-002  0.3342643E+03  0.7818608E-02  0.1069265E+00
         -2   -1    0    0    0  501 -0.00000000000E+00  0.00000000000E+00  0.10351344266E+03  0.10351344266E+03  0.00000000000E+00 0.  1.
          2   -1    0    0  502    0  0.00000000000E+00 -0.00000000000E+00 -0.10908677657E+04  0.10908677657E+04  0.00000000000E+00 0. -1.
          6    1    1    2  502    0 -0.55569279146E+02 -0.28117735209E+03 -0.55490131048E+03  0.64780252584E+03  0.17200000000E+03 0. -1.
         -6    1    1    2    0  501  0.55569279146E+02  0.28117735209E+03 -0.43245301256E+03  0.54657868252E+03  0.17200000000E+03 0.  1.
</event>
<event>
 4    1  0.3169553E-002  0.2280981E+03  0.7818608E-02  0.1127986E+00
          2   -1    0    0  502    0  0.00000000000E+00  0.00000000000E+00  0.14132733874E+03  0.14132733874E+03  0.00000000000E+00 0. -1.
         -2   -1    0    0    0  501 -0.00000000000E+00 -0.00000000000E+00 -0.46935694463E+03  0.46935694463E+03  0.00000000000E+00 0.  1.
          6    1    1    2  502    0  0.29230564348E+02 -0.14693647178E+03 -0.30580756147E+03  0.38150624802E+03  0.17200000000E+03 0.  1.
         -6    1    1    2    0  501 -0.29230564348E+02  0.14693647178E+03 -0.22222044427E+02  0.22917803535E+03  0.17200000000E+03 0. -1.
</event>
<event>
 4    1  0.3169553E-002  0.3930347E+03  0.7818608E-02  0.1046219E+00
          1   -1    0    0  502    0  0.00000000000E+00  0.00000000000E+00  0.21977503859E+03  0.21977503859E+03  0.00000000000E+00 0. -1.
         -1   -1    0    0    0  501 -0.00000000000E+00 -0.00000000000E+00 -0.72009568700E+03  0.72009568700E+03  0.00000000000E+00 0.  1.
          6    1    1    2  502    0 -0.18908486334E+02  0.35289483970E+03 -0.17750655390E+03  0.43125963806E+03  0.17200000000E+03 0. -1.
         -6    1    1    2    0  501  0.18908486334E+02 -0.35289483970E+03 -0.32281409451E+03  0.50861108753E+03  0.17200000000E+03 0.  1.
</event>
<event>
 4    1  0.3169553E-002  0.5531047E+03  0.7818608E-02  0.1000778E+00
         -1   -1    0    0    0  501 -0.00000000000E+00  0.00000000000E+00  0.52126516411E+03  0.52126516411E+03  0.00000000000E+00 0.  1.
          1   -1    0    0  502    0  0.00000000000E+00 -0.00000000000E+00 -0.60035643919E+03  0.60035643919E+03  0.00000000000E+00 0. -1.
          6    1    1    2  502    0  0.32707529111E+03  0.41153678516E+03 -0.12354091950E+03  0.56673373852E+03  0.17200000000E+03 0. -1.
         -6    1    1    2    0  501 -0.32707529111E+03 -0.41153678516E+03  0.44449644427E+02  0.55488786478E+03  0.17200000000E+03 0.  1.
</event>
<event>
 4    1  0.3169553E-002  0.4090443E+03  0.7818608E-02  0.1040692E+00
          2   -1    0    0  502    0  0.00000000000E+00  0.00000000000E+00  0.27368739848E+04  0.27368739848E+04  0.00000000000E+00 0. -1.
         -2   -1    0    0    0  501 -0.00000000000E+00 -0.00000000000E+00 -0.88930199754E+02  0.88930199754E+02  0.00000000000E+00 0.  1.
          6    1    1    2  502    0  0.31368352455E+03  0.19833271135E+03  0.21138804603E+04  0.21530926172E+04  0.17200000000E+03 0. -1.
         -6    1    1    2    0  501 -0.31368352455E+03 -0.19833271135E+03  0.53406332475E+03  0.67271156732E+03  0.17200000000E+03 0.  1.
</event>
<event>
 4    1  0.3169553E-002  0.2432546E+03  0.7818608E-02  0.1117643E+00
          1   -1    0    0  502    0  0.00000000000E+00  0.00000000000E+00  0.37220323782E+03  0.37220323782E+03  0.00000000000E+00 0. -1.
         -1   -1    0    0    0  501 -0.00000000000E+00 -0.00000000000E+00 -0.19182244625E+03  0.19182244625E+03  0.00000000000E+00 0.  1.
          6    1    1    2  502    0 -0.12832003084E+03 -0.11455472939E+03  0.20688153724E+03  0.31933178169E+03  0.17200000000E+03 0. -1.
         -6    1    1    2    0  501  0.12832003084E+03  0.11455472939E+03 -0.26500745680E+02  0.24469390238E+03  0.17200000000E+03 0.  1.
</event>
<event>
 4    1  0.3169553E-002  0.1873888E+03  0.7818608E-02  0.1160838E+00
         -1   -1    0    0    0  501 -0.00000000000E+00  0.00000000000E+00  0.22302591469E+03  0.22302591469E+03  0.00000000000E+00 0.  1.
          1   -1    0    0  502    0  0.00000000000E+00 -0.00000000000E+00 -0.16739160202E+03  0.16739160202E+03  0.00000000000E+00 0. -1.
          6    1    1    2  502    0 -0.42480983504E+02 -0.61040467225E+02 -0.19765056303E+02  0.18842831541E+03  0.17200000000E+03 0. -1.
         -6    1    1    2    0  501  0.42480983504E+02  0.61040467225E+02  0.75399368970E+02  0.20198920129E+03  0.17200000000E+03 0.  1.
</event>
<event>
 4    1  0.3169553E-002  0.2306613E+03  0.7818608E-02  0.1126175E+00
          1   -1    0    0  502    0  0.00000000000E+00  0.00000000000E+00  0.32718555456E+03  0.32718555456E+03  0.00000000000E+00 0. -1.
         -1   -1    0    0    0  501 -0.00000000000E+00 -0.00000000000E+00 -0.16515625354E+03  0.16515625354E+03  0.00000000000E+00 0.  1.
          6    1    1    2  502    0 -0.16222154258E+00  0.15369000294E+03  0.11156239496E+03  0.25622414267E+03  0.17200000000E+03 0. -1.
         -6    1    1    2    0  501  0.16222154258E+00 -0.15369000294E+03  0.50466906056E+02  0.23611766543E+03  0.17200000000E+03 0.  1.
</event>
<event>
 4    1  0.3169553E-002  0.1884439E+03  0.7818608E-02  0.1159872E+00
         -1   -1    0    0    0  501 -0.00000000000E+00  0.00000000000E+00  0.17778503551E+02  0.17778503551E+02  0.00000000000E+00 0.  1.
          1   -1    0    0  502    0  0.00000000000E+00 -0.00000000000E+00 -0.27496385130E+04  0.27496385130E+04  0.00000000000E+00 0. -1.
          6    1    1    2  502    0  0.25286222116E+02  0.72716564901E+02 -0.64219500120E+03  0.66927237461E+03  0.17200000000E+03 0.  1.
         -6    1    1    2    0  501 -0.25286222116E+02 -0.72716564901E+02 -0.20896650082E+04  0.20981446419E+04  0.17200000000E+03 0. -1.
</event>
<event>
 4    1  0.3169553E-002  0.7465257E+03  0.7818608E-02  0.9640817E-01
         -2   -1    0    0    0  501 -0.00000000000E+00  0.00000000000E+00  0.69817453465E+03  0.69817453465E+03  0.00000000000E+00 0.  1.
          2   -1    0    0  502    0  0.00000000000E+00 -0.00000000000E+00 -0.11826237020E+04  0.11826237020E+04  0.00000000000E+00 0. -1.
          6    1    1    2  502    0 -0.61044667299E+03 -0.39379120329E+03 -0.77836636136E+03  0.10784965669E+04  0.17200000000E+03 0. -1.
         -6    1    1    2    0  501  0.61044667299E+03  0.39379120329E+03  0.29391719399E+03  0.80230166975E+03  0.17200000000E+03 0.  1.
</event>
<event>
 4    1  0.3169553E-002  0.1849105E+03  0.7818608E-02  0.1163134E+00
         -1   -1    0    0    0  501 -0.00000000000E+00  0.00000000000E+00  0.14188144744E+02  0.14188144744E+02  0.00000000000E+00 0.  1.
          1   -1    0    0  502    0  0.00000000000E+00 -0.00000000000E+00 -0.25640328934E+04  0.25640328934E+04  0.00000000000E+00 0. -1.
          6    1    1    2  502    0 -0.59838821006E+01 -0.67617082361E+02 -0.15909967304E+04  0.16017061131E+04  0.17200000000E+03 0. -1.
         -6    1    1    2    0  501  0.59838821006E+01  0.67617082361E+02 -0.95884801821E+03  0.97651492498E+03  0.17200000000E+03 0. -1.
</event>
<event>
 4    1  0.3169553E-002  0.1824172E+03  0.7818608E-02  0.1165484E+00
          1   -1    0    0  502    0  0.00000000000E+00  0.00000000000E+00  0.92254320891E+03  0.92254320891E+03  0.00000000000E+00 0. -1.
         -1   -1    0    0    0  501 -0.00000000000E+00 -0.00000000000E+00 -0.72256400401E+02  0.72256400401E+02  0.00000000000E+00 0.  1.
          6    1    1    2  502    0 -0.37434764039E+02 -0.47860789649E+02  0.77714197577E+03  0.79826415882E+03  0.17200000000E+03 0. -1.
         -6    1    1    2    0  501  0.37434764039E+02  0.47860789649E+02  0.73144832735E+02  0.19653545049E+03  0.17200000000E+03 0.  1.
</event>
<event>
 4    1  0.3169553E-002  0.1905285E+03  0.7818608E-02  0.1157986E+00
         -2   -1    0    0    0  501 -0.00000000000E+00  0.00000000000E+00  0.21794722645E+02  0.21794722645E+02  0.00000000000E+00 0.  1.
          2   -1    0    0  502    0  0.00000000000E+00 -0.00000000000E+00 -0.25698925907E+04  0.25698925907E+04  0.00000000000E+00 0. -1.
          6    1    1    2  502    0 -0.41810653746E+02 -0.70490948840E+02 -0.20427396751E+04  0.20516058307E+04  0.17200000000E+03 0. -1.
         -6    1    1    2    0  501  0.41810653746E+02  0.70490948840E+02 -0.50535819303E+03  0.54008148264E+03  0.17200000000E+03 0.  1.
</event>
<event>
 4    1  0.3169553E-002  0.1898547E+03  0.7818608E-02  0.1158592E+00
         -2   -1    0    0    0  501 -0.00000000000E+00  0.00000000000E+00  0.10591547726E+03  0.10591547726E+03  0.00000000000E+00 0.  1.
          2   -1    0    0  502    0  0.00000000000E+00 -0.00000000000E+00 -0.56644693624E+03  0.56644693624E+03  0.00000000000E+00 0. -1.
          6    1    1    2  502    0 -0.78663340658E+02 -0.16519387926E+02 -0.44267481190E+03  0.48166980436E+03  0.17200000000E+03 0. -1.
         -6    1    1    2    0  501  0.78663340658E+02  0.16519387926E+02 -0.17856647084E+02  0.19069260915E+03  0.17200000000E+03 0.  1.
</event>
<event>
 4    1  0.3169553E-002  0.3101481E+03  0.7818608E-02  0.1080275E+00
         -1   -1    0    0    0  501 -0.00000000000E+00  0.00000000000E+00  0.20395015210E+03  0.20395015210E+03  0.00000000000E+00 0.  1.
          1   -1    0    0  502    0  0.00000000000E+00 -0.00000000000E+00 -0.11256003396E+04  0.11256003396E+04  0.00000000000E+00 0. -1.
          6    1    1    2  502    0 -0.21273080914E+03 -0.14612821162E+03 -0.96753235955E+03  0.10160269279E+04  0.17200000000E+03 0. -1.
         -6    1    1    2    0  501  0.21273080914E+03  0.14612821162E+03  0.45882172013E+02  0.31352356387E+03  0.17200000000E+03 0.  1.
</event>
<event>
 4    1  0.3169553E-002  0.3766753E+03  0.7818608E-02  0.1052169E+00
          1   -1    0    0  502    0  0.00000000000E+00  0.00000000000E+00  0.67300004420E+03  0.67300004420E+03  0.00000000000E+00 0. -1.
         -1   -1    0    0    0  501 -0.00000000000E+00 -0.00000000000E+00 -0.95985803808E+03  0.95985803808E+03  0.00000000000E+00 0.  1.
          6    1    1    2  502    0 -0.21478974088E+03  0.25722690129E+03  0.57778778864E+03  0.68972678666E+03  0.17200000000E+03 0. -1.
         -6    1    1    2    0  501  0.21478974088E+03 -0.25722690129E+03 -0.86464578253E+03  0.94313129562E+03  0.17200000000E+03 0.  1.
</event>
<event>
 4    1  0.3169553E-002  0.4078277E+03  0.7818608E-02  0.1041102E+00
         -2   -1    0    0    0  501 -0.00000000000E+00  0.00000000000E+00  0.74514304215E+03  0.74514304215E+03  0.00000000000E+00 0.  1.
          2   -1    0    0  502    0  0.00000000000E+00 -0.00000000000E+00 -0.27939083728E+03  0.27939083728E+03  0.00000000000E+00 0. -1.
          6    1    1    2  502    0 -0.36876811076E+03 -0.27376674251E+02  0.31638123341E+01  0.40783993369E+03  0.17200000000E+03 0. -1.
         -6    1    1    2    0  501  0.36876811076E+03  0.27376674251E+02  0.46258839254E+03  0.61669394574E+03  0.17200000000E+03 0.  1.
</event>
<event>
 4    1  0.3169553E-002  0.1966611E+03  0.7818608E-02  0.1152587E+00
          2   -1    0    0  502    0  0.00000000000E+00  0.00000000000E+00  0.20283991898E+04  0.20283991898E+04  0.00000000000E+00 0. -1.
         -2   -1    0    0    0  501 -0.00000000000E+00 -0.00000000000E+00 -0.32007155311E+02  0.32007155311E+02  0.00000000000E+00 0.  1.
          6    1    1    2  502    0 -0.34250839087E+02  0.88985772636E+02  0.34315535727E+03  0.39551382647E+03  0.17200000000E+03 0.  1.
         -6    1    1    2    0  501  0.34250839087E+02 -0.88985772636E+02  0.16532366772E+04  0.16648925186E+04  0.17200000000E+03 0. -1.
</event>
<event>
 4    1  0.3169553E-002  0.3205723E+03  0.7818608E-02  0.1075386E+00
          2   -1    0    0  502    0  0.00000000000E+00  0.00000000000E+00  0.20811612619E+03  0.20811612619E+03  0.00000000000E+00 0. -1.
         -2   -1    0    0    0  501 -0.00000000000E+00 -0.00000000000E+00 -0.49434240643E+03  0.49434240643E+03  0.00000000000E+00 0.  1.
          6    1    1    2  502    0 -0.17839535109E+03 -0.20336599845E+03 -0.13142168034E+03  0.34646542206E+03  0.17200000000E+03 0. -1.
         -6    1    1    2    0  501  0.17839535109E+03  0.20336599845E+03 -0.15480459991E+03  0.35599311057E+03  0.17200000000E+03 0.  1.
</event>
<event>
 4    1  0.3169553E-002  0.2101074E+03  0.7818608E-02  0.1141481E+00
          1   -1    0    0  502    0  0.00000000000E+00  0.00000000000E+00  0.31564428618E+03  0.31564428618E+03  0.00000000000E+00 0. -1.
         -1   -1    0    0    0  501 -0.00000000000E+00 -0.00000000000E+00 -0.14269319436E+03  0.14269319436E+03  0.00000000000E+00 0.  1.
          6    1    1    2  502    0  0.11134074998E+03  0.46522654001E+02  0.11878338516E+03  0.24135992321E+03  0.17200000000E+03 0. -1.
         -6    1    1    2    0  501 -0.11134074998E+03 -0.46522654001E+02  0.54167706655E+02  0.21697755733E+03  0.17200000000E+03 0.  1.
</event>
<event>
 4    1  0.3169553E-002  0.2758928E+03  0.7818608E-02  0.1097954E+00
         -2   -1    0    0    0  501 -0.00000000000E+00  0.00000000000E+00  0.31037535743E+02  0.31037535743E+02  0.00000000000E+00 0.  1.
          2   -1    0    0  502    0  0.00000000000E+00 -0.00000000000E+00 -0.25927207318E+04  0.25927207318E+04  0.00000000000E+00 0. -1.
          6    1    1    2  502    0  0.17407228102E+03 -0.12740353615E+03 -0.97565984992E+03  0.10139176312E+04  0.17200000000E+03 0. -1.
         -6    1    1    2    0  501 -0.17407228102E+03  0.12740353615E+03 -0.15860233462E+04  0.16098406364E+04  0.17200000000E+03 0.  1.
</event>
<event>
 4    1  0.3169553E-002  0.2119071E+03  0.7818608E-02  0.1140065E+00
          2   -1    0    0  502    0  0.00000000000E+00  0.00000000000E+00  0.17095130010E+04  0.17095130010E+04  0.00000000000E+00 0. -1.
         -2   -1    0    0    0  501 -0.00000000000E+00 -0.00000000000E+00 -0.51498446093E+02  0.51498446093E+02  0.00000000000E+00 0.  1.
          6    1    1    2  502    0  0.12366842083E+03  0.51705682497E+01  0.14453212131E+04  0.14607730906E+04  0.17200000000E+03 0. -1.
         -6    1    1    2    0  501 -0.12366842083E+03 -0.51705682497E+01  0.21269334184E+03  0.30023835656E+03  0.17200000000E+03 0.  1.
</event>
<event>
 4    1  0.3169553E-002  0.2503630E+03  0.7818608E-02  0.1113076E+00
          1   -1    0    0  502    0  0.00000000000E+00  0.00000000000E+00  0.36901561497E+04  0.36901561497E+04  0.00000000000E+00 0. -1.
         -1   -1    0    0    0  501 -0.00000000000E+00 -0.00000000000E+00 -0.17159698219E+02  0.17159698219E+02  0.00000000000E+00 0.  1.
          6    1    1    2  502    0  0.11821503257E+03  0.13828533688E+03  0.16500935100E+04  0.16689787956E+04  0.17200000000E+03 0. -1.
         -6    1    1    2    0  501 -0.11821503257E+03 -0.13828533688E+03  0.20229029415E+04  0.20383370523E+04  0.17200000000E+03 0.  1.
</event>
<event>
 4    1  0.3169553E-002  0.2969901E+03  0.7818608E-02  0.1086755E+00
          1   -1    0    0  502    0  0.00000000000E+00  0.00000000000E+00  0.61850052028E+02  0.61850052028E+02  0.00000000000E+00 0. -1.
         -1   -1    0    0    0  501 -0.00000000000E+00 -0.00000000000E+00 -0.14931908869E+04  0.14931908869E+04  0.00000000000E+00 0.  1.
          6    1    1    2  502    0 -0.23827276180E+03  0.42956254849E+02 -0.55083548257E+03  0.62579779299E+03  0.17200000000E+03 0. -1.
         -6    1    1    2    0  501  0.23827276180E+03 -0.42956254849E+02 -0.88050535230E+03  0.92924314594E+03  0.17200000000E+03 0.  1.
</event>
<event>
 4    1  0.3169553E-002  0.1728398E+03  0.7818608E-02  0.1174918E+00
          2   -1    0    0  502    0  0.00000000000E+00  0.00000000000E+00  0.16528566994E+04  0.16528566994E+04  0.00000000000E+00 0. -1.
         -2   -1    0    0    0  501 -0.00000000000E+00 -0.00000000000E+00 -0.18378596651E+02  0.18378596651E+02  0.00000000000E+00 0.  1.
          6    1    1    2  502    0 -0.12425284589E+02 -0.11627896142E+02  0.92482926777E+03  0.94084152236E+03  0.17200000000E+03 0. -1.
         -6    1    1    2    0  501  0.12425284589E+02  0.11627896142E+02  0.70964883499E+03  0.73039377371E+03  0.17200000000E+03 0.  1.
</event>
<event>
 4    1  0.3169553E-002  0.1936718E+03  0.7818608E-02  0.1155191E+00
          2   -1    0    0  502    0  0.00000000000E+00  0.00000000000E+00  0.17507107642E+04  0.17507107642E+04  0.00000000000E+00 0. -1.
         -2   -1    0    0    0  501 -0.00000000000E+00 -0.00000000000E+00 -0.21685836071E+02  0.21685836071E+02  0.00000000000E+00 0.  1.
          6    1    1    2  502    0 -0.86336009153E+02 -0.21699104377E+02  0.76729786545E+03  0.79136260459E+03  0.17200000000E+03 0.  1.
         -6    1    1    2    0  501  0.86336009153E+02  0.21699104377E+02  0.96172706265E+03  0.98103399566E+03  0.17200000000E+03 0. -1.
</event>
<event>
 4    1  0.3169553E-002  0.1922884E+03  0.7818608E-02  0.1156413E+00
         -2   -1    0    0    0  501 -0.00000000000E+00  0.00000000000E+00  0.14224630373E+03  0.14224630373E+03  0.00000000000E+00 0.  1.
          2   -1    0    0  502    0  0.00000000000E+00 -0.00000000000E+00 -0.39717276627E+03  0.39717276627E+03  0.00000000000E+00 0. -1.
          6    1    1    2  502    0 -0.46329482394E+02  0.72418228617E+02 -0.28600477417E+03  0.34463538940E+03  0.17200000000E+03 0. -1.
         -6    1    1    2    0  501  0.46329482394E+02 -0.72418228617E+02  0.31078311635E+02  0.19478368060E+03  0.17200000000E+03 0.  1.
</event>
<event>
 4    1  0.3169553E-002  0.3437693E+03  0.7818608E-02  0.1065202E+00
          2   -1    0    0  502    0  0.00000000000E+00  0.00000000000E+00  0.73645635275E+03  0.73645635275E+03  0.00000000000E+00 0. -1.
         -2   -1    0    0    0  501 -0.00000000000E+00 -0.00000000000E+00 -0.16395199611E+03  0.16395199611E+03  0.00000000000E+00 0.  1.
          6    1    1    2  502    0  0.24309414568E+03 -0.17175137548E+03  0.35188515447E+03  0.49193542318E+03  0.17200000000E+03 0. -1.
         -6    1    1    2    0  501 -0.24309414568E+03  0.17175137548E+03  0.22061920218E+03  0.40847292568E+03  0.17200000000E+03 0.  1.
</event>
<event>
 4    1  0.3169553E-002  0.2358780E+03  0.7818608E-02  0.1122570E+00
         -2   -1    0    0    0  501 -0.00000000000E+00  0.00000000000E+00  0.36079496862E+02  0.36079496862E+02  0.00000000000E+00 0.  1.
          2   -1    0    0  502    0  0.00000000000E+00 -0.00000000000E+00 -0.15584940695E+04  0.15584940695E+04  0.00000000000E+00 0. -1.
          6    1    1    2  502    0  0.80530261048E+02 -0.13989027130E+03 -0.84296430010E+03  0.87534405932E+03  0.17200000000E+03 0.  1.
         -6    1    1    2    0  501 -0.80530261048E+02  0.13989027130E+03 -0.67945027259E+03  0.71922950709E+03  0.17200000000E+03 0.  1.
</event>
<event>
 4    1  0.3169553E-002  0.6584663E+03  0.7818608E-02  0.9791021E-01
          2   -1    0    0  502    0  0.00000000000E+00  0.00000000000E+00  0.10275154291E+04  0.10275154291E+04  0.00000000000E+00 0. -1.
         -2   -1    0    0    0  501 -0.00000000000E+00 -0.00000000000E+00 -0.42749192155E+03  0.42749192155E+03  0.00000000000E+00 0.  1.
          6    1    1    2  502    0 -0.53308756052E+03  0.34613801196E+03  0.38271528691E+03  0.76160938895E+03  0.17200000000E+03 0. -1.
         -6    1    1    2    0  501  0.53308756052E+03 -0.34613801196E+03  0.21730822063E+03  0.69339796168E+03  0.17200000000E+03 0.  1.
</event>
<event>
 4    1  0.3169553E-002  0.1732040E+03  0.7818608E-02  0.1174547E+00
         -2   -1    0    0    0  501 -0.00000000000E+00  0.00000000000E+00  0.53576904943E+03  0.53576904943E+03  0.00000000000E+00 0.  1.
          2   -1    0    0  502    0  0.00000000000E+00 -0.00000000000E+00 -0.68883813203E+02  0.68883813203E+02  0.00000000000E+00 0. -1.
          6    1    1    2  502    0 -0.19436767981E+02 -0.61525277467E+01  0.10266077265E+03  0.20134268248E+03  0.17200000000E+03 0. -1.
         -6    1    1    2    0  501  0.19436767981E+02  0.61525277467E+01  0.36422446358E+03  0.40331018016E+03  0.17200000000E+03 0.  1.
</event>
<event>
 4    1  0.3169553E-002  0.1817107E+03  0.7818608E-02  0.1166158E+00
          2   -1    0    0  502    0  0.00000000000E+00  0.00000000000E+00  0.24271580640E+03  0.24271580640E+03  0.00000000000E+00 0. -1.
         -2   -1    0    0    0  501 -0.00000000000E+00 -0.00000000000E+00 -0.14588773181E+03  0.14588773181E+03  0.00000000000E+00 0.  1.
          6    1    1    2  502    0  0.44398666969E+02 -0.38256069768E+02  0.98898972288E+02  0.20688106540E+03  0.17200000000E+03 0. -1.
         -6    1    1    2    0  501 -0.44398666969E+02  0.38256069768E+02 -0.20708976967E+01  0.18172247280E+03  0.17200000000E+03 0. -1.
</event>
<event>
 4    1  0.3169553E-002  0.1840014E+03  0.7818608E-02  0.1163986E+00
          2   -1    0    0  502    0  0.00000000000E+00  0.00000000000E+00  0.75109778909E+03  0.75109778909E+03  0.00000000000E+00 0. -1.
         -2   -1    0    0    0  501 -0.00000000000E+00 -0.00000000000E+00 -0.30704653562E+03  0.30704653562E+03  0.00000000000E+00 0.  1.
          6    1    1    2  502    0 -0.63154485489E+02 -0.16853332667E+02  0.71072185869E+03  0.73415399221E+03  0.17200000000E+03 0. -1.
         -6    1    1    2    0  501  0.63154485489E+02  0.16853332667E+02 -0.26667060523E+03  0.32399033250E+03  0.17200000000E+03 0.  1.
</event>
<event>
 4    1  0.3169553E-002  0.3064382E+03  0.7818608E-02  0.1082066E+00
          2   -1    0    0  502    0  0.00000000000E+00  0.00000000000E+00  0.42019886128E+03  0.42019886128E+03  0.00000000000E+00 0. -1.
         -2   -1    0    0    0  501 -0.00000000000E+00 -0.00000000000E+00 -0.26737028016E+03  0.26737028016E+03  0.00000000000E+00 0.  1.
          6    1    1    2  502    0  0.10574106717E+03 -0.23051939089E+03  0.21570872238E+03  0.37474606839E+03  0.17200000000E+03 0. -1.
         -6    1    1    2    0  501 -0.10574106717E+03  0.23051939089E+03 -0.62880141257E+02  0.31282307304E+03  0.17200000000E+03 0.  1.
</event>
<event>
 4    1  0.3169553E-002  0.1988604E+03  0.7818608E-02  0.1150704E+00
         -2   -1    0    0    0  501 -0.00000000000E+00  0.00000000000E+00  0.11144006515E+04  0.11144006515E+04  0.00000000000E+00 0.  1.
          2   -1    0    0  502    0  0.00000000000E+00 -0.00000000000E+00 -0.53286038390E+02  0.53286038390E+02  0.00000000000E+00 0. -1.
          6    1    1    2  502    0  0.18695286101E+02  0.98040478379E+02  0.19311310164E+03  0.27719689599E+03  0.17200000000E+03 0. -1.
         -6    1    1    2    0  501 -0.18695286101E+02 -0.98040478379E+02  0.86800151149E+03  0.89048979392E+03  0.17200000000E+03 0.  1.
</event>
<event>
 4    1  0.3169553E-002  0.7636816E+03  0.7818608E-02  0.9614127E-01
          1   -1    0    0  502    0  0.00000000000E+00  0.00000000000E+00  0.14326904955E+04  0.14326904955E+04  0.00000000000E+00 0. -1.
         -1   -1    0    0    0  501 -0.00000000000E+00 -0.00000000000E+00 -0.41614511415E+03  0.41614511415E+03  0.00000000000E+00 0.  1.
          6    1    1    2  502    0 -0.73380209162E+03  0.12312634348E+03  0.64476253988E+03  0.99946402584E+03  0.17200000000E+03 0. -1.
         -6    1    1    2    0  501  0.73380209162E+03 -0.12312634348E+03  0.37178284143E+03  0.84937158376E+03  0.17200000000E+03 0.  1.
</event>
<event>
 4    1  0.3169553E-002  0.1974185E+03  0.7818608E-02  0.1151935E+00
          2   -1    0    0  502    0  0.00000000000E+00  0.00000000000E+00  0.96956027844E+03  0.96956027844E+03  0.00000000000E+00 0. -1.
         -2   -1    0    0    0  501 -0.00000000000E+00 -0.00000000000E+00 -0.46139262391E+02  0.46139262391E+02  0.00000000000E+00 0.  1.
          6    1    1    2  502    0 -0.94536312680E+01  0.96440121201E+02  0.64395365796E+03  0.67353573159E+03  0.17200000000E+03 0. -1.
         -6    1    1    2    0  501  0.94536312680E+01 -0.96440121201E+02  0.27946735809E+03  0.34216380925E+03  0.17200000000E+03 0.  1.
</event>
<event>
 4    1  0.3169553E-002  0.1923396E+03  0.7818608E-02  0.1156368E+00
          2   -1    0    0  502    0  0.00000000000E+00  0.00000000000E+00  0.37936038711E+03  0.37936038711E+03  0.00000000000E+00 0. -1.
         -2   -1    0    0    0  501 -0.00000000000E+00 -0.00000000000E+00 -0.10271159035E+03  0.10271159035E+03  0.00000000000E+00 0.  1.
          6    1    1    2  502    0 -0.72645967207E+02  0.46185330544E+02  0.19252447989E+03  0.27214003135E+03  0.17200000000E+03 0. -1.
         -6    1    1    2    0  501  0.72645967207E+02 -0.46185330544E+02  0.84124316868E+02  0.20993194611E+03  0.17200000000E+03 0.  1.
</event>
<event>
 4    1  0.3169553E-002  0.2530255E+03  0.7818608E-02  0.1111408E+00
         -2   -1    0    0    0  501 -0.00000000000E+00  0.00000000000E+00  0.22261865370E+03  0.22261865370E+03  0.00000000000E+00 0.  1.
          2   -1    0    0  502    0  0.00000000000E+00 -0.00000000000E+00 -0.28864666797E+03  0.28864666797E+03  0.00000000000E+00 0. -1.
          6    1    1    2  502    0 -0.16750002811E+03  0.79885292317E+02 -0.17514980034E+02  0.25363101914E+03  0.17200000000E+03 0. -1.
         -6    1    1    2    0  501  0.16750002811E+03 -0.79885292317E+02 -0.48513034237E+02  0.25763430252E+03  0.17200000000E+03 0.  1.
</event>
<event>
 4    1  0.3169553E-002  0.7096365E+03  0.7818608E-02  0.9700893E-01
         -2   -1    0    0    0  501 -0.00000000000E+00  0.00000000000E+00  0.44347763295E+03  0.44347763295E+03  0.00000000000E+00 0.  1.
          2   -1    0    0  502    0  0.00000000000E+00 -0.00000000000E+00 -0.11820263834E+04  0.11820263834E+04  0.00000000000E+00 0. -1.
          6    1    1    2  502    0  0.68561639374E+03  0.62691040829E+02 -0.20808568135E+03  0.73951582590E+03  0.17200000000E+03 0. -1.
         -6    1    1    2    0  501 -0.68561639374E+03 -0.62691040829E+02 -0.53046306915E+03  0.88598819050E+03  0.17200000000E+03 0.  1.
</event>
<event>
 4    1  0.3169553E-002  0.1996357E+03  0.7818608E-02  0.1150047E+00
          2   -1    0    0  502    0  0.00000000000E+00  0.00000000000E+00  0.24938232291E+04  0.24938232291E+04  0.00000000000E+00 0. -1.
         -2   -1    0    0    0  501 -0.00000000000E+00 -0.00000000000E+00 -0.30428175205E+02  0.30428175205E+02  0.00000000000E+00 0.  1.
          6    1    1    2  502    0  0.91737460780E+02 -0.43065590620E+02  0.21013633501E+04  0.21108250368E+04  0.17200000000E+03 0. -1.
         -6    1    1    2    0  501 -0.91737460780E+02  0.43065590620E+02  0.36203170383E+03  0.41342636755E+03  0.17200000000E+03 0.  1.
</event>
<event>
 4    1  0.3169553E-002  0.2000810E+03  0.7818608E-02  0.1149671E+00
         -2   -1    0    0    0  501 -0.00000000000E+00  0.00000000000E+00  0.11847529075E+04  0.11847529075E+04  0.00000000000E+00 0.  1.
          2   -1    0    0  502    0  0.00000000000E+00 -0.00000000000E+00 -0.95533877028E+02  0.95533877028E+02  0.00000000000E+00 0. -1.
          6    1    1    2  502    0  0.40822746285E+02 -0.93711815247E+02  0.29977618185E+02  0.20231425685E+03  0.17200000000E+03 0. -1.
         -6    1    1    2    0  501 -0.40822746285E+02  0.93711815247E+02  0.10592414123E+04  0.10779725277E+04  0.17200000000E+03 0.  1.
</event>
<event>
 4    1  0.3169553E-002  0.1752466E+03  0.7818608E-02  0.1172484E+00
          2   -1    0    0  502    0  0.00000000000E+00  0.00000000000E+00  0.72801685341E+03  0.72801685341E+03  0.00000000000E+00 0. -1.
         -2   -1    0    0    0  501 -0.00000000000E+00 -0.00000000000E+00 -0.43021545520E+02  0.43021545520E+02  0.00000000000E+00 0.  1.
          6    1    1    2  502    0  0.15712849610E+02 -0.29673072736E+02  0.39625650293E+03  0.43327889518E+03  0.17200000000E+03 0.  1.
         -6    1    1    2    0  501 -0.15712849610E+02  0.29673072736E+02  0.28873880496E+03  0.33775950376E+03  0.17200000000E+03 0. -1.
</event>
<event>
 4    1  0.3169553E-002  0.1763844E+03  0.7818608E-02  0.1171349E+00
         -2   -1    0    0    0  501 -0.00000000000E+00  0.00000000000E+00  0.30440840400E+03  0.30440840400E+03  0.00000000000E+00 0.  1.
          2   -1    0    0  502    0  0.00000000000E+00 -0.00000000000E+00 -0.10721145618E+03  0.10721145618E+03  0.00000000000E+00 0. -1.
          6    1    1    2  502    0 -0.36957692132E+02 -0.12711328869E+02  0.54115058331E+02  0.18449902013E+03  0.17200000000E+03 0. -1.
         -6    1    1    2    0  501  0.36957692132E+02  0.12711328869E+02  0.14308188948E+03  0.22712084005E+03  0.17200000000E+03 0.  1.
</event>
<event>
 4    1  0.3169553E-002  0.3188815E+03  0.7818608E-02  0.1076165E+00
          1   -1    0    0  502    0  0.00000000000E+00  0.00000000000E+00  0.30406513975E+04  0.30406513975E+04  0.00000000000E+00 0. -1.
         -1   -1    0    0    0  501 -0.00000000000E+00 -0.00000000000E+00 -0.14290116216E+03  0.14290116216E+03  0.00000000000E+00 0.  1.
          6    1    1    2  502    0 -0.25367199164E+03  0.88045061180E+02  0.28420006185E+04  0.28598344231E+04  0.17200000000E+03 0. -1.
         -6    1    1    2    0  501  0.25367199164E+03 -0.88045061180E+02  0.55749616840E+02  0.32371813653E+03  0.17200000000E+03 0.  1.
</event>
<event>
 4    1  0.3169553E-002  0.2930133E+03  0.7818608E-02  0.1088786E+00
         -1   -1    0    0    0  501 -0.00000000000E+00  0.00000000000E+00  0.26915515078E+03  0.26915515078E+03  0.00000000000E+00 0.  1.
          1   -1    0    0  502    0  0.00000000000E+00 -0.00000000000E+00 -0.44266100253E+03  0.44266100253E+03  0.00000000000E+00 0. -1.
          6    1    1    2  502    0 -0.54922031620E+02 -0.23077339522E+03 -0.27487629791E+03  0.40176332417E+03  0.17200000000E+03 0. -1.
         -6    1    1    2    0  501  0.54922031620E+02  0.23077339522E+03  0.10137044615E+03  0.31005282913E+03  0.17200000000E+03 0.  1.
</event>
<event>
 4    1  0.3169553E-002  0.2622344E+03  0.7818608E-02  0.1105808E+00
          1   -1    0    0  502    0  0.00000000000E+00  0.00000000000E+00  0.15337392769E+03  0.15337392769E+03  0.00000000000E+00 0. -1.
         -1   -1    0    0    0  501 -0.00000000000E+00 -0.00000000000E+00 -0.46337581833E+03  0.46337581833E+03  0.00000000000E+00 0.  1.
          6    1    1    2  502    0  0.10880824290E+03  0.16535920065E+03 -0.99490939935E+02  0.28047343206E+03  0.17200000000E+03 0.  1.
         -6    1    1    2    0  501 -0.10880824290E+03 -0.16535920065E+03 -0.21051095071E+03  0.33627631396E+03  0.17200000000E+03 0.  1.
</event>
<event>
 4    1  0.3169553E-002  0.2458469E+03  0.7818608E-02  0.1115958E+00
         -2   -1    0    0    0  501 -0.00000000000E+00  0.00000000000E+00  0.32823026401E+02  0.32823026401E+02  0.00000000000E+00 0.  1.
          2   -1    0    0  502    0  0.00000000000E+00 -0.00000000000E+00 -0.24851056298E+04  0.24851056298E+04  0.00000000000E+00 0. -1.
          6    1    1    2  502    0 -0.16685978204E+03 -0.54904765686E+02 -0.18668793996E+04  0.18829974543E+04  0.17200000000E+03 0. -1.
         -6    1    1    2    0  501  0.16685978204E+03  0.54904765686E+02 -0.58540320377E+03  0.63493120189E+03  0.17200000000E+03 0.  1.
</event>
<event>
 4    1  0.3169553E-002  0.1907200E+03  0.7818608E-02  0.1157814E+00
          2   -1    0    0  502    0  0.00000000000E+00  0.00000000000E+00  0.18955271846E+04  0.18955271846E+04  0.00000000000E+00 0. -1.
         -2   -1    0    0    0  501 -0.00000000000E+00 -0.00000000000E+00 -0.30509152403E+02  0.30509152403E+02  0.00000000000E+00 0.  1.
          6    1    1    2  502    0 -0.36802279781E+02 -0.73727213072E+02  0.34591576800E+03  0.39500864332E+03  0.17200000000E+03 0. -1.
         -6    1    1    2    0  501  0.36802279781E+02  0.73727213072E+02  0.15191022642E+04  0.15310276937E+04  0.17200000000E+03 0. -1.
</event>
<event>
 4    1  0.3169553E-002  0.2967660E+03  0.7818608E-02  0.1086869E+00
         -3   -1    0    0    0  501 -0.00000000000E+00  0.00000000000E+00  0.86028490087E+03  0.86028490087E+03  0.00000000000E+00 0.  1.
          3   -1    0    0  502    0  0.00000000000E+00 -0.00000000000E+00 -0.12929725735E+03  0.12929725735E+03  0.00000000000E+00 0. -1.
          6    1    1    2  502    0 -0.22795784053E+03 -0.80754350026E+02  0.13970721777E+03  0.32800632433E+03  0.17200000000E+03 0. -1.
         -6    1    1    2    0  501  0.22795784053E+03  0.80754350026E+02  0.59128042575E+03  0.66157583389E+03  0.17200000000E+03 0.  1.
</event>
<event>
 4    1  0.3169553E-002  0.3234053E+03  0.7818608E-02  0.1074093E+00
          2   -1    0    0  502    0  0.00000000000E+00  0.00000000000E+00  0.19708748682E+04  0.19708748682E+04  0.00000000000E+00 0. -1.
         -2   -1    0    0    0  501 -0.00000000000E+00 -0.00000000000E+00 -0.60410464061E+02  0.60410464061E+02  0.00000000000E+00 0.  1.
          6    1    1    2  502    0 -0.46984304875E+02  0.26981380977E+03  0.13093080646E+04  0.13486580830E+04  0.17200000000E+03 0. -1.
         -6    1    1    2    0  501  0.46984304875E+02 -0.26981380977E+03  0.60115633951E+03  0.68262724922E+03  0.17200000000E+03 0.  1.
</event>
<event>
 4    1  0.3169553E-002  0.3594151E+03  0.7818608E-02  0.1058816E+00
         -1   -1    0    0    0  501 -0.00000000000E+00  0.00000000000E+00  0.18976642118E+03  0.18976642118E+03  0.00000000000E+00 0.  1.
          1   -1    0    0  502    0  0.00000000000E+00 -0.00000000000E+00 -0.90006335532E+03  0.90006335532E+03  0.00000000000E+00 0. -1.
          6    1    1    2  502    0  0.14618883371E+03  0.27968564719E+03 -0.62414511764E+03  0.72023354839E+03  0.17200000000E+03 0.  1.
         -6    1    1    2    0  501 -0.14618883371E+03 -0.27968564719E+03 -0.86151816506E+02  0.36959622811E+03  0.17200000000E+03 0.  1.
</event>
<event>
 4    1  0.3169553E-002  0.3027105E+03  0.7818608E-02  0.1083893E+00
         -2   -1    0    0    0  501 -0.00000000000E+00  0.00000000000E+00  0.24247792939E+03  0.24247792939E+03  0.00000000000E+00 0.  1.
          2   -1    0    0  502    0  0.00000000000E+00 -0.00000000000E+00 -0.59568103541E+03  0.59568103541E+03  0.00000000000E+00 0. -1.
          6    1    1    2  502    0 -0.17474496822E+03 -0.17752145955E+03 -0.42999439792E+03  0.52586010949E+03  0.17200000000E+03 0. -1.
         -6    1    1    2    0  501  0.17474496822E+03  0.17752145955E+03  0.76791291901E+02  0.31229885531E+03  0.17200000000E+03 0.  1.
</event>
<event>
 4    1  0.3169553E-002  0.2990940E+03  0.7818608E-02  0.1085694E+00
          1   -1    0    0  502    0  0.00000000000E+00  0.00000000000E+00  0.89774408983E+03  0.89774408983E+03  0.00000000000E+00 0. -1.
         -1   -1    0    0    0  501 -0.00000000000E+00 -0.00000000000E+00 -0.10112250517E+03  0.10112250517E+03  0.00000000000E+00 0.  1.
          6    1    1    2  502    0  0.16627929252E+03  0.17951162845E+03  0.45864580781E+03  0.54755201113E+03  0.17200000000E+03 0. -1.
         -6    1    1    2    0  501 -0.16627929252E+03 -0.17951162845E+03  0.33797577685E+03  0.45131458387E+03  0.17200000000E+03 0.  1.
</event>
<event>
 4    1  0.3169553E-002  0.2196242E+03  0.7818608E-02  0.1134164E+00
          2   -1    0    0  502    0  0.00000000000E+00  0.00000000000E+00  0.47520374853E+03  0.47520374853E+03  0.00000000000E+00 0. -1.
         -2   -1    0    0    0  501 -0.00000000000E+00 -0.00000000000E+00 -0.12908064547E+03  0.12908064547E+03  0.00000000000E+00 0.  1.
          6    1    1    2  502    0  0.99281082110E+02  0.93776531335E+02  0.31271661178E+03  0.38213407383E+03  0.17200000000E+03 0. -1.
         -6    1    1    2    0  501 -0.99281082110E+02 -0.93776531335E+02  0.33406491285E+02  0.22215032018E+03  0.17200000000E+03 0.  1.
</event>
<event>
 4    1  0.3169553E-002  0.1967100E+03  0.7818608E-02  0.1152545E+00
          1   -1    0    0  502    0  0.00000000000E+00  0.00000000000E+00  0.28167730941E+04  0.28167730941E+04  0.00000000000E+00 0. -1.
         -1   -1    0    0    0  501 -0.00000000000E+00 -0.00000000000E+00 -0.14072412960E+02  0.14072412960E+02  0.00000000000E+00 0.  1.
          6    1    1    2  502    0  0.65076546203E+02 -0.69827471635E+02  0.11829249585E+04  0.11991689998E+04  0.17200000000E+03 0. -1.
         -6    1    1    2    0  501 -0.65076546203E+02  0.69827471635E+02  0.16197757226E+04  0.16316765072E+04  0.17200000000E+03 0.  1.
</event>
<event>
 4    1  0.3169553E-002  0.2117871E+03  0.7818608E-02  0.1140159E+00
         -1   -1    0    0    0  501 -0.00000000000E+00  0.00000000000E+00  0.10413419125E+03  0.10413419125E+03  0.00000000000E+00 0.  1.
          1   -1    0    0  502    0  0.00000000000E+00 -0.00000000000E+00 -0.55768509993E+03  0.55768509993E+03  0.00000000000E+00 0. -1.
          6    1    1    2  502    0  0.12023686385E+03 -0.28510603054E+02 -0.68891003031E+02  0.22270996433E+03  0.17200000000E+03 0. -1.
         -6    1    1    2    0  501 -0.12023686385E+03  0.28510603054E+02 -0.38465990564E+03  0.43910932685E+03  0.17200000000E+03 0.  1.
</event>
<event>
 4    1  0.3169553E-002  0.4042940E+03  0.7818608E-02  0.1042303E+00
          1   -1    0    0  502    0  0.00000000000E+00  0.00000000000E+00  0.29985761171E+04  0.29985761171E+04  0.00000000000E+00 0. -1.
         -1   -1    0    0    0  501 -0.00000000000E+00 -0.00000000000E+00 -0.11745055921E+03  0.11745055921E+03  0.00000000000E+00 0.  1.
          6    1    1    2  502    0 -0.30929175719E+03 -0.19546936156E+03  0.25810947264E+04  0.26125664870E+04  0.17200000000E+03 0. -1.
         -6    1    1    2    0  501  0.30929175719E+03  0.19546936156E+03  0.30003083150E+03  0.50346018932E+03  0.17200000000E+03 0.  1.
</event>
<event>
 4    1  0.3169553E-002  0.2647764E+03  0.7818608E-02  0.1104307E+00
         -1   -1    0    0    0  501 -0.00000000000E+00  0.00000000000E+00  0.21325082079E+03  0.21325082079E+03  0.00000000000E+00 0.  1.
          1   -1    0    0  502    0  0.00000000000E+00 -0.00000000000E+00 -0.32877517044E+03  0.32877517044E+03  0.00000000000E+00 0. -1.
          6    1    1    2  502    0  0.20004152093E+03  0.22493154919E+02 -0.55468299559E+02  0.27052409204E+03  0.17200000000E+03 0.  1.
         -6    1    1    2    0  501 -0.20004152093E+03 -0.22493154919E+02 -0.60056050091E+02  0.27150189920E+03  0.17200000000E+03 0. -1.
</event>
<event>
 4    1  0.3169553E-002  0.4777605E+03  0.7818608E-02  0.1019752E+00
         -2   -1    0    0    0  501 -0.00000000000E+00  0.00000000000E+00  0.24666301960E+03  0.24666301960E+03  0.00000000000E+00 0.  1.
          2   -1    0    0  502    0  0.00000000000E+00 -0.00000000000E+00 -0.95730607441E+03  0.95730607441E+03  0.00000000000E+00 0. -1.
          6    1    1    2  502    0 -0.15507975941E+02  0.44545552685E+03 -0.24537408817E+03  0.53708804387E+03  0.17200000000E+03 0. -1.
         -6    1    1    2    0  501  0.15507975941E+02 -0.44545552685E+03 -0.46526896664E+03  0.66688105014E+03  0.17200000000E+03 0.  1.
</event>
<event>
 4    1  0.3169553E-002  0.2034118E+03  0.7818608E-02  0.1146892E+00
         -1   -1    0    0    0  501 -0.00000000000E+00  0.00000000000E+00  0.44800617995E+03  0.44800617995E+03  0.00000000000E+00 0.  1.
          1   -1    0    0  502    0  0.00000000000E+00 -0.00000000000E+00 -0.12429984156E+03  0.12429984156E+03  0.00000000000E+00 0. -1.
          6    1    1    2  502    0  0.53689885715E+02  0.94391460466E+02  0.16791670635E+02  0.20410367914E+03  0.17200000000E+03 0. -1.
         -6    1    1    2    0  501 -0.53689885715E+02 -0.94391460466E+02  0.30691466776E+03  0.36820234236E+03  0.17200000000E+03 0.  1.
</event>
<event>
 4    1  0.3169553E-002  0.2882513E+03  0.7818608E-02  0.1091266E+00
          4   -1    0    0  502    0  0.00000000000E+00  0.00000000000E+00  0.11038226881E+04  0.11038226881E+04  0.00000000000E+00 0. -1.
         -4   -1    0    0    0  501 -0.00000000000E+00 -0.00000000000E+00 -0.84605340287E+02  0.84605340287E+02  0.00000000000E+00 0.  1.
          6    1    1    2  502    0 -0.19570422067E+03 -0.12330726963E+03  0.31226516224E+03  0.42496865329E+03  0.17200000000E+03 0. -1.
         -6    1    1    2    0  501  0.19570422067E+03  0.12330726963E+03  0.70695218556E+03  0.76345937508E+03  0.17200000000E+03 0.  1.
</event>
<event>
 4    1  0.3169553E-002  0.2604006E+03  0.7818608E-02  0.1106903E+00
          1   -1    0    0  502    0  0.00000000000E+00  0.00000000000E+00  0.12263697417E+03  0.12263697417E+03  0.00000000000E+00 0. -1.
         -1   -1    0    0    0  501 -0.00000000000E+00 -0.00000000000E+00 -0.96183974361E+03  0.96183974361E+03  0.00000000000E+00 0.  1.
          6    1    1    2  502    0  0.51560549383E+02  0.18858940612E+03 -0.66045689596E+02  0.26864565410E+03  0.17200000000E+03 0. -1.
         -6    1    1    2    0  501 -0.51560549383E+02 -0.18858940612E+03 -0.77315707984E+03  0.81583106368E+03  0.17200000000E+03 0.  1.
</event>
<event>
 4    1  0.3169553E-002  0.3926196E+03  0.7818608E-02  0.1046366E+00
         -1   -1    0    0    0  501 -0.00000000000E+00  0.00000000000E+00  0.17378601814E+03  0.17378601814E+03  0.00000000000E+00 0.  1.
          1   -1    0    0  502    0  0.00000000000E+00 -0.00000000000E+00 -0.98333205180E+03  0.98333205180E+03  0.00000000000E+00 0. -1.
          6    1    1    2  502    0  0.29409566091E+03 -0.19512528520E+03 -0.22369827823E+03  0.45187504287E+03  0.17200000000E+03 0. -1.
         -6    1    1    2    0  501 -0.29409566091E+03  0.19512528520E+03 -0.58584775542E+03  0.70524302707E+03  0.17200000000E+03 0.  1.
</event>
<event>
 4    1  0.3169553E-002  0.2365358E+03  0.7818608E-02  0.1122122E+00
          1   -1    0    0  502    0  0.00000000000E+00  0.00000000000E+00  0.58657522905E+03  0.58657522905E+03  0.00000000000E+00 0. -1.
         -1   -1    0    0    0  501 -0.00000000000E+00 -0.00000000000E+00 -0.23833632401E+03  0.23833632401E+03  0.00000000000E+00 0.  1.
          6    1    1    2  502    0  0.82879591703E+02 -0.13962870410E+03  0.49355237052E+03  0.54730534820E+03  0.17200000000E+03 0. -1.
         -6    1    1    2    0  501 -0.82879591703E+02  0.13962870410E+03 -0.14531346548E+03  0.27760620486E+03  0.17200000000E+03 0.  1.
</event>
<event>
 4    1  0.3169553E-002  0.1983365E+03  0.7818608E-02  0.1151150E+00
          1   -1    0    0  502    0  0.00000000000E+00  0.00000000000E+00  0.39097125559E+03  0.39097125559E+03  0.00000000000E+00 0. -1.
         -1   -1    0    0    0  501 -0.00000000000E+00 -0.00000000000E+00 -0.19520184474E+03  0.19520184474E+03  0.00000000000E+00 0.  1.
          6    1    1    2  502    0 -0.29988205224E+02  0.94096150981E+02 -0.10613421408E+03  0.22494854852E+03  0.17200000000E+03 0.  1.
         -6    1    1    2    0  501  0.29988205224E+02 -0.94096150981E+02  0.30190362493E+03  0.36122455181E+03  0.17200000000E+03 0. -1.
</event>
<event>
 4    1  0.3169553E-002  0.1775443E+03  0.7818608E-02  0.1170201E+00
          2   -1    0    0  502    0  0.00000000000E+00  0.00000000000E+00  0.13473028962E+03  0.13473028962E+03  0.00000000000E+00 0. -1.
         -2   -1    0    0    0  501 -0.00000000000E+00 -0.00000000000E+00 -0.28527462794E+03  0.28527462794E+03  0.00000000000E+00 0.  1.
          6    1    1    2  502    0 -0.43108364376E+02  0.89246331293E+01  0.13791025948E+02  0.17807911880E+03  0.17200000000E+03 0. -1.
         -6    1    1    2    0  501  0.43108364376E+02 -0.89246331293E+01 -0.16433536427E+03  0.24192579876E+03  0.17200000000E+03 0.  1.
</event>
<event>
 4    1  0.3169553E-002  0.3681193E+03  0.7818608E-02  0.1055414E+00
          1   -1    0    0  502    0  0.00000000000E+00  0.00000000000E+00  0.75200795208E+03  0.75200795208E+03  0.00000000000E+00 0. -1.
         -1   -1    0    0    0  501 -0.00000000000E+00 -0.00000000000E+00 -0.25605272921E+03  0.25605272921E+03  0.00000000000E+00 0.  1.
          6    1    1    2  502    0  0.26880349736E+03  0.18350062680E+03  0.52231039223E+03  0.63899917532E+03  0.17200000000E+03 0. -1.
         -6    1    1    2    0  501 -0.26880349736E+03 -0.18350062680E+03 -0.26355169363E+02  0.36906150596E+03  0.17200000000E+03 0.  1.
</event>
<event>
 4    1  0.3169553E-002  0.2160699E+03  0.7818608E-02  0.1136847E+00
          2   -1    0    0  502    0  0.00000000000E+00  0.00000000000E+00  0.48129910039E+03  0.48129910039E+03  0.00000000000E+00 0. -1.
         -2   -1    0    0    0  501 -0.00000000000E+00 -0.00000000000E+00 -0.97151426315E+02  0.97151426315E+02  0.00000000000E+00 0.  1.
          6    1    1    2  502    0 -0.11243391233E+03  0.66789497719E+02  0.20347604554E+03  0.29679744398E+03  0.17200000000E+03 0.  1.
         -6    1    1    2    0  501  0.11243391233E+03 -0.66789497719E+02  0.18067162854E+03  0.28165308272E+03  0.17200000000E+03 0. -1.
</event>
<event>
 4    1  0.3169553E-002  0.3063850E+03  0.7818608E-02  0.1082092E+00
          1   -1    0    0  502    0  0.00000000000E+00  0.00000000000E+00  0.14874491630E+04  0.14874491630E+04  0.00000000000E+00 0. -1.
         -1   -1    0    0    0  501 -0.00000000000E+00 -0.00000000000E+00 -0.67130936861E+02  0.67130936861E+02  0.00000000000E+00 0.  1.
          6    1    1    2  502    0  0.10161786681E+02 -0.25334656868E+03  0.90041052499E+03  0.95111032971E+03  0.17200000000E+03 0. -1.
         -6    1    1    2    0  501 -0.10161786681E+02  0.25334656868E+03  0.51990770118E+03  0.60346977017E+03  0.17200000000E+03 0.  1.
</event>
<event>
 4    1  0.3169553E-002  0.1906513E+03  0.7818608E-02  0.1157875E+00
         -1   -1    0    0    0  501 -0.00000000000E+00  0.00000000000E+00  0.21373689425E+02  0.21373689425E+02  0.00000000000E+00 0.  1.
          1   -1    0    0  502    0  0.00000000000E+00 -0.00000000000E+00 -0.18649437167E+04  0.18649437167E+04  0.00000000000E+00 0. -1.
          6    1    1    2  502    0 -0.51215565839E+02 -0.64349697813E+02 -0.12017730631E+04  0.12168017148E+04  0.17200000000E+03 0. -1.
         -6    1    1    2    0  501  0.51215565839E+02  0.64349697813E+02 -0.64179696418E+03  0.66951569139E+03  0.17200000000E+03 0.  1.
</event>
<event>
 4    1  0.3169553E-002  0.2342287E+03  0.7818608E-02  0.1123698E+00
         -1   -1    0    0    0  501 -0.00000000000E+00  0.00000000000E+00  0.31468405077E+03  0.31468405077E+03  0.00000000000E+00 0.  1.
          1   -1    0    0  502    0  0.00000000000E+00 -0.00000000000E+00 -0.71763568123E+03  0.71763568123E+03  0.00000000000E+00 0. -1.
          6    1    1    2  502    0  0.12242044192E+02 -0.15852190648E+03 -0.65058198357E+03  0.69146220420E+03  0.17200000000E+03 0. -1.
         -6    1    1    2    0  501 -0.12242044192E+02  0.15852190648E+03  0.24763035312E+03  0.34085752781E+03  0.17200000000E+03 0.  1.
</event>
<event>
 4    1  0.3169553E-002  0.1808771E+03  0.7818608E-02  0.1166957E+00
         -2   -1    0    0    0  501 -0.00000000000E+00  0.00000000000E+00  0.63804177968E+02  0.63804177968E+02  0.00000000000E+00 0.  1.
          2   -1    0    0  502    0  0.00000000000E+00 -0.00000000000E+00 -0.51532303982E+03  0.51532303982E+03  0.00000000000E+00 0. -1.
          6    1    1    2  502    0  0.42066343745E+02  0.36918367457E+02 -0.24616111784E+03  0.30546986605E+03  0.17200000000E+03 0. -1.
         -6    1    1    2    0  501 -0.42066343745E+02 -0.36918367457E+02 -0.20535774402E+03  0.27365735174E+03  0.17200000000E+03 0.  1.
</event>
<event>
 4    1  0.3169553E-002  0.3353575E+03  0.7818608E-02  0.1068791E+00
          1   -1    0    0  502    0  0.00000000000E+00  0.00000000000E+00  0.16363661267E+04  0.16363661267E+04  0.00000000000E+00 0. -1.
         -1   -1    0    0    0  501 -0.00000000000E+00 -0.00000000000E+00 -0.74452945183E+02  0.74452945183E+02  0.00000000000E+00 0.  1.
          6    1    1    2  502    0 -0.11869071175E+03  0.26228457340E+03  0.10181523715E+04  0.10719603230E+04  0.17200000000E+03 0. -1.
         -6    1    1    2    0  501  0.11869071175E+03 -0.26228457340E+03  0.54376080993E+03  0.63885874880E+03  0.17200000000E+03 0.  1.
</event>
<event>
 4    1  0.3169553E-002  0.2442440E+03  0.7818608E-02  0.1116997E+00
          1   -1    0    0  502    0  0.00000000000E+00  0.00000000000E+00  0.55415531188E+03  0.55415531188E+03  0.00000000000E+00 0. -1.
         -1   -1    0    0    0  501 -0.00000000000E+00 -0.00000000000E+00 -0.46571072891E+03  0.46571072891E+03  0.00000000000E+00 0.  1.
          6    1    1    2  502    0  0.76258031028E+02 -0.15574286364E+03  0.49135148147E+03  0.54870885287E+03  0.17200000000E+03 0. -1.
         -6    1    1    2    0  501 -0.76258031028E+02  0.15574286364E+03 -0.40290689851E+03  0.47115718793E+03  0.17200000000E+03 0.  1.
</event>
<event>
 4    1  0.3169553E-002  0.2248224E+03  0.7818608E-02  0.1130338E+00
          3   -1    0    0  502    0  0.00000000000E+00  0.00000000000E+00  0.33312193974E+03  0.33312193974E+03  0.00000000000E+00 0. -1.
         -3   -1    0    0    0  501 -0.00000000000E+00 -0.00000000000E+00 -0.19777107036E+03  0.19777107036E+03  0.00000000000E+00 0.  1.
          6    1    1    2  502    0 -0.14695330014E+02 -0.14403186741E+03 -0.60398483164E+02  0.23279413292E+03  0.17200000000E+03 0. -1.
         -6    1    1    2    0  501  0.14695330014E+02  0.14403186741E+03  0.19574935254E+03  0.29809887718E+03  0.17200000000E+03 0.  1.
</event>
<event>
 4    1  0.3169553E-002  0.2725052E+03  0.7818608E-02  0.1099854E+00
          2   -1    0    0  502    0  0.00000000000E+00  0.00000000000E+00  0.12043732727E+03  0.12043732727E+03  0.00000000000E+00 0. -1.
         -2   -1    0    0    0  501 -0.00000000000E+00 -0.00000000000E+00 -0.74986376235E+03  0.74986376235E+03  0.00000000000E+00 0.  1.
          6    1    1    2  502    0  0.49996942833E+02  0.20536646638E+03 -0.13125412747E+03  0.30246772685E+03  0.17200000000E+03 0. -1.
         -6    1    1    2    0  501 -0.49996942833E+02 -0.20536646638E+03 -0.49817230761E+03  0.56783336277E+03  0.17200000000E+03 0.  1.
</event>
<event>
 4    1  0.3169553E-002  0.1724667E+03  0.7818608E-02  0.1175300E+00
         -2   -1    0    0    0  501 -0.00000000000E+00  0.00000000000E+00  0.13049208413E+02  0.13049208413E+02  0.00000000000E+00 0.  1.
          2   -1    0    0  502    0  0.00000000000E+00 -0.00000000000E+00 -0.23279091936E+04  0.23279091936E+04  0.00000000000E+00 0. -1.
          6    1    1    2  502    0  0.86413575285E+01 -0.92782518215E+01 -0.13263409138E+04  0.13375070013E+04  0.17200000000E+03 0. -1.
         -6    1    1    2    0  501 -0.86413575285E+01  0.92782518215E+01 -0.98851907143E+03  0.10034514007E+04  0.17200000000E+03 0.  1.
</event>
<event>
 4    1  0.3169553E-002  0.3477972E+03  0.7818608E-02  0.1063523E+00
          2   -1    0    0  502    0  0.00000000000E+00  0.00000000000E+00  0.36946613155E+04  0.36946613155E+04  0.00000000000E+00 0. -1.
         -2   -1    0    0    0  501 -0.00000000000E+00 -0.00000000000E+00 -0.40301186217E+02  0.40301186217E+02  0.00000000000E+00 0.  1.
          6    1    1    2  502    0 -0.24396090708E+02  0.30130341196E+03  0.26360796350E+04  0.26589243610E+04  0.17200000000E+03 0. -1.
         -6    1    1    2    0  501  0.24396090708E+02 -0.30130341196E+03  0.10182804943E+04  0.10760381407E+04  0.17200000000E+03 0.  1.
</event>
<event>
 4    1  0.3169553E-002  0.1747081E+03  0.7818608E-02  0.1173025E+00
          1   -1    0    0  502    0  0.00000000000E+00  0.00000000000E+00  0.46272020680E+03  0.46272020680E+03  0.00000000000E+00 0. -1.
         -1   -1    0    0    0  501 -0.00000000000E+00 -0.00000000000E+00 -0.74820684831E+03  0.74820684831E+03  0.00000000000E+00 0.  1.
          6    1    1    2  502    0  0.30123982212E+02  0.56102011854E+01  0.43541476910E+03  0.46915770249E+03  0.17200000000E+03 0. -1.
         -6    1    1    2    0  501 -0.30123982212E+02 -0.56102011854E+01 -0.72090141061E+03  0.74176935262E+03  0.17200000000E+03 0.  1.
</event>
<event>
 4    1  0.3169553E-002  0.2139284E+03  0.7818608E-02  0.1138492E+00
          1   -1    0    0  502    0  0.00000000000E+00  0.00000000000E+00  0.21035792340E+04  0.21035792340E+04  0.00000000000E+00 0. -1.
         -1   -1    0    0    0  501 -0.00000000000E+00 -0.00000000000E+00 -0.23215907679E+02  0.23215907679E+02  0.00000000000E+00 0.  1.
          6    1    1    2  502    0  0.10470670322E+03  0.72234682930E+02  0.13068518620E+04  0.13242458730E+04  0.17200000000E+03 0. -1.
         -6    1    1    2    0  501 -0.10470670322E+03 -0.72234682930E+02  0.77351146433E+03  0.80254926862E+03  0.17200000000E+03 0.  1.
</event>
<event>
 4    1  0.3169553E-002  0.1884421E+03  0.7818608E-02  0.1159874E+00
          2   -1    0    0  502    0  0.00000000000E+00  0.00000000000E+00  0.92235588734E+03  0.92235588734E+03  0.00000000000E+00 0. -1.
         -2   -1    0    0    0  501 -0.00000000000E+00 -0.00000000000E+00 -0.42140233990E+03  0.42140233990E+03  0.00000000000E+00 0.  1.
          6    1    1    2  502    0 -0.58411280997E+02  0.50145363265E+02  0.89092915272E+03  0.91063998944E+03  0.17200000000E+03 0. -1.
         -6    1    1    2    0  501  0.58411280997E+02 -0.50145363265E+02 -0.38997560527E+03  0.43311823780E+03  0.17200000000E+03 0.  1.
</event>
<event>
 4    1  0.3169553E-002  0.1937906E+03  0.7818608E-02  0.1155086E+00
         -2   -1    0    0    0  501 -0.00000000000E+00  0.00000000000E+00  0.37984935768E+03  0.37984935768E+03  0.00000000000E+00 0.  1.
          2   -1    0    0  502    0  0.00000000000E+00 -0.00000000000E+00 -0.10165272300E+03  0.10165272300E+03  0.00000000000E+00 0. -1.
          6    1    1    2  502    0  0.63162896740E+02  0.63097064152E+02  0.99248022679E+02  0.21772680367E+03  0.17200000000E+03 0. -1.
         -6    1    1    2    0  501 -0.63162896740E+02 -0.63097064152E+02  0.17894861200E+03  0.26377527702E+03  0.17200000000E+03 0.  1.
</event>
<event>
 4    1  0.3169553E-002  0.1961734E+03  0.7818608E-02  0.1153008E+00
         -2   -1    0    0    0  501 -0.00000000000E+00  0.00000000000E+00  0.78494856219E+02  0.78494856219E+02  0.00000000000E+00 0.  1.
          2   -1    0    0  502    0  0.00000000000E+00 -0.00000000000E+00 -0.50444315745E+03  0.50444315745E+03  0.00000000000E+00 0. -1.
          6    1    1    2  502    0  0.58333376346E+02 -0.74143185506E+02 -0.16412502551E+03  0.25577532866E+03  0.17200000000E+03 0.  1.
         -6    1    1    2    0  501 -0.58333376346E+02  0.74143185506E+02 -0.26182327573E+03  0.32716268501E+03  0.17200000000E+03 0.  1.
</event>
<event>
 4    1  0.3169553E-002  0.2463649E+03  0.7818608E-02  0.1115624E+00
          2   -1    0    0  502    0  0.00000000000E+00  0.00000000000E+00  0.10622072727E+04  0.10622072727E+04  0.00000000000E+00 0. -1.
         -2   -1    0    0    0  501 -0.00000000000E+00 -0.00000000000E+00 -0.57463418139E+02  0.57463418139E+02  0.00000000000E+00 0.  1.
          6    1    1    2  502    0 -0.44380065454E+02 -0.17071048242E+03  0.54430221792E+03  0.59746176735E+03  0.17200000000E+03 0. -1.
         -6    1    1    2    0  501  0.44380065454E+02  0.17071048242E+03  0.46044163669E+03  0.52220892353E+03  0.17200000000E+03 0.  1.
</event>
<event>
 4    1  0.3169553E-002  0.1817985E+03  0.7818608E-02  0.1166074E+00
          1   -1    0    0  502    0  0.00000000000E+00  0.00000000000E+00  0.38188194146E+03  0.38188194146E+03  0.00000000000E+00 0. -1.
         -1   -1    0    0    0  501 -0.00000000000E+00 -0.00000000000E+00 -0.10474618604E+03  0.10474618604E+03  0.00000000000E+00 0.  1.
          6    1    1    2  502    0  0.31386165490E+02 -0.49815722814E+02  0.23998827242E+03  0.30107319462E+03  0.17200000000E+03 0. -1.
         -6    1    1    2    0  501 -0.31386165490E+02  0.49815722814E+02  0.37147483004E+02  0.18555493288E+03  0.17200000000E+03 0.  1.
</event>
<event>
 4    1  0.3169553E-002  0.1873607E+03  0.7818608E-02  0.1160864E+00
         -2   -1    0    0    0  501 -0.00000000000E+00  0.00000000000E+00  0.54488952665E+03  0.54488952665E+03  0.00000000000E+00 0.  1.
          2   -1    0    0  502    0  0.00000000000E+00 -0.00000000000E+00 -0.15607464930E+03  0.15607464930E+03  0.00000000000E+00 0. -1.
          6    1    1    2  502    0 -0.27157265965E+02 -0.69155629480E+02 -0.74168545649E+02  0.20150680224E+03  0.17200000000E+03 0. -1.
         -6    1    1    2    0  501  0.27157265965E+02  0.69155629480E+02  0.46298342300E+03  0.49945737371E+03  0.17200000000E+03 0.  1.
</event>
<event>
 4    1  0.3169553E-002  0.2135234E+03  0.7818608E-02  0.1138806E+00
          2   -1    0    0  502    0  0.00000000000E+00  0.00000000000E+00  0.10378705688E+04  0.10378705688E+04  0.00000000000E+00 0. -1.
         -2   -1    0    0    0  501 -0.00000000000E+00 -0.00000000000E+00 -0.46779540400E+02  0.46779540400E+02  0.00000000000E+00 0.  1.
          6    1    1    2  502    0  0.24266207266E+02 -0.12417478831E+03  0.62942803134E+03  0.66465921607E+03  0.17200000000E+03 0. -1.
         -6    1    1    2    0  501 -0.24266207266E+02  0.12417478831E+03  0.36166299704E+03  0.41999089311E+03  0.17200000000E+03 0.  1.
</event>
<event>
 4    1  0.3169553E-002  0.3172729E+03  0.7818608E-02  0.1076911E+00
         -2   -1    0    0    0  501 -0.00000000000E+00  0.00000000000E+00  0.94527178090E+02  0.94527178090E+02  0.00000000000E+00 0.  1.
          2   -1    0    0  502    0  0.00000000000E+00 -0.00000000000E+00 -0.19138675327E+04  0.19138675327E+04  0.00000000000E+00 0. -1.
          6    1    1    2  502    0  0.21781355970E+03  0.15373797113E+03 -0.15784887978E+04  0.16100586931E+04  0.17200000000E+03 0. -1.
         -6    1    1    2    0  501 -0.21781355970E+03 -0.15373797113E+03 -0.24085155685E+03  0.39833601769E+03  0.17200000000E+03 0.  1.
</event>
<event>
 4    1  0.3169553E-002  0.2371852E+03  0.7818608E-02  0.1121682E+00
         -2   -1    0    0    0  501 -0.00000000000E+00  0.00000000000E+00  0.20444219521E+03  0.20444219521E+03  0.00000000000E+00 0.  1.
          2   -1    0    0  502    0  0.00000000000E+00 -0.00000000000E+00 -0.32016281641E+03  0.32016281641E+03  0.00000000000E+00 0. -1.
          6    1    1    2  502    0  0.96555031611E+02  0.13171914218E+03 -0.15618849373E+03  0.28399234518E+03  0.17200000000E+03 0. -1.
         -6    1    1    2    0  501 -0.96555031611E+02 -0.13171914218E+03  0.40467872530E+02  0.24061266644E+03  0.17200000000E+03 0.  1.
</event>
<event>
 4    1  0.3169553E-002  0.1901209E+03  0.7818608E-02  0.1158352E+00
          2   -1    0    0  502    0  0.00000000000E+00  0.00000000000E+00  0.10062368919E+04  0.10062368919E+04  0.00000000000E+00 0. -1.
         -2   -1    0    0    0  501 -0.00000000000E+00 -0.00000000000E+00 -0.39423132628E+02  0.39423132628E+02  0.00000000000E+00 0.  1.
          6    1    1    2  502    0 -0.20351866397E+02  0.78407671730E+02  0.32759729584E+03  0.37876899252E+03  0.17200000000E+03 0. -1.
         -6    1    1    2    0  501  0.20351866397E+02 -0.78407671730E+02  0.63921646343E+03  0.66689103201E+03  0.17200000000E+03 0.  1.
</event>
<event>
 4    1  0.3169553E-002  0.1747845E+03  0.7818608E-02  0.1172948E+00
          2   -1    0    0  502    0  0.00000000000E+00  0.00000000000E+00  0.62883808965E+02  0.62883808965E+02  0.00000000000E+00 0. -1.
         -2   -1    0    0    0  501 -0.00000000000E+00 -0.00000000000E+00 -0.12144180498E+04  0.12144180498E+04  0.00000000000E+00 0.  1.
          6    1    1    2  502    0  0.26085991876E+01 -0.30964709969E+02 -0.81084948058E+02  0.19267689756E+03  0.17200000000E+03 0. -1.
         -6    1    1    2    0  501 -0.26085991876E+01  0.30964709969E+02 -0.10704492928E+04  0.10846249612E+04  0.17200000000E+03 0.  1.
</event>
<event>
 4    1  0.3169553E-002  0.1787121E+03  0.7818608E-02  0.1169055E+00
         -1   -1    0    0    0  501 -0.00000000000E+00  0.00000000000E+00  0.66522010880E+03  0.66522010880E+03  0.00000000000E+00 0.  1.
          1   -1    0    0  502    0  0.00000000000E+00 -0.00000000000E+00 -0.48210206827E+02  0.48210206827E+02  0.00000000000E+00 0. -1.
          6    1    1    2  502    0 -0.44603427009E+02 -0.19093225003E+02  0.28558656670E+03  0.33689420301E+03  0.17200000000E+03 0.  1.
         -6    1    1    2    0  501  0.44603427009E+02  0.19093225003E+02  0.33142333527E+03  0.37653611262E+03  0.17200000000E+03 0.  1.
</event>
<event>
 4    1  0.3169553E-002  0.2911388E+03  0.7818608E-02  0.1089756E+00
         -1   -1    0    0    0  501 -0.00000000000E+00  0.00000000000E+00  0.90302157375E+02  0.90302157375E+02  0.00000000000E+00 0.  1.
          1   -1    0    0  502    0  0.00000000000E+00 -0.00000000000E+00 -0.99572524000E+03  0.99572524000E+03  0.00000000000E+00 0. -1.
          6    1    1    2  502    0  0.97494837066E+01 -0.23469709476E+03 -0.32270078643E+03  0.43462348795E+03  0.17200000000E+03 0.  1.
         -6    1    1    2    0  501 -0.97494837066E+01  0.23469709476E+03 -0.58272229620E+03  0.65140390942E+03  0.17200000000E+03 0.  1.
</event>
<event>
 4    1  0.3169553E-002  0.7898074E+03  0.7818608E-02  0.9574889E-01
          1   -1    0    0  502    0  0.00000000000E+00  0.00000000000E+00  0.66458067322E+03  0.66458067322E+03  0.00000000000E+00 0. -1.
         -1   -1    0    0    0  501 -0.00000000000E+00 -0.00000000000E+00 -0.10360628838E+04  0.10360628838E+04  0.00000000000E+00 0.  1.
          6    1    1    2  502    0 -0.63304805645E+03  0.43984307153E+03  0.75019296252E+02  0.79336225280E+03  0.17200000000E+03 0. -1.
         -6    1    1    2    0  501  0.63304805645E+03 -0.43984307153E+03 -0.44650150678E+03  0.90728130418E+03  0.17200000000E+03 0.  1.
</event>
<event>
 4    1  0.3169553E-002  0.1721549E+03  0.7818608E-02  0.1175619E+00
         -2   -1    0    0    0  501 -0.00000000000E+00  0.00000000000E+00  0.49669475100E+02  0.49669475100E+02  0.00000000000E+00 0.  1.
          2   -1    0    0  502    0  0.00000000000E+00 -0.00000000000E+00 -0.13225746419E+04  0.13225746419E+04  0.00000000000E+00 0. -1.
          6    1    1    2  502    0 -0.70356019184E+01  0.19520294464E+01 -0.11447581938E+04  0.11576306113E+04  0.17200000000E+03 0. -1.
         -6    1    1    2    0  501  0.70356019184E+01 -0.19520294464E+01 -0.12814697303E+03  0.21461350565E+03  0.17200000000E+03 0.  1.
</event>
<event>
 4    1  0.3169553E-002  0.3007775E+03  0.7818608E-02  0.1084853E+00
         -2   -1    0    0    0  501 -0.00000000000E+00  0.00000000000E+00  0.25257733611E+03  0.25257733611E+03  0.00000000000E+00 0.  1.
          2   -1    0    0  502    0  0.00000000000E+00 -0.00000000000E+00 -0.37254074445E+03  0.37254074445E+03  0.00000000000E+00 0. -1.
          6    1    1    2  502    0  0.59294492082E+02 -0.23951465462E+03  0.13939487394E+01  0.30078073353E+03  0.17200000000E+03 0.  1.
         -6    1    1    2    0  501 -0.59294492082E+02  0.23951465462E+03 -0.12135735708E+03  0.32433734704E+03  0.17200000000E+03 0. -1.
</event>
<event>
 4    1  0.3169553E-002  0.2073986E+03  0.7818608E-02  0.1143643E+00
          1   -1    0    0  502    0  0.00000000000E+00  0.00000000000E+00  0.11203885215E+04  0.11203885215E+04  0.00000000000E+00 0. -1.
         -1   -1    0    0    0  501 -0.00000000000E+00 -0.00000000000E+00 -0.38404068823E+02  0.38404068823E+02  0.00000000000E+00 0.  1.
          6    1    1    2  502    0 -0.96090226235E+02 -0.64783162908E+02  0.55117425750E+03  0.58890343173E+03  0.17200000000E+03 0. -1.
         -6    1    1    2    0  501  0.96090226235E+02  0.64783162908E+02  0.53081019515E+03  0.56988915856E+03  0.17200000000E+03 0.  1.
</event>
<event>
 4    1  0.3169553E-002  0.1857021E+03  0.7818608E-02  0.1162396E+00
         -1   -1    0    0    0  501 -0.00000000000E+00  0.00000000000E+00  0.34318385490E+03  0.34318385490E+03  0.00000000000E+00 0.  1.
          1   -1    0    0  502    0  0.00000000000E+00 -0.00000000000E+00 -0.13024847448E+03  0.13024847448E+03  0.00000000000E+00 0. -1.
          6    1    1    2  502    0 -0.59750445689E+02  0.36484775749E+02 -0.66874722312E+01  0.18582243381E+03  0.17200000000E+03 0. -1.
         -6    1    1    2    0  501  0.59750445689E+02 -0.36484775749E+02  0.21962285266E+03  0.28760989557E+03  0.17200000000E+03 0.  1.
</event>
<event>
 4    1  0.3169553E-002  0.2552746E+03  0.7818608E-02  0.1110016E+00
          2   -1    0    0  502    0  0.00000000000E+00  0.00000000000E+00  0.62346871485E+03  0.62346871485E+03  0.00000000000E+00 0. -1.
         -2   -1    0    0    0  501 -0.00000000000E+00 -0.00000000000E+00 -0.14280491424E+03  0.14280491424E+03  0.00000000000E+00 0.  1.
          6    1    1    2  502    0  0.16305717212E+03 -0.94833832943E+02  0.43871049442E+03  0.50757462029E+03  0.17200000000E+03 0. -1.
         -6    1    1    2    0  501 -0.16305717212E+03  0.94833832943E+02  0.41953306186E+02  0.25869900879E+03  0.17200000000E+03 0.  1.
</event>
<event>
 4    1  0.3169553E-002  0.1786109E+03  0.7818608E-02  0.1169154E+00
         -1   -1    0    0    0  501 -0.00000000000E+00  0.00000000000E+00  0.23121807396E+02  0.23121807396E+02  0.00000000000E+00 0.  1.
          1   -1    0    0  502    0  0.00000000000E+00 -0.00000000000E+00 -0.15576212128E+04  0.15576212128E+04  0.00000000000E+00 0. -1.
          6    1    1    2  502    0  0.36382340622E+02 -0.31530387163E+02 -0.10343523515E+04  0.10496602436E+04  0.17200000000E+03 0. -1.
         -6    1    1    2    0  501 -0.36382340622E+02  0.31530387163E+02 -0.50014705386E+03  0.53108277652E+03  0.17200000000E+03 0.  1.
</event>
<event>
 4    1  0.3169553E-002  0.2909755E+03  0.7818608E-02  0.1089841E+00
         -2   -1    0    0    0  501 -0.00000000000E+00  0.00000000000E+00  0.22597482882E+03  0.22597482882E+03  0.00000000000E+00 0.  1.
          2   -1    0    0  502    0  0.00000000000E+00 -0.00000000000E+00 -0.40668962260E+03  0.40668962260E+03  0.00000000000E+00 0. -1.
          6    1    1    2  502    0 -0.15184148087E+02 -0.23420546292E+03 -0.16015558809E+01  0.29097993436E+03  0.17200000000E+03 0.  1.
         -6    1    1    2    0  501  0.15184148087E+02  0.23420546292E+03 -0.17911323790E+03  0.34168451707E+03  0.17200000000E+03 0. -1.
</event>
<event>
 4    1  0.3169553E-002  0.1897703E+03  0.7818608E-02  0.1158669E+00
          2   -1    0    0  502    0  0.00000000000E+00  0.00000000000E+00  0.15657731523E+04  0.15657731523E+04  0.00000000000E+00 0. -1.
         -2   -1    0    0    0  501 -0.00000000000E+00 -0.00000000000E+00 -0.23528890244E+02  0.23528890244E+02  0.00000000000E+00 0.  1.
          6    1    1    2  502    0 -0.48217130576E+02 -0.64061375100E+02  0.89026461262E+03  0.91026580291E+03  0.17200000000E+03 0.  1.
         -6    1    1    2    0  501  0.48217130576E+02  0.64061375100E+02  0.65197964947E+03  0.67903623967E+03  0.17200000000E+03 0.  1.
</event>
<event>
 4    1  0.3169553E-002  0.1793818E+03  0.7818608E-02  0.1168403E+00
         -2   -1    0    0    0  501 -0.00000000000E+00  0.00000000000E+00  0.23924285830E+03  0.23924285830E+03  0.00000000000E+00 0.  1.
          2   -1    0    0  502    0  0.00000000000E+00 -0.00000000000E+00 -0.17481142368E+03  0.17481142368E+03  0.00000000000E+00 0. -1.
          6    1    1    2  502    0  0.34428130808E+02 -0.37530666290E+02  0.13163339014E+03  0.22249763258E+03  0.17200000000E+03 0.  1.
         -6    1    1    2    0  501 -0.34428130808E+02  0.37530666290E+02 -0.67201955525E+02  0.19155664940E+03  0.17200000000E+03 0.  1.
</event>
<event>
 4    1  0.3169553E-002  0.4245624E+03  0.7818608E-02  0.1035592E+00
         -2   -1    0    0    0  501 -0.00000000000E+00  0.00000000000E+00  0.29161293477E+03  0.29161293477E+03  0.00000000000E+00 0.  1.
          2   -1    0    0  502    0  0.00000000000E+00 -0.00000000000E+00 -0.99112192582E+03  0.99112192582E+03  0.00000000000E+00 0. -1.
          6    1    1    2  502    0 -0.44095967901E+02 -0.38564846947E+03 -0.74321041533E+03  0.85592927152E+03  0.17200000000E+03 0. -1.
         -6    1    1    2    0  501  0.44095967901E+02  0.38564846947E+03  0.43701424278E+02  0.42680558908E+03  0.17200000000E+03 0.  1.
</event>
<event>
 4    1  0.3169553E-002  0.3515496E+03  0.7818608E-02  0.1061981E+00
         -2   -1    0    0    0  501 -0.00000000000E+00  0.00000000000E+00  0.33031987410E+02  0.33031987410E+02  0.00000000000E+00 0.  1.
          2   -1    0    0  502    0  0.00000000000E+00 -0.00000000000E+00 -0.38133276343E+04  0.38133276343E+04  0.00000000000E+00 0. -1.
          6    1    1    2  502    0 -0.30345436072E+03  0.43801297853E+02 -0.16260871494E+04  0.16636545676E+04  0.17200000000E+03 0. -1.
         -6    1    1    2    0  501  0.30345436072E+03 -0.43801297853E+02 -0.21542084974E+04  0.21827050541E+04  0.17200000000E+03 0.  1.
</event>
<event>
 4    1  0.3169553E-002  0.1943087E+03  0.7818608E-02  0.1154632E+00
         -1   -1    0    0    0  501 -0.00000000000E+00  0.00000000000E+00  0.40217601123E+03  0.40217601123E+03  0.00000000000E+00 0.  1.
          1   -1    0    0  502    0  0.00000000000E+00 -0.00000000000E+00 -0.10681841723E+03  0.10681841723E+03  0.00000000000E+00 0. -1.
          6    1    1    2  502    0 -0.69510763795E+02 -0.57793790872E+02  0.59102428010E+02  0.20309841344E+03  0.17200000000E+03 0. -1.
         -6    1    1    2    0  501  0.69510763795E+02  0.57793790872E+02  0.23625516599E+03  0.30589601502E+03  0.17200000000E+03 0.  1.
</event>
<event>
 4    1  0.3169553E-002  0.2687067E+03  0.7818608E-02  0.1102022E+00
          2   -1    0    0  502    0  0.00000000000E+00  0.00000000000E+00  0.17858128087E+04  0.17858128087E+04  0.00000000000E+00 0. -1.
         -2   -1    0    0    0  501 -0.00000000000E+00 -0.00000000000E+00 -0.45645255166E+02  0.45645255166E+02  0.00000000000E+00 0.  1.
          6    1    1    2  502    0  0.17823090180E+03 -0.10417797121E+03  0.11795687032E+04  0.12097874316E+04  0.17200000000E+03 0. -1.
         -6    1    1    2    0  501 -0.17823090180E+03  0.10417797121E+03  0.56059885029E+03  0.62167063224E+03  0.17200000000E+03 0.  1.
</event>
<event>
 4    1  0.3169553E-002  0.2169067E+03  0.7818608E-02  0.1136210E+00
          1   -1    0    0  502    0  0.00000000000E+00  0.00000000000E+00  0.41529968529E+03  0.41529968529E+03  0.00000000000E+00 0. -1.
         -1   -1    0    0    0  501 -0.00000000000E+00 -0.00000000000E+00 -0.11340906331E+03  0.11340906331E+03  0.00000000000E+00 0.  1.
          6    1    1    2  502    0  0.13209418735E+03 -0.39525554891E+01  0.15958017232E+03  0.26928484626E+03  0.17200000000E+03 0.  1.
         -6    1    1    2    0  501 -0.13209418735E+03  0.39525554891E+01  0.14231044966E+03  0.25942390235E+03  0.17200000000E+03 0. -1.
</event>
<event>
 4    1  0.3169553E-002  0.2018450E+03  0.7818608E-02  0.1148192E+00
         -2   -1    0    0    0  501 -0.00000000000E+00  0.00000000000E+00  0.50268026497E+02  0.50268026497E+02  0.00000000000E+00 0.  1.
          2   -1    0    0  502    0  0.00000000000E+00 -0.00000000000E+00 -0.83219547007E+03  0.83219547007E+03  0.00000000000E+00 0. -1.
          6    1    1    2  502    0 -0.63776328222E+02  0.84201978334E+02 -0.46223363897E+03  0.50438212715E+03  0.17200000000E+03 0.  1.
         -6    1    1    2    0  501  0.63776328222E+02 -0.84201978334E+02 -0.31969380461E+03  0.37808136942E+03  0.17200000000E+03 0.  1.
</event>
<event>
 4    1  0.3169553E-002  0.1829569E+03  0.7818608E-02  0.1164972E+00
         -2   -1    0    0    0  501 -0.00000000000E+00  0.00000000000E+00  0.89258240773E+02  0.89258240773E+02  0.00000000000E+00 0.  1.
          2   -1    0    0  502    0  0.00000000000E+00 -0.00000000000E+00 -0.15146594700E+04  0.15146594700E+04  0.00000000000E+00 0. -1.
          6    1    1    2  502    0  0.49756611902E+02  0.37596533336E+02 -0.14083320384E+04  0.14201663107E+04  0.17200000000E+03 0. -1.
         -6    1    1    2    0  501 -0.49756611902E+02 -0.37596533336E+02 -0.17069190841E+02  0.18375140006E+03  0.17200000000E+03 0.  1.
</event>
<event>
 4    1  0.3169553E-002  0.1775372E+03  0.7818608E-02  0.1170208E+00
          1   -1    0    0  502    0  0.00000000000E+00  0.00000000000E+00  0.65203162989E+03  0.65203162989E+03  0.00000000000E+00 0. -1.
         -1   -1    0    0    0  501 -0.00000000000E+00 -0.00000000000E+00 -0.95654456487E+02  0.95654456487E+02  0.00000000000E+00 0.  1.
          6    1    1    2  502    0  0.16238317405E+02  0.40887196646E+02  0.15263539795E+02  0.17819209143E+03  0.17200000000E+03 0.  1.
         -6    1    1    2    0  501 -0.16238317405E+02 -0.40887196646E+02  0.54111363361E+03  0.56949399494E+03  0.17200000000E+03 0. -1.
</event>
<event>
 4    1  0.3169553E-002  0.2301609E+03  0.7818608E-02  0.1126527E+00
         -2   -1    0    0    0  501 -0.00000000000E+00  0.00000000000E+00  0.14241022314E+02  0.14241022314E+02  0.00000000000E+00 0.  1.
          2   -1    0    0  502    0  0.00000000000E+00 -0.00000000000E+00 -0.40408288966E+04  0.40408288966E+04  0.00000000000E+00 0. -1.
          6    1    1    2  502    0  0.12700360968E+03 -0.85206382144E+02 -0.25847612926E+04  0.25949884362E+04  0.17200000000E+03 0. -1.
         -6    1    1    2    0  501 -0.12700360968E+03  0.85206382144E+02 -0.14418265817E+04  0.14600814827E+04  0.17200000000E+03 0.  1.
</event>
<event>
 4    1  0.3169553E-002  0.1992604E+03  0.7818608E-02  0.1150365E+00
         -2   -1    0    0    0  501 -0.00000000000E+00  0.00000000000E+00  0.41491082688E+02  0.41491082688E+02  0.00000000000E+00 0.  1.
          2   -1    0    0  502    0  0.00000000000E+00 -0.00000000000E+00 -0.10303803260E+04  0.10303803260E+04  0.00000000000E+00 0. -1.
          6    1    1    2  502    0 -0.95971051104E+02  0.30170391866E+02 -0.63752024171E+03  0.66793469275E+03  0.17200000000E+03 0. -1.
         -6    1    1    2    0  501  0.95971051104E+02 -0.30170391866E+02 -0.35136900164E+03  0.40393671597E+03  0.17200000000E+03 0.  1.
</event>
<event>
 4    1  0.3169553E-002  0.3109949E+03  0.7818608E-02  0.1079870E+00
          2   -1    0    0  502    0  0.00000000000E+00  0.00000000000E+00  0.35444666821E+03  0.35444666821E+03  0.00000000000E+00 0. -1.
         -2   -1    0    0    0  501 -0.00000000000E+00 -0.00000000000E+00 -0.30324249340E+03  0.30324249340E+03  0.00000000000E+00 0.  1.
          6    1    1    2  502    0 -0.12418912825E+03  0.22740021976E+03  0.12967486615E+03  0.33694713300E+03  0.17200000000E+03 0. -1.
         -6    1    1    2    0  501  0.12418912825E+03 -0.22740021976E+03 -0.78470691338E+02  0.32074202862E+03  0.17200000000E+03 0.  1.
</event>
<event>
 4    1  0.3169553E-002  0.2740340E+03  0.7818608E-02  0.1098993E+00
         -2   -1    0    0    0  501 -0.00000000000E+00  0.00000000000E+00  0.46779502119E+03  0.46779502119E+03  0.00000000000E+00 0.  1.
          2   -1    0    0  502    0  0.00000000000E+00 -0.00000000000E+00 -0.18525491086E+03  0.18525491086E+03  0.00000000000E+00 0. -1.
          6    1    1    2  502    0  0.79089540615E+02  0.19812992374E+03  0.21978824301E+02  0.27491396987E+03  0.17200000000E+03 0. -1.
         -6    1    1    2    0  501 -0.79089540615E+02 -0.19812992374E+03  0.26056128603E+03  0.37813596217E+03  0.17200000000E+03 0.  1.
</event>
<event>
 4    1  0.3169553E-002  0.2042669E+03  0.7818608E-02  0.1146188E+00
          1   -1    0    0  502    0  0.00000000000E+00  0.00000000000E+00  0.95977768898E+03  0.95977768898E+03  0.00000000000E+00 0. -1.
         -1   -1    0    0    0  501 -0.00000000000E+00 -0.00000000000E+00 -0.10019347299E+03  0.10019347299E+03  0.00000000000E+00 0.  1.
          6    1    1    2  502    0 -0.73599386398E+02  0.82000648176E+02  0.82855250976E+03  0.85336055534E+03  0.17200000000E+03 0. -1.
         -6    1    1    2    0  501  0.73599386398E+02 -0.82000648176E+02  0.31031706223E+02  0.20661060663E+03  0.17200000000E+03 0. -1.
</event>
<event>
 4    1  0.3169553E-002  0.1738473E+03  0.7818608E-02  0.1173894E+00
          1   -1    0    0  502    0  0.00000000000E+00  0.00000000000E+00  0.27920555926E+03  0.27920555926E+03  0.00000000000E+00 0. -1.
         -1   -1    0    0    0  501 -0.00000000000E+00 -0.00000000000E+00 -0.15443624373E+03  0.15443624373E+03  0.00000000000E+00 0.  1.
          6    1    1    2  502    0  0.11356104176E+02  0.22581845053E+02  0.18096191229E+03  0.25093846761E+03  0.17200000000E+03 0. -1.
         -6    1    1    2    0  501 -0.11356104176E+02 -0.22581845053E+02 -0.56192596763E+02  0.18270333538E+03  0.17200000000E+03 0.  1.
</event>
<event>
 4    1  0.3169553E-002  0.2709838E+03  0.7818608E-02  0.1100718E+00
          1   -1    0    0  502    0  0.00000000000E+00  0.00000000000E+00  0.10203206770E+04  0.10203206770E+04  0.00000000000E+00 0. -1.
         -1   -1    0    0    0  501 -0.00000000000E+00 -0.00000000000E+00 -0.72811586567E+02  0.72811586567E+02  0.00000000000E+00 0.  1.
          6    1    1    2  502    0  0.16419178062E+03  0.12995875259E+03  0.41498425433E+03  0.49562500899E+03  0.17200000000E+03 0. -1.
         -6    1    1    2    0  501 -0.16419178062E+03 -0.12995875259E+03  0.53252483606E+03  0.59750725453E+03  0.17200000000E+03 0.  1.
</event>
<event>
 4    1  0.3169553E-002  0.1970168E+03  0.7818608E-02  0.1152281E+00
         -1   -1    0    0    0  501 -0.00000000000E+00  0.00000000000E+00  0.49655888531E+02  0.49655888531E+02  0.00000000000E+00 0.  1.
          1   -1    0    0  502    0  0.00000000000E+00 -0.00000000000E+00 -0.98459533889E+03  0.98459533889E+03  0.00000000000E+00 0. -1.
          6    1    1    2  502    0 -0.53721324488E+02  0.79659501769E+02 -0.70222298233E+03  0.72933718803E+03  0.17200000000E+03 0. -1.
         -6    1    1    2    0  501  0.53721324488E+02 -0.79659501769E+02 -0.23271646802E+03  0.30491403939E+03  0.17200000000E+03 0.  1.
</event>
<event>
 4    1  0.3169553E-002  0.1797134E+03  0.7818608E-02  0.1168081E+00
          2   -1    0    0  502    0  0.00000000000E+00  0.00000000000E+00  0.29066150772E+04  0.29066150772E+04  0.00000000000E+00 0. -1.
         -2   -1    0    0    0  501 -0.00000000000E+00 -0.00000000000E+00 -0.41473436066E+02  0.41473436066E+02  0.00000000000E+00 0.  1.
          6    1    1    2  502    0 -0.37953213103E+02  0.35671771005E+02  0.26937885780E+04  0.26997766249E+04  0.17200000000E+03 0. -1.
         -6    1    1    2    0  501  0.37953213103E+02 -0.35671771005E+02  0.17135306310E+03  0.24831188829E+03  0.17200000000E+03 0.  1.
</event>
<event>
 4    1  0.3169553E-002  0.1753503E+03  0.7818608E-02  0.1172380E+00
         -3   -1    0    0    0  501 -0.00000000000E+00  0.00000000000E+00  0.21890168007E+03  0.21890168007E+03  0.00000000000E+00 0.  1.
          3   -1    0    0  502    0  0.00000000000E+00 -0.00000000000E+00 -0.14632083303E+03  0.14632083303E+03  0.00000000000E+00 0. -1.
          6    1    1    2  502    0  0.84018629395E+01  0.33062467618E+02  0.72826399028E+02  0.18987206867E+03  0.17200000000E+03 0. -1.
         -6    1    1    2    0  501 -0.84018629395E+01 -0.33062467618E+02 -0.24555198920E+00  0.17535044443E+03  0.17200000000E+03 0. -1.
</event>
<event>
 4    1  0.3169553E-002  0.2819165E+03  0.7818608E-02  0.1094647E+00
          2   -1    0    0  502    0  0.00000000000E+00  0.00000000000E+00  0.16827396029E+04  0.16827396029E+04  0.00000000000E+00 0. -1.
         -2   -1    0    0    0  501 -0.00000000000E+00 -0.00000000000E+00 -0.62845683784E+02  0.62845683784E+02  0.00000000000E+00 0.  1.
          6    1    1    2  502    0 -0.16735157053E+03  0.14794031895E+03  0.12450026021E+04  0.12765219800E+04  0.17200000000E+03 0. -1.
         -6    1    1    2    0  501  0.16735157053E+03 -0.14794031895E+03  0.37489131703E+03  0.46906330672E+03  0.17200000000E+03 0.  1.
</event>
<event>
 4    1  0.3169553E-002  0.4103466E+03  0.7818608E-02  0.1040255E+00
          2   -1    0    0  502    0  0.00000000000E+00  0.00000000000E+00  0.10963657096E+04  0.10963657096E+04  0.00000000000E+00 0. -1.
         -2   -1    0    0    0  501 -0.00000000000E+00 -0.00000000000E+00 -0.17141164560E+03  0.17141164560E+03  0.00000000000E+00 0.  1.
          6    1    1    2  502    0  0.37075097254E+03 -0.36660773628E+02  0.66690443356E+03  0.78303628234E+03  0.17200000000E+03 0. -1.
         -6    1    1    2    0  501 -0.37075097254E+03  0.36660773628E+02  0.25804963049E+03  0.48474107290E+03  0.17200000000E+03 0.  1.
</event>
<event>
 4    1  0.3169553E-002  0.4673960E+03  0.7818608E-02  0.1022658E+00
         -1   -1    0    0    0  501 -0.00000000000E+00  0.00000000000E+00  0.66387500931E+02  0.66387500931E+02  0.00000000000E+00 0.  1.
          1   -1    0    0  502    0  0.00000000000E+00 -0.00000000000E+00 -0.34643047952E+04  0.34643047952E+04  0.00000000000E+00 0. -1.
          6    1    1    2  502    0  0.36467820211E+03  0.23639976881E+03 -0.13037320553E+04  0.13849824237E+04  0.17200000000E+03 0. -1.
         -6    1    1    2    0  501 -0.36467820211E+03 -0.23639976881E+03 -0.20941852390E+04  0.21457098725E+04  0.17200000000E+03 0.  1.
</event>
<event>
 4    1  0.3169553E-002  0.5137513E+03  0.7818608E-02  0.1010251E+00
          1   -1    0    0  502    0  0.00000000000E+00  0.00000000000E+00  0.19780927368E+04  0.19780927368E+04  0.00000000000E+00 0. -1.
         -1   -1    0    0    0  501 -0.00000000000E+00 -0.00000000000E+00 -0.14205138137E+03  0.14205138137E+03  0.00000000000E+00 0.  1.
          6    1    1    2  502    0 -0.48276315447E+03 -0.36002453044E+02  0.11791503258E+04  0.12862099093E+04  0.17200000000E+03 0. -1.
         -6    1    1    2    0  501  0.48276315447E+03  0.36002453044E+02  0.65689102967E+03  0.83393420892E+03  0.17200000000E+03 0.  1.
</event>
<event>
 4    1  0.3169553E-002  0.1925160E+03  0.7818608E-02  0.1156211E+00
          2   -1    0    0  502    0  0.00000000000E+00  0.00000000000E+00  0.13132469479E+04  0.13132469479E+04  0.00000000000E+00 0. -1.
         -2   -1    0    0    0  501 -0.00000000000E+00 -0.00000000000E+00 -0.30396121128E+02  0.30396121128E+02  0.00000000000E+00 0.  1.
          6    1    1    2  502    0 -0.46881545333E+02 -0.72667173798E+02  0.46174898302E+03  0.50027444544E+03  0.17200000000E+03 0.  1.
         -6    1    1    2    0  501  0.46881545333E+02  0.72667173798E+02  0.82110184376E+03  0.84336862359E+03  0.17200000000E+03 0. -1.
</event>
<event>
 4    1  0.3169553E-002  0.2239489E+03  0.7818608E-02  0.1130973E+00
          2   -1    0    0  502    0  0.00000000000E+00  0.00000000000E+00  0.97991479844E+03  0.97991479844E+03  0.00000000000E+00 0. -1.
         -2   -1    0    0    0  501 -0.00000000000E+00 -0.00000000000E+00 -0.78427385449E+02  0.78427385449E+02  0.00000000000E+00 0.  1.
          6    1    1    2  502    0 -0.11663662511E+03 -0.83456642371E+02  0.76264410148E+03  0.79484535540E+03  0.17200000000E+03 0. -1.
         -6    1    1    2    0  501  0.11663662511E+03  0.83456642371E+02  0.13884331151E+03  0.26349682849E+03  0.17200000000E+03 0.  1.
</event>
<event>
 4    1  0.3169553E-002  0.1850658E+03  0.7818608E-02  0.1162988E+00
          2   -1    0    0  502    0  0.00000000000E+00  0.00000000000E+00  0.77258109029E+03  0.77258109029E+03  0.00000000000E+00 0. -1.
         -2   -1    0    0    0  501 -0.00000000000E+00 -0.00000000000E+00 -0.98039529456E+02  0.98039529456E+02  0.00000000000E+00 0.  1.
          6    1    1    2  502    0 -0.40454408930E+02 -0.55034331535E+02  0.15075079198E+02  0.18567874101E+03  0.17200000000E+03 0.  1.
         -6    1    1    2    0  501  0.40454408930E+02  0.55034331535E+02  0.65946648164E+03  0.68494187874E+03  0.17200000000E+03 0. -1.
</event>
<event>
 4    1  0.3169553E-002  0.1852518E+03  0.7818608E-02  0.1162815E+00
         -2   -1    0    0    0  501 -0.00000000000E+00  0.00000000000E+00  0.27764321189E+02  0.27764321189E+02  0.00000000000E+00 0.  1.
          2   -1    0    0  502    0  0.00000000000E+00 -0.00000000000E+00 -0.12405503847E+04  0.12405503847E+04  0.00000000000E+00 0. -1.
          6    1    1    2  502    0  0.12312187824E+02 -0.67695299431E+02 -0.64456515149E+03  0.67065824237E+03  0.17200000000E+03 0.  1.
         -6    1    1    2    0  501 -0.12312187824E+02  0.67695299431E+02 -0.56822091198E+03  0.59765646349E+03  0.17200000000E+03 0. -1.
</event>
<event>
 4    1  0.3169553E-002  0.1976114E+03  0.7818608E-02  0.1151770E+00
         -1   -1    0    0    0  501 -0.00000000000E+00  0.00000000000E+00  0.92702672349E+02  0.92702672349E+02  0.00000000000E+00 0.  1.
          1   -1    0    0  502    0  0.00000000000E+00 -0.00000000000E+00 -0.12927130377E+04  0.12927130377E+04  0.00000000000E+00 0. -1.
          6    1    1    2  502    0 -0.90021196043E+01  0.96877309447E+02 -0.11687606026E+04  0.11853487240E+04  0.17200000000E+03 0. -1.
         -6    1    1    2    0  501  0.90021196043E+01 -0.96877309447E+02 -0.31249762748E+02  0.20006698607E+03  0.17200000000E+03 0.  1.
</event>
<event>
 4    1  0.3169553E-002  0.1873344E+03  0.7818608E-02  0.1160888E+00
         -1   -1    0    0    0  501 -0.00000000000E+00  0.00000000000E+00  0.33656705736E+03  0.33656705736E+03  0.00000000000E+00 0.  1.
          1   -1    0    0  502    0  0.00000000000E+00 -0.00000000000E+00 -0.10811129545E+03  0.10811129545E+03  0.00000000000E+00 0. -1.
          6    1    1    2  502    0  0.62016796381E+02 -0.40793179083E+02  0.72322899152E+02  0.20081027921E+03  0.17200000000E+03 0.  1.
         -6    1    1    2    0  501 -0.62016796381E+02  0.40793179083E+02  0.15613286275E+03  0.24386807361E+03  0.17200000000E+03 0.  1.
</event>
<event>
 4    1  0.3169553E-002  0.2605402E+03  0.7818608E-02  0.1106819E+00
          1   -1    0    0  502    0  0.00000000000E+00  0.00000000000E+00  0.91872513831E+03  0.91872513831E+03  0.00000000000E+00 0. -1.
         -1   -1    0    0    0  501 -0.00000000000E+00 -0.00000000000E+00 -0.81167477116E+02  0.81167477116E+02  0.00000000000E+00 0.  1.
          6    1    1    2  502    0 -0.14362826936E+03 -0.13292141200E+03  0.26904022742E+03  0.37451812439E+03  0.17200000000E+03 0. -1.
         -6    1    1    2    0  501  0.14362826936E+03  0.13292141200E+03  0.56851743378E+03  0.62537449104E+03  0.17200000000E+03 0. -1.
</event>
<event>
 4    1  0.3169553E-002  0.1868522E+03  0.7818608E-02  0.1161331E+00
          2   -1    0    0  502    0  0.00000000000E+00  0.00000000000E+00  0.19314328821E+04  0.19314328821E+04  0.00000000000E+00 0. -1.
         -2   -1    0    0    0  501 -0.00000000000E+00 -0.00000000000E+00 -0.21340088959E+02  0.21340088959E+02  0.00000000000E+00 0.  1.
          6    1    1    2  502    0  0.68276591580E+02 -0.25846454777E+02  0.13368719391E+04  0.13498667763E+04  0.17200000000E+03 0. -1.
         -6    1    1    2    0  501 -0.68276591580E+02  0.25846454777E+02  0.57322085406E+03  0.60290619478E+03  0.17200000000E+03 0.  1.
</event>
<event>
 4    1  0.3169553E-002  0.3197067E+03  0.7818608E-02  0.1075784E+00
          2   -1    0    0  502    0  0.00000000000E+00  0.00000000000E+00  0.11667120702E+04  0.11667120702E+04  0.00000000000E+00 0. -1.
         -2   -1    0    0    0  501 -0.00000000000E+00 -0.00000000000E+00 -0.88072639326E+02  0.88072639326E+02  0.00000000000E+00 0.  1.
          6    1    1    2  502    0 -0.21190146339E+03  0.16651165139E+03  0.49371001389E+03  0.58818529227E+03  0.17200000000E+03 0. -1.
         -6    1    1    2    0  501  0.21190146339E+03 -0.16651165139E+03  0.58492941700E+03  0.66659941727E+03  0.17200000000E+03 0.  1.
</event>
<event>
 4    1  0.3169553E-002  0.1827221E+03  0.7818608E-02  0.1165194E+00
         -2   -1    0    0    0  501 -0.00000000000E+00  0.00000000000E+00  0.24415828268E+03  0.24415828268E+03  0.00000000000E+00 0.  1.
          2   -1    0    0  502    0  0.00000000000E+00 -0.00000000000E+00 -0.18022000557E+03  0.18022000557E+03  0.00000000000E+00 0. -1.
          6    1    1    2  502    0  0.23132608956E+02 -0.57168544035E+02 -0.72248877396E+02  0.19648730318E+03  0.17200000000E+03 0. -1.
         -6    1    1    2    0  501 -0.23132608956E+02  0.57168544035E+02  0.13618715451E+03  0.22789098507E+03  0.17200000000E+03 0.  1.
</event>
<event>
 4    1  0.3169553E-002  0.2008747E+03  0.7818608E-02  0.1149003E+00
          2   -1    0    0  502    0  0.00000000000E+00  0.00000000000E+00  0.57877335949E+03  0.57877335949E+03  0.00000000000E+00 0. -1.
         -2   -1    0    0    0  501 -0.00000000000E+00 -0.00000000000E+00 -0.14441690360E+03  0.14441690360E+03  0.00000000000E+00 0.  1.
          6    1    1    2  502    0 -0.12876129560E+02 -0.10296037745E+03  0.47723736399E+03  0.51778966350E+03  0.17200000000E+03 0. -1.
         -6    1    1    2    0  501  0.12876129560E+02  0.10296037745E+03 -0.42880908092E+02  0.20540059960E+03  0.17200000000E+03 0.  1.
</event>
<event>
 4    1  0.3169553E-002  0.2984715E+03  0.7818608E-02  0.1086007E+00
          2   -1    0    0  502    0  0.00000000000E+00  0.00000000000E+00  0.21428114555E+04  0.21428114555E+04  0.00000000000E+00 0. -1.
         -2   -1    0    0    0  501 -0.00000000000E+00 -0.00000000000E+00 -0.41864288105E+02  0.41864288105E+02  0.00000000000E+00 0.  1.
          6    1    1    2  502    0 -0.24072543951E+03 -0.39401566504E+02  0.95951206392E+03  0.10048624888E+04  0.17200000000E+03 0. -1.
         -6    1    1    2    0  501  0.24072543951E+03  0.39401566504E+02  0.11414351035E+04  0.11798132548E+04  0.17200000000E+03 0.  1.
</event>
<event>
 4    1  0.3169553E-002  0.2219041E+03  0.7818608E-02  0.1132471E+00
         -2   -1    0    0    0  501 -0.00000000000E+00  0.00000000000E+00  0.73872263689E+02  0.73872263689E+02  0.00000000000E+00 0.  1.
          2   -1    0    0  502    0  0.00000000000E+00 -0.00000000000E+00 -0.76507990085E+03  0.76507990085E+03  0.00000000000E+00 0. -1.
          6    1    1    2  502    0  0.73166327656E+01 -0.14001392335E+03 -0.49611955227E+03  0.54348508902E+03  0.17200000000E+03 0. -1.
         -6    1    1    2    0  501 -0.73166327656E+01  0.14001392335E+03 -0.19508808489E+03  0.29546707552E+03  0.17200000000E+03 0.  1.
</event>
<event>
 4    1  0.3169553E-002  0.3510473E+03  0.7818608E-02  0.1062186E+00
          2   -1    0    0  502    0  0.00000000000E+00  0.00000000000E+00  0.20153737231E+03  0.20153737231E+03  0.00000000000E+00 0. -1.
         -2   -1    0    0    0  501 -0.00000000000E+00 -0.00000000000E+00 -0.73840823415E+03  0.73840823415E+03  0.00000000000E+00 0.  1.
          6    1    1    2  502    0 -0.21092254118E+03 -0.22172480068E+03 -0.73576898970E+02  0.35867501401E+03  0.17200000000E+03 0. -1.
         -6    1    1    2    0  501  0.21092254118E+03  0.22172480068E+03 -0.46329396287E+03  0.58127059245E+03  0.17200000000E+03 0.  1.
</event>
<event>
 4    1  0.3169553E-002  0.2936132E+03  0.7818608E-02  0.1088478E+00
         -1   -1    0    0    0  501 -0.00000000000E+00  0.00000000000E+00  0.16212490065E+03  0.16212490065E+03  0.00000000000E+00 0.  1.
          1   -1    0    0  502    0  0.00000000000E+00 -0.00000000000E+00 -0.53548795062E+03  0.53548795062E+03  0.00000000000E+00 0. -1.
          6    1    1    2  502    0  0.23665015899E+03  0.24928349041E+02 -0.21585273113E+03  0.36441888243E+03  0.17200000000E+03 0. -1.
         -6    1    1    2    0  501 -0.23665015899E+03 -0.24928349041E+02 -0.15751031885E+03  0.33319396885E+03  0.17200000000E+03 0.  1.
</event>
<event>
 4    1  0.3169553E-002  0.1890362E+03  0.7818608E-02  0.1159334E+00
         -1   -1    0    0    0  501 -0.00000000000E+00  0.00000000000E+00  0.47170926767E+03  0.47170926767E+03  0.00000000000E+00 0.  1.
          1   -1    0    0  502    0  0.00000000000E+00 -0.00000000000E+00 -0.12834049720E+03  0.12834049720E+03  0.00000000000E+00 0. -1.
          6    1    1    2  502    0  0.31725940283E+02 -0.71722639942E+02 -0.20361700307E+02  0.19012961686E+03  0.17200000000E+03 0. -1.
         -6    1    1    2    0  501 -0.31725940283E+02  0.71722639942E+02  0.36373047078E+03  0.40992014800E+03  0.17200000000E+03 0.  1.
</event>
<event>
 4    1  0.3169553E-002  0.3963572E+03  0.7818608E-02  0.1045048E+00
          2   -1    0    0  502    0  0.00000000000E+00  0.00000000000E+00  0.82812566985E+03  0.82812566985E+03  0.00000000000E+00 0. -1.
         -2   -1    0    0    0  501 -0.00000000000E+00 -0.00000000000E+00 -0.32487592774E+03  0.32487592774E+03  0.00000000000E+00 0.  1.
          6    1    1    2  502    0 -0.10498394716E+03  0.34131131433E+03  0.62348861500E+03  0.73880788808E+03  0.17200000000E+03 0. -1.
         -6    1    1    2    0  501  0.10498394716E+03 -0.34131131433E+03 -0.12023887288E+03  0.41419370952E+03  0.17200000000E+03 0.  1.
</event>
<event>
 4    1  0.3169553E-002  0.2013486E+03  0.7818608E-02  0.1148606E+00
          1   -1    0    0  502    0  0.00000000000E+00  0.00000000000E+00  0.82233979074E+03  0.82233979074E+03  0.00000000000E+00 0. -1.
         -1   -1    0    0    0  501 -0.00000000000E+00 -0.00000000000E+00 -0.15119050921E+03  0.15119050921E+03  0.00000000000E+00 0.  1.
          6    1    1    2  502    0 -0.43808083031E+02 -0.95069017940E+02  0.73517355545E+03  0.76224761262E+03  0.17200000000E+03 0. -1.
         -6    1    1    2    0  501  0.43808083031E+02  0.95069017940E+02 -0.64024273922E+02  0.21128268732E+03  0.17200000000E+03 0.  1.
</event>
<event>
 4    1  0.3169553E-002  0.2369844E+03  0.7818608E-02  0.1121818E+00
          2   -1    0    0  502    0  0.00000000000E+00  0.00000000000E+00  0.21318898686E+04  0.21318898686E+04  0.00000000000E+00 0. -1.
         -2   -1    0    0    0  501 -0.00000000000E+00 -0.00000000000E+00 -0.28587925811E+02  0.28587925811E+02  0.00000000000E+00 0.  1.
          6    1    1    2  502    0  0.16099713682E+03 -0.25642528649E+02  0.13543235671E+04  0.13749014299E+04  0.17200000000E+03 0. -1.
         -6    1    1    2    0  501 -0.16099713682E+03  0.25642528649E+02  0.74897837564E+03  0.78557636453E+03  0.17200000000E+03 0.  1.
</event>
<event>
 4    1  0.3169553E-002  0.4583511E+03  0.7818608E-02  0.1025261E+00
          2   -1    0    0  502    0  0.00000000000E+00  0.00000000000E+00  0.15084884312E+04  0.15084884312E+04  0.00000000000E+00 0. -1.
         -2   -1    0    0    0  501 -0.00000000000E+00 -0.00000000000E+00 -0.24073420481E+03  0.24073420481E+03  0.00000000000E+00 0.  1.
          6    1    1    2  502    0 -0.53596349607E+02 -0.42146077205E+03  0.12016892262E+04  0.12861348092E+04  0.17200000000E+03 0. -1.
         -6    1    1    2    0  501  0.53596349607E+02  0.42146077205E+03  0.66065000170E+02  0.46308782679E+03  0.17200000000E+03 0.  1.
</event>
<event>
 4    1  0.3169553E-002  0.2602124E+03  0.7818608E-02  0.1107016E+00
         -1   -1    0    0    0  501 -0.00000000000E+00  0.00000000000E+00  0.28130618026E+03  0.28130618026E+03  0.00000000000E+00 0.  1.
          1   -1    0    0  502    0  0.00000000000E+00 -0.00000000000E+00 -0.77469878960E+03  0.77469878960E+03  0.00000000000E+00 0. -1.
          6    1    1    2  502    0 -0.37024837415E+02 -0.19171767484E+03 -0.68506497507E+03  0.73281957227E+03  0.17200000000E+03 0. -1.
         -6    1    1    2    0  501  0.37024837415E+02  0.19171767484E+03  0.19167236573E+03  0.32318539759E+03  0.17200000000E+03 0.  1.
</event>
<event>
 4    1  0.3169553E-002  0.1993923E+03  0.7818608E-02  0.1150253E+00
          2   -1    0    0  502    0  0.00000000000E+00  0.00000000000E+00  0.36304754476E+04  0.36304754476E+04  0.00000000000E+00 0. -1.
         -2   -1    0    0    0  501 -0.00000000000E+00 -0.00000000000E+00 -0.16150331159E+02  0.16150331159E+02  0.00000000000E+00 0.  1.
          6    1    1    2  502    0 -0.98306277300E+02  0.22564966529E+02  0.28416962187E+04  0.28486829766E+04  0.17200000000E+03 0. -1.
         -6    1    1    2    0  501  0.98306277300E+02 -0.22564966529E+02  0.77262889774E+03  0.79794280214E+03  0.17200000000E+03 0.  1.
</event>
<event>
 4    1  0.3169553E-002  0.4040143E+03  0.7818608E-02  0.1042398E+00
          1   -1    0    0  502    0  0.00000000000E+00  0.00000000000E+00  0.70515144401E+03  0.70515144401E+03  0.00000000000E+00 0. -1.
         -1   -1    0    0    0  501 -0.00000000000E+00 -0.00000000000E+00 -0.23148887301E+03  0.23148887301E+03  0.00000000000E+00 0.  1.
          6    1    1    2  502    0  0.10819825288E+03 -0.34919439661E+03  0.23373732745E+03  0.46675553215E+03  0.17200000000E+03 0. -1.
         -6    1    1    2    0  501 -0.10819825288E+03  0.34919439661E+03  0.23992524356E+03  0.46988478487E+03  0.17200000000E+03 0.  1.
</event>
<event>
 4    1  0.3169553E-002  0.1765748E+03  0.7818608E-02  0.1171160E+00
         -2   -1    0    0    0  501 -0.00000000000E+00  0.00000000000E+00  0.82299261995E+02  0.82299261995E+02  0.00000000000E+00 0.  1.
          2   -1    0    0  502    0  0.00000000000E+00 -0.00000000000E+00 -0.37884526423E+03  0.37884526423E+03  0.00000000000E+00 0. -1.
          6    1    1    2  502    0  0.38866504530E+02 -0.91678696811E+01 -0.14850160129E+03  0.23071926793E+03  0.17200000000E+03 0.  1.
         -6    1    1    2    0  501 -0.38866504530E+02  0.91678696811E+01 -0.14804440095E+03  0.23042525830E+03  0.17200000000E+03 0. -1.
</event>
<event>
 4    1  0.3169553E-002  0.1817320E+03  0.7818608E-02  0.1166137E+00
          2   -1    0    0  502    0  0.00000000000E+00  0.00000000000E+00  0.33435665195E+03  0.33435665195E+03  0.00000000000E+00 0. -1.
         -2   -1    0    0    0  501 -0.00000000000E+00 -0.00000000000E+00 -0.99804632237E+02  0.99804632237E+02  0.00000000000E+00 0.  1.
          6    1    1    2  502    0  0.20254319977E+02  0.55066000016E+02  0.95240682886E+02  0.20517624013E+03  0.17200000000E+03 0.  1.
         -6    1    1    2    0  501 -0.20254319977E+02 -0.55066000016E+02  0.13931133683E+03  0.22898504406E+03  0.17200000000E+03 0.  1.
</event>
<event>
 4    1  0.3169553E-002  0.3194907E+03  0.7818608E-02  0.1075884E+00
         -2   -1    0    0    0  501 -0.00000000000E+00  0.00000000000E+00  0.48323084324E+02  0.48323084324E+02  0.00000000000E+00 0.  1.
          2   -1    0    0  502    0  0.00000000000E+00 -0.00000000000E+00 -0.23781587662E+04  0.23781587662E+04  0.00000000000E+00 0. -1.
          6    1    1    2  502    0 -0.26598199832E+03 -0.41759966028E+02 -0.75929040575E+03  0.82376952994E+03  0.17200000000E+03 0.  1.
         -6    1    1    2    0  501  0.26598199832E+03  0.41759966028E+02 -0.15705452762E+04  0.16027123206E+04  0.17200000000E+03 0.  1.
</event>
<event>
 4    1  0.3169553E-002  0.1738194E+03  0.7818608E-02  0.1173922E+00
          1   -1    0    0  502    0  0.00000000000E+00  0.00000000000E+00  0.59911483769E+03  0.59911483769E+03  0.00000000000E+00 0. -1.
         -1   -1    0    0    0  501 -0.00000000000E+00 -0.00000000000E+00 -0.52509869298E+02  0.52509869298E+02  0.00000000000E+00 0.  1.
          6    1    1    2  502    0  0.24021359111E+02 -0.72224246992E+01  0.20845470639E+03  0.27141583176E+03  0.17200000000E+03 0.  1.
         -6    1    1    2    0  501 -0.24021359111E+02  0.72224246992E+01  0.33815026200E+03  0.38020887523E+03  0.17200000000E+03 0. -1.
</event>
<event>
 4    1  0.3169553E-002  0.2710764E+03  0.7818608E-02  0.1100665E+00
          1   -1    0    0  502    0  0.00000000000E+00  0.00000000000E+00  0.91176706049E+03  0.91176706049E+03  0.00000000000E+00 0. -1.
         -1   -1    0    0    0  501 -0.00000000000E+00 -0.00000000000E+00 -0.80860303014E+02  0.80860303014E+02  0.00000000000E+00 0.  1.
          6    1    1    2  502    0  0.16436702409E+03 -0.12993041264E+03  0.38694027517E+03  0.47244598345E+03  0.17200000000E+03 0. -1.
         -6    1    1    2    0  501 -0.16436702409E+03  0.12993041264E+03  0.44396648231E+03  0.52018138005E+03  0.17200000000E+03 0.  1.
</event>
<event>
 4    1  0.3169553E-002  0.1843213E+03  0.7818608E-02  0.1163685E+00
         -1   -1    0    0    0  501 -0.00000000000E+00  0.00000000000E+00  0.79190411042E+02  0.79190411042E+02  0.00000000000E+00 0.  1.
          1   -1    0    0  502    0  0.00000000000E+00 -0.00000000000E+00 -0.63193497887E+03  0.63193497887E+03  0.00000000000E+00 0. -1.
          6    1    1    2  502    0 -0.55384117583E+02  0.36372170037E+02 -0.47785424331E+03  0.51217088270E+03  0.17200000000E+03 0. -1.
         -6    1    1    2    0  501  0.55384117583E+02 -0.36372170037E+02 -0.74890324516E+02  0.19895450721E+03  0.17200000000E+03 0. -1.
</event>
<event>
 4    1  0.3169553E-002  0.1745205E+03  0.7818608E-02  0.1173214E+00
          2   -1    0    0  502    0  0.00000000000E+00  0.00000000000E+00  0.51195696039E+02  0.51195696039E+02  0.00000000000E+00 0. -1.
         -2   -1    0    0    0  501 -0.00000000000E+00 -0.00000000000E+00 -0.71744149723E+03  0.71744149723E+03  0.00000000000E+00 0.  1.
          6    1    1    2  502    0 -0.10590122903E+02 -0.27590641632E+02 -0.17430386842E+03  0.24665610220E+03  0.17200000000E+03 0. -1.
         -6    1    1    2    0  501  0.10590122903E+02  0.27590641632E+02 -0.49194193277E+03  0.52198109107E+03  0.17200000000E+03 0.  1.
</event>
<event>
 4    1  0.3169553E-002  0.2109780E+03  0.7818608E-02  0.1140794E+00
         -3   -1    0    0    0  501 -0.00000000000E+00  0.00000000000E+00  0.38993052396E+03  0.38993052396E+03  0.00000000000E+00 0.  1.
          3   -1    0    0  502    0  0.00000000000E+00 -0.00000000000E+00 -0.30111447908E+03  0.30111447908E+03  0.00000000000E+00 0. -1.
          6    1    1    2  502    0  0.58186817195E+02 -0.10743383257E+03 -0.22785370663E+03  0.31053026536E+03  0.17200000000E+03 0. -1.
         -6    1    1    2    0  501 -0.58186817195E+02  0.10743383257E+03  0.31666975151E+03  0.38051473768E+03  0.17200000000E+03 0.  1.
</event>
<event>
 4    1  0.3169553E-002  0.2632354E+03  0.7818608E-02  0.1105215E+00
          2   -1    0    0  502    0  0.00000000000E+00  0.00000000000E+00  0.70315003813E+03  0.70315003813E+03  0.00000000000E+00 0. -1.
         -2   -1    0    0    0  501 -0.00000000000E+00 -0.00000000000E+00 -0.14514095831E+03  0.14514095831E+03  0.00000000000E+00 0.  1.
          6    1    1    2  502    0 -0.94677343536E+01  0.19904579086E+03  0.51932333282E+03  0.58222812442E+03  0.17200000000E+03 0. -1.
         -6    1    1    2    0  501  0.94677343536E+01 -0.19904579086E+03  0.38685747000E+02  0.26606287203E+03  0.17200000000E+03 0.  1.
</event>
<event>
 4    1  0.3169553E-002  0.2220617E+03  0.7818608E-02  0.1132355E+00
         -1   -1    0    0    0  501 -0.00000000000E+00  0.00000000000E+00  0.18558968316E+03  0.18558968316E+03  0.00000000000E+00 0.  1.
          1   -1    0    0  502    0  0.00000000000E+00 -0.00000000000E+00 -0.37642784237E+03  0.37642784237E+03  0.00000000000E+00 0. -1.
          6    1    1    2  502    0 -0.11030419979E+03  0.86950482243E+02 -0.24782612540E+03  0.33275996045E+03  0.17200000000E+03 0. -1.
         -6    1    1    2    0  501  0.11030419979E+03 -0.86950482243E+02  0.56987966187E+02  0.22925756507E+03  0.17200000000E+03 0.  1.
</event>
<event>
 4    1  0.3169553E-002  0.1892786E+03  0.7818608E-02  0.1159114E+00
          2   -1    0    0  502    0  0.00000000000E+00  0.00000000000E+00  0.29660358297E+03  0.29660358297E+03  0.00000000000E+00 0. -1.
         -2   -1    0    0    0  501 -0.00000000000E+00 -0.00000000000E+00 -0.17343019960E+03  0.17343019960E+03  0.00000000000E+00 0.  1.
          6    1    1    2  502    0 -0.65979510782E+02  0.43463803959E+02  0.19106598741E+03  0.26894722464E+03  0.17200000000E+03 0. -1.
         -6    1    1    2    0  501  0.65979510782E+02 -0.43463803959E+02 -0.67892604041E+02  0.20108655793E+03  0.17200000000E+03 0.  1.
</event>
<event>
 4    1  0.3169553E-002  0.2542199E+03  0.7818608E-02  0.1110667E+00
         -1   -1    0    0    0  501 -0.00000000000E+00  0.00000000000E+00  0.36631207685E+03  0.36631207685E+03  0.00000000000E+00 0.  1.
          1   -1    0    0  502    0  0.00000000000E+00 -0.00000000000E+00 -0.17986036503E+03  0.17986036503E+03  0.00000000000E+00 0. -1.
          6    1    1    2  502    0  0.18004494905E+03 -0.51259962206E+02  0.55501800795E+02  0.26020802696E+03  0.17200000000E+03 0. -1.
         -6    1    1    2    0  501 -0.18004494905E+03  0.51259962206E+02  0.13094991102E+03  0.28596441492E+03  0.17200000000E+03 0.  1.
</event>
<event>
 4    1  0.3169553E-002  0.1791792E+03  0.7818608E-02  0.1168600E+00
         -1   -1    0    0    0  501 -0.00000000000E+00  0.00000000000E+00  0.12679217805E+03  0.12679217805E+03  0.00000000000E+00 0.  1.
          1   -1    0    0  502    0  0.00000000000E+00 -0.00000000000E+00 -0.25362519881E+03  0.25362519881E+03  0.00000000000E+00 0. -1.
          6    1    1    2  502    0  0.34396794288E+02 -0.36579364794E+02 -0.71102074643E+02  0.19277109328E+03  0.17200000000E+03 0. -1.
         -6    1    1    2    0  501 -0.34396794288E+02  0.36579364794E+02 -0.55730946118E+02  0.18764628358E+03  0.17200000000E+03 0.  1.
</event>
<event>
 4    1  0.3169553E-002  0.2987533E+03  0.7818608E-02  0.1085865E+00
          2   -1    0    0  502    0  0.00000000000E+00  0.00000000000E+00  0.71299199394E+03  0.71299199394E+03  0.00000000000E+00 0. -1.
         -2   -1    0    0    0  501 -0.00000000000E+00 -0.00000000000E+00 -0.12546317736E+03  0.12546317736E+03  0.00000000000E+00 0.  1.
          6    1    1    2  502    0  0.38520013102E+02 -0.24121722258E+03  0.31362189464E+03  0.43314227764E+03  0.17200000000E+03 0.  1.
         -6    1    1    2    0  501 -0.38520013102E+02  0.24121722258E+03  0.27390692195E+03  0.40531289367E+03  0.17200000000E+03 0.  1.
</event>
<event>
 4    1  0.3169553E-002  0.6232650E+03  0.7818608E-02  0.9858281E-01
         -2   -1    0    0    0  501 -0.00000000000E+00  0.00000000000E+00  0.36457509857E+03  0.36457509857E+03  0.00000000000E+00 0.  1.
          2   -1    0    0  502    0  0.00000000000E+00 -0.00000000000E+00 -0.14414883321E+04  0.14414883321E+04  0.00000000000E+00 0. -1.
          6    1    1    2  502    0 -0.40914083455E+03 -0.43758311310E+03 -0.99964418770E+03  0.11780270393E+04  0.17200000000E+03 0. -1.
         -6    1    1    2    0  501  0.40914083455E+03  0.43758311310E+03 -0.77269045773E+02  0.62803639130E+03  0.17200000000E+03 0.  1.
</event>
<event>
 4    1  0.3169553E-002  0.1990457E+03  0.7818608E-02  0.1150547E+00
          2   -1    0    0  502    0  0.00000000000E+00  0.00000000000E+00  0.12473380133E+04  0.12473380133E+04  0.00000000000E+00 0. -1.
         -2   -1    0    0    0  501 -0.00000000000E+00 -0.00000000000E+00 -0.34694338294E+02  0.34694338294E+02  0.00000000000E+00 0.  1.
          6    1    1    2  502    0  0.61260214946E+02 -0.79261483299E+02  0.41999616663E+03  0.46477518937E+03  0.17200000000E+03 0.  1.
         -6    1    1    2    0  501 -0.61260214946E+02  0.79261483299E+02  0.79264750834E+03  0.81725716218E+03  0.17200000000E+03 0. -1.
</event>
<event>
 4    1  0.3169553E-002  0.3575098E+03  0.7818608E-02  0.1059574E+00
          1   -1    0    0  502    0  0.00000000000E+00  0.00000000000E+00  0.32426638172E+03  0.32426638172E+03  0.00000000000E+00 0. -1.
         -1   -1    0    0    0  501 -0.00000000000E+00 -0.00000000000E+00 -0.46872665181E+03  0.46872665181E+03  0.00000000000E+00 0.  1.
          6    1    1    2  502    0 -0.27763854393E+03 -0.14541702917E+03 -0.23037239988E+03  0.42530543856E+03  0.17200000000E+03 0.  1.
         -6    1    1    2    0  501  0.27763854393E+03  0.14541702917E+03  0.85912129789E+02  0.36768759497E+03  0.17200000000E+03 0. -1.
</event>
<event>
 4    1  0.3169553E-002  0.1793655E+03  0.7818608E-02  0.1168419E+00
          1   -1    0    0  502    0  0.00000000000E+00  0.00000000000E+00  0.30339856712E+03  0.30339856712E+03  0.00000000000E+00 0. -1.
         -1   -1    0    0    0  501 -0.00000000000E+00 -0.00000000000E+00 -0.10607983791E+03  0.10607983791E+03  0.00000000000E+00 0.  1.
          6    1    1    2  502    0 -0.70484113771E+01 -0.50381544590E+02  0.10269276146E+03  0.20668280866E+03  0.17200000000E+03 0.  1.
         -6    1    1    2    0  501  0.70484113771E+01  0.50381544590E+02  0.94625967749E+02  0.20279559638E+03  0.17200000000E+03 0. -1.
</event>
<event>
 4    1  0.3169553E-002  0.1733917E+03  0.7818608E-02  0.1174356E+00
         -2   -1    0    0    0  501 -0.00000000000E+00  0.00000000000E+00  0.11002730179E+03  0.11002730179E+03  0.00000000000E+00 0.  1.
          2   -1    0    0  502    0  0.00000000000E+00 -0.00000000000E+00 -0.32903427623E+03  0.32903427623E+03  0.00000000000E+00 0. -1.
          6    1    1    2  502    0 -0.20442431828E+02  0.79228322905E+01 -0.19989782717E+03  0.26462011563E+03  0.17200000000E+03 0. -1.
         -6    1    1    2    0  501  0.20442431828E+02 -0.79228322905E+01 -0.19109147280E+02  0.17444146239E+03  0.17200000000E+03 0.  1.
</event>
<event>
 4    1  0.3169553E-002  0.2066886E+03  0.7818608E-02  0.1144215E+00
          1   -1    0    0  502    0  0.00000000000E+00  0.00000000000E+00  0.60386896601E+03  0.60386896601E+03  0.00000000000E+00 0. -1.
         -1   -1    0    0    0  501 -0.00000000000E+00 -0.00000000000E+00 -0.89582786300E+02  0.89582786300E+02  0.00000000000E+00 0.  1.
          6    1    1    2  502    0 -0.88252468081E+02 -0.73127759719E+02  0.41614387255E+03  0.46464598355E+03  0.17200000000E+03 0. -1.
         -6    1    1    2    0  501  0.88252468081E+02  0.73127759719E+02  0.98142307153E+02  0.22880576876E+03  0.17200000000E+03 0.  1.
</event>
<event>
 4    1  0.3169553E-002  0.2509276E+03  0.7818608E-02  0.1112720E+00
          2   -1    0    0  502    0  0.00000000000E+00  0.00000000000E+00  0.17458413625E+04  0.17458413625E+04  0.00000000000E+00 0. -1.
         -2   -1    0    0    0  501 -0.00000000000E+00 -0.00000000000E+00 -0.59357208143E+02  0.59357208143E+02  0.00000000000E+00 0.  1.
          6    1    1    2  502    0 -0.84646180010E+02  0.16191261846E+03  0.14086459269E+04  0.14308207502E+04  0.17200000000E+03 0. -1.
         -6    1    1    2    0  501  0.84646180010E+02 -0.16191261846E+03  0.27783822744E+03  0.37437782043E+03  0.17200000000E+03 0.  1.
</event>
<event>
 4    1  0.3169553E-002  0.2529138E+03  0.7818608E-02  0.1111477E+00
          2   -1    0    0  502    0  0.00000000000E+00  0.00000000000E+00  0.11968340199E+04  0.11968340199E+04  0.00000000000E+00 0. -1.
         -2   -1    0    0    0  501 -0.00000000000E+00 -0.00000000000E+00 -0.53665147385E+02  0.53665147385E+02  0.00000000000E+00 0.  1.
          6    1    1    2  502    0 -0.35638096022E+02  0.18196509900E+03  0.53158185664E+03  0.58868042387E+03  0.17200000000E+03 0. -1.
         -6    1    1    2    0  501  0.35638096022E+02 -0.18196509900E+03  0.61158701585E+03  0.66181874339E+03  0.17200000000E+03 0.  1.
</event>
<event>
 4    1  0.3169553E-002  0.1883650E+03  0.7818608E-02  0.1159944E+00
         -2   -1    0    0    0  501 -0.00000000000E+00  0.00000000000E+00  0.41820629617E+03  0.41820629617E+03  0.00000000000E+00 0.  1.
          2   -1    0    0  502    0  0.00000000000E+00 -0.00000000000E+00 -0.22158642603E+03  0.22158642603E+03  0.00000000000E+00 0. -1.
          6    1    1    2  502    0  0.54631213781E+02 -0.53970292324E+02 -0.15299030684E+03  0.24266725358E+03  0.17200000000E+03 0. -1.
         -6    1    1    2    0  501 -0.54631213781E+02  0.53970292324E+02  0.34961017699E+03  0.39712546862E+03  0.17200000000E+03 0.  1.
</event>
<event>
 4    1  0.3169553E-002  0.2167202E+03  0.7818608E-02  0.1136352E+00
         -2   -1    0    0    0  501 -0.00000000000E+00  0.00000000000E+00  0.35980197088E+03  0.35980197088E+03  0.00000000000E+00 0.  1.
          2   -1    0    0  502    0  0.00000000000E+00 -0.00000000000E+00 -0.21705632096E+03  0.21705632096E+03  0.00000000000E+00 0. -1.
          6    1    1    2  502    0 -0.10863763381E+03 -0.74709631105E+02 -0.11072640904E+03  0.24336803841E+03  0.17200000000E+03 0. -1.
         -6    1    1    2    0  501  0.10863763381E+03  0.74709631105E+02  0.25347205896E+03  0.33349025343E+03  0.17200000000E+03 0.  1.
</event>
<event>
 4    1  0.3169553E-002  0.1737031E+03  0.7818608E-02  0.1174040E+00
          2   -1    0    0  502    0  0.00000000000E+00  0.00000000000E+00  0.18727084795E+04  0.18727084795E+04  0.00000000000E+00 0. -1.
         -2   -1    0    0    0  501 -0.00000000000E+00 -0.00000000000E+00 -0.16287918635E+02  0.16287918635E+02  0.00000000000E+00 0.  1.
          6    1    1    2  502    0 -0.16154740411E+02 -0.18104733767E+02  0.83000464790E+03  0.84798612758E+03  0.17200000000E+03 0. -1.
         -6    1    1    2    0  501  0.16154740411E+02  0.18104733767E+02  0.10264159129E+04  0.10410102705E+04  0.17200000000E+03 0. -1.
</event>
<event>
 4    1  0.3169553E-002  0.3951763E+03  0.7818608E-02  0.1045463E+00
          1   -1    0    0  502    0  0.00000000000E+00  0.00000000000E+00  0.67463285585E+03  0.67463285585E+03  0.00000000000E+00 0. -1.
         -1   -1    0    0    0  501 -0.00000000000E+00 -0.00000000000E+00 -0.23239137407E+03  0.23239137407E+03  0.00000000000E+00 0.  1.
          6    1    1    2  502    0  0.34504790886E+03 -0.86730798062E+02  0.24951491757E+03  0.46735637882E+03  0.17200000000E+03 0. -1.
         -6    1    1    2    0  501 -0.34504790886E+03  0.86730798062E+02  0.19272656422E+03  0.43966785110E+03  0.17200000000E+03 0.  1.
</event>
<event>
 4    1  0.3169553E-002  0.2660005E+03  0.7818608E-02  0.1103591E+00
         -2   -1    0    0    0  501 -0.00000000000E+00  0.00000000000E+00  0.61360527494E+03  0.61360527494E+03  0.00000000000E+00 0.  1.
          2   -1    0    0  502    0  0.00000000000E+00 -0.00000000000E+00 -0.11532364794E+03  0.11532364794E+03  0.00000000000E+00 0. -1.
          6    1    1    2  502    0  0.58689312718E+02  0.19423650870E+03  0.25275069233E+03  0.36693210436E+03  0.17200000000E+03 0.  1.
         -6    1    1    2    0  501 -0.58689312718E+02 -0.19423650870E+03  0.24553093468E+03  0.36199681853E+03  0.17200000000E+03 0.  1.
</event>
<event>
 4    1  0.3169553E-002  0.2564801E+03  0.7818608E-02  0.1109277E+00
          1   -1    0    0  502    0  0.00000000000E+00  0.00000000000E+00  0.30885918770E+04  0.30885918770E+04  0.00000000000E+00 0. -1.
         -1   -1    0    0    0  501 -0.00000000000E+00 -0.00000000000E+00 -0.25350788652E+02  0.25350788652E+02  0.00000000000E+00 0.  1.
          6    1    1    2  502    0 -0.17844180359E+03 -0.66004106012E+02  0.21541232186E+04  0.21693383462E+04  0.17200000000E+03 0. -1.
         -6    1    1    2    0  501  0.17844180359E+03  0.66004106012E+02  0.90911786973E+03  0.94460431946E+03  0.17200000000E+03 0.  1.
</event>
<event>
 4    1  0.3169553E-002  0.2457510E+03  0.7818608E-02  0.1116020E+00
         -2   -1    0    0    0  501 -0.00000000000E+00  0.00000000000E+00  0.37244887985E+03  0.37244887985E+03  0.00000000000E+00 0.  1.
          2   -1    0    0  502    0  0.00000000000E+00 -0.00000000000E+00 -0.18000284043E+03  0.18000284043E+03  0.00000000000E+00 0. -1.
          6    1    1    2  502    0 -0.15073452469E+03  0.89937011141E+02  0.92376112197E+01  0.24592457455E+03  0.17200000000E+03 0. -1.
         -6    1    1    2    0  501  0.15073452469E+03 -0.89937011141E+02  0.18320842820E+03  0.30652714573E+03  0.17200000000E+03 0.  1.
</event>
<event>
 4    1  0.3169553E-002  0.3193860E+03  0.7818608E-02  0.1075932E+00
         -1   -1    0    0    0  501 -0.00000000000E+00  0.00000000000E+00  0.47696054665E+03  0.47696054665E+03  0.00000000000E+00 0.  1.
          1   -1    0    0  502    0  0.00000000000E+00 -0.00000000000E+00 -0.21898670303E+03  0.21898670303E+03  0.00000000000E+00 0. -1.
          6    1    1    2  502    0  0.16094849974E+03 -0.21568267180E+03  0.75795325193E+02  0.32825655485E+03  0.17200000000E+03 0. -1.
         -6    1    1    2    0  501 -0.16094849974E+03  0.21568267180E+03  0.18217851843E+03  0.36769069482E+03  0.17200000000E+03 0.  1.
</event>
<event>
 4    1  0.3169553E-002  0.1971273E+03  0.7818608E-02  0.1152186E+00
          2   -1    0    0  502    0  0.00000000000E+00  0.00000000000E+00  0.13504292859E+03  0.13504292859E+03  0.00000000000E+00 0. -1.
         -2   -1    0    0    0  501 -0.00000000000E+00 -0.00000000000E+00 -0.28890903493E+03  0.28890903493E+03  0.00000000000E+00 0.  1.
          6    1    1    2  502    0 -0.36125382059E+02 -0.89275670968E+02 -0.90334136516E+02  0.21683967551E+03  0.17200000000E+03 0.  1.
         -6    1    1    2    0  501  0.36125382059E+02  0.89275670968E+02 -0.63531969828E+02  0.20711228801E+03  0.17200000000E+03 0.  1.
</event>
<event>
 4    1  0.3169553E-002  0.1919890E+03  0.7818608E-02  0.1156679E+00
          1   -1    0    0  502    0  0.00000000000E+00  0.00000000000E+00  0.31313234103E+03  0.31313234103E+03  0.00000000000E+00 0. -1.
         -1   -1    0    0    0  501 -0.00000000000E+00 -0.00000000000E+00 -0.13262055755E+03  0.13262055755E+03  0.00000000000E+00 0.  1.
          6    1    1    2  502    0  0.80279754704E+02  0.28826269792E+02  0.16497985225E+03  0.25313661232E+03  0.17200000000E+03 0. -1.
         -6    1    1    2    0  501 -0.80279754704E+02 -0.28826269792E+02  0.15531931228E+02  0.19261628626E+03  0.17200000000E+03 0.  1.
</event>
<event>
 4    1  0.3169553E-002  0.3968862E+03  0.7818608E-02  0.1044863E+00
         -1   -1    0    0    0  501 -0.00000000000E+00  0.00000000000E+00  0.48648207357E+03  0.48648207357E+03  0.00000000000E+00 0.  1.
          1   -1    0    0  502    0  0.00000000000E+00 -0.00000000000E+00 -0.64991693827E+03  0.64991693827E+03  0.00000000000E+00 0. -1.
          6    1    1    2  502    0  0.17773836565E+03 -0.31039287421E+03 -0.48421605167E+03  0.62608613439E+03  0.17200000000E+03 0. -1.
         -6    1    1    2    0  501 -0.17773836565E+03  0.31039287421E+03  0.32078118697E+03  0.51031287746E+03  0.17200000000E+03 0.  1.
</event>
<event>
 4    1  0.3169553E-002  0.2121744E+03  0.7818608E-02  0.1139856E+00
          1   -1    0    0  502    0  0.00000000000E+00  0.00000000000E+00  0.13932654003E+04  0.13932654003E+04  0.00000000000E+00 0. -1.
         -1   -1    0    0    0  501 -0.00000000000E+00 -0.00000000000E+00 -0.32448231859E+02  0.32448231859E+02  0.00000000000E+00 0.  1.
          6    1    1    2  502    0 -0.62589804078E+02 -0.10731491912E+03  0.72674613145E+03  0.75708514384E+03  0.17200000000E+03 0. -1.
         -6    1    1    2    0  501  0.62589804078E+02  0.10731491912E+03  0.63407103695E+03  0.66862848828E+03  0.17200000000E+03 0.  1.
</event>
<event>
 4    1  0.3169553E-002  0.3677292E+03  0.7818608E-02  0.1055565E+00
         -3   -1    0    0    0  501 -0.00000000000E+00  0.00000000000E+00  0.85443872813E+02  0.85443872813E+02  0.00000000000E+00 0.  1.
          3   -1    0    0  502    0  0.00000000000E+00 -0.00000000000E+00 -0.16164618962E+04  0.16164618962E+04  0.00000000000E+00 0. -1.
          6    1    1    2  502    0  0.23231210546E+03 -0.22731441563E+03 -0.64237388283E+03  0.74018170961E+03  0.17200000000E+03 0. -1.
         -6    1    1    2    0  501 -0.23231210546E+03  0.22731441563E+03 -0.88864414059E+03  0.96172405944E+03  0.17200000000E+03 0.  1.
</event>
<event>
 4    1  0.3169553E-002  0.5838039E+03  0.7818608E-02  0.9939589E-01
         -1   -1    0    0    0  501 -0.00000000000E+00  0.00000000000E+00  0.33983872767E+03  0.33983872767E+03  0.00000000000E+00 0.  1.
          1   -1    0    0  502    0  0.00000000000E+00 -0.00000000000E+00 -0.14758440932E+04  0.14758440932E+04  0.00000000000E+00 0. -1.
          6    1    1    2  502    0  0.19248670048E+03 -0.52363333618E+03 -0.10819172737E+04  0.12293786999E+04  0.17200000000E+03 0. -1.
         -6    1    1    2    0  501 -0.19248670048E+03  0.52363333618E+03 -0.54088091847E+02  0.58630412099E+03  0.17200000000E+03 0.  1.
</event>
<event>
 4    1  0.3169553E-002  0.1777345E+03  0.7818608E-02  0.1170014E+00
          1   -1    0    0  502    0  0.00000000000E+00  0.00000000000E+00  0.12938776746E+03  0.12938776746E+03  0.00000000000E+00 0. -1.
         -1   -1    0    0    0  501 -0.00000000000E+00 -0.00000000000E+00 -0.45965920684E+03  0.45965920684E+03  0.00000000000E+00 0.  1.
          6    1    1    2  502    0 -0.36221518702E+02  0.26335550195E+02  0.36532970809E+02  0.18145031710E+03  0.17200000000E+03 0. -1.
         -6    1    1    2    0  501  0.36221518702E+02 -0.26335550195E+02 -0.36680441019E+03  0.40759665720E+03  0.17200000000E+03 0.  1.
</event>
<event>
 4    1  0.3169553E-002  0.4340304E+03  0.7818608E-02  0.1032594E+00
         -2   -1    0    0    0  501 -0.00000000000E+00  0.00000000000E+00  0.37577525645E+03  0.37577525645E+03  0.00000000000E+00 0.  1.
          2   -1    0    0  502    0  0.00000000000E+00 -0.00000000000E+00 -0.50138842821E+03  0.50138842821E+03  0.00000000000E+00 0. -1.
          6    1    1    2  502    0 -0.39474806862E+03  0.54519505616E+02 -0.68052087322E+02  0.43933301806E+03  0.17200000000E+03 0. -1.
         -6    1    1    2    0  501  0.39474806862E+03 -0.54519505616E+02 -0.57561084430E+02  0.43783066660E+03  0.17200000000E+03 0.  1.
</event>
<event>
 4    1  0.3169553E-002  0.1849891E+03  0.7818608E-02  0.1163060E+00
          2   -1    0    0  502    0  0.00000000000E+00  0.00000000000E+00  0.21333968707E+04  0.21333968707E+04  0.00000000000E+00 0. -1.
         -2   -1    0    0    0  501 -0.00000000000E+00 -0.00000000000E+00 -0.17947840297E+02  0.17947840297E+02  0.00000000000E+00 0.  1.
          6    1    1    2  502    0 -0.56142877546E+01  0.67863500516E+02  0.70707266765E+03  0.73087121456E+03  0.17200000000E+03 0. -1.
         -6    1    1    2    0  501  0.56142877546E+01 -0.67863500516E+02  0.14083763627E+04  0.14204734964E+04  0.17200000000E+03 0.  1.
</event>
<event>
 4    1  0.3169553E-002  0.2217661E+03  0.7818608E-02  0.1132573E+00
         -1   -1    0    0    0  501 -0.00000000000E+00  0.00000000000E+00  0.93363708006E+02  0.93363708006E+02  0.00000000000E+00 0.  1.
          1   -1    0    0  502    0  0.00000000000E+00 -0.00000000000E+00 -0.54940994564E+03  0.54940994564E+03  0.00000000000E+00 0. -1.
          6    1    1    2  502    0  0.91207389391E+02 -0.10619527171E+03 -0.29327872568E+03  0.36768551039E+03  0.17200000000E+03 0. -1.
         -6    1    1    2    0  501 -0.91207389391E+02  0.10619527171E+03 -0.16276751195E+03  0.27508814326E+03  0.17200000000E+03 0.  1.
</event>
<event>
 4    1  0.3169553E-002  0.2547307E+03  0.7818608E-02  0.1110351E+00
          2   -1    0    0  502    0  0.00000000000E+00  0.00000000000E+00  0.19905626327E+04  0.19905626327E+04  0.00000000000E+00 0. -1.
         -2   -1    0    0    0  501 -0.00000000000E+00 -0.00000000000E+00 -0.55940092331E+02  0.55940092331E+02  0.00000000000E+00 0.  1.
          6    1    1    2  502    0 -0.14170425442E+03 -0.12338400427E+03  0.16282994340E+04  0.16481039880E+04  0.17200000000E+03 0. -1.
         -6    1    1    2    0  501  0.14170425442E+03  0.12338400427E+03  0.30632310633E+03  0.39839873707E+03  0.17200000000E+03 0.  1.
</event>
<event>
 4    1  0.3169553E-002  0.6356899E+03  0.7818608E-02  0.9834008E-01
         -2   -1    0    0    0  501 -0.00000000000E+00  0.00000000000E+00  0.64571804663E+03  0.64571804663E+03  0.00000000000E+00 0.  1.
          2   -1    0    0  502    0  0.00000000000E+00 -0.00000000000E+00 -0.10404525787E+04  0.10404525787E+04  0.00000000000E+00 0. -1.
          6    1    1    2  502    0  0.34038434883E+01  0.61196896009E+03 -0.72959003096E+03  0.96767928961E+03  0.17200000000E+03 0. -1.
         -6    1    1    2    0  501 -0.34038434883E+01 -0.61196896009E+03  0.33485549893E+03  0.71849133567E+03  0.17200000000E+03 0.  1.
</event>
<event>
 4    1  0.3169553E-002  0.2785636E+03  0.7818608E-02  0.1096476E+00
          2   -1    0    0  502    0  0.00000000000E+00  0.00000000000E+00  0.37684554096E+04  0.37684554096E+04  0.00000000000E+00 0. -1.
         -2   -1    0    0    0  501 -0.00000000000E+00 -0.00000000000E+00 -0.29239572801E+02  0.29239572801E+02  0.00000000000E+00 0.  1.
          6    1    1    2  502    0 -0.18602893111E+03 -0.11578821505E+03  0.29022918297E+04  0.29156295270E+04  0.17200000000E+03 0. -1.
         -6    1    1    2    0  501  0.18602893111E+03  0.11578821505E+03  0.83692400708E+03  0.88206545538E+03  0.17200000000E+03 0.  1.
</event>
<event>
 4    1  0.3169553E-002  0.2635470E+03  0.7818608E-02  0.1105031E+00
          1   -1    0    0  502    0  0.00000000000E+00  0.00000000000E+00  0.42300976242E+03  0.42300976242E+03  0.00000000000E+00 0. -1.
         -1   -1    0    0    0  501 -0.00000000000E+00 -0.00000000000E+00 -0.22701644261E+03  0.22701644261E+03  0.00000000000E+00 0.  1.
          6    1    1    2  502    0  0.10714274035E+03  0.16850351563E+03  0.26896618255E+03  0.37656315399E+03  0.17200000000E+03 0. -1.
         -6    1    1    2    0  501 -0.10714274035E+03 -0.16850351563E+03 -0.72972862737E+02  0.27346305105E+03  0.17200000000E+03 0.  1.
</event>
<event>
 4    1  0.3169553E-002  0.2226639E+03  0.7818608E-02  0.1131912E+00
          2   -1    0    0  502    0  0.00000000000E+00  0.00000000000E+00  0.16423588123E+03  0.16423588123E+03  0.00000000000E+00 0. -1.
         -2   -1    0    0    0  501 -0.00000000000E+00 -0.00000000000E+00 -0.32666123271E+03  0.32666123271E+03  0.00000000000E+00 0.  1.
          6    1    1    2  502    0  0.69993227869E+02  0.12286648854E+03 -0.14881929874E+03  0.26781786652E+03  0.17200000000E+03 0. -1.
         -6    1    1    2    0  501 -0.69993227869E+02 -0.12286648854E+03 -0.13606052742E+02  0.22307924741E+03  0.17200000000E+03 0.  1.
</event>
<event>
 4    1  0.3169553E-002  0.1892913E+03  0.7818608E-02  0.1159102E+00
         -2   -1    0    0    0  501 -0.00000000000E+00  0.00000000000E+00  0.13427077387E+03  0.13427077387E+03  0.00000000000E+00 0.  1.
          2   -1    0    0  502    0  0.00000000000E+00 -0.00000000000E+00 -0.41846472953E+03  0.41846472953E+03  0.00000000000E+00 0. -1.
          6    1    1    2  502    0 -0.10716667680E+02 -0.78309246435E+02 -0.30844500587E+03  0.36189709406E+03  0.17200000000E+03 0. -1.
         -6    1    1    2    0  501  0.10716667680E+02  0.78309246435E+02  0.24251050208E+02  0.19083840934E+03  0.17200000000E+03 0.  1.
</event>
<event>
 4    1  0.3169553E-002  0.2099599E+03  0.7818608E-02  0.1141598E+00
          2   -1    0    0  502    0  0.00000000000E+00  0.00000000000E+00  0.10143998176E+04  0.10143998176E+04  0.00000000000E+00 0. -1.
         -2   -1    0    0    0  501 -0.00000000000E+00 -0.00000000000E+00 -0.10162674400E+03  0.10162674400E+03  0.00000000000E+00 0.  1.
          6    1    1    2  502    0 -0.87903269166E+02 -0.82293235776E+02  0.87855683580E+03  0.90329689202E+03  0.17200000000E+03 0. -1.
         -6    1    1    2    0  501  0.87903269166E+02  0.82293235776E+02  0.34216237779E+02  0.21272966956E+03  0.17200000000E+03 0.  1.
</event>
<event>
 4    1  0.3169553E-002  0.1877688E+03  0.7818608E-02  0.1160489E+00
          2   -1    0    0  502    0  0.00000000000E+00  0.00000000000E+00  0.23214482703E+04  0.23214482703E+04  0.00000000000E+00 0. -1.
         -2   -1    0    0    0  501 -0.00000000000E+00 -0.00000000000E+00 -0.22404851563E+02  0.22404851563E+02  0.00000000000E+00 0.  1.
          6    1    1    2  502    0 -0.75314029841E+02  0.94902996100E+00  0.18146675668E+04  0.18243561828E+04  0.17200000000E+03 0. -1.
         -6    1    1    2    0  501  0.75314029841E+02 -0.94902996100E+00  0.48437585193E+03  0.51949693905E+03  0.17200000000E+03 0.  1.
</event>
<event>
 4    1  0.3169553E-002  0.9004438E+03  0.7818608E-02  0.9425027E-01
         -1   -1    0    0    0  501 -0.00000000000E+00  0.00000000000E+00  0.13503031985E+04  0.13503031985E+04  0.00000000000E+00 0.  1.
          1   -1    0    0  502    0  0.00000000000E+00 -0.00000000000E+00 -0.61474749228E+03  0.61474749228E+03  0.00000000000E+00 0. -1.
          6    1    1    2  502    0 -0.39102490298E+03 -0.79266296409E+03  0.21797554495E+03  0.92645150309E+03  0.17200000000E+03 0. -1.
         -6    1    1    2    0  501  0.39102490298E+03  0.79266296409E+03  0.51758016132E+03  0.10385991877E+04  0.17200000000E+03 0.  1.
</event>
<event>
 4    1  0.3169553E-002  0.2253141E+03  0.7818608E-02  0.1129982E+00
          2   -1    0    0  502    0  0.00000000000E+00  0.00000000000E+00  0.92713218412E+02  0.92713218412E+02  0.00000000000E+00 0. -1.
         -2   -1    0    0    0  501 -0.00000000000E+00 -0.00000000000E+00 -0.11032862884E+04  0.11032862884E+04  0.00000000000E+00 0.  1.
          6    1    1    2  502    0  0.10523344405E+03 -0.10054044903E+03 -0.80876505725E+02  0.23938978428E+03  0.17200000000E+03 0. -1.
         -6    1    1    2    0  501 -0.10523344405E+03  0.10054044903E+03 -0.92969656422E+03  0.95660972249E+03  0.17200000000E+03 0.  1.
</event>
<event>
 4    1  0.3169553E-002  0.2142983E+03  0.7818608E-02  0.1138207E+00
          2   -1    0    0  502    0  0.00000000000E+00  0.00000000000E+00  0.12786703153E+03  0.12786703153E+03  0.00000000000E+00 0. -1.
         -2   -1    0    0    0  501 -0.00000000000E+00 -0.00000000000E+00 -0.43976194996E+03  0.43976194996E+03  0.00000000000E+00 0.  1.
          6    1    1    2  502    0  0.61887476474E+02  0.11184676928E+03 -0.34435558474E+02  0.21704738476E+03  0.17200000000E+03 0. -1.
         -6    1    1    2    0  501 -0.61887476474E+02 -0.11184676928E+03 -0.27745935995E+03  0.35058159673E+03  0.17200000000E+03 0.  1.
</event>
<event>
 4    1  0.3169553E-002  0.2017047E+03  0.7818608E-02  0.1148309E+00
         -2   -1    0    0    0  501 -0.00000000000E+00  0.00000000000E+00  0.16542794922E+02  0.16542794922E+02  0.00000000000E+00 0.  1.
          2   -1    0    0  502    0  0.00000000000E+00 -0.00000000000E+00 -0.26580886328E+04  0.26580886328E+04  0.00000000000E+00 0. -1.
          6    1    1    2  502    0 -0.95529159959E+02 -0.44440578942E+02 -0.95511666024E+03  0.97618267764E+03  0.17200000000E+03 0. -1.
         -6    1    1    2    0  501  0.95529159959E+02  0.44440578942E+02 -0.16864291777E+04  0.16984487501E+04  0.17200000000E+03 0.  1.
</event>
<event>
 4    1  0.3169553E-002  0.3087136E+03  0.7818608E-02  0.1080964E+00
         -2   -1    0    0    0  501 -0.00000000000E+00  0.00000000000E+00  0.11112809305E+03  0.11112809305E+03  0.00000000000E+00 0.  1.
          2   -1    0    0  502    0  0.00000000000E+00 -0.00000000000E+00 -0.86490362623E+03  0.86490362623E+03  0.00000000000E+00 0. -1.
          6    1    1    2  502    0 -0.23741073456E+03 -0.96727636648E+02 -0.42171563187E+03  0.52263578785E+03  0.17200000000E+03 0. -1.
         -6    1    1    2    0  501  0.23741073456E+03  0.96727636648E+02 -0.33205990132E+03  0.45339593143E+03  0.17200000000E+03 0.  1.
</event>
<event>
 4    1  0.3169553E-002  0.2689485E+03  0.7818608E-02  0.1101883E+00
          1   -1    0    0  502    0  0.00000000000E+00  0.00000000000E+00  0.41527164088E+03  0.41527164088E+03  0.00000000000E+00 0. -1.
         -1   -1    0    0    0  501 -0.00000000000E+00 -0.00000000000E+00 -0.18532529579E+03  0.18532529579E+03  0.00000000000E+00 0.  1.
          6    1    1    2  502    0  0.13780941876E+03  0.15413580936E+03  0.41340254867E+02  0.27210714856E+03  0.17200000000E+03 0.  1.
         -6    1    1    2    0  501 -0.13780941876E+03 -0.15413580936E+03  0.18860609022E+03  0.32848978811E+03  0.17200000000E+03 0.  1.
</event>
<event>
 4    1  0.3169553E-002  0.6022441E+03  0.7818608E-02  0.9900761E-01
         -2   -1    0    0    0  501 -0.00000000000E+00  0.00000000000E+00  0.60177453313E+03  0.60177453313E+03  0.00000000000E+00 0.  1.
          2   -1    0    0  502    0  0.00000000000E+00 -0.00000000000E+00 -0.64861944538E+03  0.64861944538E+03  0.00000000000E+00 0. -1.
          6    1    1    2  502    0  0.18086315981E+03  0.54808981771E+03 -0.18974611815E+03  0.63142815918E+03  0.17200000000E+03 0. -1.
         -6    1    1    2    0  501 -0.18086315981E+03 -0.54808981771E+03  0.14290120590E+03  0.61896581933E+03  0.17200000000E+03 0.  1.
</event>
<event>
 4    1  0.3169553E-002  0.1783245E+03  0.7818608E-02  0.1169434E+00
         -1   -1    0    0    0  501 -0.00000000000E+00  0.00000000000E+00  0.20795486755E+02  0.20795486755E+02  0.00000000000E+00 0.  1.
          1   -1    0    0  502    0  0.00000000000E+00 -0.00000000000E+00 -0.15375761519E+04  0.15375761519E+04  0.00000000000E+00 0. -1.
          6    1    1    2  502    0  0.21778270318E+02  0.41729468912E+02 -0.70074544971E+03  0.72307940568E+03  0.17200000000E+03 0.  1.
         -6    1    1    2    0  501 -0.21778270318E+02 -0.41729468912E+02 -0.81603521545E+03  0.83529223299E+03  0.17200000000E+03 0.  1.
</event>
<event>
 4    1  0.3169553E-002  0.2577703E+03  0.7818608E-02  0.1108490E+00
          2   -1    0    0  502    0  0.00000000000E+00  0.00000000000E+00  0.20668395430E+04  0.20668395430E+04  0.00000000000E+00 0. -1.
         -2   -1    0    0    0  501 -0.00000000000E+00 -0.00000000000E+00 -0.33055002997E+02  0.33055002997E+02  0.00000000000E+00 0.  1.
          6    1    1    2  502    0 -0.39873754720E+02  0.18780739674E+03  0.84300682412E+03  0.88153618196E+03  0.17200000000E+03 0. -1.
         -6    1    1    2    0  501  0.39873754720E+02 -0.18780739674E+03  0.11907777159E+04  0.12183583641E+04  0.17200000000E+03 0.  1.
</event>
<event>
 4    1  0.3169553E-002  0.2415581E+03  0.7818608E-02  0.1118759E+00
         -3   -1    0    0    0  501 -0.00000000000E+00  0.00000000000E+00  0.13643022846E+03  0.13643022846E+03  0.00000000000E+00 0.  1.
          3   -1    0    0  502    0  0.00000000000E+00 -0.00000000000E+00 -0.44753561342E+03  0.44753561342E+03  0.00000000000E+00 0. -1.
          6    1    1    2  502    0  0.16591037058E+03  0.35214733583E+02 -0.21703314878E+03  0.32473637954E+03  0.17200000000E+03 0. -1.
         -6    1    1    2    0  501 -0.16591037058E+03 -0.35214733583E+02 -0.94072236176E+02  0.25922946234E+03  0.17200000000E+03 0.  1.
</event>
<event>
 4    1  0.3169553E-002  0.2129226E+03  0.7818608E-02  0.1139272E+00
         -1   -1    0    0    0  501 -0.00000000000E+00  0.00000000000E+00  0.62359247990E+03  0.62359247990E+03  0.00000000000E+00 0.  1.
          1   -1    0    0  502    0  0.00000000000E+00 -0.00000000000E+00 -0.23431199943E+03  0.23431199943E+03  0.00000000000E+00 0. -1.
          6    1    1    2  502    0 -0.87561453754E+02 -0.89916777280E+02 -0.16160298962E+03  0.26730424852E+03  0.17200000000E+03 0. -1.
         -6    1    1    2    0  501  0.87561453754E+02  0.89916777280E+02  0.55088347009E+03  0.59060023082E+03  0.17200000000E+03 0.  1.
</event>
<event>
 4    1  0.3169553E-002  0.2214924E+03  0.7818608E-02  0.1132775E+00
         -2   -1    0    0    0  501 -0.00000000000E+00  0.00000000000E+00  0.37130945459E+03  0.37130945459E+03  0.00000000000E+00 0.  1.
          2   -1    0    0  502    0  0.00000000000E+00 -0.00000000000E+00 -0.31281386900E+03  0.31281386900E+03  0.00000000000E+00 0. -1.
          6    1    1    2  502    0  0.13192860308E+03 -0.45494276127E+02 -0.23072525088E+03  0.31983281080E+03  0.17200000000E+03 0. -1.
         -6    1    1    2    0  501 -0.13192860308E+03  0.45494276127E+02  0.28922083646E+03  0.36429051280E+03  0.17200000000E+03 0.  1.
</event>
<event>
 4    1  0.3169553E-002  0.1920130E+03  0.7818608E-02  0.1156658E+00
          2   -1    0    0  502    0  0.00000000000E+00  0.00000000000E+00  0.26569731156E+04  0.26569731156E+04  0.00000000000E+00 0. -1.
         -2   -1    0    0    0  501 -0.00000000000E+00 -0.00000000000E+00 -0.16306826819E+02  0.16306826819E+02  0.00000000000E+00 0.  1.
          6    1    1    2  502    0  0.65469945988E+02  0.54760122666E+02  0.80429838687E+03  0.82690076791E+03  0.17200000000E+03 0.  1.
         -6    1    1    2    0  501 -0.65469945988E+02 -0.54760122666E+02  0.18363679020E+04  0.18463791746E+04  0.17200000000E+03 0. -1.
</event>
<event>
 4    1  0.3169553E-002  0.4219377E+03  0.7818608E-02  0.1036438E+00
         -1   -1    0    0    0  501 -0.00000000000E+00  0.00000000000E+00  0.42507598187E+03  0.42507598187E+03  0.00000000000E+00 0.  1.
          1   -1    0    0  502    0  0.00000000000E+00 -0.00000000000E+00 -0.43012871361E+03  0.43012871361E+03  0.00000000000E+00 0. -1.
          6    1    1    2  502    0  0.24753303562E+03  0.29525375319E+03 -0.71852915937E+02  0.42801194378E+03  0.17200000000E+03 0. -1.
         -6    1    1    2    0  501 -0.24753303562E+03 -0.29525375319E+03  0.66800184200E+02  0.42719275169E+03  0.17200000000E+03 0.  1.
</event>
<event>
 4    1  0.3169553E-002  0.4983258E+03  0.7818608E-02  0.1014217E+00
          2   -1    0    0  502    0  0.00000000000E+00  0.00000000000E+00  0.58481028177E+03  0.58481028177E+03  0.00000000000E+00 0. -1.
         -2   -1    0    0    0  501 -0.00000000000E+00 -0.00000000000E+00 -0.44381399391E+03  0.44381399391E+03  0.00000000000E+00 0.  1.
          6    1    1    2  502    0  0.37138856129E+03 -0.28428010190E+03  0.17742411758E+03  0.52896876778E+03  0.17200000000E+03 0. -1.
         -6    1    1    2    0  501 -0.37138856129E+03  0.28428010190E+03 -0.36427829725E+02  0.49965550789E+03  0.17200000000E+03 0.  1.
</event>
<event>
 4    1  0.3169553E-002  0.2035538E+03  0.7818608E-02  0.1146775E+00
          1   -1    0    0  502    0  0.00000000000E+00  0.00000000000E+00  0.48637197980E+03  0.48637197980E+03  0.00000000000E+00 0. -1.
         -1   -1    0    0    0  501 -0.00000000000E+00 -0.00000000000E+00 -0.86466058447E+02  0.86466058447E+02  0.00000000000E+00 0.  1.
          6    1    1    2  502    0 -0.73427847765E+02  0.80364845940E+02  0.23474416007E+03  0.31070722228E+03  0.17200000000E+03 0. -1.
         -6    1    1    2    0  501  0.73427847765E+02 -0.80364845940E+02  0.16516176129E+03  0.26213081597E+03  0.17200000000E+03 0.  1.
</event>
<event>
 4    1  0.3169553E-002  0.2390118E+03  0.7818608E-02  0.1120453E+00
          2   -1    0    0  502    0  0.00000000000E+00  0.00000000000E+00  0.15216236277E+04  0.15216236277E+04  0.00000000000E+00 0. -1.
         -2   -1    0    0    0  501 -0.00000000000E+00 -0.00000000000E+00 -0.53758432917E+03  0.53758432917E+03  0.00000000000E+00 0.  1.
          6    1    1    2  502    0  0.16031211287E+03 -0.42926390221E+02  0.14850208357E+04  0.15041321521E+04  0.17200000000E+03 0. -1.
         -6    1    1    2    0  501 -0.16031211287E+03  0.42926390221E+02 -0.50098153714E+03  0.55507580479E+03  0.17200000000E+03 0.  1.
</event>
<event>
 4    1  0.3169553E-002  0.2143147E+03  0.7818608E-02  0.1138194E+00
         -2   -1    0    0    0  501 -0.00000000000E+00  0.00000000000E+00  0.30236380985E+02  0.30236380985E+02  0.00000000000E+00 0.  1.
          2   -1    0    0  502    0  0.00000000000E+00 -0.00000000000E+00 -0.21271258734E+04  0.21271258734E+04  0.00000000000E+00 0. -1.
          6    1    1    2  502    0  0.69025792173E+00 -0.12785275892E+03 -0.16251748969E+04  0.16392450243E+04  0.17200000000E+03 0. -1.
         -6    1    1    2    0  501 -0.69025792173E+00  0.12785275892E+03 -0.47171459558E+03  0.51811723008E+03  0.17200000000E+03 0.  1.
</event>
<event>
 4    1  0.3169553E-002  0.2487516E+03  0.7818608E-02  0.1114096E+00
          2   -1    0    0  502    0  0.00000000000E+00  0.00000000000E+00  0.31624600253E+03  0.31624600253E+03  0.00000000000E+00 0. -1.
         -2   -1    0    0    0  501 -0.00000000000E+00 -0.00000000000E+00 -0.19593567913E+03  0.19593567913E+03  0.00000000000E+00 0.  1.
          6    1    1    2  502    0  0.14102567529E+03  0.11137834997E+03  0.69723271366E+02  0.25833836824E+03  0.17200000000E+03 0.  1.
         -6    1    1    2    0  501 -0.14102567529E+03 -0.11137834997E+03  0.50587052030E+02  0.25384331342E+03  0.17200000000E+03 0.  1.
</event>
<event>
 4    1  0.3169553E-002  0.2629660E+03  0.7818608E-02  0.1105374E+00
          2   -1    0    0  502    0  0.00000000000E+00  0.00000000000E+00  0.83919274998E+03  0.83919274998E+03  0.00000000000E+00 0. -1.
         -2   -1    0    0    0  501 -0.00000000000E+00 -0.00000000000E+00 -0.88741548603E+02  0.88741548603E+02  0.00000000000E+00 0.  1.
          6    1    1    2  502    0  0.15144475524E+03  0.12896364312E+03  0.25121638717E+03  0.36367679101E+03  0.17200000000E+03 0. -1.
         -6    1    1    2    0  501 -0.15144475524E+03 -0.12896364312E+03  0.49923481420E+03  0.56425750757E+03  0.17200000000E+03 0.  1.
</event>
<event>
 4    1  0.3169553E-002  0.2212295E+03  0.7818608E-02  0.1132970E+00
         -2   -1    0    0    0  501 -0.00000000000E+00  0.00000000000E+00  0.33384242254E+03  0.33384242254E+03  0.00000000000E+00 0.  1.
          2   -1    0    0  502    0  0.00000000000E+00 -0.00000000000E+00 -0.19320974683E+03  0.19320974683E+03  0.00000000000E+00 0. -1.
          6    1    1    2  502    0  0.35228511221E+02  0.13460112407E+03 -0.59112353186E+02  0.22899078781E+03  0.17200000000E+03 0. -1.
         -6    1    1    2    0  501 -0.35228511221E+02 -0.13460112407E+03  0.19974502890E+03  0.29806138156E+03  0.17200000000E+03 0.  1.
</event>
<event>
 4    1  0.3169553E-002  0.1724024E+03  0.7818608E-02  0.1175365E+00
         -1   -1    0    0    0  501 -0.00000000000E+00  0.00000000000E+00  0.19125393796E+03  0.19125393796E+03  0.00000000000E+00 0.  1.
          1   -1    0    0  502    0  0.00000000000E+00 -0.00000000000E+00 -0.17942021610E+03  0.17942021610E+03  0.00000000000E+00 0. -1.
          6    1    1    2  502    0  0.80527272134E+01  0.85873413263E+01 -0.61883723113E+02  0.18317255262E+03  0.17200000000E+03 0. -1.
         -6    1    1    2    0  501 -0.80527272134E+01 -0.85873413263E+01  0.73717444972E+02  0.18750160143E+03  0.17200000000E+03 0.  1.
</event>
<event>
 4    1  0.3169553E-002  0.2126457E+03  0.7818608E-02  0.1139488E+00
         -2   -1    0    0    0  501 -0.00000000000E+00  0.00000000000E+00  0.62097292843E+02  0.62097292843E+02  0.00000000000E+00 0.  1.
          2   -1    0    0  502    0  0.00000000000E+00 -0.00000000000E+00 -0.80192780473E+03  0.80192780473E+03  0.00000000000E+00 0. -1.
          6    1    1    2  502    0 -0.39537364092E+02 -0.11862120260E+03 -0.50092223954E+03  0.54418864645E+03  0.17200000000E+03 0. -1.
         -6    1    1    2    0  501  0.39537364092E+02  0.11862120260E+03 -0.23890827235E+03  0.31983645112E+03  0.17200000000E+03 0.  1.
</event>
<event>
 4    1  0.3169553E-002  0.4945339E+03  0.7818608E-02  0.1015216E+00
         -2   -1    0    0    0  501 -0.00000000000E+00  0.00000000000E+00  0.27294387524E+03  0.27294387524E+03  0.00000000000E+00 0.  1.
          2   -1    0    0  502    0  0.00000000000E+00 -0.00000000000E+00 -0.12984112157E+04  0.12984112157E+04  0.00000000000E+00 0. -1.
          6    1    1    2  502    0  0.40595092179E+03 -0.22401698181E+03 -0.95011606227E+03  0.10711135751E+04  0.17200000000E+03 0. -1.
         -6    1    1    2    0  501 -0.40595092179E+03  0.22401698181E+03 -0.75351278224E+02  0.50024151584E+03  0.17200000000E+03 0.  1.
</event>
<event>
 4    1  0.3169553E-002  0.2141711E+03  0.7818608E-02  0.1138305E+00
         -1   -1    0    0    0  501 -0.00000000000E+00  0.00000000000E+00  0.26714071104E+03  0.26714071104E+03  0.00000000000E+00 0.  1.
          1   -1    0    0  502    0  0.00000000000E+00 -0.00000000000E+00 -0.30280068096E+03  0.30280068096E+03  0.00000000000E+00 0. -1.
          6    1    1    2  502    0 -0.89669035214E+02 -0.90800517347E+02 -0.20533666842E+03  0.29670257367E+03  0.17200000000E+03 0. -1.
         -6    1    1    2    0  501  0.89669035214E+02  0.90800517347E+02  0.16967669850E+03  0.27323881833E+03  0.17200000000E+03 0.  1.
</event>
<event>
 4    1  0.3169553E-002  0.7293999E+03  0.7818608E-02  0.9668235E-01
         -2   -1    0    0    0  501 -0.00000000000E+00  0.00000000000E+00  0.62424982064E+03  0.62424982064E+03  0.00000000000E+00 0.  1.
          2   -1    0    0  502    0  0.00000000000E+00 -0.00000000000E+00 -0.10772946214E+04  0.10772946214E+04  0.00000000000E+00 0. -1.
          6    1    1    2  502    0 -0.56659764792E+03  0.42591937668E+03  0.16231594784E+03  0.74724204712E+03  0.17200000000E+03 0. -1.
         -6    1    1    2    0  501  0.56659764792E+03 -0.42591937668E+03 -0.61536074860E+03  0.95430239493E+03  0.17200000000E+03 0.  1.
</event>
<event>
 4    1  0.3169553E-002  0.2076781E+03  0.7818608E-02  0.1143418E+00
          2   -1    0    0  502    0  0.00000000000E+00  0.00000000000E+00  0.24240467024E+03  0.24240467024E+03  0.00000000000E+00 0. -1.
         -2   -1    0    0    0  501 -0.00000000000E+00 -0.00000000000E+00 -0.19015007169E+03  0.19015007169E+03  0.00000000000E+00 0.  1.
          6    1    1    2  502    0 -0.86310211690E+02  0.78081573320E+02  0.80963086523E+02  0.22290178580E+03  0.17200000000E+03 0. -1.
         -6    1    1    2    0  501  0.86310211690E+02 -0.78081573320E+02 -0.28708487971E+02  0.20965295613E+03  0.17200000000E+03 0.  1.
</event>
<event>
 4    1  0.3169553E-002  0.2652012E+03  0.7818608E-02  0.1104058E+00
          2   -1    0    0  502    0  0.00000000000E+00  0.00000000000E+00  0.77570992266E+03  0.77570992266E+03  0.00000000000E+00 0. -1.
         -2   -1    0    0    0  501 -0.00000000000E+00 -0.00000000000E+00 -0.22309729737E+03  0.22309729737E+03  0.00000000000E+00 0.  1.
          6    1    1    2  502    0  0.13101174319E+03  0.15356959430E+03  0.66107289215E+03  0.71228439958E+03  0.17200000000E+03 0. -1.
         -6    1    1    2    0  501 -0.13101174319E+03 -0.15356959430E+03 -0.10846026686E+03  0.28652282045E+03  0.17200000000E+03 0.  1.
</event>
<event>
 4    1  0.3169553E-002  0.1977380E+03  0.7818608E-02  0.1151662E+00
          1   -1    0    0  502    0  0.00000000000E+00  0.00000000000E+00  0.28349371571E+04  0.28349371571E+04  0.00000000000E+00 0. -1.
         -1   -1    0    0    0  501 -0.00000000000E+00 -0.00000000000E+00 -0.20040966728E+02  0.20040966728E+02  0.00000000000E+00 0.  1.
          6    1    1    2  502    0 -0.77675472388E+02  0.59015720209E+02  0.61035919209E+03  0.64159073997E+03  0.17200000000E+03 0.  1.
         -6    1    1    2    0  501  0.77675472388E+02 -0.59015720209E+02  0.22045369983E+04  0.22133873839E+04  0.17200000000E+03 0. -1.
</event>
<event>
 4    1  0.3169553E-002  0.1882163E+03  0.7818608E-02  0.1160080E+00
         -2   -1    0    0    0  501 -0.00000000000E+00  0.00000000000E+00  0.13813307462E+03  0.13813307462E+03  0.00000000000E+00 0.  1.
          2   -1    0    0  502    0  0.00000000000E+00 -0.00000000000E+00 -0.38883550793E+03  0.38883550793E+03  0.00000000000E+00 0. -1.
          6    1    1    2  502    0  0.76147762411E+02 -0.65497379105E+01 -0.27908817740E+03  0.33662381311E+03  0.17200000000E+03 0. -1.
         -6    1    1    2    0  501 -0.76147762411E+02  0.65497379105E+01  0.28385744091E+02  0.19034476944E+03  0.17200000000E+03 0.  1.
</event>
<event>
 4    1  0.3169553E-002  0.2752088E+03  0.7818608E-02  0.1098335E+00
         -1   -1    0    0    0  501 -0.00000000000E+00  0.00000000000E+00  0.34649849031E+03  0.34649849031E+03  0.00000000000E+00 0.  1.
          1   -1    0    0  502    0  0.00000000000E+00 -0.00000000000E+00 -0.23355703579E+03  0.23355703579E+03  0.00000000000E+00 0. -1.
          6    1    1    2  502    0 -0.74510237044E+02 -0.20150459251E+03  0.12989885224E+03  0.30432480681E+03  0.17200000000E+03 0. -1.
         -6    1    1    2    0  501  0.74510237044E+02  0.20150459251E+03 -0.16957397720E+02  0.27573071929E+03  0.17200000000E+03 0.  1.
</event>
<event>
 4    1  0.3169553E-002  0.6530577E+03  0.7818608E-02  0.9801059E-01
         -1   -1    0    0    0  501 -0.00000000000E+00  0.00000000000E+00  0.27893879791E+03  0.27893879791E+03  0.00000000000E+00 0.  1.
          1   -1    0    0  502    0  0.00000000000E+00 -0.00000000000E+00 -0.15427375483E+04  0.15427375483E+04  0.00000000000E+00 0. -1.
          6    1    1    2  502    0 -0.59977598382E+03  0.19279290475E+03 -0.71799680137E+03  0.97056877225E+03  0.17200000000E+03 0. -1.
         -6    1    1    2    0  501  0.59977598382E+03 -0.19279290475E+03 -0.54580194899E+03  0.85110757394E+03  0.17200000000E+03 0.  1.
</event>
<event>
 4    1  0.3169553E-002  0.1974863E+03  0.7818608E-02  0.1151877E+00
          2   -1    0    0  502    0  0.00000000000E+00  0.00000000000E+00  0.70383655435E+03  0.70383655435E+03  0.00000000000E+00 0. -1.
         -2   -1    0    0    0  501 -0.00000000000E+00 -0.00000000000E+00 -0.66396247997E+02  0.66396247997E+02  0.00000000000E+00 0.  1.
          6    1    1    2  502    0 -0.33229894004E+01 -0.96983546392E+02  0.16207774190E+03  0.25548002848E+03  0.17200000000E+03 0.  1.
         -6    1    1    2    0  501  0.33229894004E+01  0.96983546392E+02  0.47536256445E+03  0.51475277387E+03  0.17200000000E+03 0. -1.
</event>
<event>
 4    1  0.3169553E-002  0.2218712E+03  0.7818608E-02  0.1132496E+00
         -1   -1    0    0    0  501 -0.00000000000E+00  0.00000000000E+00  0.15061744241E+03  0.15061744241E+03  0.00000000000E+00 0.  1.
          1   -1    0    0  502    0  0.00000000000E+00 -0.00000000000E+00 -0.36194696353E+03  0.36194696353E+03  0.00000000000E+00 0. -1.
          6    1    1    2  502    0  0.82525781728E+01  0.13990975314E+03 -0.25841021485E+02  0.22337099736E+03  0.17200000000E+03 0.  1.
         -6    1    1    2    0  501 -0.82525781728E+01 -0.13990975314E+03 -0.18548849963E+03  0.28919340858E+03  0.17200000000E+03 0. -1.
</event>
<event>
 4    1  0.3169553E-002  0.3027330E+03  0.7818608E-02  0.1083882E+00
          2   -1    0    0  502    0  0.00000000000E+00  0.00000000000E+00  0.15973794173E+03  0.15973794173E+03  0.00000000000E+00 0. -1.
         -2   -1    0    0    0  501 -0.00000000000E+00 -0.00000000000E+00 -0.61166031470E+03  0.61166031470E+03  0.00000000000E+00 0.  1.
          6    1    1    2  502    0  0.24894579388E+03  0.94465623501E+01 -0.12991985338E+03  0.32943347452E+03  0.17200000000E+03 0. -1.
         -6    1    1    2    0  501 -0.24894579388E+03 -0.94465623501E+01 -0.32200251959E+03  0.44196478191E+03  0.17200000000E+03 0.  1.
</event>
<event>
 4    1  0.3169553E-002  0.4432254E+03  0.7818608E-02  0.1029762E+00
         -2   -1    0    0    0  501 -0.00000000000E+00  0.00000000000E+00  0.95246283778E+02  0.95246283778E+02  0.00000000000E+00 0.  1.
          2   -1    0    0  502    0  0.00000000000E+00 -0.00000000000E+00 -0.27451890851E+04  0.27451890851E+04  0.00000000000E+00 0. -1.
          6    1    1    2  502    0 -0.27722749120E+03 -0.30001617105E+03 -0.20331929901E+04  0.20809426998E+04  0.17200000000E+03 0. -1.
         -6    1    1    2    0  501  0.27722749120E+03  0.30001617105E+03 -0.61674981121E+03  0.75949266908E+03  0.17200000000E+03 0.  1.
</event>
<event>
 4    1  0.3169553E-002  0.2102555E+03  0.7818608E-02  0.1141364E+00
         -1   -1    0    0    0  501 -0.00000000000E+00  0.00000000000E+00  0.14399984958E+03  0.14399984958E+03  0.00000000000E+00 0.  1.
          1   -1    0    0  502    0  0.00000000000E+00 -0.00000000000E+00 -0.32994313606E+03  0.32994313606E+03  0.00000000000E+00 0. -1.
          6    1    1    2  502    0 -0.10750417313E+03  0.55373477232E+02 -0.15546608111E+03  0.26149009847E+03  0.17200000000E+03 0. -1.
         -6    1    1    2    0  501  0.10750417313E+03 -0.55373477232E+02 -0.30477205379E+02  0.21245288717E+03  0.17200000000E+03 0.  1.
</event>
<event>
 4    1  0.3169553E-002  0.3204582E+03  0.7818608E-02  0.1075439E+00
         -1   -1    0    0    0  501 -0.00000000000E+00  0.00000000000E+00  0.35123013172E+03  0.35123013172E+03  0.00000000000E+00 0.  1.
          1   -1    0    0  502    0  0.00000000000E+00 -0.00000000000E+00 -0.36263865665E+03  0.36263865665E+03  0.00000000000E+00 0. -1.
          6    1    1    2  502    0 -0.26169437306E+03 -0.68011126351E+02 -0.16281081506E+03  0.35944515534E+03  0.17200000000E+03 0. -1.
         -6    1    1    2    0  501  0.26169437306E+03  0.68011126351E+02  0.15140229013E+03  0.35442363304E+03  0.17200000000E+03 0.  1.
</event>
<event>
 4    1  0.3169553E-002  0.2156021E+03  0.7818608E-02  0.1137205E+00
         -1   -1    0    0    0  501 -0.00000000000E+00  0.00000000000E+00  0.17993878895E+02  0.17993878895E+02  0.00000000000E+00 0.  1.
          1   -1    0    0  502    0  0.00000000000E+00 -0.00000000000E+00 -0.25844117960E+04  0.25844117960E+04  0.00000000000E+00 0. -1.
          6    1    1    2  502    0  0.12997683582E+03  0.25106337736E+01 -0.13097252298E+04  0.13273524245E+04  0.17200000000E+03 0. -1.
         -6    1    1    2    0  501 -0.12997683582E+03 -0.25106337736E+01 -0.12566926872E+04  0.12750532504E+04  0.17200000000E+03 0.  1.
</event>
<event>
 4    1  0.3169553E-002  0.2811247E+03  0.7818608E-02  0.1095076E+00
          2   -1    0    0  502    0  0.00000000000E+00  0.00000000000E+00  0.10326875760E+04  0.10326875760E+04  0.00000000000E+00 0. -1.
         -2   -1    0    0    0  501 -0.00000000000E+00 -0.00000000000E+00 -0.89947189079E+02  0.89947189079E+02  0.00000000000E+00 0.  1.
          6    1    1    2  502    0 -0.13260396018E+03  0.17850290270E+03  0.68816708126E+03  0.74337408366E+03  0.17200000000E+03 0. -1.
         -6    1    1    2    0  501  0.13260396018E+03 -0.17850290270E+03  0.25457330571E+03  0.37926068147E+03  0.17200000000E+03 0. -1.
</event>
<event>
 4    1  0.3169553E-002  0.1738579E+03  0.7818608E-02  0.1173883E+00
         -1   -1    0    0    0  501 -0.00000000000E+00  0.00000000000E+00  0.12295147626E+03  0.12295147626E+03  0.00000000000E+00 0.  1.
          1   -1    0    0  502    0  0.00000000000E+00 -0.00000000000E+00 -0.25145980647E+03  0.25145980647E+03  0.00000000000E+00 0. -1.
          6    1    1    2  502    0 -0.19120899352E+02  0.16641999970E+02 -0.92236930043E+02  0.19681010192E+03  0.17200000000E+03 0. -1.
         -6    1    1    2    0  501  0.19120899352E+02 -0.16641999970E+02 -0.36271400168E+02  0.17760118081E+03  0.17200000000E+03 0.  1.
</event>
<event>
 4    1  0.3169553E-002  0.1725549E+03  0.7818608E-02  0.1175209E+00
          2   -1    0    0  502    0  0.00000000000E+00  0.00000000000E+00  0.46808045683E+03  0.46808045683E+03  0.00000000000E+00 0. -1.
         -2   -1    0    0    0  501 -0.00000000000E+00 -0.00000000000E+00 -0.63688146837E+02  0.63688146837E+02  0.00000000000E+00 0.  1.
          6    1    1    2  502    0  0.12183490334E+00 -0.13826591804E+02  0.19295814857E+03  0.25885910566E+03  0.17200000000E+03 0. -1.
         -6    1    1    2    0  501 -0.12183490334E+00  0.13826591804E+02  0.21143416142E+03  0.27290949800E+03  0.17200000000E+03 0. -1.
</event>
<event>
 4    1  0.3169553E-002  0.1867751E+03  0.7818608E-02  0.1161403E+00
          1   -1    0    0  502    0  0.00000000000E+00  0.00000000000E+00  0.39968276925E+03  0.39968276925E+03  0.00000000000E+00 0. -1.
         -1   -1    0    0    0  501 -0.00000000000E+00 -0.00000000000E+00 -0.87917991723E+02  0.87917991723E+02  0.00000000000E+00 0.  1.
          6    1    1    2  502    0 -0.23027768369E+02 -0.69069936378E+02  0.13513934014E+03  0.23053757932E+03  0.17200000000E+03 0. -1.
         -6    1    1    2    0  501  0.23027768369E+02  0.69069936378E+02  0.17662543739E+03  0.25706318165E+03  0.17200000000E+03 0.  1.
</event>
<event>
 4    1  0.3169553E-002  0.2024604E+03  0.7818608E-02  0.1147680E+00
          1   -1    0    0  502    0  0.00000000000E+00  0.00000000000E+00  0.31908805677E+03  0.31908805677E+03  0.00000000000E+00 0. -1.
         -1   -1    0    0    0  501 -0.00000000000E+00 -0.00000000000E+00 -0.13148684183E+03  0.13148684183E+03  0.00000000000E+00 0.  1.
          6    1    1    2  502    0  0.43074730810E+02  0.97728059790E+02  0.59621870209E+02  0.21105680162E+03  0.17200000000E+03 0.  1.
         -6    1    1    2    0  501 -0.43074730810E+02 -0.97728059790E+02  0.12797934472E+03  0.23951809698E+03  0.17200000000E+03 0. -1.
</event>
<event>
 4    1  0.3169553E-002  0.2025563E+03  0.7818608E-02  0.1147600E+00
          2   -1    0    0  502    0  0.00000000000E+00  0.00000000000E+00  0.16762414090E+03  0.16762414090E+03  0.00000000000E+00 0. -1.
         -2   -1    0    0    0  501 -0.00000000000E+00 -0.00000000000E+00 -0.27214750247E+03  0.27214750247E+03  0.00000000000E+00 0.  1.
          6    1    1    2  502    0 -0.10414261108E+03  0.24482198180E+02  0.17482204094E+02  0.20330934295E+03  0.17200000000E+03 0.  1.
         -6    1    1    2    0  501  0.10414261108E+03 -0.24482198180E+02 -0.12200556565E+03  0.23646230042E+03  0.17200000000E+03 0.  1.
</event>
<event>
 4    1  0.3169553E-002  0.1738116E+03  0.7818608E-02  0.1173930E+00
         -1   -1    0    0    0  501 -0.00000000000E+00  0.00000000000E+00  0.56871057327E+02  0.56871057327E+02  0.00000000000E+00 0.  1.
          1   -1    0    0  502    0  0.00000000000E+00 -0.00000000000E+00 -0.13006404972E+04  0.13006404972E+04  0.00000000000E+00 0. -1.
          6    1    1    2  502    0  0.15115704175E+02  0.19949885074E+02 -0.11439436885E+04  0.11570728780E+04  0.17200000000E+03 0. -1.
         -6    1    1    2    0  501 -0.15115704175E+02 -0.19949885074E+02 -0.99825751355E+02  0.20043867656E+03  0.17200000000E+03 0.  1.
</event>
<event>
 4    1  0.3169553E-002  0.2977661E+03  0.7818608E-02  0.1086363E+00
          1   -1    0    0  502    0  0.00000000000E+00  0.00000000000E+00  0.32979554438E+03  0.32979554438E+03  0.00000000000E+00 0. -1.
         -1   -1    0    0    0  501 -0.00000000000E+00 -0.00000000000E+00 -0.27259178203E+03  0.27259178203E+03  0.00000000000E+00 0.  1.
          6    1    1    2  502    0  0.55354235412E+02 -0.23667812769E+03  0.63902946812E+02  0.30454591463E+03  0.17200000000E+03 0. -1.
         -6    1    1    2    0  501 -0.55354235412E+02  0.23667812769E+03 -0.66991844602E+01  0.29784141179E+03  0.17200000000E+03 0.  1.
</event>
<event>
 4    1  0.3169553E-002  0.1955721E+03  0.7818608E-02  0.1153529E+00
         -2   -1    0    0    0  501 -0.00000000000E+00  0.00000000000E+00  0.14790318467E+03  0.14790318467E+03  0.00000000000E+00 0.  1.
          2   -1    0    0  502    0  0.00000000000E+00 -0.00000000000E+00 -0.31480003821E+03  0.31480003821E+03  0.00000000000E+00 0. -1.
          6    1    1    2  502    0  0.80996101370E+02 -0.45870402583E+02 -0.18119582175E+03  0.26660905478E+03  0.17200000000E+03 0. -1.
         -6    1    1    2    0  501 -0.80996101370E+02  0.45870402583E+02  0.14298968212E+02  0.19609416810E+03  0.17200000000E+03 0. -1.
</event>
<event>
 4    1  0.3169553E-002  0.1951455E+03  0.7818608E-02  0.1153901E+00
         -2   -1    0    0    0  501 -0.00000000000E+00  0.00000000000E+00  0.24171805289E+02  0.24171805289E+02  0.00000000000E+00 0.  1.
          2   -1    0    0  502    0  0.00000000000E+00 -0.00000000000E+00 -0.15778206780E+04  0.15778206780E+04  0.00000000000E+00 0. -1.
          6    1    1    2  502    0 -0.92114468766E+02 -0.35636308793E+01 -0.74585864281E+03  0.77096490832E+03  0.17200000000E+03 0. -1.
         -6    1    1    2    0  501  0.92114468766E+02  0.35636308793E+01 -0.80779022992E+03  0.83102757498E+03  0.17200000000E+03 0.  1.
</event>
<event>
 4    1  0.3169553E-002  0.4249381E+03  0.7818608E-02  0.1035471E+00
          2   -1    0    0  502    0  0.00000000000E+00  0.00000000000E+00  0.14666894287E+04  0.14666894287E+04  0.00000000000E+00 0. -1.
         -2   -1    0    0    0  501 -0.00000000000E+00 -0.00000000000E+00 -0.72680275774E+03  0.72680275774E+03  0.00000000000E+00 0.  1.
          6    1    1    2  502    0 -0.38805149538E+03 -0.20109522478E+02  0.13694916236E+04  0.14339036450E+04  0.17200000000E+03 0. -1.
         -6    1    1    2    0  501  0.38805149538E+03  0.20109522478E+02 -0.62960495263E+03  0.75958854147E+03  0.17200000000E+03 0.  1.
</event>
<event>
 4    1  0.3169553E-002  0.4753870E+03  0.7818608E-02  0.1020411E+00
         -3   -1    0    0    0  501 -0.00000000000E+00  0.00000000000E+00  0.52543239670E+03  0.52543239670E+03  0.00000000000E+00 0.  1.
          3   -1    0    0  502    0  0.00000000000E+00 -0.00000000000E+00 -0.66548497383E+03  0.66548497383E+03  0.00000000000E+00 0. -1.
          6    1    1    2  502    0 -0.76708491052E+02  0.43649126268E+03 -0.42415753902E+03  0.63710472679E+03  0.17200000000E+03 0. -1.
         -6    1    1    2    0  501  0.76708491052E+02 -0.43649126268E+03  0.28410496189E+03  0.55381264374E+03  0.17200000000E+03 0.  1.
</event>
<event>
 4    1  0.3169553E-002  0.2377691E+03  0.7818608E-02  0.1121288E+00
         -3   -1    0    0    0  501 -0.00000000000E+00  0.00000000000E+00  0.42437384702E+02  0.42437384702E+02  0.00000000000E+00 0.  1.
          3   -1    0    0  502    0  0.00000000000E+00 -0.00000000000E+00 -0.16746953885E+04  0.16746953885E+04  0.00000000000E+00 0. -1.
          6    1    1    2  502    0  0.35028132544E+02  0.16038439640E+03 -0.12044113648E+04  0.12276566541E+04  0.17200000000E+03 0. -1.
         -6    1    1    2    0  501 -0.35028132544E+02 -0.16038439640E+03 -0.42784663902E+03  0.48947611913E+03  0.17200000000E+03 0.  1.
</event>
<event>
 4    1  0.3169553E-002  0.2944929E+03  0.7818608E-02  0.1088026E+00
         -2   -1    0    0    0  501 -0.00000000000E+00  0.00000000000E+00  0.49850152668E+02  0.49850152668E+02  0.00000000000E+00 0.  1.
          2   -1    0    0  502    0  0.00000000000E+00 -0.00000000000E+00 -0.19868653006E+04  0.19868653006E+04  0.00000000000E+00 0. -1.
          6    1    1    2  502    0 -0.22190454220E+03 -0.88884507186E+02 -0.60935524354E+03  0.67678644659E+03  0.17200000000E+03 0.  1.
         -6    1    1    2    0  501  0.22190454220E+03  0.88884507186E+02 -0.13276599044E+04  0.13599290067E+04  0.17200000000E+03 0.  1.
</event>
<event>
 4    1  0.3169553E-002  0.2501083E+03  0.7818608E-02  0.1113236E+00
          2   -1    0    0  502    0  0.00000000000E+00  0.00000000000E+00  0.24100201006E+04  0.24100201006E+04  0.00000000000E+00 0. -1.
         -2   -1    0    0    0  501 -0.00000000000E+00 -0.00000000000E+00 -0.14571486781E+03  0.14571486781E+03  0.00000000000E+00 0.  1.
          6    1    1    2  502    0 -0.41231850147E+02 -0.17683357753E+03  0.22906310525E+04  0.23042449519E+04  0.17200000000E+03 0. -1.
         -6    1    1    2    0  501  0.41231850147E+02  0.17683357753E+03 -0.26325819746E+02  0.25149001649E+03  0.17200000000E+03 0.  1.
</event>
<event>
 4    1  0.3169553E-002  0.2048614E+03  0.7818608E-02  0.1145701E+00
         -2   -1    0    0    0  501 -0.00000000000E+00  0.00000000000E+00  0.15686456198E+03  0.15686456198E+03  0.00000000000E+00 0.  1.
          2   -1    0    0  502    0  0.00000000000E+00 -0.00000000000E+00 -0.29265511982E+03  0.29265511982E+03  0.00000000000E+00 0. -1.
          6    1    1    2  502    0 -0.10795264037E+03 -0.27026323441E+02 -0.20579108758E+01  0.20487173968E+03  0.17200000000E+03 0.  1.
         -6    1    1    2    0  501  0.10795264037E+03  0.27026323441E+02 -0.13373264696E+03  0.24464794212E+03  0.17200000000E+03 0. -1.
</event>
<event>
 4    1  0.3169553E-002  0.5080421E+03  0.7818608E-02  0.1011701E+00
         -2   -1    0    0    0  501 -0.00000000000E+00  0.00000000000E+00  0.42762804005E+03  0.42762804005E+03  0.00000000000E+00 0.  1.
          2   -1    0    0  502    0  0.00000000000E+00 -0.00000000000E+00 -0.13790678065E+04  0.13790678065E+04  0.00000000000E+00 0. -1.
          6    1    1    2  502    0 -0.34482690733E+03  0.33108484168E+03 -0.11531279411E+04  0.12600836547E+04  0.17200000000E+03 0. -1.
         -6    1    1    2    0  501  0.34482690733E+03 -0.33108484168E+03  0.20168817467E+03  0.54661219178E+03  0.17200000000E+03 0.  1.
</event>
<event>
 4    1  0.3169553E-002  0.1855596E+03  0.7818608E-02  0.1162528E+00
         -2   -1    0    0    0  501 -0.00000000000E+00  0.00000000000E+00  0.21471050977E+02  0.21471050977E+02  0.00000000000E+00 0.  1.
          2   -1    0    0  502    0  0.00000000000E+00 -0.00000000000E+00 -0.17709426708E+04  0.17709426708E+04  0.00000000000E+00 0. -1.
          6    1    1    2  502    0  0.65095292676E+02  0.24718080580E+02 -0.11501742409E+04  0.11650464218E+04  0.17200000000E+03 0.  1.
         -6    1    1    2    0  501 -0.65095292676E+02 -0.24718080580E+02 -0.59929737898E+03  0.62736729999E+03  0.17200000000E+03 0.  1.
</event>
<event>
 4    1  0.3169553E-002  0.2856788E+03  0.7818608E-02  0.1092627E+00
         -2   -1    0    0    0  501 -0.00000000000E+00  0.00000000000E+00  0.90922325185E+03  0.90922325185E+03  0.00000000000E+00 0.  1.
          2   -1    0    0  502    0  0.00000000000E+00 -0.00000000000E+00 -0.30694921547E+03  0.30694921547E+03  0.00000000000E+00 0. -1.
          6    1    1    2  502    0  0.15700564647E+03  0.16546184997E+03 -0.21036866893E+03  0.35477792165E+03  0.17200000000E+03 0. -1.
         -6    1    1    2    0  501 -0.15700564647E+03 -0.16546184997E+03  0.81264270531E+03  0.86139454568E+03  0.17200000000E+03 0.  1.
</event>
<event>
 4    1  0.3169553E-002  0.2084669E+03  0.7818608E-02  0.1142786E+00
         -2   -1    0    0    0  501 -0.00000000000E+00  0.00000000000E+00  0.12748217794E+03  0.12748217794E+03  0.00000000000E+00 0.  1.
          2   -1    0    0  502    0  0.00000000000E+00 -0.00000000000E+00 -0.34292212918E+03  0.34292212918E+03  0.00000000000E+00 0. -1.
          6    1    1    2  502    0  0.28382614093E+01 -0.11775558270E+03 -0.12578969050E+03  0.24347788241E+03  0.17200000000E+03 0. -1.
         -6    1    1    2    0  501 -0.28382614093E+01  0.11775558270E+03 -0.89650260738E+02  0.22692642472E+03  0.17200000000E+03 0. -1.
</event>
<event>
 4    1  0.3169553E-002  0.2057834E+03  0.7818608E-02  0.1144949E+00
         -2   -1    0    0    0  501 -0.00000000000E+00  0.00000000000E+00  0.14133146645E+02  0.14133146645E+02  0.00000000000E+00 0.  1.
          2   -1    0    0  502    0  0.00000000000E+00 -0.00000000000E+00 -0.31535708048E+04  0.31535708048E+04  0.00000000000E+00 0. -1.
          6    1    1    2  502    0 -0.91538137373E+02 -0.66208552486E+02 -0.12159895711E+04  0.12332791411E+04  0.17200000000E+03 0. -1.
         -6    1    1    2    0  501  0.91538137373E+02  0.66208552486E+02 -0.19234480871E+04  0.19344248103E+04  0.17200000000E+03 0. -1.
</event>
<event>
 4    1  0.3169553E-002  0.5010162E+03  0.7818608E-02  0.1013514E+00
          2   -1    0    0  502    0  0.00000000000E+00  0.00000000000E+00  0.88948927123E+03  0.88948927123E+03  0.00000000000E+00 0. -1.
         -2   -1    0    0    0  501 -0.00000000000E+00 -0.00000000000E+00 -0.72469243611E+03  0.72469243611E+03  0.00000000000E+00 0.  1.
          6    1    1    2  502    0  0.88366847715E+02 -0.46219537299E+03  0.71306034930E+03  0.87147709341E+03  0.17200000000E+03 0. -1.
         -6    1    1    2    0  501 -0.88366847715E+02  0.46219537299E+03 -0.54826351418E+03  0.74270461394E+03  0.17200000000E+03 0. -1.
</event>
<event>
 4    1  0.3169553E-002  0.2411056E+03  0.7818608E-02  0.1119058E+00
         -1   -1    0    0    0  501 -0.00000000000E+00  0.00000000000E+00  0.16630526985E+03  0.16630526985E+03  0.00000000000E+00 0.  1.
          1   -1    0    0  502    0  0.00000000000E+00 -0.00000000000E+00 -0.39126230600E+03  0.39126230600E+03  0.00000000000E+00 0. -1.
          6    1    1    2  502    0  0.16635573853E+03 -0.29558191093E+02 -0.21451904712E+02  0.24205805630E+03  0.17200000000E+03 0. -1.
         -6    1    1    2    0  501 -0.16635573853E+03  0.29558191093E+02 -0.20350513144E+03  0.31550951955E+03  0.17200000000E+03 0.  1.
</event>
<event>
 4    1  0.3169553E-002  0.2992392E+03  0.7818608E-02  0.1085622E+00
          1   -1    0    0  502    0  0.00000000000E+00  0.00000000000E+00  0.32074034100E+03  0.32074034100E+03  0.00000000000E+00 0. -1.
         -1   -1    0    0    0  501 -0.00000000000E+00 -0.00000000000E+00 -0.50951758539E+03  0.50951758539E+03  0.00000000000E+00 0.  1.
          6    1    1    2  502    0  0.22594727670E+03  0.94381926546E+02  0.18472841476E+03  0.35166561834E+03  0.17200000000E+03 0. -1.
         -6    1    1    2    0  501 -0.22594727670E+03 -0.94381926546E+02 -0.37350565914E+03  0.47859230804E+03  0.17200000000E+03 0. -1.
</event>
<event>
 4    1  0.3169553E-002  0.2334331E+03  0.7818608E-02  0.1124246E+00
         -2   -1    0    0    0  501 -0.00000000000E+00  0.00000000000E+00  0.10567528714E+03  0.10567528714E+03  0.00000000000E+00 0.  1.
          2   -1    0    0  502    0  0.00000000000E+00 -0.00000000000E+00 -0.57118039630E+03  0.57118039630E+03  0.00000000000E+00 0. -1.
          6    1    1    2  502    0 -0.25044122455E+02 -0.15581973184E+03 -0.12722593480E+03  0.26585228114E+03  0.17200000000E+03 0. -1.
         -6    1    1    2    0  501  0.25044122455E+02  0.15581973184E+03 -0.33827917436E+03  0.41100340230E+03  0.17200000000E+03 0.  1.
</event>
<event>
 4    1  0.3169553E-002  0.2017206E+03  0.7818608E-02  0.1148295E+00
          2   -1    0    0  502    0  0.00000000000E+00  0.00000000000E+00  0.26980082929E+03  0.26980082929E+03  0.00000000000E+00 0. -1.
         -2   -1    0    0    0  501 -0.00000000000E+00 -0.00000000000E+00 -0.32621815022E+03  0.32621815022E+03  0.00000000000E+00 0.  1.
          6    1    1    2  502    0  0.82040660399E+02  0.66155202642E+02  0.19031042044E+03  0.27732514657E+03  0.17200000000E+03 0. -1.
         -6    1    1    2    0  501 -0.82040660399E+02 -0.66155202642E+02 -0.24672774136E+03  0.31869383294E+03  0.17200000000E+03 0.  1.
</event>
<event>
 4    1  0.3169553E-002  0.3747141E+03  0.7818608E-02  0.1052905E+00
         -1   -1    0    0    0  501 -0.00000000000E+00  0.00000000000E+00  0.50374268420E+03  0.50374268420E+03  0.00000000000E+00 0.  1.
          1   -1    0    0  502    0  0.00000000000E+00 -0.00000000000E+00 -0.30390407207E+03  0.30390407207E+03  0.00000000000E+00 0. -1.
          6    1    1    2  502    0 -0.16357731258E+02  0.33250430166E+03 -0.16294395023E+02  0.37506825152E+03  0.17200000000E+03 0. -1.
         -6    1    1    2    0  501  0.16357731258E+02 -0.33250430166E+03  0.21613300715E+03  0.43257850475E+03  0.17200000000E+03 0. -1.
</event>
<event>
 4    1  0.3169553E-002  0.2711036E+03  0.7818608E-02  0.1100650E+00
         -2   -1    0    0    0  501 -0.00000000000E+00  0.00000000000E+00  0.96047704424E+02  0.96047704424E+02  0.00000000000E+00 0.  1.
          2   -1    0    0  502    0  0.00000000000E+00 -0.00000000000E+00 -0.11311976960E+04  0.11311976960E+04  0.00000000000E+00 0. -1.
          6    1    1    2  502    0  0.10744973424E+03 -0.17991025747E+03 -0.86660472897E+03  0.90802032048E+03  0.17200000000E+03 0. -1.
         -6    1    1    2    0  501 -0.10744973424E+03  0.17991025747E+03 -0.16854526265E+03  0.31922507999E+03  0.17200000000E+03 0.  1.
</event>
<event>
 4    1  0.3169553E-002  0.2866261E+03  0.7818608E-02  0.1092124E+00
          2   -1    0    0  502    0  0.00000000000E+00  0.00000000000E+00  0.19856477949E+04  0.19856477949E+04  0.00000000000E+00 0. -1.
         -2   -1    0    0    0  501 -0.00000000000E+00 -0.00000000000E+00 -0.12461371917E+03  0.12461371917E+03  0.00000000000E+00 0.  1.
          6    1    1    2  502    0 -0.22906375543E+03  0.10016043816E+02  0.17928762741E+04  0.18156430980E+04  0.17200000000E+03 0. -1.
         -6    1    1    2    0  501  0.22906375543E+03 -0.10016043816E+02  0.68157801700E+02  0.29461841612E+03  0.17200000000E+03 0.  1.
</event>
<event>
 4    1  0.3169553E-002  0.1814383E+03  0.7818608E-02  0.1166418E+00
         -1   -1    0    0    0  501 -0.00000000000E+00  0.00000000000E+00  0.20499245299E+02  0.20499245299E+02  0.00000000000E+00 0.  1.
          1   -1    0    0  502    0  0.00000000000E+00 -0.00000000000E+00 -0.16395245659E+04  0.16395245659E+04  0.00000000000E+00 0. -1.
          6    1    1    2  502    0 -0.57088846861E+02 -0.87584744928E+01 -0.69065716421E+03  0.71409184688E+03  0.17200000000E+03 0. -1.
         -6    1    1    2    0  501  0.57088846861E+02  0.87584744928E+01 -0.92836815639E+03  0.94593196432E+03  0.17200000000E+03 0.  1.
</event>
<event>
 4    1  0.3169553E-002  0.1801971E+03  0.7818608E-02  0.1167612E+00
         -1   -1    0    0    0  501 -0.00000000000E+00  0.00000000000E+00  0.56072277997E+02  0.56072277997E+02  0.00000000000E+00 0.  1.
          1   -1    0    0  502    0  0.00000000000E+00 -0.00000000000E+00 -0.92525795439E+03  0.92525795439E+03  0.00000000000E+00 0. -1.
          6    1    1    2  502    0 -0.53730130182E+02 -0.24862361293E+00 -0.73471368077E+03  0.75648871863E+03  0.17200000000E+03 0. -1.
         -6    1    1    2    0  501  0.53730130182E+02  0.24862361293E+00 -0.13447199563E+03  0.22484151376E+03  0.17200000000E+03 0.  1.
</event>
<event>
 4    1  0.3169553E-002  0.3168726E+03  0.7818608E-02  0.1077098E+00
          2   -1    0    0  502    0  0.00000000000E+00  0.00000000000E+00  0.55188306205E+03  0.55188306205E+03  0.00000000000E+00 0. -1.
         -2   -1    0    0    0  501 -0.00000000000E+00 -0.00000000000E+00 -0.28760179759E+03  0.28760179759E+03  0.00000000000E+00 0.  1.
          6    1    1    2  502    0  0.26387183493E+03  0.34582001598E+02  0.38656053198E+03  0.49983727851E+03  0.17200000000E+03 0. -1.
         -6    1    1    2    0  501 -0.26387183493E+03 -0.34582001598E+02 -0.12227926752E+03  0.33964758113E+03  0.17200000000E+03 0.  1.
</event>
<event>
 4    1  0.3169553E-002  0.3975091E+03  0.7818608E-02  0.1044646E+00
         -2   -1    0    0    0  501 -0.00000000000E+00  0.00000000000E+00  0.27440776663E+03  0.27440776663E+03  0.00000000000E+00 0.  1.
          2   -1    0    0  502    0  0.00000000000E+00 -0.00000000000E+00 -0.19846257663E+04  0.19846257663E+04  0.00000000000E+00 0. -1.
          6    1    1    2  502    0 -0.30759569624E+03 -0.18388682149E+03  0.96539758507E+02  0.40906405420E+03  0.17200000000E+03 0.  1.
         -6    1    1    2    0  501  0.30759569624E+03  0.18388682149E+03 -0.18067577582E+04  0.18499694787E+04  0.17200000000E+03 0. -1.
</event>
<event>
 4    1  0.3169553E-002  0.9701162E+03  0.7818608E-02  0.9341942E-01
          2   -1    0    0  502    0  0.00000000000E+00  0.00000000000E+00  0.98644593382E+03  0.98644593382E+03  0.00000000000E+00 0. -1.
         -2   -1    0    0    0  501 -0.00000000000E+00 -0.00000000000E+00 -0.98713119187E+03  0.98713119187E+03  0.00000000000E+00 0.  1.
          6    1    1    2  502    0  0.12792933655E+02 -0.95466110172E+03  0.18028426821E+03  0.98672584625E+03  0.17200000000E+03 0. -1.
         -6    1    1    2    0  501 -0.12792933655E+02  0.95466110172E+03 -0.18096952626E+03  0.98685127944E+03  0.17200000000E+03 0.  1.
</event>
<event>
 4    1  0.3169553E-002  0.7995291E+03  0.7818608E-02  0.9560699E-01
          2   -1    0    0  502    0  0.00000000000E+00  0.00000000000E+00  0.16302278081E+04  0.16302278081E+04  0.00000000000E+00 0. -1.
         -2   -1    0    0    0  501 -0.00000000000E+00 -0.00000000000E+00 -0.40749438446E+03  0.40749438446E+03  0.00000000000E+00 0.  1.
          6    1    1    2  502    0  0.77430417067E+03  0.10057762896E+03  0.41347083530E+03  0.90011384825E+03  0.17200000000E+03 0. -1.
         -6    1    1    2    0  501 -0.77430417067E+03 -0.10057762896E+03  0.80926258832E+03  0.11376083443E+04  0.17200000000E+03 0.  1.
</event>
<event>
 4    1  0.3169553E-002  0.2032916E+03  0.7818608E-02  0.1146991E+00
         -2   -1    0    0    0  501 -0.00000000000E+00  0.00000000000E+00  0.17214666448E+03  0.17214666448E+03  0.00000000000E+00 0.  1.
          2   -1    0    0  502    0  0.00000000000E+00 -0.00000000000E+00 -0.25431542456E+03  0.25431542456E+03  0.00000000000E+00 0. -1.
          6    1    1    2  502    0  0.66688458618E+02  0.85417299767E+02 -0.91548495633E+02  0.22295423895E+03  0.17200000000E+03 0.  1.
         -6    1    1    2    0  501 -0.66688458618E+02 -0.85417299767E+02  0.93797355539E+01  0.20350785010E+03  0.17200000000E+03 0. -1.
</event>
<event>
 4    1  0.3169553E-002  0.3063604E+03  0.7818608E-02  0.1082104E+00
          2   -1    0    0  502    0  0.00000000000E+00  0.00000000000E+00  0.33176933558E+03  0.33176933558E+03  0.00000000000E+00 0. -1.
         -2   -1    0    0    0  501 -0.00000000000E+00 -0.00000000000E+00 -0.28599336475E+03  0.28599336475E+03  0.00000000000E+00 0.  1.
          6    1    1    2  502    0  0.24352020068E+03  0.70502394662E+02  0.55025561386E+02  0.31126273178E+03  0.17200000000E+03 0. -1.
         -6    1    1    2    0  501 -0.24352020068E+03 -0.70502394662E+02 -0.92495905522E+01  0.30649996854E+03  0.17200000000E+03 0.  1.
</event>
<event>
 4    1  0.3169553E-002  0.2103376E+03  0.7818608E-02  0.1141299E+00
         -2   -1    0    0    0  501 -0.00000000000E+00  0.00000000000E+00  0.93653425854E+03  0.93653425854E+03  0.00000000000E+00 0.  1.
          2   -1    0    0  502    0  0.00000000000E+00 -0.00000000000E+00 -0.47304410633E+02  0.47304410633E+02  0.00000000000E+00 0. -1.
          6    1    1    2  502    0 -0.46591036743E+02 -0.11174599997E+03  0.42646526679E+03  0.47551500186E+03  0.17200000000E+03 0.  1.
         -6    1    1    2    0  501  0.46591036743E+02  0.11174599997E+03  0.46276458113E+03  0.50832366732E+03  0.17200000000E+03 0. -1.
</event>
<event>
 4    1  0.3169553E-002  0.1925819E+03  0.7818608E-02  0.1156153E+00
          1   -1    0    0  502    0  0.00000000000E+00  0.00000000000E+00  0.11966696416E+04  0.11966696416E+04  0.00000000000E+00 0. -1.
         -1   -1    0    0    0  501 -0.00000000000E+00 -0.00000000000E+00 -0.35556215136E+02  0.35556215136E+02  0.00000000000E+00 0.  1.
          6    1    1    2  502    0  0.47966827944E+02  0.72131507700E+02  0.80128720748E+03  0.82410494469E+03  0.17200000000E+03 0. -1.
         -6    1    1    2    0  501 -0.47966827944E+02 -0.72131507700E+02  0.35982621901E+03  0.40812091208E+03  0.17200000000E+03 0.  1.
</event>
<event>
 4    1  0.3169553E-002  0.1723450E+03  0.7818608E-02  0.1175424E+00
         -3   -1    0    0    0  501 -0.00000000000E+00  0.00000000000E+00  0.12838158782E+03  0.12838158782E+03  0.00000000000E+00 0.  1.
          3   -1    0    0  502    0  0.00000000000E+00 -0.00000000000E+00 -0.23138512637E+03  0.23138512637E+03  0.00000000000E+00 0. -1.
          6    1    1    2  502    0  0.10463674803E+02  0.30531846849E+01 -0.49761747003E+02  0.17938517746E+03  0.17200000000E+03 0. -1.
         -6    1    1    2    0  501 -0.10463674803E+02 -0.30531846849E+01 -0.53241791542E+02  0.18038153673E+03  0.17200000000E+03 0. -1.
</event>
<event>
 4    1  0.3169553E-002  0.1733133E+03  0.7818608E-02  0.1174436E+00
         -2   -1    0    0    0  501 -0.00000000000E+00  0.00000000000E+00  0.92306577148E+02  0.92306577148E+02  0.00000000000E+00 0.  1.
          2   -1    0    0  502    0  0.00000000000E+00 -0.00000000000E+00 -0.40683010737E+03  0.40683010737E+03  0.00000000000E+00 0. -1.
          6    1    1    2  502    0  0.20142489860E+02  0.69125735207E+01 -0.45614471393E+02  0.17921546689E+03  0.17200000000E+03 0.  1.
         -6    1    1    2    0  501 -0.20142489860E+02 -0.69125735207E+01 -0.26890905883E+03  0.31992121763E+03  0.17200000000E+03 0. -1.
</event>
<event>
 4    1  0.3169553E-002  0.2358348E+03  0.7818608E-02  0.1122599E+00
          2   -1    0    0  502    0  0.00000000000E+00  0.00000000000E+00  0.60114057346E+03  0.60114057346E+03  0.00000000000E+00 0. -1.
         -2   -1    0    0    0  501 -0.00000000000E+00 -0.00000000000E+00 -0.92533463321E+02  0.92533463321E+02  0.00000000000E+00 0.  1.
          6    1    1    2  502    0  0.16118966349E+03  0.72071235792E+01  0.25834937057E+03  0.34980344127E+03  0.17200000000E+03 0. -1.
         -6    1    1    2    0  501 -0.16118966349E+03 -0.72071235792E+01  0.25025773957E+03  0.34387059551E+03  0.17200000000E+03 0.  1.
</event>
<event>
 4    1  0.3169553E-002  0.2284018E+03  0.7818608E-02  0.1127770E+00
          2   -1    0    0  502    0  0.00000000000E+00  0.00000000000E+00  0.76836915093E+03  0.76836915093E+03  0.00000000000E+00 0. -1.
         -2   -1    0    0    0  501 -0.00000000000E+00 -0.00000000000E+00 -0.81307867336E+02  0.81307867336E+02  0.00000000000E+00 0.  1.
          6    1    1    2  502    0  0.24642618479E+02 -0.14824353529E+03  0.51609054046E+03  0.56437297096E+03  0.17200000000E+03 0. -1.
         -6    1    1    2    0  501 -0.24642618479E+02  0.14824353529E+03  0.17097074314E+03  0.28530404731E+03  0.17200000000E+03 0.  1.
</event>
<event>
 4    1  0.3169553E-002  0.2616849E+03  0.7818608E-02  0.1106135E+00
          2   -1    0    0  502    0  0.00000000000E+00  0.00000000000E+00  0.10570831857E+04  0.10570831857E+04  0.00000000000E+00 0. -1.
         -2   -1    0    0    0  501 -0.00000000000E+00 -0.00000000000E+00 -0.66347404193E+02  0.66347404193E+02  0.00000000000E+00 0.  1.
          6    1    1    2  502    0  0.15415481723E+03 -0.12300920624E+03  0.58167517670E+03  0.63782833402E+03  0.17200000000E+03 0. -1.
         -6    1    1    2    0  501 -0.15415481723E+03  0.12300920624E+03  0.40906060478E+03  0.48560225584E+03  0.17200000000E+03 0.  1.
</event>
<event>
 4    1  0.3169553E-002  0.1991115E+03  0.7818608E-02  0.1150491E+00
          3   -1    0    0  502    0  0.00000000000E+00  0.00000000000E+00  0.10686087517E+03  0.10686087517E+03  0.00000000000E+00 0. -1.
         -3   -1    0    0    0  501 -0.00000000000E+00 -0.00000000000E+00 -0.37408948774E+03  0.37408948774E+03  0.00000000000E+00 0.  1.
          6    1    1    2  502    0 -0.98011578757E+02 -0.21333802190E+02 -0.11176109710E+03  0.22833296633E+03  0.17200000000E+03 0. -1.
         -6    1    1    2    0  501  0.98011578757E+02  0.21333802190E+02 -0.15546751547E+03  0.25261739658E+03  0.17200000000E+03 0.  1.
</event>
<event>
 4    1  0.3169553E-002  0.2468280E+03  0.7818608E-02  0.1115326E+00
          4   -1    0    0  502    0  0.00000000000E+00  0.00000000000E+00  0.53410718630E+03  0.53410718630E+03  0.00000000000E+00 0. -1.
         -4   -1    0    0    0  501 -0.00000000000E+00 -0.00000000000E+00 -0.13823764444E+03  0.13823764444E+03  0.00000000000E+00 0.  1.
          6    1    1    2  502    0 -0.82359370891E+02  0.15670667018E+03  0.33850466580E+03  0.41893848620E+03  0.17200000000E+03 0. -1.
         -6    1    1    2    0  501  0.82359370891E+02 -0.15670667018E+03  0.57364876060E+02  0.25340634455E+03  0.17200000000E+03 0.  1.
</event>
<event>
 4    1  0.3169553E-002  0.3024161E+03  0.7818608E-02  0.1084039E+00
         -2   -1    0    0    0  501 -0.00000000000E+00  0.00000000000E+00  0.13314938706E+03  0.13314938706E+03  0.00000000000E+00 0.  1.
          2   -1    0    0  502    0  0.00000000000E+00 -0.00000000000E+00 -0.13915126518E+04  0.13915126518E+04  0.00000000000E+00 0. -1.
          6    1    1    2  502    0  0.22374056634E+03  0.10868155914E+03 -0.11716648666E+04  0.12100636686E+04  0.17200000000E+03 0. -1.
         -6    1    1    2    0  501 -0.22374056634E+03 -0.10868155914E+03 -0.86698398061E+02  0.31459837023E+03  0.17200000000E+03 0.  1.
</event>
<event>
 4    1  0.3169553E-002  0.1740405E+03  0.7818608E-02  0.1173699E+00
          1   -1    0    0  502    0  0.00000000000E+00  0.00000000000E+00  0.94346526625E+03  0.94346526625E+03  0.00000000000E+00 0. -1.
         -1   -1    0    0    0  501 -0.00000000000E+00 -0.00000000000E+00 -0.32456875263E+02  0.32456875263E+02  0.00000000000E+00 0.  1.
          6    1    1    2  502    0 -0.12813151705E+02 -0.23278967001E+02  0.50630118903E+03  0.53537928721E+03  0.17200000000E+03 0. -1.
         -6    1    1    2    0  501  0.12813151705E+02  0.23278967001E+02  0.40470720196E+03  0.44054285430E+03  0.17200000000E+03 0. -1.
</event>
<event>
 4    1  0.3169553E-002  0.1735999E+03  0.7818608E-02  0.1174145E+00
          1   -1    0    0  502    0  0.00000000000E+00  0.00000000000E+00  0.13521561733E+04  0.13521561733E+04  0.00000000000E+00 0. -1.
         -1   -1    0    0    0  501 -0.00000000000E+00 -0.00000000000E+00 -0.22622831463E+02  0.22622831463E+02  0.00000000000E+00 0.  1.
          6    1    1    2  502    0 -0.72339205735E+01 -0.22373771703E+02  0.74838750537E+03  0.76825827263E+03  0.17200000000E+03 0. -1.
         -6    1    1    2    0  501  0.72339205735E+01  0.22373771703E+02  0.58114583647E+03  0.60652073214E+03  0.17200000000E+03 0.  1.
</event>
<event>
 4    1  0.3169553E-002  0.3607676E+03  0.7818608E-02  0.1058280E+00
         -1   -1    0    0    0  501 -0.00000000000E+00  0.00000000000E+00  0.22280944332E+03  0.22280944332E+03  0.00000000000E+00 0.  1.
          1   -1    0    0  502    0  0.00000000000E+00 -0.00000000000E+00 -0.63841866929E+03  0.63841866929E+03  0.00000000000E+00 0. -1.
          6    1    1    2  502    0  0.55591150735E+02  0.31221613481E+03 -0.33335705996E+03  0.49120283010E+03  0.17200000000E+03 0. -1.
         -6    1    1    2    0  501 -0.55591150735E+02 -0.31221613481E+03 -0.82252166016E+02  0.37002528250E+03  0.17200000000E+03 0.  1.
</event>
<event>
 4    1  0.3169553E-002  0.2008424E+03  0.7818608E-02  0.1149030E+00
          2   -1    0    0  502    0  0.00000000000E+00  0.00000000000E+00  0.17094533816E+03  0.17094533816E+03  0.00000000000E+00 0. -1.
         -2   -1    0    0    0  501 -0.00000000000E+00 -0.00000000000E+00 -0.26218946937E+03  0.26218946937E+03  0.00000000000E+00 0.  1.
          6    1    1    2  502    0  0.86303741810E+02 -0.57492116087E+02  0.22865475183E+02  0.20213982591E+03  0.17200000000E+03 0. -1.
         -6    1    1    2    0  501 -0.86303741810E+02  0.57492116087E+02 -0.11410960640E+03  0.23099498162E+03  0.17200000000E+03 0.  1.
</event>
<event>
 4    1  0.3169553E-002  0.3156445E+03  0.7818608E-02  0.1077671E+00
          1   -1    0    0  502    0  0.00000000000E+00  0.00000000000E+00  0.95678036709E+02  0.95678036709E+02  0.00000000000E+00 0. -1.
         -1   -1    0    0    0  501 -0.00000000000E+00 -0.00000000000E+00 -0.11592651600E+04  0.11592651600E+04  0.00000000000E+00 0.  1.
          6    1    1    2  502    0  0.15747825184E+03 -0.21271590433E+03 -0.33164950720E+03  0.45784588169E+03  0.17200000000E+03 0. -1.
         -6    1    1    2    0  501 -0.15747825184E+03  0.21271590433E+03 -0.73193761612E+03  0.79709731505E+03  0.17200000000E+03 0.  1.
</event>
<event>
 4    1  0.3169553E-002  0.3877947E+03  0.7818608E-02  0.1048090E+00
         -2   -1    0    0    0  501 -0.00000000000E+00  0.00000000000E+00  0.16084318313E+03  0.16084318313E+03  0.00000000000E+00 0.  1.
          2   -1    0    0  502    0  0.00000000000E+00 -0.00000000000E+00 -0.14209385010E+04  0.14209385010E+04  0.00000000000E+00 0. -1.
          6    1    1    2  502    0  0.32313305220E+03 -0.12800692223E+03 -0.10925667446E+04  0.11593475894E+04  0.17200000000E+03 0. -1.
         -6    1    1    2    0  501 -0.32313305220E+03  0.12800692223E+03 -0.16752857326E+03  0.42243409476E+03  0.17200000000E+03 0.  1.
</event>
<event>
 4    1  0.3169553E-002  0.2236042E+03  0.7818608E-02  0.1131224E+00
         -2   -1    0    0    0  501 -0.00000000000E+00  0.00000000000E+00  0.24233177707E+02  0.24233177707E+02  0.00000000000E+00 0.  1.
          2   -1    0    0  502    0  0.00000000000E+00 -0.00000000000E+00 -0.30517732590E+04  0.30517732590E+04  0.00000000000E+00 0. -1.
          6    1    1    2  502    0 -0.42356539588E+02 -0.13645785531E+03 -0.23891107117E+04  0.23995517947E+04  0.17200000000E+03 0. -1.
         -6    1    1    2    0  501  0.42356539588E+02  0.13645785531E+03 -0.63842936955E+03  0.67645464195E+03  0.17200000000E+03 0.  1.
</event>
<event>
 4    1  0.3169553E-002  0.2537606E+03  0.7818608E-02  0.1110951E+00
         -2   -1    0    0    0  501 -0.00000000000E+00  0.00000000000E+00  0.51855921308E+02  0.51855921308E+02  0.00000000000E+00 0.  1.
          2   -1    0    0  502    0  0.00000000000E+00 -0.00000000000E+00 -0.24104274648E+04  0.24104274648E+04  0.00000000000E+00 0. -1.
          6    1    1    2  502    0 -0.17870339109E+03 -0.53624161561E+02 -0.32205080932E+03  0.41001362962E+03  0.17200000000E+03 0. -1.
         -6    1    1    2    0  501  0.17870339109E+03  0.53624161561E+02 -0.20365207341E+04  0.20522697564E+04  0.17200000000E+03 0.  1.
</event>
<event>
 4    1  0.3169553E-002  0.2940603E+03  0.7818608E-02  0.1088248E+00
          2   -1    0    0  502    0  0.00000000000E+00  0.00000000000E+00  0.73646601752E+03  0.73646601752E+03  0.00000000000E+00 0. -1.
         -2   -1    0    0    0  501 -0.00000000000E+00 -0.00000000000E+00 -0.17192359796E+03  0.17192359796E+03  0.00000000000E+00 0.  1.
          6    1    1    2  502    0  0.21942409000E+03  0.93490809788E+02  0.53801828915E+03  0.61313550072E+03  0.17200000000E+03 0. -1.
         -6    1    1    2    0  501 -0.21942409000E+03 -0.93490809788E+02  0.26524130410E+02  0.29525411476E+03  0.17200000000E+03 0.  1.
</event>
<event>
 4    1  0.3169553E-002  0.2522520E+03  0.7818608E-02  0.1111890E+00
          2   -1    0    0  502    0  0.00000000000E+00  0.00000000000E+00  0.25731195654E+04  0.25731195654E+04  0.00000000000E+00 0. -1.
         -2   -1    0    0    0  501 -0.00000000000E+00 -0.00000000000E+00 -0.34727920633E+02  0.34727920633E+02  0.00000000000E+00 0.  1.
          6    1    1    2  502    0 -0.14108240730E+03 -0.11892370037E+03  0.19688538675E+04  0.19849475167E+04  0.17200000000E+03 0. -1.
         -6    1    1    2    0  501  0.14108240730E+03  0.11892370037E+03  0.56953777723E+03  0.62289996938E+03  0.17200000000E+03 0.  1.
</event>
<event>
 4    1  0.3169553E-002  0.2246863E+03  0.7818608E-02  0.1130437E+00
          4   -1    0    0  502    0  0.00000000000E+00  0.00000000000E+00  0.10013107767E+03  0.10013107767E+03  0.00000000000E+00 0. -1.
         -4   -1    0    0    0  501 -0.00000000000E+00 -0.00000000000E+00 -0.59726468267E+03  0.59726468267E+03  0.00000000000E+00 0.  1.
          6    1    1    2  502    0  0.14454541048E+03  0.25574092971E+01 -0.11090641805E+03  0.25056765473E+03  0.17200000000E+03 0. -1.
         -6    1    1    2    0  501 -0.14454541048E+03 -0.25574092971E+01 -0.38622718694E+03  0.44682810561E+03  0.17200000000E+03 0.  1.
</event>
<event>
 4    1  0.3169553E-002  0.2216531E+03  0.7818608E-02  0.1132657E+00
         -2   -1    0    0    0  501 -0.00000000000E+00  0.00000000000E+00  0.32770657782E+03  0.32770657782E+03  0.00000000000E+00 0.  1.
          2   -1    0    0  502    0  0.00000000000E+00 -0.00000000000E+00 -0.39366369438E+03  0.39366369438E+03  0.00000000000E+00 0. -1.
          6    1    1    2  502    0 -0.49617893737E+02  0.13070634370E+03 -0.31679098414E+03  0.38663498457E+03  0.17200000000E+03 0. -1.
         -6    1    1    2    0  501  0.49617893737E+02 -0.13070634370E+03  0.25083386757E+03  0.33473528763E+03  0.17200000000E+03 0.  1.
</event>
<event>
 4    1  0.3169553E-002  0.2883807E+03  0.7818608E-02  0.1091198E+00
          2   -1    0    0  502    0  0.00000000000E+00  0.00000000000E+00  0.38283596474E+03  0.38283596474E+03  0.00000000000E+00 0. -1.
         -2   -1    0    0    0  501 -0.00000000000E+00 -0.00000000000E+00 -0.25076708977E+03  0.25076708977E+03  0.00000000000E+00 0.  1.
          6    1    1    2  502    0  0.19206083977E+03 -0.12919785013E+03  0.18188943821E+03  0.34095046324E+03  0.17200000000E+03 0. -1.
         -6    1    1    2    0  501 -0.19206083977E+03  0.12919785013E+03 -0.49820563234E+02  0.29265259127E+03  0.17200000000E+03 0.  1.
</event>
<event>
 4    1  0.3169553E-002  0.1815922E+03  0.7818608E-02  0.1166271E+00
          1   -1    0    0  502    0  0.00000000000E+00  0.00000000000E+00  0.53675064960E+03  0.53675064960E+03  0.00000000000E+00 0. -1.
         -1   -1    0    0    0  501 -0.00000000000E+00 -0.00000000000E+00 -0.67538283342E+02  0.67538283342E+02  0.00000000000E+00 0.  1.
          6    1    1    2  502    0  0.18109301066E+02 -0.55351477024E+02  0.32542819787E+03  0.37266505708E+03  0.17200000000E+03 0. -1.
         -6    1    1    2    0  501 -0.18109301066E+02  0.55351477024E+02  0.14378416838E+03  0.23162387587E+03  0.17200000000E+03 0.  1.
</event>
<event>
 4    1  0.3169553E-002  0.3045380E+03  0.7818608E-02  0.1082994E+00
         -2   -1    0    0    0  501 -0.00000000000E+00  0.00000000000E+00  0.28183845258E+03  0.28183845258E+03  0.00000000000E+00 0.  1.
          2   -1    0    0  502    0  0.00000000000E+00 -0.00000000000E+00 -0.73207434672E+03  0.73207434672E+03  0.00000000000E+00 0. -1.
          6    1    1    2  502    0  0.17670562388E+03 -0.17870223371E+03 -0.60125853680E+03  0.67398456505E+03  0.17200000000E+03 0. -1.
         -6    1    1    2    0  501 -0.17670562388E+03  0.17870223371E+03  0.15102264266E+03  0.33992823425E+03  0.17200000000E+03 0.  1.
</event>
<event>
 4    1  0.3169553E-002  0.2687599E+03  0.7818608E-02  0.1101991E+00
          3   -1    0    0  502    0  0.00000000000E+00  0.00000000000E+00  0.18558383392E+04  0.18558383392E+04  0.00000000000E+00 0. -1.
         -3   -1    0    0    0  501 -0.00000000000E+00 -0.00000000000E+00 -0.99237407169E+02  0.99237407169E+02  0.00000000000E+00 0.  1.
          6    1    1    2  502    0  0.15640170022E+03 -0.13485701370E+03  0.16404005784E+04  0.16622713267E+04  0.17200000000E+03 0. -1.
         -6    1    1    2    0  501 -0.15640170022E+03  0.13485701370E+03  0.11620035359E+03  0.29280441962E+03  0.17200000000E+03 0.  1.
</event>
<event>
 4    1  0.3169553E-002  0.8280990E+03  0.7818608E-02  0.9520213E-01
         -2   -1    0    0    0  501 -0.00000000000E+00  0.00000000000E+00  0.19386352090E+04  0.19386352090E+04  0.00000000000E+00 0.  1.
          2   -1    0    0  502    0  0.00000000000E+00 -0.00000000000E+00 -0.75165571123E+03  0.75165571123E+03  0.00000000000E+00 0. -1.
          6    1    1    2  502    0 -0.20074925967E+03 -0.78476979875E+03 -0.38523895786E+03  0.91332193499E+03  0.17200000000E+03 0. -1.
         -6    1    1    2    0  501  0.20074925967E+03  0.78476979875E+03  0.15722184557E+04  0.17769689853E+04  0.17200000000E+03 0.  1.
</event>
<event>
 4    1  0.3169553E-002  0.2194037E+03  0.7818608E-02  0.1134328E+00
          2   -1    0    0  502    0  0.00000000000E+00  0.00000000000E+00  0.52255777365E+02  0.52255777365E+02  0.00000000000E+00 0. -1.
         -2   -1    0    0    0  501 -0.00000000000E+00 -0.00000000000E+00 -0.93307463730E+03  0.93307463730E+03  0.00000000000E+00 0.  1.
          6    1    1    2  502    0 -0.13184653111E+03 -0.34212420546E+02 -0.49598865589E+03  0.54234928253E+03  0.17200000000E+03 0.  1.
         -6    1    1    2    0  501  0.13184653111E+03  0.34212420546E+02 -0.38483020405E+03  0.44298113214E+03  0.17200000000E+03 0. -1.
</event>
<event>
 4    1  0.3169553E-002  0.1786760E+03  0.7818608E-02  0.1169091E+00
          2   -1    0    0  502    0  0.00000000000E+00  0.00000000000E+00  0.14748561980E+03  0.14748561980E+03  0.00000000000E+00 0. -1.
         -2   -1    0    0    0  501 -0.00000000000E+00 -0.00000000000E+00 -0.38341564883E+03  0.38341564883E+03  0.00000000000E+00 0.  1.
          6    1    1    2  502    0  0.10897205076E+02  0.47141955002E+02  0.57199486233E+02  0.18760835329E+03  0.17200000000E+03 0. -1.
         -6    1    1    2    0  501 -0.10897205076E+02 -0.47141955002E+02 -0.29312951527E+03  0.34329291534E+03  0.17200000000E+03 0.  1.
</event>
<event>
 4    1  0.3169553E-002  0.2957850E+03  0.7818608E-02  0.1087367E+00
          1   -1    0    0  502    0  0.00000000000E+00  0.00000000000E+00  0.63439087178E+03  0.63439087178E+03  0.00000000000E+00 0. -1.
         -1   -1    0    0    0  501 -0.00000000000E+00 -0.00000000000E+00 -0.15228660164E+03  0.15228660164E+03  0.00000000000E+00 0.  1.
          6    1    1    2  502    0  0.18106282899E+02 -0.23995194891E+03  0.36190742202E+03  0.46740320643E+03  0.17200000000E+03 0. -1.
         -6    1    1    2    0  501 -0.18106282899E+02  0.23995194891E+03  0.12019684811E+03  0.31927426699E+03  0.17200000000E+03 0.  1.
</event>
<event>
 4    1  0.3169553E-002  0.2038294E+03  0.7818608E-02  0.1146548E+00
          2   -1    0    0  502    0  0.00000000000E+00  0.00000000000E+00  0.22633037141E+04  0.22633037141E+04  0.00000000000E+00 0. -1.
         -2   -1    0    0    0  501 -0.00000000000E+00 -0.00000000000E+00 -0.19916707056E+02  0.19916707056E+02  0.00000000000E+00 0.  1.
          6    1    1    2  502    0 -0.10307343678E+03  0.36582450738E+02  0.14412117158E+04  0.14555540591E+04  0.17200000000E+03 0. -1.
         -6    1    1    2    0  501  0.10307343678E+03 -0.36582450738E+02  0.80217529121E+03  0.82766636207E+03  0.17200000000E+03 0. -1.
</event>
<event>
 4    1  0.3169553E-002  0.3847342E+03  0.7818608E-02  0.1049198E+00
         -1   -1    0    0    0  501 -0.00000000000E+00  0.00000000000E+00  0.15879362362E+03  0.15879362362E+03  0.00000000000E+00 0.  1.
          1   -1    0    0  502    0  0.00000000000E+00 -0.00000000000E+00 -0.20803406147E+04  0.20803406147E+04  0.00000000000E+00 0. -1.
          6    1    1    2  502    0 -0.33151203354E+03  0.92391266499E+02 -0.17925158886E+04  0.18333394627E+04  0.17200000000E+03 0. -1.
         -6    1    1    2    0  501  0.33151203354E+03 -0.92391266499E+02 -0.12903110244E+03  0.40579477560E+03  0.17200000000E+03 0.  1.
</event>
<event>
 4    1  0.3169553E-002  0.2434032E+03  0.7818608E-02  0.1117546E+00
          1   -1    0    0  502    0  0.00000000000E+00  0.00000000000E+00  0.24138863317E+03  0.24138863317E+03  0.00000000000E+00 0. -1.
         -1   -1    0    0    0  501 -0.00000000000E+00 -0.00000000000E+00 -0.27788084707E+03  0.27788084707E+03  0.00000000000E+00 0.  1.
          6    1    1    2  502    0 -0.62844002860E+02 -0.16034888799E+03  0.70472640037E+02  0.25339993601E+03  0.17200000000E+03 0. -1.
         -6    1    1    2    0  501  0.62844002860E+02  0.16034888799E+03 -0.10696485394E+03  0.26586954424E+03  0.17200000000E+03 0.  1.
</event>
<event>
 4    1  0.3169553E-002  0.2353886E+03  0.7818608E-02  0.1122903E+00
         -2   -1    0    0    0  501 -0.00000000000E+00  0.00000000000E+00  0.39819705868E+02  0.39819705868E+02  0.00000000000E+00 0.  1.
          2   -1    0    0  502    0  0.00000000000E+00 -0.00000000000E+00 -0.18262124513E+04  0.18262124513E+04  0.00000000000E+00 0. -1.
          6    1    1    2  502    0 -0.57679796081E+02  0.14998946828E+03 -0.43796614509E+03  0.49721438406E+03  0.17200000000E+03 0.  1.
         -6    1    1    2    0  501  0.57679796081E+02 -0.14998946828E+03 -0.13484266003E+04  0.13688177731E+04  0.17200000000E+03 0. -1.
</event>
<event>
 4    1  0.3169553E-002  0.3241331E+03  0.7818608E-02  0.1073763E+00
         -1   -1    0    0    0  501 -0.00000000000E+00  0.00000000000E+00  0.28707031124E+03  0.28707031124E+03  0.00000000000E+00 0.  1.
          1   -1    0    0  502    0  0.00000000000E+00 -0.00000000000E+00 -0.62324834963E+03  0.62324834963E+03  0.00000000000E+00 0. -1.
          6    1    1    2  502    0  0.24378140436E+03  0.12668430476E+03 -0.46052122361E+03  0.56315369446E+03  0.17200000000E+03 0. -1.
         -6    1    1    2    0  501 -0.24378140436E+03 -0.12668430476E+03  0.12434318522E+03  0.34716496640E+03  0.17200000000E+03 0.  1.
</event>
<event>
 4    1  0.3169553E-002  0.2805569E+03  0.7818608E-02  0.1095385E+00
         -1   -1    0    0    0  501 -0.00000000000E+00  0.00000000000E+00  0.62388031483E+02  0.62388031483E+02  0.00000000000E+00 0.  1.
          1   -1    0    0  502    0  0.00000000000E+00 -0.00000000000E+00 -0.14625914331E+04  0.14625914331E+04  0.00000000000E+00 0. -1.
          6    1    1    2  502    0  0.50106460227E+02 -0.21591091206E+03 -0.98272092668E+03  0.10219846374E+04  0.17200000000E+03 0. -1.
         -6    1    1    2    0  501 -0.50106460227E+02  0.21591091206E+03 -0.41748247489E+03  0.50299482715E+03  0.17200000000E+03 0.  1.
</event>
<event>
 4    1  0.3169553E-002  0.3041470E+03  0.7818608E-02  0.1083186E+00
          2   -1    0    0  502    0  0.00000000000E+00  0.00000000000E+00  0.42568155955E+03  0.42568155955E+03  0.00000000000E+00 0. -1.
         -2   -1    0    0    0  501 -0.00000000000E+00 -0.00000000000E+00 -0.24219560946E+03  0.24219560946E+03  0.00000000000E+00 0.  1.
          6    1    1    2  502    0 -0.22547084969E+03  0.10992850877E+03  0.19878317743E+03  0.36334574819E+03  0.17200000000E+03 0. -1.
         -6    1    1    2    0  501  0.22547084969E+03 -0.10992850877E+03 -0.15297227332E+02  0.30453142082E+03  0.17200000000E+03 0.  1.
</event>
<event>
 4    1  0.3169553E-002  0.5402373E+03  0.7818608E-02  0.1003779E+00
         -2   -1    0    0    0  501 -0.00000000000E+00  0.00000000000E+00  0.36258759684E+03  0.36258759684E+03  0.00000000000E+00 0.  1.
          2   -1    0    0  502    0  0.00000000000E+00 -0.00000000000E+00 -0.87453234111E+03  0.87453234111E+03  0.00000000000E+00 0. -1.
          6    1    1    2  502    0 -0.25142688990E+03  0.44615793946E+03 -0.43048084634E+03  0.69077503355E+03  0.17200000000E+03 0. -1.
         -6    1    1    2    0  501  0.25142688990E+03 -0.44615793946E+03 -0.81463897937E+02  0.54634490441E+03  0.17200000000E+03 0.  1.
</event>
<event>
 4    1  0.3169553E-002  0.2273823E+03  0.7818608E-02  0.1128496E+00
         -3   -1    0    0    0  501 -0.00000000000E+00  0.00000000000E+00  0.12184890018E+04  0.12184890018E+04  0.00000000000E+00 0.  1.
          3   -1    0    0  502    0  0.00000000000E+00 -0.00000000000E+00 -0.52152909845E+02  0.52152909845E+02  0.00000000000E+00 0. -1.
          6    1    1    2  502    0  0.96824875581E+02  0.11288775724E+03  0.30887711080E+03  0.38354630991E+03  0.17200000000E+03 0. -1.
         -6    1    1    2    0  501 -0.96824875581E+02 -0.11288775724E+03  0.85745898116E+03  0.88709560174E+03  0.17200000000E+03 0.  1.
</event>
<event>
 4    1  0.3169553E-002  0.2001634E+03  0.7818608E-02  0.1149601E+00
         -1   -1    0    0    0  501 -0.00000000000E+00  0.00000000000E+00  0.13835350767E+02  0.13835350767E+02  0.00000000000E+00 0.  1.
          1   -1    0    0  502    0  0.00000000000E+00 -0.00000000000E+00 -0.29098258824E+04  0.29098258824E+04  0.00000000000E+00 0. -1.
          6    1    1    2  502    0 -0.84404822286E+02 -0.57941609322E+02 -0.15492259004E+04  0.15621031639E+04  0.17200000000E+03 0. -1.
         -6    1    1    2    0  501  0.84404822286E+02  0.57941609322E+02 -0.13467646312E+04  0.13615580693E+04  0.17200000000E+03 0.  1.
</event>
<event>
 4    1  0.3169553E-002  0.2185016E+03  0.7818608E-02  0.1135005E+00
          1   -1    0    0  502    0  0.00000000000E+00  0.00000000000E+00  0.21479403732E+03  0.21479403732E+03  0.00000000000E+00 0. -1.
         -1   -1    0    0    0  501 -0.00000000000E+00 -0.00000000000E+00 -0.31500814336E+03  0.31500814336E+03  0.00000000000E+00 0.  1.
          6    1    1    2  502    0 -0.12114193907E+03 -0.59022041840E+02  0.93621952694E+02  0.23771419994E+03  0.17200000000E+03 0. -1.
         -6    1    1    2    0  501  0.12114193907E+03  0.59022041840E+02 -0.19383605873E+03  0.29208798074E+03  0.17200000000E+03 0.  1.
</event>
<event>
 4    1  0.3169553E-002  0.2886182E+03  0.7818608E-02  0.1091073E+00
          1   -1    0    0  502    0  0.00000000000E+00  0.00000000000E+00  0.23474202655E+03  0.23474202655E+03  0.00000000000E+00 0. -1.
         -1   -1    0    0    0  501 -0.00000000000E+00 -0.00000000000E+00 -0.69144137078E+03  0.69144137078E+03  0.00000000000E+00 0.  1.
          6    1    1    2  502    0 -0.21771672805E+03  0.79472575358E+02  0.94748577103E+02  0.30377254117E+03  0.17200000000E+03 0. -1.
         -6    1    1    2    0  501  0.21771672805E+03 -0.79472575358E+02 -0.55144792134E+03  0.62241085615E+03  0.17200000000E+03 0.  1.
</event>
<event>
 4    1  0.3169553E-002  0.1959935E+03  0.7818608E-02  0.1153164E+00
         -1   -1    0    0    0  501 -0.00000000000E+00  0.00000000000E+00  0.68230493742E+02  0.68230493742E+02  0.00000000000E+00 0.  1.
          1   -1    0    0  502    0  0.00000000000E+00 -0.00000000000E+00 -0.63669850164E+03  0.63669850164E+03  0.00000000000E+00 0. -1.
          6    1    1    2  502    0  0.46526108012E+02 -0.81638176137E+02 -0.16431427493E+03  0.25575897145E+03  0.17200000000E+03 0. -1.
         -6    1    1    2    0  501 -0.46526108012E+02  0.81638176137E+02 -0.40415373297E+03  0.44917002393E+03  0.17200000000E+03 0.  1.
</event>
<event>
 4    1  0.3169553E-002  0.1724994E+03  0.7818608E-02  0.1175266E+00
         -1   -1    0    0    0  501 -0.00000000000E+00  0.00000000000E+00  0.34984142375E+03  0.34984142375E+03  0.00000000000E+00 0.  1.
          1   -1    0    0  502    0  0.00000000000E+00 -0.00000000000E+00 -0.86084082456E+02  0.86084082456E+02  0.00000000000E+00 0. -1.
          6    1    1    2  502    0  0.11807489854E+02  0.57129307092E+01  0.10805713845E+03  0.20354950151E+03  0.17200000000E+03 0. -1.
         -6    1    1    2    0  501 -0.11807489854E+02 -0.57129307092E+01  0.15570020285E+03  0.23237600470E+03  0.17200000000E+03 0. -1.
</event>
<event>
 4    1  0.3169553E-002  0.7471643E+03  0.7818608E-02  0.9639810E-01
         -2   -1    0    0    0  501 -0.00000000000E+00  0.00000000000E+00  0.24029080900E+03  0.24029080900E+03  0.00000000000E+00 0.  1.
          2   -1    0    0  502    0  0.00000000000E+00 -0.00000000000E+00 -0.27739301018E+04  0.27739301018E+04  0.00000000000E+00 0. -1.
          6    1    1    2  502    0  0.15828842249E+02  0.72692498437E+03 -0.65933711017E+03  0.99648377308E+03  0.17200000000E+03 0. -1.
         -6    1    1    2    0  501 -0.15828842249E+02 -0.72692498437E+03 -0.18743021827E+04  0.20177371378E+04  0.17200000000E+03 0.  1.
</event>
<event>
 4    1  0.3169553E-002  0.2214406E+03  0.7818608E-02  0.1132814E+00
         -1   -1    0    0    0  501 -0.00000000000E+00  0.00000000000E+00  0.40143347043E+03  0.40143347043E+03  0.00000000000E+00 0.  1.
          1   -1    0    0  502    0  0.00000000000E+00 -0.00000000000E+00 -0.18165389804E+03  0.18165389804E+03  0.00000000000E+00 0. -1.
          6    1    1    2  502    0 -0.32701826028E+02 -0.13558218831E+03 -0.56967947926E+02  0.22865101422E+03  0.17200000000E+03 0. -1.
         -6    1    1    2    0  501  0.32701826028E+02  0.13558218831E+03  0.27674752032E+03  0.35443635425E+03  0.17200000000E+03 0.  1.
</event>
<event>
 4    1  0.3169553E-002  0.1796568E+03  0.7818608E-02  0.1168136E+00
          1   -1    0    0  502    0  0.00000000000E+00  0.00000000000E+00  0.14039992437E+04  0.14039992437E+04  0.00000000000E+00 0. -1.
         -1   -1    0    0    0  501 -0.00000000000E+00 -0.00000000000E+00 -0.26515280774E+02  0.26515280774E+02  0.00000000000E+00 0.  1.
          6    1    1    2  502    0 -0.23183360900E+02 -0.46423138582E+02  0.42790391937E+03  0.46408872021E+03  0.17200000000E+03 0.  1.
         -6    1    1    2    0  501  0.23183360900E+02  0.46423138582E+02  0.94958004354E+03  0.96642580424E+03  0.17200000000E+03 0. -1.
</event>
<event>
 4    1  0.3169553E-002  0.4586559E+03  0.7818608E-02  0.1025172E+00
          2   -1    0    0  502    0  0.00000000000E+00  0.00000000000E+00  0.13282860270E+04  0.13282860270E+04  0.00000000000E+00 0. -1.
         -2   -1    0    0    0  501 -0.00000000000E+00 -0.00000000000E+00 -0.46895477976E+03  0.46895477976E+03  0.00000000000E+00 0.  1.
          6    1    1    2  502    0 -0.18844792712E+03 -0.38114113978E+03 -0.30163928950E+03  0.54895487123E+03  0.17200000000E+03 0. -1.
         -6    1    1    2    0  501  0.18844792712E+03  0.38114113978E+03  0.11609705368E+04  0.12482859356E+04  0.17200000000E+03 0.  1.
</event>
