<event>
 4    1  0.1235203E+000  0.1780584E+03  0.7818608E-02  0.1169695E+00
         21   -1    0    0  503  502  0.00000000000E+00  0.00000000000E+00  0.14683999151E+03  0.14683999151E+03  0.00000000000E+00 0.  1.
         21   -1    0    0  501  503 -0.00000000000E+00 -0.00000000000E+00 -0.27330386064E+03  0.27330386064E+03  0.00000000000E+00 0.  1.
          6    1    1    2  501    0 -0.65956749001E+01  0.45577493498E+02  0.33031797658E+02  0.18109641216E+03  0.17200000000E+03 0.  1.
         -6    1    1    2    0  502  0.65956749001E+01 -0.45577493498E+02 -0.15949566679E+03  0.23904743999E+03  0.17200000000E+03 0.  1.
</event>
<event>
 4    1  0.1235203E+000  0.2044345E+03  0.7818608E-02  0.1146051E+00
         21   -1    0    0  503  502  0.00000000000E+00  0.00000000000E+00  0.13790148604E+03  0.13790148604E+03  0.00000000000E+00 0. -1.
         21   -1    0    0  501  503 -0.00000000000E+00 -0.00000000000E+00 -0.31329455220E+03  0.31329455220E+03  0.00000000000E+00 0.  1.
          6    1    1    2  501    0  0.67919623434E+02 -0.87157219866E+02 -0.46936505815E+02  0.20975340712E+03  0.17200000000E+03 0. -1.
         -6    1    1    2    0  502 -0.67919623434E+02  0.87157219866E+02 -0.12845656035E+03  0.24144263111E+03  0.17200000000E+03 0. -1.
</event>
<event>
 4    1  0.1235203E+000  0.3593340E+03  0.7818608E-02  0.1058848E+00
         21   -1    0    0  501  502  0.00000000000E+00  0.00000000000E+00  0.16444777218E+03  0.16444777218E+03  0.00000000000E+00 0. -1.
         21   -1    0    0  502  503 -0.00000000000E+00 -0.00000000000E+00 -0.81875495646E+03  0.81875495646E+03  0.00000000000E+00 0.  1.
          6    1    1    2  501    0  0.27861765970E+02  0.31426204331E+03 -0.42670591190E+03  0.55785199212E+03  0.17200000000E+03 0.  1.
         -6    1    1    2    0  503 -0.27861765970E+02 -0.31426204331E+03 -0.22760127239E+03  0.42535073652E+03  0.17200000000E+03 0. -1.
</event>
<event>
 4    1  0.1235203E+000  0.2017212E+03  0.7818608E-02  0.1148295E+00
         21   -1    0    0  503  502  0.00000000000E+00  0.00000000000E+00  0.14299097108E+03  0.14299097108E+03  0.00000000000E+00 0. -1.
         21   -1    0    0  501  503 -0.00000000000E+00 -0.00000000000E+00 -0.51719003595E+03  0.51719003595E+03  0.00000000000E+00 0. -1.
          6    1    1    2  501    0 -0.34276771763E+02  0.99662152824E+02 -0.40847436366E+03  0.45556859808E+03  0.17200000000E+03 0. -1.
         -6    1    1    2    0  502  0.34276771763E+02 -0.99662152824E+02  0.34275298786E+02  0.20461240895E+03  0.17200000000E+03 0. -1.
</event>
<event>
 4    1  0.1235203E+000  0.1904177E+03  0.7818608E-02  0.1158085E+00
         21   -1    0    0  501  502  0.00000000000E+00  0.00000000000E+00  0.86359478791E+02  0.86359478791E+02  0.00000000000E+00 0.  1.
         21   -1    0    0  502  503 -0.00000000000E+00 -0.00000000000E+00 -0.42149455246E+03  0.42149455246E+03  0.00000000000E+00 0.  1.
          6    1    1    2  501    0  0.55864690774E+02  0.59615888291E+02 -0.18337895216E+03  0.26436103704E+03  0.17200000000E+03 0.  1.
         -6    1    1    2    0  503 -0.55864690774E+02 -0.59615888291E+02 -0.15175612151E+03  0.24349299421E+03  0.17200000000E+03 0.  1.
</event>
<event>
 4    1  0.1235203E+000  0.1972982E+03  0.7818608E-02  0.1152039E+00
         21   -1    0    0  501  502  0.00000000000E+00  0.00000000000E+00  0.63019243332E+03  0.63019243332E+03  0.00000000000E+00 0.  1.
         21   -1    0    0  502  503 -0.00000000000E+00 -0.00000000000E+00 -0.10964082422E+03  0.10964082422E+03  0.00000000000E+00 0.  1.
          6    1    1    2  501    0  0.17262381631E+02 -0.95103085630E+02  0.50470666667E+03  0.54189981186E+03  0.17200000000E+03 0.  1.
         -6    1    1    2    0  503 -0.17262381631E+02  0.95103085630E+02  0.15844942435E+02  0.19793344567E+03  0.17200000000E+03 0.  1.
</event>
<event>
 4    1  0.1235203E+000  0.2109416E+03  0.7818608E-02  0.1140823E+00
         21   -1    0    0  503  502  0.00000000000E+00  0.00000000000E+00  0.30533437508E+03  0.30533437508E+03  0.00000000000E+00 0. -1.
         21   -1    0    0  501  503 -0.00000000000E+00 -0.00000000000E+00 -0.36584644976E+03  0.36584644976E+03  0.00000000000E+00 0. -1.
          6    1    1    2  501    0 -0.86575454654E+02 -0.86122232770E+02 -0.29056341048E+03  0.35905910911E+03  0.17200000000E+03 0. -1.
         -6    1    1    2    0  502  0.86575454654E+02  0.86122232770E+02  0.23005133580E+03  0.31212171573E+03  0.17200000000E+03 0. -1.
</event>
<event>
 4    1  0.1235203E+000  0.1809278E+03  0.7818608E-02  0.1166908E+00
         21   -1    0    0  503  502  0.00000000000E+00  0.00000000000E+00  0.21035231235E+03  0.21035231235E+03  0.00000000000E+00 0.  1.
         21   -1    0    0  501  503 -0.00000000000E+00 -0.00000000000E+00 -0.33798222556E+03  0.33798222556E+03  0.00000000000E+00 0. -1.
          6    1    1    2  501    0 -0.52996870736E+02  0.18498396717E+02 -0.26520456960E+03  0.32104255594E+03  0.17200000000E+03 0. -1.
         -6    1    1    2    0  502  0.52996870736E+02 -0.18498396717E+02  0.13757465639E+03  0.22729198197E+03  0.17200000000E+03 0.  1.
</event>
<event>
 4    1  0.1235203E+000  0.2426477E+03  0.7818608E-02  0.1118041E+00
         21   -1    0    0  503  502  0.00000000000E+00  0.00000000000E+00  0.35424782586E+03  0.35424782586E+03  0.00000000000E+00 0. -1.
         21   -1    0    0  501  503 -0.00000000000E+00 -0.00000000000E+00 -0.17059214570E+03  0.17059214570E+03  0.00000000000E+00 0. -1.
          6    1    1    2  501    0 -0.13822872036E+03  0.10092932467E+03  0.13390900630E+03  0.27714532231E+03  0.17200000000E+03 0.  1.
         -6    1    1    2    0  502  0.13822872036E+03 -0.10092932467E+03  0.49746673860E+02  0.24769464925E+03  0.17200000000E+03 0.  1.
</event>
<event>
 4    1  0.1235203E+000  0.1826731E+03  0.7818608E-02  0.1165241E+00
         21   -1    0    0  503  502  0.00000000000E+00  0.00000000000E+00  0.24977521555E+04  0.24977521555E+04  0.00000000000E+00 0.  1.
         21   -1    0    0  501  503 -0.00000000000E+00 -0.00000000000E+00 -0.13374298018E+02  0.13374298018E+02  0.00000000000E+00 0.  1.
          6    1    1    2  501    0  0.51209045635E+02  0.34104013329E+02  0.12008392338E+04  0.12146539901E+04  0.17200000000E+03 0.  1.
         -6    1    1    2    0  502 -0.51209045635E+02 -0.34104013329E+02  0.12835386236E+04  0.12964724634E+04  0.17200000000E+03 0.  1.
</event>
<event>
 4    1  0.1235203E+000  0.1794106E+03  0.7818608E-02  0.1168375E+00
         21   -1    0    0  503  502  0.00000000000E+00  0.00000000000E+00  0.27810122087E+03  0.27810122087E+03  0.00000000000E+00 0. -1.
         21   -1    0    0  501  503 -0.00000000000E+00 -0.00000000000E+00 -0.11714457997E+03  0.11714457997E+03  0.00000000000E+00 0. -1.
          6    1    1    2  501    0 -0.46891873591E+02 -0.20132504494E+02  0.10209769247E+03  0.20642699522E+03  0.17200000000E+03 0. -1.
         -6    1    1    2    0  502  0.46891873591E+02  0.20132504494E+02  0.58858948429E+02  0.18881880562E+03  0.17200000000E+03 0. -1.
</event>
<event>
 4    1  0.1235203E+000  0.2315138E+03  0.7818608E-02  0.1125579E+00
         21   -1    0    0  503  502  0.00000000000E+00  0.00000000000E+00  0.59270639699E+03  0.59270639699E+03  0.00000000000E+00 0.  1.
         21   -1    0    0  501  503 -0.00000000000E+00 -0.00000000000E+00 -0.90641722995E+02  0.90641722995E+02  0.00000000000E+00 0. -1.
          6    1    1    2  501    0  0.79974493079E+02  0.13273551187E+03  0.26753265147E+03  0.35379705377E+03  0.17200000000E+03 0.  1.
         -6    1    1    2    0  502 -0.79974493079E+02 -0.13273551187E+03  0.23453202252E+03  0.32955106621E+03  0.17200000000E+03 0. -1.
</event>
<event>
 4    1  0.1235203E+000  0.1937316E+03  0.7818608E-02  0.1155138E+00
         21   -1    0    0  501  502  0.00000000000E+00  0.00000000000E+00  0.84982398514E+03  0.84982398514E+03  0.00000000000E+00 0.  1.
         21   -1    0    0  502  503 -0.00000000000E+00 -0.00000000000E+00 -0.47583265049E+02  0.47583265049E+02  0.00000000000E+00 0.  1.
          6    1    1    2  501    0  0.87121998276E+02  0.18912613468E+02  0.52139558950E+03  0.55622413673E+03  0.17200000000E+03 0.  1.
         -6    1    1    2    0  503 -0.87121998276E+02 -0.18912613468E+02  0.28084513059E+03  0.34118311346E+03  0.17200000000E+03 0.  1.
</event>
<event>
 4    1  0.1235203E+000  0.2490685E+03  0.7818608E-02  0.1113895E+00
         21   -1    0    0  501  502  0.00000000000E+00  0.00000000000E+00  0.32275962885E+03  0.32275962885E+03  0.00000000000E+00 0. -1.
         21   -1    0    0  502  503 -0.00000000000E+00 -0.00000000000E+00 -0.19221556772E+03  0.19221556772E+03  0.00000000000E+00 0. -1.
          6    1    1    2  501    0  0.11382447911E+03  0.13962484962E+03  0.67419335336E+02  0.25803193107E+03  0.17200000000E+03 0.  1.
         -6    1    1    2    0  503 -0.11382447911E+03 -0.13962484962E+03  0.63124725801E+02  0.25694326550E+03  0.17200000000E+03 0.  1.
</event>
<event>
 4    1  0.1235203E+000  0.2037142E+03  0.7818608E-02  0.1146643E+00
         21   -1    0    0  501  502  0.00000000000E+00  0.00000000000E+00  0.62651892649E+03  0.62651892649E+03  0.00000000000E+00 0.  1.
         21   -1    0    0  502  503 -0.00000000000E+00 -0.00000000000E+00 -0.84302705528E+02  0.84302705528E+02  0.00000000000E+00 0.  1.
          6    1    1    2  501    0  0.99399253125E+02  0.45113970876E+02  0.10658648142E+03  0.22991337480E+03  0.17200000000E+03 0. -1.
         -6    1    1    2    0  503 -0.99399253125E+02 -0.45113970876E+02  0.43562973954E+03  0.48090825722E+03  0.17200000000E+03 0. -1.
</event>
<event>
 4    1  0.1235203E+000  0.2511828E+03  0.7818608E-02  0.1112560E+00
         21   -1    0    0  501  502  0.00000000000E+00  0.00000000000E+00  0.36452412814E+02  0.36452412814E+02  0.00000000000E+00 0. -1.
         21   -1    0    0  502  503 -0.00000000000E+00 -0.00000000000E+00 -0.18410159196E+04  0.18410159196E+04  0.00000000000E+00 0. -1.
          6    1    1    2  501    0  0.41162323629E+02 -0.17836607592E+03 -0.67262234496E+03  0.71799276658E+03  0.17200000000E+03 0. -1.
         -6    1    1    2    0  503 -0.41162323629E+02  0.17836607592E+03 -0.11319411618E+04  0.11594755658E+04  0.17200000000E+03 0. -1.
</event>
<event>
 4    1  0.1235203E+000  0.2552509E+03  0.7818608E-02  0.1110031E+00
         21   -1    0    0  503  502  0.00000000000E+00  0.00000000000E+00  0.37979925635E+02  0.37979925635E+02  0.00000000000E+00 0.  1.
         21   -1    0    0  501  503 -0.00000000000E+00 -0.00000000000E+00 -0.17917139047E+04  0.17917139047E+04  0.00000000000E+00 0. -1.
          6    1    1    2  501    0  0.10339060571E+03 -0.15773214337E+03 -0.68813526784E+03  0.73395040245E+03  0.17200000000E+03 0.  1.
         -6    1    1    2    0  502 -0.10339060571E+03  0.15773214337E+03 -0.10655987112E+04  0.10957434279E+04  0.17200000000E+03 0. -1.
</event>
<event>
 4    1  0.1235203E+000  0.1836973E+03  0.7818608E-02  0.1164272E+00
         21   -1    0    0  503  502  0.00000000000E+00  0.00000000000E+00  0.68600443675E+02  0.68600443675E+02  0.00000000000E+00 0. -1.
         21   -1    0    0  501  503 -0.00000000000E+00 -0.00000000000E+00 -0.55413624909E+03  0.55413624909E+03  0.00000000000E+00 0.  1.
          6    1    1    2  501    0  0.22133889937E+02 -0.60586994175E+02 -0.13842064651E+03  0.23001080046E+03  0.17200000000E+03 0. -1.
         -6    1    1    2    0  502 -0.22133889937E+02  0.60586994175E+02 -0.34711515890E+03  0.39272589231E+03  0.17200000000E+03 0.  1.
</event>
<event>
 4    1  0.1235203E+000  0.1894577E+03  0.7818608E-02  0.1158951E+00
         21   -1    0    0  501  502  0.00000000000E+00  0.00000000000E+00  0.31933517747E+02  0.31933517747E+02  0.00000000000E+00 0. -1.
         21   -1    0    0  502  503 -0.00000000000E+00 -0.00000000000E+00 -0.16149572023E+04  0.16149572023E+04  0.00000000000E+00 0.  1.
          6    1    1    2  501    0 -0.70978070624E+02  0.35669894412E+02 -0.33750449322E+03  0.38704458506E+03  0.17200000000E+03 0. -1.
         -6    1    1    2    0  503  0.70978070624E+02 -0.35669894412E+02 -0.12455191914E+04  0.12598461350E+04  0.17200000000E+03 0.  1.
</event>
<event>
 4    1  0.1235203E+000  0.4245353E+03  0.7818608E-02  0.1035600E+00
         21   -1    0    0  503  502  0.00000000000E+00  0.00000000000E+00  0.20393392630E+03  0.20393392630E+03  0.00000000000E+00 0.  1.
         21   -1    0    0  501  503 -0.00000000000E+00 -0.00000000000E+00 -0.10487914663E+04  0.10487914663E+04  0.00000000000E+00 0.  1.
          6    1    1    2  501    0  0.37385259830E+03 -0.10430922812E+03 -0.67088780634E+03  0.79392734492E+03  0.17200000000E+03 0. -1.
         -6    1    1    2    0  502 -0.37385259830E+03  0.10430922812E+03 -0.17396973367E+03  0.45879804768E+03  0.17200000000E+03 0. -1.
</event>
<event>
 4    1  0.1235203E+000  0.3614243E+03  0.7818608E-02  0.1058021E+00
         21   -1    0    0  503  502  0.00000000000E+00  0.00000000000E+00  0.47599447410E+03  0.47599447410E+03  0.00000000000E+00 0.  1.
         21   -1    0    0  501  503 -0.00000000000E+00 -0.00000000000E+00 -0.29604516587E+03  0.29604516587E+03  0.00000000000E+00 0. -1.
          6    1    1    2  501    0  0.82787132667E+02 -0.30690357663E+03  0.19427902113E+03  0.41033139379E+03  0.17200000000E+03 0. -1.
         -6    1    1    2    0  502 -0.82787132667E+02  0.30690357663E+03 -0.14329712895E+02  0.36170824618E+03  0.17200000000E+03 0. -1.
</event>
<event>
 4    1  0.1235203E+000  0.2594695E+03  0.7818608E-02  0.1107462E+00
         21   -1    0    0  503  502  0.00000000000E+00  0.00000000000E+00  0.50231463705E+03  0.50231463705E+03  0.00000000000E+00 0. -1.
         21   -1    0    0  501  503 -0.00000000000E+00 -0.00000000000E+00 -0.13456416048E+03  0.13456416048E+03  0.00000000000E+00 0.  1.
          6    1    1    2  501    0 -0.75522814086E+02 -0.17898801432E+03  0.16378128027E+03  0.30683662181E+03  0.17200000000E+03 0.  1.
         -6    1    1    2    0  502  0.75522814086E+02  0.17898801432E+03  0.20396919629E+03  0.33004217572E+03  0.17200000000E+03 0.  1.
</event>
<event>
 4    1  0.1235203E+000  0.1809838E+03  0.7818608E-02  0.1166854E+00
         21   -1    0    0  503  502  0.00000000000E+00  0.00000000000E+00  0.18464051619E+04  0.18464051619E+04  0.00000000000E+00 0. -1.
         21   -1    0    0  501  503 -0.00000000000E+00 -0.00000000000E+00 -0.23368809753E+02  0.23368809753E+02  0.00000000000E+00 0. -1.
          6    1    1    2  501    0 -0.40554980299E+00 -0.56311353675E+02  0.45268894483E+03  0.48752683392E+03  0.17200000000E+03 0. -1.
         -6    1    1    2    0  502  0.40554980299E+00  0.56311353675E+02  0.13703474074E+04  0.13822471378E+04  0.17200000000E+03 0. -1.
</event>
<event>
 4    1  0.1235203E+000  0.1733686E+03  0.7818608E-02  0.1174380E+00
         21   -1    0    0  503  502  0.00000000000E+00  0.00000000000E+00  0.61628455965E+02  0.61628455965E+02  0.00000000000E+00 0. -1.
         21   -1    0    0  501  503 -0.00000000000E+00 -0.00000000000E+00 -0.49838772920E+03  0.49838772920E+03  0.00000000000E+00 0. -1.
          6    1    1    2  501    0 -0.21678275495E+02  0.16519028066E+01 -0.25936906357E+03  0.31197594065E+03  0.17200000000E+03 0.  1.
         -6    1    1    2    0  502  0.21678275495E+02 -0.16519028066E+01 -0.17739020967E+03  0.24804024452E+03  0.17200000000E+03 0.  1.
</event>
<event>
 4    1  0.1235203E+000  0.2620024E+03  0.7818608E-02  0.1105946E+00
         21   -1    0    0  501  502  0.00000000000E+00  0.00000000000E+00  0.24560957888E+03  0.24560957888E+03  0.00000000000E+00 0.  1.
         21   -1    0    0  502  503 -0.00000000000E+00 -0.00000000000E+00 -0.38997099749E+03  0.38997099749E+03  0.00000000000E+00 0. -1.
          6    1    1    2  501    0 -0.16896640574E+03  0.10252624536E+03  0.96968281655E+02  0.27937094499E+03  0.17200000000E+03 0.  1.
         -6    1    1    2    0  503  0.16896640574E+03 -0.10252624536E+03 -0.24132970026E+03  0.35620963138E+03  0.17200000000E+03 0. -1.
</event>
<event>
 4    1  0.1235203E+000  0.1761482E+03  0.7818608E-02  0.1171584E+00
         21   -1    0    0  503  502  0.00000000000E+00  0.00000000000E+00  0.23976170682E+03  0.23976170682E+03  0.00000000000E+00 0.  1.
         21   -1    0    0  501  503 -0.00000000000E+00 -0.00000000000E+00 -0.14874283891E+03  0.14874283891E+03  0.00000000000E+00 0.  1.
          6    1    1    2  501    0  0.17567234117E+02 -0.33698526414E+02 -0.24517659246E+02  0.17784632133E+03  0.17200000000E+03 0.  1.
         -6    1    1    2    0  502 -0.17567234117E+02  0.33698526414E+02  0.11553652716E+03  0.21065822440E+03  0.17200000000E+03 0.  1.
</event>
<event>
 4    1  0.1235203E+000  0.2093894E+03  0.7818608E-02  0.1142050E+00
         21   -1    0    0  503  502  0.00000000000E+00  0.00000000000E+00  0.18081268326E+03  0.18081268326E+03  0.00000000000E+00 0. -1.
         21   -1    0    0  501  503 -0.00000000000E+00 -0.00000000000E+00 -0.24903796471E+03  0.24903796471E+03  0.00000000000E+00 0.  1.
          6    1    1    2  501    0 -0.11931336006E+03  0.49219566369E+01 -0.68983127028E+02  0.22045991781E+03  0.17200000000E+03 0. -1.
         -6    1    1    2    0  502  0.11931336006E+03 -0.49219566369E+01  0.75784557182E+00  0.20939073016E+03  0.17200000000E+03 0.  1.
</event>
<event>
 4    1  0.1235203E+000  0.1916461E+03  0.7818608E-02  0.1156985E+00
         21   -1    0    0  503  502  0.00000000000E+00  0.00000000000E+00  0.17230028989E+03  0.17230028989E+03  0.00000000000E+00 0.  1.
         21   -1    0    0  501  503 -0.00000000000E+00 -0.00000000000E+00 -0.21320845693E+03  0.21320845693E+03  0.00000000000E+00 0. -1.
          6    1    1    2  501    0  0.83959917495E+02  0.97447680940E+01 -0.17672390443E+02  0.19245919473E+03  0.17200000000E+03 0. -1.
         -6    1    1    2    0  502 -0.83959917495E+02 -0.97447680940E+01 -0.23235776596E+02  0.19304955210E+03  0.17200000000E+03 0. -1.
</event>
<event>
 4    1  0.1235203E+000  0.1877702E+03  0.7818608E-02  0.1160488E+00
         21   -1    0    0  503  502  0.00000000000E+00  0.00000000000E+00  0.63994936108E+02  0.63994936108E+02  0.00000000000E+00 0. -1.
         21   -1    0    0  501  503 -0.00000000000E+00 -0.00000000000E+00 -0.14437050259E+04  0.14437050259E+04  0.00000000000E+00 0.  1.
          6    1    1    2  501    0 -0.10130485335E+02  0.74639207808E+02 -0.12826619582E+04  0.12963330348E+04  0.17200000000E+03 0.  1.
         -6    1    1    2    0  502  0.10130485335E+02 -0.74639207808E+02 -0.97048131588E+02  0.21136692721E+03  0.17200000000E+03 0. -1.
</event>
<event>
 4    1  0.1235203E+000  0.1854551E+03  0.7818608E-02  0.1162626E+00
         21   -1    0    0  501  502  0.00000000000E+00  0.00000000000E+00  0.59902174919E+02  0.59902174919E+02  0.00000000000E+00 0. -1.
         21   -1    0    0  502  503 -0.00000000000E+00 -0.00000000000E+00 -0.87791505559E+03  0.87791505559E+03  0.00000000000E+00 0. -1.
          6    1    1    2  501    0 -0.53327393814E+02  0.44337315200E+02 -0.13318906318E+03  0.22832637824E+03  0.17200000000E+03 0. -1.
         -6    1    1    2    0  503  0.53327393814E+02 -0.44337315200E+02 -0.68482381749E+03  0.70949085227E+03  0.17200000000E+03 0. -1.
</event>
<event>
 4    1  0.1235203E+000  0.1749385E+03  0.7818608E-02  0.1172793E+00
         21   -1    0    0  503  502  0.00000000000E+00  0.00000000000E+00  0.15503823277E+03  0.15503823277E+03  0.00000000000E+00 0.  1.
         21   -1    0    0  501  503 -0.00000000000E+00 -0.00000000000E+00 -0.64876175202E+03  0.64876175202E+03  0.00000000000E+00 0.  1.
          6    1    1    2  501    0 -0.30302159292E+02  0.10062946006E+02 -0.58209035402E+03  0.60780972679E+03  0.17200000000E+03 0.  1.
         -6    1    1    2    0  502  0.30302159292E+02 -0.10062946006E+02  0.88366834770E+02  0.19599025799E+03  0.17200000000E+03 0.  1.
</event>
<event>
 4    1  0.1235203E+000  0.2269840E+03  0.7818608E-02  0.1128781E+00
         21   -1    0    0  503  502  0.00000000000E+00  0.00000000000E+00  0.14619653389E+04  0.14619653389E+04  0.00000000000E+00 0.  1.
         21   -1    0    0  501  503 -0.00000000000E+00 -0.00000000000E+00 -0.39085757851E+02  0.39085757851E+02  0.00000000000E+00 0.  1.
          6    1    1    2  501    0  0.63141953198E+02  0.13398064859E+03  0.47606088997E+03  0.52740467518E+03  0.17200000000E+03 0.  1.
         -6    1    1    2    0  502 -0.63141953198E+02 -0.13398064859E+03  0.94681869109E+03  0.97364642157E+03  0.17200000000E+03 0.  1.
</event>
<event>
 4    1  0.1235203E+000  0.1964502E+03  0.7818608E-02  0.1152769E+00
         21   -1    0    0  501  502  0.00000000000E+00  0.00000000000E+00  0.18845054991E+03  0.18845054991E+03  0.00000000000E+00 0.  1.
         21   -1    0    0  502  503 -0.00000000000E+00 -0.00000000000E+00 -0.48128136095E+03  0.48128136095E+03  0.00000000000E+00 0.  1.
          6    1    1    2  501    0 -0.46459534717E+02 -0.82765828173E+02  0.10739694314E+03  0.22389009374E+03  0.17200000000E+03 0.  1.
         -6    1    1    2    0  503  0.46459534717E+02  0.82765828173E+02 -0.40022775418E+03  0.44584181712E+03  0.17200000000E+03 0.  1.
</event>
<event>
 4    1  0.1235203E+000  0.4054874E+03  0.7818608E-02  0.1041896E+00
         21   -1    0    0  501  502  0.00000000000E+00  0.00000000000E+00  0.30492809951E+03  0.30492809951E+03  0.00000000000E+00 0.  1.
         21   -1    0    0  502  503 -0.00000000000E+00 -0.00000000000E+00 -0.14862173911E+04  0.14862173911E+04  0.00000000000E+00 0. -1.
          6    1    1    2  501    0  0.32855852180E+03  0.16396749955E+03  0.12424097486E+03  0.42409416760E+03  0.17200000000E+03 0. -1.
         -6    1    1    2    0  503 -0.32855852180E+03 -0.16396749955E+03 -0.13055302665E+04  0.13670513230E+04  0.17200000000E+03 0. -1.
</event>
<event>
 4    1  0.1235203E+000  0.1739264E+03  0.7818608E-02  0.1173814E+00
         21   -1    0    0  503  502  0.00000000000E+00  0.00000000000E+00  0.41118793608E+03  0.41118793608E+03  0.00000000000E+00 0.  1.
         21   -1    0    0  501  503 -0.00000000000E+00 -0.00000000000E+00 -0.17816316891E+03  0.17816316891E+03  0.00000000000E+00 0.  1.
          6    1    1    2  501    0  0.12545512704E+02 -0.22561087137E+02 -0.10927015765E+03  0.20540292085E+03  0.17200000000E+03 0.  1.
         -6    1    1    2    0  502 -0.12545512704E+02  0.22561087137E+02  0.34229492483E+03  0.38394818414E+03  0.17200000000E+03 0.  1.
</event>
<event>
 4    1  0.1235203E+000  0.1873144E+03  0.7818608E-02  0.1160906E+00
         21   -1    0    0  503  502  0.00000000000E+00  0.00000000000E+00  0.91134404089E+03  0.91134404089E+03  0.00000000000E+00 0. -1.
         21   -1    0    0  501  503 -0.00000000000E+00 -0.00000000000E+00 -0.45490033859E+02  0.45490033859E+02  0.00000000000E+00 0. -1.
          6    1    1    2  501    0 -0.33635427013E+02  0.66116264543E+02  0.24538885714E+03  0.30871085759E+03  0.17200000000E+03 0. -1.
         -6    1    1    2    0  502  0.33635427013E+02 -0.66116264543E+02  0.62046514989E+03  0.64812321716E+03  0.17200000000E+03 0. -1.
</event>
<event>
 4    1  0.1235203E+000  0.2054085E+03  0.7818608E-02  0.1145254E+00
         21   -1    0    0  501  502  0.00000000000E+00  0.00000000000E+00  0.27008967097E+03  0.27008967097E+03  0.00000000000E+00 0.  1.
         21   -1    0    0  502  503 -0.00000000000E+00 -0.00000000000E+00 -0.15914009686E+03  0.15914009686E+03  0.00000000000E+00 0.  1.
          6    1    1    2  501    0  0.91001167515E+02  0.65783216568E+02  0.84560451917E+02  0.22213309996E+03  0.17200000000E+03 0. -1.
         -6    1    1    2    0  503 -0.91001167515E+02 -0.65783216568E+02  0.26389122202E+02  0.20709666787E+03  0.17200000000E+03 0. -1.
</event>
<event>
 4    1  0.1235203E+000  0.1900017E+03  0.7818608E-02  0.1158460E+00
         21   -1    0    0  501  502  0.00000000000E+00  0.00000000000E+00  0.75791201895E+02  0.75791201895E+02  0.00000000000E+00 0.  1.
         21   -1    0    0  502  503 -0.00000000000E+00 -0.00000000000E+00 -0.50970584551E+03  0.50970584551E+03  0.00000000000E+00 0.  1.
          6    1    1    2  501    0 -0.30193705342E+02 -0.74866344490E+02 -0.14203066758E+03  0.23722002426E+03  0.17200000000E+03 0.  1.
         -6    1    1    2    0  503  0.30193705342E+02  0.74866344490E+02 -0.29188397604E+03  0.34827702314E+03  0.17200000000E+03 0.  1.
</event>
<event>
 4    1  0.1235203E+000  0.1995920E+03  0.7818608E-02  0.1150084E+00
         21   -1    0    0  501  502  0.00000000000E+00  0.00000000000E+00  0.54626937738E+03  0.54626937738E+03  0.00000000000E+00 0.  1.
         21   -1    0    0  502  503 -0.00000000000E+00 -0.00000000000E+00 -0.76636402846E+02  0.76636402846E+02  0.00000000000E+00 0.  1.
          6    1    1    2  501    0  0.10062239326E+03 -0.11318891130E+02  0.30335156419E+03  0.36312415896E+03  0.17200000000E+03 0.  1.
         -6    1    1    2    0  503 -0.10062239326E+03  0.11318891130E+02  0.16628141035E+03  0.25978162127E+03  0.17200000000E+03 0.  1.
</event>
<event>
 4    1  0.1235203E+000  0.1969699E+03  0.7818608E-02  0.1152321E+00
         21   -1    0    0  501  502  0.00000000000E+00  0.00000000000E+00  0.29734099823E+03  0.29734099823E+03  0.00000000000E+00 0.  1.
         21   -1    0    0  502  503 -0.00000000000E+00 -0.00000000000E+00 -0.16081423211E+03  0.16081423211E+03  0.00000000000E+00 0.  1.
          6    1    1    2  501    0 -0.23110473509E+02 -0.93161499871E+02  0.16775451526E+03  0.25872521414E+03  0.17200000000E+03 0. -1.
         -6    1    1    2    0  503  0.23110473509E+02  0.93161499871E+02 -0.31227749143E+02  0.19943001620E+03  0.17200000000E+03 0. -1.
</event>
<event>
 4    1  0.1235203E+000  0.1751598E+03  0.7818608E-02  0.1172571E+00
         21   -1    0    0  503  502  0.00000000000E+00  0.00000000000E+00  0.92816988159E+02  0.92816988159E+02  0.00000000000E+00 0. -1.
         21   -1    0    0  501  503 -0.00000000000E+00 -0.00000000000E+00 -0.54223638007E+03  0.54223638007E+03  0.00000000000E+00 0. -1.
          6    1    1    2  501    0  0.24921087793E+02 -0.21814763046E+02 -0.42310398456E+03  0.45792786141E+03  0.17200000000E+03 0. -1.
         -6    1    1    2    0  502 -0.24921087793E+02  0.21814763046E+02 -0.26315407356E+02  0.17712550682E+03  0.17200000000E+03 0. -1.
</event>
<event>
 4    1  0.1235203E+000  0.1827615E+03  0.7818608E-02  0.1165157E+00
         21   -1    0    0  501  502  0.00000000000E+00  0.00000000000E+00  0.58158376413E+02  0.58158376413E+02  0.00000000000E+00 0. -1.
         21   -1    0    0  502  503 -0.00000000000E+00 -0.00000000000E+00 -0.88967904351E+03  0.88967904351E+03  0.00000000000E+00 0. -1.
          6    1    1    2  501    0 -0.45786093752E+02 -0.41489786342E+02 -0.69791475427E+03  0.72144769247E+03  0.17200000000E+03 0. -1.
         -6    1    1    2    0  503  0.45786093752E+02  0.41489786342E+02 -0.13360591283E+03  0.22638972745E+03  0.17200000000E+03 0. -1.
</event>
<event>
 4    1  0.1235203E+000  0.1899983E+03  0.7818608E-02  0.1158463E+00
         21   -1    0    0  503  502  0.00000000000E+00  0.00000000000E+00  0.51034459486E+03  0.51034459486E+03  0.00000000000E+00 0. -1.
         21   -1    0    0  501  503 -0.00000000000E+00 -0.00000000000E+00 -0.70786583950E+02  0.70786583950E+02  0.00000000000E+00 0. -1.
          6    1    1    2  501    0 -0.31514262912E+02  0.74311581168E+02  0.22760266681E+03  0.29648327744E+03  0.17200000000E+03 0. -1.
         -6    1    1    2    0  502  0.31514262912E+02 -0.74311581168E+02  0.21195534410E+03  0.28464790137E+03  0.17200000000E+03 0. -1.
</event>
<event>
 4    1  0.1235203E+000  0.2101256E+03  0.7818608E-02  0.1141467E+00
         21   -1    0    0  503  502  0.00000000000E+00  0.00000000000E+00  0.36005536114E+02  0.36005536114E+02  0.00000000000E+00 0. -1.
         21   -1    0    0  501  503 -0.00000000000E+00 -0.00000000000E+00 -0.14446381001E+04  0.14446381001E+04  0.00000000000E+00 0.  1.
          6    1    1    2  501    0 -0.73701293417E+02  0.95587001607E+02 -0.99214147145E+03  0.10141486355E+04  0.17200000000E+03 0.  1.
         -6    1    1    2    0  502  0.73701293417E+02 -0.95587001607E+02 -0.41649109257E+03  0.46649500074E+03  0.17200000000E+03 0. -1.
</event>
<event>
 4    1  0.1235203E+000  0.2187415E+03  0.7818608E-02  0.1134825E+00
         21   -1    0    0  503  502  0.00000000000E+00  0.00000000000E+00  0.78768076244E+02  0.78768076244E+02  0.00000000000E+00 0.  1.
         21   -1    0    0  501  503 -0.00000000000E+00 -0.00000000000E+00 -0.73490674310E+03  0.73490674310E+03  0.00000000000E+00 0.  1.
          6    1    1    2  501    0 -0.13459318565E+03  0.12187456785E+02 -0.49749610053E+03  0.54346134156E+03  0.17200000000E+03 0.  1.
         -6    1    1    2    0  502  0.13459318565E+03 -0.12187456785E+02 -0.15864256633E+03  0.27021347779E+03  0.17200000000E+03 0.  1.
</event>
<event>
 4    1  0.1235203E+000  0.1733322E+03  0.7818608E-02  0.1174417E+00
         21   -1    0    0  501  502  0.00000000000E+00  0.00000000000E+00  0.34372585045E+03  0.34372585045E+03  0.00000000000E+00 0. -1.
         21   -1    0    0  502  503 -0.00000000000E+00 -0.00000000000E+00 -0.91554351527E+02  0.91554351527E+02  0.00000000000E+00 0. -1.
          6    1    1    2  501    0 -0.14186287576E+02 -0.16087314295E+02  0.17240737344E+03  0.24447567333E+03  0.17200000000E+03 0. -1.
         -6    1    1    2    0  503  0.14186287576E+02  0.16087314295E+02  0.79764125488E+02  0.19080452864E+03  0.17200000000E+03 0. -1.
</event>
<event>
 4    1  0.1235203E+000  0.2107400E+03  0.7818608E-02  0.1140981E+00
         21   -1    0    0  503  502  0.00000000000E+00  0.00000000000E+00  0.23459568784E+03  0.23459568784E+03  0.00000000000E+00 0. -1.
         21   -1    0    0  501  503 -0.00000000000E+00 -0.00000000000E+00 -0.11890291337E+04  0.11890291337E+04  0.00000000000E+00 0.  1.
          6    1    1    2  501    0  0.74418465361E+02 -0.96380675997E+02 -0.11299087076E+04  0.11493933314E+04  0.17200000000E+03 0.  1.
         -6    1    1    2    0  502 -0.74418465361E+02  0.96380675997E+02  0.17547526176E+03  0.27423149014E+03  0.17200000000E+03 0. -1.
</event>
<event>
 4    1  0.1235203E+000  0.1746531E+03  0.7818608E-02  0.1173080E+00
         21   -1    0    0  501  502  0.00000000000E+00  0.00000000000E+00  0.51532496233E+03  0.51532496233E+03  0.00000000000E+00 0. -1.
         21   -1    0    0  502  503 -0.00000000000E+00 -0.00000000000E+00 -0.62743227644E+02  0.62743227644E+02  0.00000000000E+00 0. -1.
          6    1    1    2  501    0  0.62434795253E+01 -0.29676820753E+02  0.15753874252E+03  0.23520661156E+03  0.17200000000E+03 0. -1.
         -6    1    1    2    0  503 -0.62434795253E+01  0.29676820753E+02  0.29504299217E+03  0.34286157842E+03  0.17200000000E+03 0. -1.
</event>
<event>
 4    1  0.1235203E+000  0.1759166E+03  0.7818608E-02  0.1171815E+00
         21   -1    0    0  501  502  0.00000000000E+00  0.00000000000E+00  0.12017518424E+03  0.12017518424E+03  0.00000000000E+00 0.  1.
         21   -1    0    0  502  503 -0.00000000000E+00 -0.00000000000E+00 -0.29700867276E+03  0.29700867276E+03  0.00000000000E+00 0.  1.
          6    1    1    2  501    0 -0.36913218791E+02  0.23710279325E+00 -0.16448248119E+03  0.24083423460E+03  0.17200000000E+03 0. -1.
         -6    1    1    2    0  503  0.36913218791E+02 -0.23710279325E+00 -0.12351007333E+02  0.17634962240E+03  0.17200000000E+03 0. -1.
</event>
<event>
 4    1  0.1235203E+000  0.2036658E+03  0.7818608E-02  0.1146683E+00
         21   -1    0    0  501  502  0.00000000000E+00  0.00000000000E+00  0.10157794850E+03  0.10157794850E+03  0.00000000000E+00 0.  1.
         21   -1    0    0  502  503 -0.00000000000E+00 -0.00000000000E+00 -0.54928342512E+03  0.54928342512E+03  0.00000000000E+00 0. -1.
          6    1    1    2  501    0 -0.10757655780E+03  0.17973233187E+02 -0.59013261442E+02  0.21204319825E+03  0.17200000000E+03 0.  1.
         -6    1    1    2    0  503  0.10757655780E+03 -0.17973233187E+02 -0.38869221518E+03  0.43881817537E+03  0.17200000000E+03 0. -1.
</event>
<event>
 4    1  0.1235203E+000  0.1789552E+03  0.7818608E-02  0.1168818E+00
         21   -1    0    0  503  502  0.00000000000E+00  0.00000000000E+00  0.43106676352E+02  0.43106676352E+02  0.00000000000E+00 0. -1.
         21   -1    0    0  501  503 -0.00000000000E+00 -0.00000000000E+00 -0.74844333977E+03  0.74844333977E+03  0.00000000000E+00 0. -1.
          6    1    1    2  501    0  0.39668644673E+02  0.29451130082E+02 -0.38665630238E+03  0.42606110665E+03  0.17200000000E+03 0. -1.
         -6    1    1    2    0  502 -0.39668644673E+02 -0.29451130082E+02 -0.31868036104E+03  0.36548890947E+03  0.17200000000E+03 0. -1.
</event>
<event>
 4    1  0.1235203E+000  0.1762546E+03  0.7818608E-02  0.1171478E+00
         21   -1    0    0  503  502  0.00000000000E+00  0.00000000000E+00  0.17797398782E+03  0.17797398782E+03  0.00000000000E+00 0.  1.
         21   -1    0    0  501  503 -0.00000000000E+00 -0.00000000000E+00 -0.38083576437E+03  0.38083576437E+03  0.00000000000E+00 0.  1.
          6    1    1    2  501    0  0.37783715298E+02 -0.73526758258E+01 -0.30706630013E+03  0.35405562227E+03  0.17200000000E+03 0.  1.
         -6    1    1    2    0  502 -0.37783715298E+02  0.73526758258E+01  0.10420452359E+03  0.20475412992E+03  0.17200000000E+03 0.  1.
</event>
<event>
 4    1  0.1235203E+000  0.2079391E+03  0.7818608E-02  0.1143208E+00
         21   -1    0    0  501  502  0.00000000000E+00  0.00000000000E+00  0.54779113313E+02  0.54779113313E+02  0.00000000000E+00 0.  1.
         21   -1    0    0  502  503 -0.00000000000E+00 -0.00000000000E+00 -0.13079329116E+04  0.13079329116E+04  0.00000000000E+00 0.  1.
          6    1    1    2  501    0 -0.11627476989E+03 -0.11612764150E+02 -0.19753496249E+03  0.28680784475E+03  0.17200000000E+03 0.  1.
         -6    1    1    2    0  503  0.11627476989E+03  0.11612764150E+02 -0.10556188358E+04  0.10759041802E+04  0.17200000000E+03 0.  1.
</event>
<event>
 4    1  0.1235203E+000  0.2222513E+03  0.7818608E-02  0.1132216E+00
         21   -1    0    0  503  502  0.00000000000E+00  0.00000000000E+00  0.32760615607E+03  0.32760615607E+03  0.00000000000E+00 0.  1.
         21   -1    0    0  501  503 -0.00000000000E+00 -0.00000000000E+00 -0.15180024673E+03  0.15180024673E+03  0.00000000000E+00 0.  1.
          6    1    1    2  501    0  0.10221437359E+03  0.96767159738E+02  0.10757755760E+03  0.24691818943E+03  0.17200000000E+03 0.  1.
         -6    1    1    2    0  502 -0.10221437359E+03 -0.96767159738E+02  0.68228351741E+02  0.23248821336E+03  0.17200000000E+03 0.  1.
</event>
<event>
 4    1  0.1235203E+000  0.2039905E+03  0.7818608E-02  0.1146415E+00
         21   -1    0    0  501  502  0.00000000000E+00  0.00000000000E+00  0.50337433038E+03  0.50337433038E+03  0.00000000000E+00 0.  1.
         21   -1    0    0  502  503 -0.00000000000E+00 -0.00000000000E+00 -0.16413583897E+03  0.16413583897E+03  0.00000000000E+00 0.  1.
          6    1    1    2  501    0  0.83497490534E+01  0.10935458188E+03  0.40475764014E+03  0.45325587712E+03  0.17200000000E+03 0.  1.
         -6    1    1    2    0  503 -0.83497490534E+01 -0.10935458188E+03 -0.65519148742E+02  0.21425429223E+03  0.17200000000E+03 0.  1.
</event>
<event>
 4    1  0.1235203E+000  0.1851685E+03  0.7818608E-02  0.1162893E+00
         21   -1    0    0  503  502  0.00000000000E+00  0.00000000000E+00  0.13756646727E+03  0.13756646727E+03  0.00000000000E+00 0. -1.
         21   -1    0    0  501  503 -0.00000000000E+00 -0.00000000000E+00 -0.42251986018E+03  0.42251986018E+03  0.00000000000E+00 0. -1.
          6    1    1    2  501    0 -0.47643226307E+02  0.49330652024E+02 -0.32181477201E+03  0.37128444315E+03  0.17200000000E+03 0. -1.
         -6    1    1    2    0  502  0.47643226307E+02 -0.49330652024E+02  0.36861379102E+02  0.18880188429E+03  0.17200000000E+03 0. -1.
</event>
<event>
 4    1  0.1235203E+000  0.2246058E+03  0.7818608E-02  0.1130495E+00
         21   -1    0    0  503  502  0.00000000000E+00  0.00000000000E+00  0.12499700347E+03  0.12499700347E+03  0.00000000000E+00 0.  1.
         21   -1    0    0  501  503 -0.00000000000E+00 -0.00000000000E+00 -0.11327166898E+04  0.11327166898E+04  0.00000000000E+00 0.  1.
          6    1    1    2  501    0  0.14444073590E+03  0.79212789709E+00 -0.10083958136E+04  0.10331069018E+04  0.17200000000E+03 0.  1.
         -6    1    1    2    0  502 -0.14444073590E+03 -0.79212789709E+00  0.67612721595E+00  0.22460679153E+03  0.17200000000E+03 0.  1.
</event>
<event>
 4    1  0.1235203E+000  0.2629715E+03  0.7818608E-02  0.1105371E+00
         21   -1    0    0  501  502  0.00000000000E+00  0.00000000000E+00  0.54686798220E+03  0.54686798220E+03  0.00000000000E+00 0. -1.
         21   -1    0    0  502  503 -0.00000000000E+00 -0.00000000000E+00 -0.15260211021E+03  0.15260211021E+03  0.00000000000E+00 0.  1.
          6    1    1    2  501    0 -0.10974983660E+03  0.16590658245E+03  0.34190118259E+03  0.43133564586E+03  0.17200000000E+03 0.  1.
         -6    1    1    2    0  503  0.10974983660E+03 -0.16590658245E+03  0.52364689401E+02  0.26813444656E+03  0.17200000000E+03 0. -1.
</event>
<event>
 4    1  0.1235203E+000  0.2120732E+03  0.7818608E-02  0.1139935E+00
         21   -1    0    0  501  502  0.00000000000E+00  0.00000000000E+00  0.14028136052E+03  0.14028136052E+03  0.00000000000E+00 0. -1.
         21   -1    0    0  502  503 -0.00000000000E+00 -0.00000000000E+00 -0.32471979795E+03  0.32471979795E+03  0.00000000000E+00 0.  1.
          6    1    1    2  501    0  0.10174211188E+03  0.70990127228E+02 -0.66050195491E+02  0.22212087659E+03  0.17200000000E+03 0. -1.
         -6    1    1    2    0  503 -0.10174211188E+03 -0.70990127228E+02 -0.11838824194E+03  0.24288028187E+03  0.17200000000E+03 0.  1.
</event>
<event>
 4    1  0.1235203E+000  0.1935168E+03  0.7818608E-02  0.1155327E+00
         21   -1    0    0  501  502  0.00000000000E+00  0.00000000000E+00  0.26478425572E+03  0.26478425572E+03  0.00000000000E+00 0. -1.
         21   -1    0    0  502  503 -0.00000000000E+00 -0.00000000000E+00 -0.25008075891E+03  0.25008075891E+03  0.00000000000E+00 0. -1.
          6    1    1    2  501    0  0.72148169672E+02  0.51569485284E+02  0.17703427277E+03  0.26227829482E+03  0.17200000000E+03 0. -1.
         -6    1    1    2    0  503 -0.72148169672E+02 -0.51569485284E+02 -0.16233077596E+03  0.25258671981E+03  0.17200000000E+03 0. -1.
</event>
<event>
 4    1  0.1235203E+000  0.1764091E+03  0.7818608E-02  0.1171324E+00
         21   -1    0    0  501  502  0.00000000000E+00  0.00000000000E+00  0.70142857546E+02  0.70142857546E+02  0.00000000000E+00 0. -1.
         21   -1    0    0  502  503 -0.00000000000E+00 -0.00000000000E+00 -0.52716120515E+03  0.52716120515E+03  0.00000000000E+00 0. -1.
          6    1    1    2  501    0 -0.15636242287E+01 -0.39162595008E+02 -0.10965379048E+03  0.20771159702E+03  0.17200000000E+03 0. -1.
         -6    1    1    2    0  503  0.15636242287E+01  0.39162595008E+02 -0.34736455712E+03  0.38959246567E+03  0.17200000000E+03 0. -1.
</event>
<event>
 4    1  0.1235203E+000  0.1831012E+03  0.7818608E-02  0.1164835E+00
         21   -1    0    0  501  502  0.00000000000E+00  0.00000000000E+00  0.30455869893E+03  0.30455869893E+03  0.00000000000E+00 0. -1.
         21   -1    0    0  502  503 -0.00000000000E+00 -0.00000000000E+00 -0.32797145817E+03  0.32797145817E+03  0.00000000000E+00 0. -1.
          6    1    1    2  501    0 -0.40587021351E+02 -0.47903646182E+02  0.24607557905E+03  0.30672341976E+03  0.17200000000E+03 0. -1.
         -6    1    1    2    0  503  0.40587021351E+02  0.47903646182E+02 -0.26948833829E+03  0.32580673734E+03  0.17200000000E+03 0. -1.
</event>
<event>
 4    1  0.1235203E+000  0.2802149E+03  0.7818608E-02  0.1095572E+00
         21   -1    0    0  503  502  0.00000000000E+00  0.00000000000E+00  0.21670626061E+03  0.21670626061E+03  0.00000000000E+00 0.  1.
         21   -1    0    0  501  503 -0.00000000000E+00 -0.00000000000E+00 -0.10261032471E+04  0.10261032471E+04  0.00000000000E+00 0.  1.
          6    1    1    2  501    0 -0.21923396176E+03  0.29544641143E+02 -0.90448789918E+03  0.94689955938E+03  0.17200000000E+03 0.  1.
         -6    1    1    2    0  502  0.21923396176E+03 -0.29544641143E+02  0.95090912733E+02  0.29590994828E+03  0.17200000000E+03 0.  1.
</event>
<event>
 4    1  0.1235203E+000  0.1825227E+03  0.7818608E-02  0.1165384E+00
         21   -1    0    0  503  502  0.00000000000E+00  0.00000000000E+00  0.96420189696E+03  0.96420189696E+03  0.00000000000E+00 0.  1.
         21   -1    0    0  501  503 -0.00000000000E+00 -0.00000000000E+00 -0.43798955630E+02  0.43798955630E+02  0.00000000000E+00 0.  1.
          6    1    1    2  501    0  0.60498421637E+02 -0.83940370077E+01  0.22861527851E+03  0.29253968012E+03  0.17200000000E+03 0.  1.
         -6    1    1    2    0  502 -0.60498421637E+02  0.83940370077E+01  0.69178766282E+03  0.71546117247E+03  0.17200000000E+03 0.  1.
</event>
<event>
 4    1  0.1235203E+000  0.2198231E+03  0.7818608E-02  0.1134015E+00
         21   -1    0    0  501  502  0.00000000000E+00  0.00000000000E+00  0.29659662096E+03  0.29659662096E+03  0.00000000000E+00 0.  1.
         21   -1    0    0  502  503 -0.00000000000E+00 -0.00000000000E+00 -0.34085703634E+03  0.34085703634E+03  0.00000000000E+00 0. -1.
          6    1    1    2  501    0  0.31044147175E+02  0.13332087639E+03  0.20815333087E+03  0.30273751718E+03  0.17200000000E+03 0.  1.
         -6    1    1    2    0  503 -0.31044147175E+02 -0.13332087639E+03 -0.25241374625E+03  0.33471614011E+03  0.17200000000E+03 0. -1.
</event>
<event>
 4    1  0.1235203E+000  0.1736418E+03  0.7818608E-02  0.1174102E+00
         21   -1    0    0  501  502  0.00000000000E+00  0.00000000000E+00  0.20133338095E+03  0.20133338095E+03  0.00000000000E+00 0. -1.
         21   -1    0    0  502  503 -0.00000000000E+00 -0.00000000000E+00 -0.31247491787E+03  0.31247491787E+03  0.00000000000E+00 0. -1.
          6    1    1    2  501    0 -0.18638188847E+01  0.23748723911E+02  0.12981595325E+03  0.21680326895E+03  0.17200000000E+03 0. -1.
         -6    1    1    2    0  503  0.18638188847E+01 -0.23748723911E+02 -0.24095749017E+03  0.29700502988E+03  0.17200000000E+03 0. -1.
</event>
<event>
 4    1  0.1235203E+000  0.2327477E+03  0.7818608E-02  0.1124721E+00
         21   -1    0    0  501  502  0.00000000000E+00  0.00000000000E+00  0.34081121543E+03  0.34081121543E+03  0.00000000000E+00 0. -1.
         21   -1    0    0  502  503 -0.00000000000E+00 -0.00000000000E+00 -0.16112943471E+03  0.16112943471E+03  0.00000000000E+00 0.  1.
          6    1    1    2  501    0  0.14938416627E+03  0.47664264723E+02  0.60644245146E+02  0.24051868063E+03  0.17200000000E+03 0. -1.
         -6    1    1    2    0  503 -0.14938416627E+03 -0.47664264723E+02  0.11903753557E+03  0.26142196950E+03  0.17200000000E+03 0. -1.
</event>
<event>
 4    1  0.1235203E+000  0.2252537E+03  0.7818608E-02  0.1130026E+00
         21   -1    0    0  503  502  0.00000000000E+00  0.00000000000E+00  0.25471439324E+03  0.25471439324E+03  0.00000000000E+00 0. -1.
         21   -1    0    0  501  503 -0.00000000000E+00 -0.00000000000E+00 -0.21167335845E+03  0.21167335845E+03  0.00000000000E+00 0.  1.
          6    1    1    2  501    0 -0.87073123767E+02  0.11650530497E+03 -0.35086252210E+02  0.22796986657E+03  0.17200000000E+03 0.  1.
         -6    1    1    2    0  502  0.87073123767E+02 -0.11650530497E+03  0.78127286999E+02  0.23841788512E+03  0.17200000000E+03 0. -1.
</event>
<event>
 4    1  0.1235203E+000  0.1979292E+03  0.7818608E-02  0.1151498E+00
         21   -1    0    0  501  502  0.00000000000E+00  0.00000000000E+00  0.50383681958E+03  0.50383681958E+03  0.00000000000E+00 0. -1.
         21   -1    0    0  502  503 -0.00000000000E+00 -0.00000000000E+00 -0.12220799343E+03  0.12220799343E+03  0.00000000000E+00 0. -1.
          6    1    1    2  501    0  0.67769080218E+02  0.70705816569E+02  0.37960262622E+03  0.42810526108E+03  0.17200000000E+03 0. -1.
         -6    1    1    2    0  503 -0.67769080218E+02 -0.70705816569E+02  0.20261999295E+01  0.19793955193E+03  0.17200000000E+03 0. -1.
</event>
<event>
 4    1  0.1235203E+000  0.2214963E+03  0.7818608E-02  0.1132772E+00
         21   -1    0    0  501  502  0.00000000000E+00  0.00000000000E+00  0.10459532545E+04  0.10459532545E+04  0.00000000000E+00 0. -1.
         21   -1    0    0  502  503 -0.00000000000E+00 -0.00000000000E+00 -0.51519079087E+02  0.51519079087E+02  0.00000000000E+00 0. -1.
          6    1    1    2  501    0 -0.12864400269E+03  0.54104639601E+02  0.66143295753E+03  0.69753433519E+03  0.17200000000E+03 0.  1.
         -6    1    1    2    0  503  0.12864400269E+03 -0.54104639601E+02  0.33300121788E+03  0.39993799840E+03  0.17200000000E+03 0.  1.
</event>
<event>
 4    1  0.1235203E+000  0.2222786E+03  0.7818608E-02  0.1132196E+00
         21   -1    0    0  503  502  0.00000000000E+00  0.00000000000E+00  0.12003599480E+04  0.12003599480E+04  0.00000000000E+00 0. -1.
         21   -1    0    0  501  503 -0.00000000000E+00 -0.00000000000E+00 -0.50643663598E+02  0.50643663598E+02  0.00000000000E+00 0.  1.
          6    1    1    2  501    0  0.13791756847E+03  0.28328893607E+02  0.30419093331E+03  0.37674912849E+03  0.17200000000E+03 0.  1.
         -6    1    1    2    0  502 -0.13791756847E+03 -0.28328893607E+02  0.84552535110E+03  0.87425448312E+03  0.17200000000E+03 0. -1.
</event>
<event>
 4    1  0.1235203E+000  0.1832953E+03  0.7818608E-02  0.1164651E+00
         21   -1    0    0  503  502  0.00000000000E+00  0.00000000000E+00  0.19208592356E+03  0.19208592356E+03  0.00000000000E+00 0. -1.
         21   -1    0    0  501  503 -0.00000000000E+00 -0.00000000000E+00 -0.48798233006E+03  0.48798233006E+03  0.00000000000E+00 0. -1.
          6    1    1    2  501    0 -0.57408066152E+02  0.26786068941E+02 -0.42030916349E+03  0.45853786372E+03  0.17200000000E+03 0. -1.
         -6    1    1    2    0  502  0.57408066152E+02 -0.26786068941E+02  0.12441275700E+03  0.22153038991E+03  0.17200000000E+03 0. -1.
</event>
<event>
 4    1  0.1235203E+000  0.2234008E+03  0.7818608E-02  0.1131373E+00
         21   -1    0    0  503  502  0.00000000000E+00  0.00000000000E+00  0.42941189355E+03  0.42941189355E+03  0.00000000000E+00 0. -1.
         21   -1    0    0  501  503 -0.00000000000E+00 -0.00000000000E+00 -0.11623592182E+03  0.11623592182E+03  0.00000000000E+00 0. -1.
          6    1    1    2  501    0  0.13246429215E+03 -0.52698442896E+02  0.15936535908E+03  0.27441798821E+03  0.17200000000E+03 0. -1.
         -6    1    1    2    0  502 -0.13246429215E+03  0.52698442896E+02  0.15381061265E+03  0.27122982716E+03  0.17200000000E+03 0. -1.
</event>
<event>
 4    1  0.1235203E+000  0.1763718E+03  0.7818608E-02  0.1171361E+00
         21   -1    0    0  503  502  0.00000000000E+00  0.00000000000E+00  0.35396431201E+02  0.35396431201E+02  0.00000000000E+00 0.  1.
         21   -1    0    0  501  503 -0.00000000000E+00 -0.00000000000E+00 -0.93775080412E+03  0.93775080412E+03  0.00000000000E+00 0.  1.
          6    1    1    2  501    0 -0.14429435975E+02  0.36260122886E+02 -0.32919819830E+03  0.37346814978E+03  0.17200000000E+03 0. -1.
         -6    1    1    2    0  502  0.14429435975E+02 -0.36260122886E+02 -0.57315617462E+03  0.59967908554E+03  0.17200000000E+03 0. -1.
</event>
<event>
 4    1  0.1235203E+000  0.1932630E+03  0.7818608E-02  0.1155551E+00
         21   -1    0    0  501  502  0.00000000000E+00  0.00000000000E+00  0.18475119195E+03  0.18475119195E+03  0.00000000000E+00 0.  1.
         21   -1    0    0  502  503 -0.00000000000E+00 -0.00000000000E+00 -0.46431520437E+03  0.46431520437E+03  0.00000000000E+00 0.  1.
          6    1    1    2  501    0 -0.79928071500E+02  0.37122674519E+02  0.10406989248E+03  0.21950200933E+03  0.17200000000E+03 0.  1.
         -6    1    1    2    0  503  0.79928071500E+02 -0.37122674519E+02 -0.38363390490E+03  0.42956438699E+03  0.17200000000E+03 0.  1.
</event>
<event>
 4    1  0.1235203E+000  0.2102330E+03  0.7818608E-02  0.1141382E+00
         21   -1    0    0  503  502  0.00000000000E+00  0.00000000000E+00  0.63938395127E+03  0.63938395127E+03  0.00000000000E+00 0. -1.
         21   -1    0    0  501  503 -0.00000000000E+00 -0.00000000000E+00 -0.79508408529E+02  0.79508408529E+02  0.00000000000E+00 0.  1.
          6    1    1    2  501    0 -0.39968294446E+02  0.11408970450E+03  0.15004629767E+03  0.25828630757E+03  0.17200000000E+03 0. -1.
         -6    1    1    2    0  502  0.39968294446E+02 -0.11408970450E+03  0.40982924507E+03  0.46060605223E+03  0.17200000000E+03 0.  1.
</event>
<event>
 4    1  0.1235203E+000  0.1923628E+03  0.7818608E-02  0.1156347E+00
         21   -1    0    0  503  502  0.00000000000E+00  0.00000000000E+00  0.20960238363E+04  0.20960238363E+04  0.00000000000E+00 0. -1.
         21   -1    0    0  501  503 -0.00000000000E+00 -0.00000000000E+00 -0.41499286117E+02  0.41499286117E+02  0.00000000000E+00 0. -1.
          6    1    1    2  501    0  0.79846342631E+02 -0.32311403374E+02  0.21712120319E+03  0.29007771734E+03  0.17200000000E+03 0. -1.
         -6    1    1    2    0  502 -0.79846342631E+02  0.32311403374E+02  0.18374033470E+04  0.18474454051E+04  0.17200000000E+03 0. -1.
</event>
<event>
 4    1  0.1235203E+000  0.1768506E+03  0.7818608E-02  0.1170886E+00
         21   -1    0    0  501  502  0.00000000000E+00  0.00000000000E+00  0.34503122094E+02  0.34503122094E+02  0.00000000000E+00 0.  1.
         21   -1    0    0  502  503 -0.00000000000E+00 -0.00000000000E+00 -0.10644458289E+04  0.10644458289E+04  0.00000000000E+00 0.  1.
          6    1    1    2  501    0 -0.34540945818E+02 -0.22339398359E+02 -0.30329231579E+03  0.35108738866E+03  0.17200000000E+03 0.  1.
         -6    1    1    2    0  503  0.34540945818E+02  0.22339398359E+02 -0.72665039103E+03  0.74786156235E+03  0.17200000000E+03 0.  1.
</event>
<event>
 4    1  0.1235203E+000  0.2310908E+03  0.7818608E-02  0.1125874E+00
         21   -1    0    0  503  502  0.00000000000E+00  0.00000000000E+00  0.39895251104E+03  0.39895251104E+03  0.00000000000E+00 0. -1.
         21   -1    0    0  501  503 -0.00000000000E+00 -0.00000000000E+00 -0.39115359931E+03  0.39115359931E+03  0.00000000000E+00 0. -1.
          6    1    1    2  501    0 -0.64421280020E+02 -0.14024571481E+03 -0.31650458741E+03  0.39189043838E+03  0.17200000000E+03 0. -1.
         -6    1    1    2    0  502  0.64421280020E+02  0.14024571481E+03  0.32430349915E+03  0.39821567197E+03  0.17200000000E+03 0. -1.
</event>
<event>
 4    1  0.1235203E+000  0.1722649E+03  0.7818608E-02  0.1175506E+00
         21   -1    0    0  503  502  0.00000000000E+00  0.00000000000E+00  0.58061288241E+03  0.58061288241E+03  0.00000000000E+00 0. -1.
         21   -1    0    0  501  503 -0.00000000000E+00 -0.00000000000E+00 -0.53414781820E+02  0.53414781820E+02  0.00000000000E+00 0. -1.
          6    1    1    2  501    0 -0.59900851793E+01 -0.74362449764E+01  0.19774938706E+03  0.26225941154E+03  0.17200000000E+03 0.  1.
         -6    1    1    2    0  502  0.59900851793E+01  0.74362449764E+01  0.32944871353E+03  0.37176825269E+03  0.17200000000E+03 0.  1.
</event>
<event>
 4    1  0.1235203E+000  0.2132326E+03  0.7818608E-02  0.1139031E+00
         21   -1    0    0  503  502  0.00000000000E+00  0.00000000000E+00  0.22124007348E+03  0.22124007348E+03  0.00000000000E+00 0.  1.
         21   -1    0    0  501  503 -0.00000000000E+00 -0.00000000000E+00 -0.38067165616E+03  0.38067165616E+03  0.00000000000E+00 0.  1.
          6    1    1    2  501    0 -0.12298344242E+03  0.27553535972E+02 -0.28386186282E+03  0.35502912784E+03  0.17200000000E+03 0.  1.
         -6    1    1    2    0  502  0.12298344242E+03 -0.27553535972E+02  0.12443028014E+03  0.24688260179E+03  0.17200000000E+03 0.  1.
</event>
<event>
 4    1  0.1235203E+000  0.3741191E+03  0.7818608E-02  0.1053129E+00
         21   -1    0    0  503  502  0.00000000000E+00  0.00000000000E+00  0.35363140942E+03  0.35363140942E+03  0.00000000000E+00 0. -1.
         21   -1    0    0  501  503 -0.00000000000E+00 -0.00000000000E+00 -0.68910453375E+03  0.68910453375E+03  0.00000000000E+00 0.  1.
          6    1    1    2  501    0  0.29214223241E+03  0.15822133359E+03 -0.50788295285E+03  0.63080121129E+03  0.17200000000E+03 0.  1.
         -6    1    1    2    0  502 -0.29214223241E+03 -0.15822133359E+03  0.17240982852E+03  0.41193473189E+03  0.17200000000E+03 0. -1.
</event>
<event>
 4    1  0.1235203E+000  0.1982309E+03  0.7818608E-02  0.1151240E+00
         21   -1    0    0  503  502  0.00000000000E+00  0.00000000000E+00  0.14833782526E+04  0.14833782526E+04  0.00000000000E+00 0. -1.
         21   -1    0    0  501  503 -0.00000000000E+00 -0.00000000000E+00 -0.29789291371E+02  0.29789291371E+02  0.00000000000E+00 0. -1.
          6    1    1    2  501    0 -0.93585953068E+02 -0.30873544439E+02  0.47502618309E+03  0.51472845363E+03  0.17200000000E+03 0.  1.
         -6    1    1    2    0  502  0.93585953068E+02  0.30873544439E+02  0.97856277819E+03  0.99843909039E+03  0.17200000000E+03 0.  1.
</event>
<event>
 4    1  0.1235203E+000  0.1885296E+03  0.7818608E-02  0.1159794E+00
         21   -1    0    0  503  502  0.00000000000E+00  0.00000000000E+00  0.32613398910E+03  0.32613398910E+03  0.00000000000E+00 0.  1.
         21   -1    0    0  501  503 -0.00000000000E+00 -0.00000000000E+00 -0.10923842297E+03  0.10923842297E+03  0.00000000000E+00 0. -1.
          6    1    1    2  501    0  0.50496459019E+02 -0.58391201157E+02  0.97944581911E+02  0.21245367936E+03  0.17200000000E+03 0. -1.
         -6    1    1    2    0  502 -0.50496459019E+02  0.58391201157E+02  0.11895098422E+03  0.22291873271E+03  0.17200000000E+03 0.  1.
</event>
<event>
 4    1  0.1235203E+000  0.1779787E+03  0.7818608E-02  0.1169774E+00
         21   -1    0    0  501  502  0.00000000000E+00  0.00000000000E+00  0.24113234514E+03  0.24113234514E+03  0.00000000000E+00 0. -1.
         21   -1    0    0  502  503 -0.00000000000E+00 -0.00000000000E+00 -0.15027747636E+03  0.15027747636E+03  0.00000000000E+00 0. -1.
          6    1    1    2  501    0  0.41668313611E+02  0.18872716038E+02  0.11485393850E+03  0.21182033651E+03  0.17200000000E+03 0.  1.
         -6    1    1    2    0  503 -0.41668313611E+02 -0.18872716038E+02 -0.23999069718E+02  0.17958948498E+03  0.17200000000E+03 0.  1.
</event>
<event>
 4    1  0.1235203E+000  0.1871033E+03  0.7818608E-02  0.1161100E+00
         21   -1    0    0  503  502  0.00000000000E+00  0.00000000000E+00  0.26204210312E+04  0.26204210312E+04  0.00000000000E+00 0.  1.
         21   -1    0    0  501  503 -0.00000000000E+00 -0.00000000000E+00 -0.38381428309E+02  0.38381428309E+02  0.00000000000E+00 0.  1.
          6    1    1    2  501    0 -0.22530640593E+02 -0.70114296967E+02  0.21763493380E+03  0.28700628707E+03  0.17200000000E+03 0.  1.
         -6    1    1    2    0  502  0.22530640593E+02  0.70114296967E+02  0.23644046691E+04  0.23717961724E+04  0.17200000000E+03 0.  1.
</event>
<event>
 4    1  0.1235203E+000  0.1797947E+03  0.7818608E-02  0.1168002E+00
         21   -1    0    0  503  502  0.00000000000E+00  0.00000000000E+00  0.72144800424E+02  0.72144800424E+02  0.00000000000E+00 0.  1.
         21   -1    0    0  501  503 -0.00000000000E+00 -0.00000000000E+00 -0.52717142746E+03  0.52717142746E+03  0.00000000000E+00 0.  1.
          6    1    1    2  501    0  0.17794843240E+02 -0.49249058742E+02 -0.11143944724E+03  0.21152984809E+03  0.17200000000E+03 0. -1.
         -6    1    1    2    0  502 -0.17794843240E+02  0.49249058742E+02 -0.34358717979E+03  0.38778637979E+03  0.17200000000E+03 0. -1.
</event>
<event>
 4    1  0.1235203E+000  0.1729256E+03  0.7818608E-02  0.1174831E+00
         21   -1    0    0  503  502  0.00000000000E+00  0.00000000000E+00  0.78138099508E+02  0.78138099508E+02  0.00000000000E+00 0.  1.
         21   -1    0    0  501  503 -0.00000000000E+00 -0.00000000000E+00 -0.38566523537E+03  0.38566523537E+03  0.00000000000E+00 0.  1.
          6    1    1    2  501    0  0.13988345982E+02 -0.11116384530E+02 -0.17410671983E+03  0.24539029671E+03  0.17200000000E+03 0. -1.
         -6    1    1    2    0  502 -0.13988345982E+02  0.11116384530E+02 -0.13342041603E+03  0.21841303817E+03  0.17200000000E+03 0. -1.
</event>
<event>
 4    1  0.1235203E+000  0.1965160E+03  0.7818608E-02  0.1152712E+00
         21   -1    0    0  501  502  0.00000000000E+00  0.00000000000E+00  0.45201454729E+03  0.45201454729E+03  0.00000000000E+00 0.  1.
         21   -1    0    0  502  503 -0.00000000000E+00 -0.00000000000E+00 -0.85501478638E+02  0.85501478638E+02  0.00000000000E+00 0.  1.
          6    1    1    2  501    0  0.55160168391E+02  0.77407350446E+02  0.19066538711E+03  0.27380984629E+03  0.17200000000E+03 0. -1.
         -6    1    1    2    0  503 -0.55160168391E+02 -0.77407350446E+02  0.17584768154E+03  0.26370617965E+03  0.17200000000E+03 0. -1.
</event>
<event>
 4    1  0.1235203E+000  0.1927116E+03  0.7818608E-02  0.1156038E+00
         21   -1    0    0  503  502  0.00000000000E+00  0.00000000000E+00  0.10083625696E+04  0.10083625696E+04  0.00000000000E+00 0.  1.
         21   -1    0    0  501  503 -0.00000000000E+00 -0.00000000000E+00 -0.79149759911E+02  0.79149759911E+02  0.00000000000E+00 0. -1.
          6    1    1    2  501    0  0.72930198149E+02 -0.47275274272E+02  0.67001117496E+02  0.20402675095E+03  0.17200000000E+03 0. -1.
         -6    1    1    2    0  502 -0.72930198149E+02  0.47275274272E+02  0.86221169215E+03  0.88348557851E+03  0.17200000000E+03 0.  1.
</event>
<event>
 4    1  0.1235203E+000  0.1892175E+03  0.7818608E-02  0.1159169E+00
         21   -1    0    0  503  502  0.00000000000E+00  0.00000000000E+00  0.39785540882E+02  0.39785540882E+02  0.00000000000E+00 0. -1.
         21   -1    0    0  501  503 -0.00000000000E+00 -0.00000000000E+00 -0.94938223042E+03  0.94938223042E+03  0.00000000000E+00 0. -1.
          6    1    1    2  501    0  0.16358313193E+02  0.77147102647E+02 -0.56770386805E+03  0.59840701170E+03  0.17200000000E+03 0. -1.
         -6    1    1    2    0  502 -0.16358313193E+02 -0.77147102647E+02 -0.34189282149E+03  0.39076075960E+03  0.17200000000E+03 0. -1.
</event>
<event>
 4    1  0.1235203E+000  0.1790763E+03  0.7818608E-02  0.1168700E+00
         21   -1    0    0  501  502  0.00000000000E+00  0.00000000000E+00  0.50966632292E+02  0.50966632292E+02  0.00000000000E+00 0. -1.
         21   -1    0    0  502  503 -0.00000000000E+00 -0.00000000000E+00 -0.69991640580E+03  0.69991640580E+03  0.00000000000E+00 0. -1.
          6    1    1    2  501    0  0.43413477859E+02  0.24486556431E+02 -0.20513866486E+03  0.27230533107E+03  0.17200000000E+03 0. -1.
         -6    1    1    2    0  503 -0.43413477859E+02 -0.24486556431E+02 -0.44381110864E+03  0.47857770702E+03  0.17200000000E+03 0. -1.
</event>
<event>
 4    1  0.1235203E+000  0.1730884E+03  0.7818608E-02  0.1174665E+00
         21   -1    0    0  503  502  0.00000000000E+00  0.00000000000E+00  0.62085263719E+02  0.62085263719E+02  0.00000000000E+00 0. -1.
         21   -1    0    0  501  503 -0.00000000000E+00 -0.00000000000E+00 -0.50083343151E+03  0.50083343151E+03  0.00000000000E+00 0. -1.
          6    1    1    2  501    0  0.12905889419E+02  0.14458045192E+02 -0.16560528579E+03  0.23955105454E+03  0.17200000000E+03 0.  1.
         -6    1    1    2    0  502 -0.12905889419E+02 -0.14458045192E+02 -0.27314288201E+03  0.32336764069E+03  0.17200000000E+03 0.  1.
</event>
<event>
 4    1  0.1235203E+000  0.1787783E+03  0.7818608E-02  0.1168991E+00
         21   -1    0    0  501  502  0.00000000000E+00  0.00000000000E+00  0.31926322568E+03  0.31926322568E+03  0.00000000000E+00 0.  1.
         21   -1    0    0  502  503 -0.00000000000E+00 -0.00000000000E+00 -0.14234769620E+03  0.14234769620E+03  0.00000000000E+00 0.  1.
          6    1    1    2  501    0  0.48604339385E+02 -0.39091294094E+01  0.21418153656E+03  0.27898995269E+03  0.17200000000E+03 0.  1.
         -6    1    1    2    0  503 -0.48604339385E+02  0.39091294094E+01 -0.37266007083E+02  0.18262096918E+03  0.17200000000E+03 0.  1.
</event>
<event>
 4    1  0.1235203E+000  0.1787467E+03  0.7818608E-02  0.1169022E+00
         21   -1    0    0  501  502  0.00000000000E+00  0.00000000000E+00  0.28833740915E+03  0.28833740915E+03  0.00000000000E+00 0. -1.
         21   -1    0    0  502  503 -0.00000000000E+00 -0.00000000000E+00 -0.11278352779E+03  0.11278352779E+03  0.00000000000E+00 0. -1.
          6    1    1    2  501    0 -0.23042875593E+02  0.42841706931E+02  0.11431394136E+03  0.21217460536E+03  0.17200000000E+03 0. -1.
         -6    1    1    2    0  503  0.23042875593E+02 -0.42841706931E+02  0.61239939990E+02  0.18894633158E+03  0.17200000000E+03 0. -1.
</event>
<event>
 4    1  0.1235203E+000  0.1734843E+03  0.7818608E-02  0.1174262E+00
         21   -1    0    0  503  502  0.00000000000E+00  0.00000000000E+00  0.25069436793E+03  0.25069436793E+03  0.00000000000E+00 0. -1.
         21   -1    0    0  501  503 -0.00000000000E+00 -0.00000000000E+00 -0.24702686132E+03  0.24702686132E+03  0.00000000000E+00 0. -1.
          6    1    1    2  501    0 -0.21798222672E+02  0.61364528417E+01 -0.17658472307E+03  0.24754592097E+03  0.17200000000E+03 0. -1.
         -6    1    1    2    0  502  0.21798222672E+02 -0.61364528417E+01  0.18025222969E+03  0.25017530828E+03  0.17200000000E+03 0. -1.
</event>
<event>
 4    1  0.1235203E+000  0.3585092E+03  0.7818608E-02  0.1059176E+00
         21   -1    0    0  503  502  0.00000000000E+00  0.00000000000E+00  0.13720238689E+03  0.13720238689E+03  0.00000000000E+00 0.  1.
         21   -1    0    0  501  503 -0.00000000000E+00 -0.00000000000E+00 -0.19220928319E+04  0.19220928319E+04  0.00000000000E+00 0. -1.
          6    1    1    2  501    0  0.95362452027E+02  0.29975126051E+03 -0.16296496274E+04  0.16686182079E+04  0.17200000000E+03 0. -1.
         -6    1    1    2    0  502 -0.95362452027E+02 -0.29975126051E+03 -0.15524081759E+03  0.39067701095E+03  0.17200000000E+03 0.  1.
</event>
<event>
 4    1  0.1235203E+000  0.1725276E+03  0.7818608E-02  0.1175237E+00
         21   -1    0    0  503  502  0.00000000000E+00  0.00000000000E+00  0.16284973348E+03  0.16284973348E+03  0.00000000000E+00 0. -1.
         21   -1    0    0  501  503 -0.00000000000E+00 -0.00000000000E+00 -0.32109259466E+03  0.32109259466E+03  0.00000000000E+00 0. -1.
          6    1    1    2  501    0  0.80831308827E+01 -0.10790334335E+02  0.79688781842E+02  0.19004228548E+03  0.17200000000E+03 0. -1.
         -6    1    1    2    0  502 -0.80831308827E+01  0.10790334335E+02 -0.23793164302E+03  0.29390004265E+03  0.17200000000E+03 0. -1.
</event>
<event>
 4    1  0.1235203E+000  0.2162182E+03  0.7818608E-02  0.1136734E+00
         21   -1    0    0  501  502  0.00000000000E+00  0.00000000000E+00  0.30276496994E+03  0.30276496994E+03  0.00000000000E+00 0. -1.
         21   -1    0    0  502  503 -0.00000000000E+00 -0.00000000000E+00 -0.21551101110E+03  0.21551101110E+03  0.00000000000E+00 0. -1.
          6    1    1    2  501    0  0.69527665178E+02  0.11105059504E+03  0.18160691983E+03  0.28236749851E+03  0.17200000000E+03 0. -1.
         -6    1    1    2    0  503 -0.69527665178E+02 -0.11105059504E+03 -0.94352960992E+02  0.23590848254E+03  0.17200000000E+03 0. -1.
</event>
<event>
 4    1  0.1235203E+000  0.1806302E+03  0.7818608E-02  0.1167195E+00
         21   -1    0    0  501  502  0.00000000000E+00  0.00000000000E+00  0.23576027400E+03  0.23576027400E+03  0.00000000000E+00 0. -1.
         21   -1    0    0  502  503 -0.00000000000E+00 -0.00000000000E+00 -0.15755746142E+03  0.15755746142E+03  0.00000000000E+00 0. -1.
          6    1    1    2  501    0  0.35651400247E+02 -0.42098014104E+02 -0.29488006501E+02  0.18302133116E+03  0.17200000000E+03 0.  1.
         -6    1    1    2    0  503 -0.35651400247E+02  0.42098014104E+02  0.10769081908E+03  0.21029640426E+03  0.17200000000E+03 0.  1.
</event>
<event>
 4    1  0.1235203E+000  0.2549225E+03  0.7818608E-02  0.1110233E+00
         21   -1    0    0  503  502  0.00000000000E+00  0.00000000000E+00  0.13093288616E+03  0.13093288616E+03  0.00000000000E+00 0. -1.
         21   -1    0    0  501  503 -0.00000000000E+00 -0.00000000000E+00 -0.49794356740E+03  0.49794356740E+03  0.00000000000E+00 0. -1.
          6    1    1    2  501    0  0.39006685270E+02  0.18406512341E+03 -0.16558779433E+03  0.30398159284E+03  0.17200000000E+03 0.  1.
         -6    1    1    2    0  502 -0.39006685270E+02 -0.18406512341E+03 -0.20142288692E+03  0.32489486072E+03  0.17200000000E+03 0.  1.
</event>
<event>
 4    1  0.1235203E+000  0.1918860E+03  0.7818608E-02  0.1156771E+00
         21   -1    0    0  503  502  0.00000000000E+00  0.00000000000E+00  0.12617222360E+03  0.12617222360E+03  0.00000000000E+00 0. -1.
         21   -1    0    0  501  503 -0.00000000000E+00 -0.00000000000E+00 -0.29362339078E+03  0.29362339078E+03  0.00000000000E+00 0. -1.
          6    1    1    2  501    0  0.30271110937E+02  0.79497876057E+02 -0.67300289063E+02  0.20334596471E+03  0.17200000000E+03 0.  1.
         -6    1    1    2    0  502 -0.30271110937E+02 -0.79497876057E+02 -0.10015087811E+03  0.21644964967E+03  0.17200000000E+03 0.  1.
</event>
<event>
 4    1  0.1235203E+000  0.2882522E+03  0.7818608E-02  0.1091265E+00
         21   -1    0    0  501  502  0.00000000000E+00  0.00000000000E+00  0.10786170014E+04  0.10786170014E+04  0.00000000000E+00 0.  1.
         21   -1    0    0  502  503 -0.00000000000E+00 -0.00000000000E+00 -0.77221573647E+02  0.77221573647E+02  0.00000000000E+00 0. -1.
          6    1    1    2  501    0  0.14875818063E+03  0.17713362389E+03  0.47215401452E+03  0.55318959720E+03  0.17200000000E+03 0. -1.
         -6    1    1    2    0  503 -0.14875818063E+03 -0.17713362389E+03  0.52924141321E+03  0.60264897783E+03  0.17200000000E+03 0. -1.
</event>
<event>
 4    1  0.1235203E+000  0.1840833E+03  0.7818608E-02  0.1163909E+00
         21   -1    0    0  501  502  0.00000000000E+00  0.00000000000E+00  0.17670288081E+03  0.17670288081E+03  0.00000000000E+00 0.  1.
         21   -1    0    0  502  503 -0.00000000000E+00 -0.00000000000E+00 -0.37358830749E+03  0.37358830749E+03  0.00000000000E+00 0.  1.
          6    1    1    2  501    0 -0.58540849743E+02 -0.29591225854E+02  0.93504713937E+02  0.20646986043E+03  0.17200000000E+03 0.  1.
         -6    1    1    2    0  503  0.58540849743E+02  0.29591225854E+02 -0.29039014061E+03  0.34382132787E+03  0.17200000000E+03 0.  1.
</event>
<event>
 4    1  0.1235203E+000  0.2122893E+03  0.7818608E-02  0.1139766E+00
         21   -1    0    0  503  502  0.00000000000E+00  0.00000000000E+00  0.52704420193E+02  0.52704420193E+02  0.00000000000E+00 0. -1.
         21   -1    0    0  501  503 -0.00000000000E+00 -0.00000000000E+00 -0.94979344206E+03  0.94979344206E+03  0.00000000000E+00 0. -1.
          6    1    1    2  501    0  0.11839534201E+03 -0.38279146737E+02 -0.60682727164E+03  0.64288886108E+03  0.17200000000E+03 0. -1.
         -6    1    1    2    0  502 -0.11839534201E+03  0.38279146737E+02 -0.29026175022E+03  0.35960900118E+03  0.17200000000E+03 0. -1.
</event>
<event>
 4    1  0.1235203E+000  0.2099719E+03  0.7818608E-02  0.1141588E+00
         21   -1    0    0  503  502  0.00000000000E+00  0.00000000000E+00  0.44538731476E+03  0.44538731476E+03  0.00000000000E+00 0. -1.
         21   -1    0    0  501  503 -0.00000000000E+00 -0.00000000000E+00 -0.15091829854E+03  0.15091829854E+03  0.00000000000E+00 0. -1.
          6    1    1    2  501    0  0.43155700328E+02  0.11243566276E+03 -0.27660151024E+02  0.21178592183E+03  0.17200000000E+03 0. -1.
         -6    1    1    2    0  502 -0.43155700328E+02 -0.11243566276E+03  0.32212916725E+03  0.38451969147E+03  0.17200000000E+03 0. -1.
</event>
<event>
 4    1  0.1235203E+000  0.2677477E+03  0.7818608E-02  0.1102576E+00
         21   -1    0    0  503  502  0.00000000000E+00  0.00000000000E+00  0.39398335013E+03  0.39398335013E+03  0.00000000000E+00 0.  1.
         21   -1    0    0  501  503 -0.00000000000E+00 -0.00000000000E+00 -0.18805952240E+03  0.18805952240E+03  0.00000000000E+00 0. -1.
          6    1    1    2  501    0  0.15495053954E+03 -0.13451832224E+03  0.15537719372E+03  0.30956569747E+03  0.17200000000E+03 0.  1.
         -6    1    1    2    0  502 -0.15495053954E+03  0.13451832224E+03  0.50546634015E+02  0.27247717506E+03  0.17200000000E+03 0. -1.
</event>
<event>
 4    1  0.1235203E+000  0.1963314E+03  0.7818608E-02  0.1152872E+00
         21   -1    0    0  501  502  0.00000000000E+00  0.00000000000E+00  0.72914856528E+02  0.72914856528E+02  0.00000000000E+00 0. -1.
         21   -1    0    0  502  503 -0.00000000000E+00 -0.00000000000E+00 -0.72785759914E+03  0.72785759914E+03  0.00000000000E+00 0. -1.
          6    1    1    2  501    0 -0.39827850277E+02  0.85882200377E+02 -0.11800453044E+03  0.22906566570E+03  0.17200000000E+03 0. -1.
         -6    1    1    2    0  503  0.39827850277E+02 -0.85882200377E+02 -0.53693821217E+03  0.57170678996E+03  0.17200000000E+03 0. -1.
</event>
<event>
 4    1  0.1235203E+000  0.2369254E+03  0.7818608E-02  0.1121858E+00
         21   -1    0    0  503  502  0.00000000000E+00  0.00000000000E+00  0.97861294036E+02  0.97861294036E+02  0.00000000000E+00 0.  1.
         21   -1    0    0  501  503 -0.00000000000E+00 -0.00000000000E+00 -0.80476429744E+03  0.80476429744E+03  0.00000000000E+00 0. -1.
          6    1    1    2  501    0 -0.14202607636E+03 -0.79863940665E+02 -0.59533134143E+03  0.64074414666E+03  0.17200000000E+03 0. -1.
         -6    1    1    2    0  502  0.14202607636E+03  0.79863940665E+02 -0.11157166197E+03  0.26188144482E+03  0.17200000000E+03 0. -1.
</event>
<event>
 4    1  0.1235203E+000  0.1750374E+03  0.7818608E-02  0.1172694E+00
         21   -1    0    0  503  502  0.00000000000E+00  0.00000000000E+00  0.52109718267E+02  0.52109718267E+02  0.00000000000E+00 0. -1.
         21   -1    0    0  501  503 -0.00000000000E+00 -0.00000000000E+00 -0.10120122806E+04  0.10120122806E+04  0.00000000000E+00 0. -1.
          6    1    1    2  501    0  0.24271829860E+02 -0.21562967986E+02 -0.82436595203E+03  0.84274391495E+03  0.17200000000E+03 0. -1.
         -6    1    1    2    0  502 -0.24271829860E+02  0.21562967986E+02 -0.13553661033E+03  0.22137808395E+03  0.17200000000E+03 0. -1.
</event>
<event>
 4    1  0.1235203E+000  0.2984805E+03  0.7818608E-02  0.1086003E+00
         21   -1    0    0  501  502  0.00000000000E+00  0.00000000000E+00  0.20957097736E+03  0.20957097736E+03  0.00000000000E+00 0.  1.
         21   -1    0    0  502  503 -0.00000000000E+00 -0.00000000000E+00 -0.45670073035E+03  0.45670073035E+03  0.00000000000E+00 0. -1.
          6    1    1    2  501    0 -0.21244736280E+03  0.11988619681E+03 -0.35947586073E+02  0.30063734148E+03  0.17200000000E+03 0. -1.
         -6    1    1    2    0  503  0.21244736280E+03 -0.11988619681E+03 -0.21118216691E+03  0.36563436623E+03  0.17200000000E+03 0. -1.
</event>
<event>
 4    1  0.1235203E+000  0.1755044E+03  0.7818608E-02  0.1172226E+00
         21   -1    0    0  501  502  0.00000000000E+00  0.00000000000E+00  0.17156357596E+03  0.17156357596E+03  0.00000000000E+00 0. -1.
         21   -1    0    0  502  503 -0.00000000000E+00 -0.00000000000E+00 -0.18374684118E+03  0.18374684118E+03  0.00000000000E+00 0. -1.
          6    1    1    2  501    0 -0.10765889556E+02 -0.33194916747E+02 -0.32986031491E+02  0.17857739260E+03  0.17200000000E+03 0. -1.
         -6    1    1    2    0  503  0.10765889556E+02  0.33194916747E+02  0.20802766274E+02  0.17673302453E+03  0.17200000000E+03 0. -1.
</event>
<event>
 4    1  0.1235203E+000  0.1748579E+03  0.7818608E-02  0.1172874E+00
         21   -1    0    0  501  502  0.00000000000E+00  0.00000000000E+00  0.84416708612E+02  0.84416708612E+02  0.00000000000E+00 0.  1.
         21   -1    0    0  502  503 -0.00000000000E+00 -0.00000000000E+00 -0.11185107232E+04  0.11185107232E+04  0.00000000000E+00 0.  1.
          6    1    1    2  501    0 -0.24336376284E+02  0.19975683485E+02 -0.22461941408E+02  0.17629471334E+03  0.17200000000E+03 0.  1.
         -6    1    1    2    0  503  0.24336376284E+02 -0.19975683485E+02 -0.10116320732E+04  0.10266327185E+04  0.17200000000E+03 0.  1.
</event>
<event>
 4    1  0.1235203E+000  0.2072326E+03  0.7818608E-02  0.1143776E+00
         21   -1    0    0  503  502  0.00000000000E+00  0.00000000000E+00  0.45686586217E+03  0.45686586217E+03  0.00000000000E+00 0. -1.
         21   -1    0    0  501  503 -0.00000000000E+00 -0.00000000000E+00 -0.12303289466E+03  0.12303289466E+03  0.00000000000E+00 0. -1.
          6    1    1    2  501    0 -0.11379064707E+03  0.20322987694E+02  0.26066226478E+02  0.20886546711E+03  0.17200000000E+03 0.  1.
         -6    1    1    2    0  502  0.11379064707E+03 -0.20322987694E+02  0.30776674103E+03  0.37103328971E+03  0.17200000000E+03 0.  1.
</event>
<event>
 4    1  0.1235203E+000  0.1797640E+03  0.7818608E-02  0.1168032E+00
         21   -1    0    0  501  502  0.00000000000E+00  0.00000000000E+00  0.50167803438E+03  0.50167803438E+03  0.00000000000E+00 0. -1.
         21   -1    0    0  502  503 -0.00000000000E+00 -0.00000000000E+00 -0.64425174572E+02  0.64425174572E+02  0.00000000000E+00 0. -1.
          6    1    1    2  501    0  0.42477263474E+02 -0.30443071485E+02  0.22235103992E+03  0.28592845866E+03  0.17200000000E+03 0.  1.
         -6    1    1    2    0  503 -0.42477263474E+02  0.30443071485E+02  0.21490181988E+03  0.28017475029E+03  0.17200000000E+03 0.  1.
</event>
<event>
 4    1  0.1235203E+000  0.2059848E+03  0.7818608E-02  0.1144786E+00
         21   -1    0    0  501  502  0.00000000000E+00  0.00000000000E+00  0.67322649496E+03  0.67322649496E+03  0.00000000000E+00 0. -1.
         21   -1    0    0  502  503 -0.00000000000E+00 -0.00000000000E+00 -0.13640152007E+03  0.13640152007E+03  0.00000000000E+00 0.  1.
          6    1    1    2  501    0 -0.65607886235E+02 -0.92419306081E+02  0.56532338600E+03  0.60168118936E+03  0.17200000000E+03 0. -1.
         -6    1    1    2    0  503  0.65607886235E+02  0.92419306081E+02 -0.28498411110E+02  0.20794682568E+03  0.17200000000E+03 0.  1.
</event>
<event>
 4    1  0.1235203E+000  0.1803842E+03  0.7818608E-02  0.1167432E+00
         21   -1    0    0  501  502  0.00000000000E+00  0.00000000000E+00  0.35216229949E+03  0.35216229949E+03  0.00000000000E+00 0.  1.
         21   -1    0    0  502  503 -0.00000000000E+00 -0.00000000000E+00 -0.30975690209E+03  0.30975690209E+03  0.00000000000E+00 0.  1.
          6    1    1    2  501    0 -0.46869218895E+02 -0.27527180239E+02  0.29844211167E+03  0.34872075268E+03  0.17200000000E+03 0.  1.
         -6    1    1    2    0  503  0.46869218895E+02  0.27527180239E+02 -0.25603671427E+03  0.31319844889E+03  0.17200000000E+03 0.  1.
</event>
<event>
 4    1  0.1235203E+000  0.4061116E+03  0.7818608E-02  0.1041684E+00
         21   -1    0    0  501  502  0.00000000000E+00  0.00000000000E+00  0.14124918861E+04  0.14124918861E+04  0.00000000000E+00 0. -1.
         21   -1    0    0  502  503 -0.00000000000E+00 -0.00000000000E+00 -0.11715836930E+03  0.11715836930E+03  0.00000000000E+00 0.  1.
          6    1    1    2  501    0  0.13382404725E+03  0.34268606699E+03  0.60322977230E+03  0.72719514184E+03  0.17200000000E+03 0.  1.
         -6    1    1    2    0  503 -0.13382404725E+03 -0.34268606699E+03  0.69210374445E+03  0.80245511352E+03  0.17200000000E+03 0. -1.
</event>
<event>
 4    1  0.1235203E+000  0.2169337E+03  0.7818608E-02  0.1136190E+00
         21   -1    0    0  503  502  0.00000000000E+00  0.00000000000E+00  0.63561433617E+03  0.63561433617E+03  0.00000000000E+00 0.  1.
         21   -1    0    0  501  503 -0.00000000000E+00 -0.00000000000E+00 -0.97102264606E+02  0.97102264606E+02  0.00000000000E+00 0.  1.
          6    1    1    2  501    0  0.98721980059E+02  0.87921476499E+02  0.90709159068E+02  0.23513478457E+03  0.17200000000E+03 0.  1.
         -6    1    1    2    0  502 -0.98721980059E+02 -0.87921476499E+02  0.44780291249E+03  0.49758181620E+03  0.17200000000E+03 0.  1.
</event>
<event>
 4    1  0.1235203E+000  0.2073584E+03  0.7818608E-02  0.1143675E+00
         21   -1    0    0  501  502  0.00000000000E+00  0.00000000000E+00  0.39105459798E+03  0.39105459798E+03  0.00000000000E+00 0. -1.
         21   -1    0    0  502  503 -0.00000000000E+00 -0.00000000000E+00 -0.29446119890E+03  0.29446119890E+03  0.00000000000E+00 0.  1.
          6    1    1    2  501    0  0.77101545974E+02  0.86422571700E+02  0.31961658183E+03  0.38098854140E+03  0.17200000000E+03 0. -1.
         -6    1    1    2    0  503 -0.77101545974E+02 -0.86422571700E+02 -0.22302318275E+03  0.30452725549E+03  0.17200000000E+03 0.  1.
</event>
<event>
 4    1  0.1235203E+000  0.1848654E+03  0.7818608E-02  0.1163176E+00
         21   -1    0    0  503  502  0.00000000000E+00  0.00000000000E+00  0.42320266801E+02  0.42320266801E+02  0.00000000000E+00 0.  1.
         21   -1    0    0  501  503 -0.00000000000E+00 -0.00000000000E+00 -0.81469903012E+03  0.81469903012E+03  0.00000000000E+00 0.  1.
          6    1    1    2  501    0 -0.67736489243E+02 -0.17222395332E+01 -0.42636550660E+03  0.46471791799E+03  0.17200000000E+03 0. -1.
         -6    1    1    2    0  502  0.67736489243E+02  0.17222395332E+01 -0.34601325671E+03  0.39230137892E+03  0.17200000000E+03 0. -1.
</event>
<event>
 4    1  0.1235203E+000  0.1900907E+03  0.7818608E-02  0.1158380E+00
         21   -1    0    0  501  502  0.00000000000E+00  0.00000000000E+00  0.80869510483E+02  0.80869510483E+02  0.00000000000E+00 0.  1.
         21   -1    0    0  502  503 -0.00000000000E+00 -0.00000000000E+00 -0.63959440836E+03  0.63959440836E+03  0.00000000000E+00 0.  1.
          6    1    1    2  501    0  0.72033963991E+02  0.36899410410E+02 -0.81597276598E+02  0.20686366043E+03  0.17200000000E+03 0.  1.
         -6    1    1    2    0  503 -0.72033963991E+02 -0.36899410410E+02 -0.47712762128E+03  0.51360025841E+03  0.17200000000E+03 0.  1.
</event>
<event>
 4    1  0.1235203E+000  0.2866829E+03  0.7818608E-02  0.1092094E+00
         21   -1    0    0  503  502  0.00000000000E+00  0.00000000000E+00  0.11070039724E+04  0.11070039724E+04  0.00000000000E+00 0. -1.
         21   -1    0    0  501  503 -0.00000000000E+00 -0.00000000000E+00 -0.10067803692E+03  0.10067803692E+03  0.00000000000E+00 0.  1.
          6    1    1    2  501    0  0.13845701305E+03 -0.18284617936E+03  0.81258189093E+03  0.86167070232E+03  0.17200000000E+03 0. -1.
         -6    1    1    2    0  502 -0.13845701305E+03  0.18284617936E+03  0.19374404452E+03  0.34601130698E+03  0.17200000000E+03 0.  1.
</event>
<event>
 4    1  0.1235203E+000  0.3250924E+03  0.7818608E-02  0.1073329E+00
         21   -1    0    0  501  502  0.00000000000E+00  0.00000000000E+00  0.12657371961E+03  0.12657371961E+03  0.00000000000E+00 0.  1.
         21   -1    0    0  502  503 -0.00000000000E+00 -0.00000000000E+00 -0.84419643555E+03  0.84419643555E+03  0.00000000000E+00 0. -1.
          6    1    1    2  501    0  0.26623331439E+03  0.72255897742E+02 -0.30806410441E+03  0.44787116995E+03  0.17200000000E+03 0.  1.
         -6    1    1    2    0  503 -0.26623331439E+03 -0.72255897742E+02 -0.40955861154E+03  0.52289898521E+03  0.17200000000E+03 0. -1.
</event>
<event>
 4    1  0.1235203E+000  0.1860561E+03  0.7818608E-02  0.1162067E+00
         21   -1    0    0  503  502  0.00000000000E+00  0.00000000000E+00  0.13628046529E+03  0.13628046529E+03  0.00000000000E+00 0.  1.
         21   -1    0    0  501  503 -0.00000000000E+00 -0.00000000000E+00 -0.26252967472E+03  0.26252967472E+03  0.00000000000E+00 0.  1.
          6    1    1    2  501    0 -0.55611803604E+02  0.44047591374E+02 -0.99042385384E+02  0.21077537121E+03  0.17200000000E+03 0.  1.
         -6    1    1    2    0  502  0.55611803604E+02 -0.44047591374E+02 -0.27206824044E+02  0.18803476881E+03  0.17200000000E+03 0.  1.
</event>
<event>
 4    1  0.1235203E+000  0.1845415E+03  0.7818608E-02  0.1163479E+00
         21   -1    0    0  501  502  0.00000000000E+00  0.00000000000E+00  0.56646017974E+02  0.56646017974E+02  0.00000000000E+00 0.  1.
         21   -1    0    0  502  503 -0.00000000000E+00 -0.00000000000E+00 -0.14480700394E+04  0.14480700394E+04  0.00000000000E+00 0.  1.
          6    1    1    2  501    0  0.20777895358E+02 -0.63559861623E+02 -0.12035395099E+03  0.22031942825E+03  0.17200000000E+03 0. -1.
         -6    1    1    2    0  503 -0.20777895358E+02  0.63559861623E+02 -0.12710700704E+04  0.12843966291E+04  0.17200000000E+03 0. -1.
</event>
<event>
 4    1  0.1235203E+000  0.1967625E+03  0.7818608E-02  0.1152500E+00
         21   -1    0    0  501  502  0.00000000000E+00  0.00000000000E+00  0.28756010808E+02  0.28756010808E+02  0.00000000000E+00 0.  1.
         21   -1    0    0  502  503 -0.00000000000E+00 -0.00000000000E+00 -0.14516192618E+04  0.14516192618E+04  0.00000000000E+00 0.  1.
          6    1    1    2  501    0  0.12853827413E+02  0.94690316951E+02 -0.51209870351E+03  0.54859872324E+03  0.17200000000E+03 0. -1.
         -6    1    1    2    0  503 -0.12853827413E+02 -0.94690316951E+02 -0.91076454750E+03  0.93177654939E+03  0.17200000000E+03 0. -1.
</event>
<event>
 4    1  0.1235203E+000  0.2157315E+03  0.7818608E-02  0.1137106E+00
         21   -1    0    0  501  502  0.00000000000E+00  0.00000000000E+00  0.98397667709E+02  0.98397667709E+02  0.00000000000E+00 0.  1.
         21   -1    0    0  502  503 -0.00000000000E+00 -0.00000000000E+00 -0.51320588574E+03  0.51320588574E+03  0.00000000000E+00 0.  1.
          6    1    1    2  501    0  0.27168964486E+02  0.12734970671E+03 -0.12178936582E+03  0.24773524185E+03  0.17200000000E+03 0.  1.
         -6    1    1    2    0  503 -0.27168964486E+02 -0.12734970671E+03 -0.29301885222E+03  0.36386831160E+03  0.17200000000E+03 0.  1.
</event>
<event>
 4    1  0.1235203E+000  0.1915599E+03  0.7818608E-02  0.1157062E+00
         21   -1    0    0  501  502  0.00000000000E+00  0.00000000000E+00  0.19074616227E+03  0.19074616227E+03  0.00000000000E+00 0. -1.
         21   -1    0    0  502  503 -0.00000000000E+00 -0.00000000000E+00 -0.25097761214E+03  0.25097761214E+03  0.00000000000E+00 0. -1.
          6    1    1    2  501    0  0.68643180915E+02  0.48982853306E+02  0.76606223815E+02  0.20630976645E+03  0.17200000000E+03 0. -1.
         -6    1    1    2    0  503 -0.68643180915E+02 -0.48982853306E+02 -0.13683767369E+03  0.23541400796E+03  0.17200000000E+03 0. -1.
</event>
<event>
 4    1  0.1235203E+000  0.2722969E+03  0.7818608E-02  0.1099972E+00
         21   -1    0    0  501  502  0.00000000000E+00  0.00000000000E+00  0.89314783723E+02  0.89314783723E+02  0.00000000000E+00 0. -1.
         21   -1    0    0  502  503 -0.00000000000E+00 -0.00000000000E+00 -0.12103462388E+04  0.12103462388E+04  0.00000000000E+00 0.  1.
          6    1    1    2  501    0  0.18866898922E+03 -0.94686816955E+02 -0.19631286465E+03  0.33568485463E+03  0.17200000000E+03 0. -1.
         -6    1    1    2    0  503 -0.18866898922E+03  0.94686816955E+02 -0.92471859044E+03  0.96397616791E+03  0.17200000000E+03 0. -1.
</event>
<event>
 4    1  0.1235203E+000  0.2281057E+03  0.7818608E-02  0.1127980E+00
         21   -1    0    0  503  502  0.00000000000E+00  0.00000000000E+00  0.39540664895E+03  0.39540664895E+03  0.00000000000E+00 0. -1.
         21   -1    0    0  501  503 -0.00000000000E+00 -0.00000000000E+00 -0.14595870441E+03  0.14595870441E+03  0.00000000000E+00 0. -1.
          6    1    1    2  501    0  0.31517933789E+02  0.14647474643E+03  0.39800325033E+02  0.23155193233E+03  0.17200000000E+03 0. -1.
         -6    1    1    2    0  502 -0.31517933789E+02 -0.14647474643E+03  0.20964761950E+03  0.30981342104E+03  0.17200000000E+03 0. -1.
</event>
<event>
 4    1  0.1235203E+000  0.1840441E+03  0.7818608E-02  0.1163946E+00
         21   -1    0    0  503  502  0.00000000000E+00  0.00000000000E+00  0.57943350803E+03  0.57943350803E+03  0.00000000000E+00 0.  1.
         21   -1    0    0  501  503 -0.00000000000E+00 -0.00000000000E+00 -0.60817333239E+02  0.60817333239E+02  0.00000000000E+00 0. -1.
          6    1    1    2  501    0 -0.65074479209E+02 -0.73161873180E+01  0.32236755294E+03  0.37120486747E+03  0.17200000000E+03 0.  1.
         -6    1    1    2    0  502  0.65074479209E+02  0.73161873180E+01  0.19624862184E+03  0.26904597380E+03  0.17200000000E+03 0. -1.
</event>
<event>
 4    1  0.1235203E+000  0.1863435E+03  0.7818608E-02  0.1161801E+00
         21   -1    0    0  501  502  0.00000000000E+00  0.00000000000E+00  0.23763408616E+03  0.23763408616E+03  0.00000000000E+00 0.  1.
         21   -1    0    0  502  503 -0.00000000000E+00 -0.00000000000E+00 -0.14916197807E+03  0.14916197807E+03  0.00000000000E+00 0.  1.
          6    1    1    2  501    0  0.67984880973E+02  0.22758636574E+02  0.71839194649E+02  0.19971171590E+03  0.17200000000E+03 0.  1.
         -6    1    1    2    0  503 -0.67984880973E+02 -0.22758636574E+02  0.16632913436E+02  0.18708434833E+03  0.17200000000E+03 0.  1.
</event>
<event>
 4    1  0.1235203E+000  0.1747568E+03  0.7818608E-02  0.1172976E+00
         21   -1    0    0  503  502  0.00000000000E+00  0.00000000000E+00  0.14758484688E+03  0.14758484688E+03  0.00000000000E+00 0. -1.
         21   -1    0    0  501  503 -0.00000000000E+00 -0.00000000000E+00 -0.64413756340E+03  0.64413756340E+03  0.00000000000E+00 0.  1.
          6    1    1    2  501    0 -0.30872911827E+02 -0.16692002145E+01 -0.57441091716E+03  0.60040638293E+03  0.17200000000E+03 0.  1.
         -6    1    1    2    0  502  0.30872911827E+02  0.16692002145E+01  0.77858200633E+02  0.19131602735E+03  0.17200000000E+03 0. -1.
</event>
<event>
 4    1  0.1235203E+000  0.1946094E+03  0.7818608E-02  0.1154368E+00
         21   -1    0    0  501  502  0.00000000000E+00  0.00000000000E+00  0.41573866458E+03  0.41573866458E+03  0.00000000000E+00 0. -1.
         21   -1    0    0  502  503 -0.00000000000E+00 -0.00000000000E+00 -0.10395750198E+03  0.10395750198E+03  0.00000000000E+00 0. -1.
          6    1    1    2  501    0 -0.19085613317E+02  0.89020019319E+02  0.24728279874E+03  0.31467698840E+03  0.17200000000E+03 0. -1.
         -6    1    1    2    0  503  0.19085613317E+02 -0.89020019319E+02  0.64498363856E+02  0.20501917816E+03  0.17200000000E+03 0. -1.
</event>
<event>
 4    1  0.1235203E+000  0.1724622E+03  0.7818608E-02  0.1175304E+00
         21   -1    0    0  501  502  0.00000000000E+00  0.00000000000E+00  0.33247234956E+02  0.33247234956E+02  0.00000000000E+00 0. -1.
         21   -1    0    0  502  503 -0.00000000000E+00 -0.00000000000E+00 -0.90958098256E+03  0.90958098256E+03  0.00000000000E+00 0. -1.
          6    1    1    2  501    0  0.11650664658E+02 -0.48430744723E+01 -0.37768051685E+03  0.41519364899E+03  0.17200000000E+03 0. -1.
         -6    1    1    2    0  503 -0.11650664658E+02  0.48430744723E+01 -0.49865323076E+03  0.52763456852E+03  0.17200000000E+03 0. -1.
</event>
<event>
 4    1  0.1235203E+000  0.1827219E+03  0.7818608E-02  0.1165194E+00
         21   -1    0    0  503  502  0.00000000000E+00  0.00000000000E+00  0.90509685165E+03  0.90509685165E+03  0.00000000000E+00 0. -1.
         21   -1    0    0  501  503 -0.00000000000E+00 -0.00000000000E+00 -0.26506662519E+03  0.26506662519E+03  0.00000000000E+00 0. -1.
          6    1    1    2  501    0 -0.51134161926E+02 -0.34476193453E+02 -0.22283057862E+03  0.28816796699E+03  0.17200000000E+03 0. -1.
         -6    1    1    2    0  502  0.51134161926E+02  0.34476193453E+02  0.86286080509E+03  0.88199550984E+03  0.17200000000E+03 0. -1.
</event>
<event>
 4    1  0.1235203E+000  0.2099856E+03  0.7818608E-02  0.1141577E+00
         21   -1    0    0  501  502  0.00000000000E+00  0.00000000000E+00  0.39547724512E+03  0.39547724512E+03  0.00000000000E+00 0.  1.
         21   -1    0    0  502  503 -0.00000000000E+00 -0.00000000000E+00 -0.11200906669E+03  0.11200906669E+03  0.00000000000E+00 0.  1.
          6    1    1    2  501    0  0.10631932110E+03 -0.56622847285E+02  0.15891529626E+03  0.26334011517E+03  0.17200000000E+03 0. -1.
         -6    1    1    2    0  503 -0.10631932110E+03  0.56622847285E+02  0.12455288218E+03  0.24414619664E+03  0.17200000000E+03 0. -1.
</event>
<event>
 4    1  0.1235203E+000  0.2288478E+03  0.7818608E-02  0.1127453E+00
         21   -1    0    0  501  502  0.00000000000E+00  0.00000000000E+00  0.12373946917E+04  0.12373946917E+04  0.00000000000E+00 0.  1.
         21   -1    0    0  502  503 -0.00000000000E+00 -0.00000000000E+00 -0.48119891697E+02  0.48119891697E+02  0.00000000000E+00 0.  1.
          6    1    1    2  501    0  0.14420541812E+03 -0.44633251832E+02  0.37156298536E+03  0.43638329697E+03  0.17200000000E+03 0.  1.
         -6    1    1    2    0  503 -0.14420541812E+03  0.44633251832E+02  0.81771181462E+03  0.84913128640E+03  0.17200000000E+03 0.  1.
</event>
<event>
 4    1  0.1235203E+000  0.6366374E+03  0.7818608E-02  0.9832181E-01
         21   -1    0    0  503  502  0.00000000000E+00  0.00000000000E+00  0.12483411702E+04  0.12483411702E+04  0.00000000000E+00 0. -1.
         21   -1    0    0  501  503 -0.00000000000E+00 -0.00000000000E+00 -0.44668998064E+03  0.44668998064E+03  0.00000000000E+00 0.  1.
          6    1    1    2  501    0 -0.46472251120E+03  0.39969512059E+03 -0.42117833702E+02  0.63802908535E+03  0.17200000000E+03 0.  1.
         -6    1    1    2    0  502  0.46472251120E+03 -0.39969512059E+03  0.84376902325E+03  0.10570020655E+04  0.17200000000E+03 0. -1.
</event>
<event>
 4    1  0.1235203E+000  0.2273081E+03  0.7818608E-02  0.1128549E+00
         21   -1    0    0  503  502  0.00000000000E+00  0.00000000000E+00  0.82248285777E+03  0.82248285777E+03  0.00000000000E+00 0.  1.
         21   -1    0    0  501  503 -0.00000000000E+00 -0.00000000000E+00 -0.10942287344E+03  0.10942287344E+03  0.00000000000E+00 0.  1.
          6    1    1    2  501    0 -0.80031303745E+02  0.12521972093E+03  0.52447936107E+02  0.23328046230E+03  0.17200000000E+03 0.  1.
         -6    1    1    2    0  502  0.80031303745E+02 -0.12521972093E+03  0.66061204823E+03  0.69862526890E+03  0.17200000000E+03 0.  1.
</event>
<event>
 4    1  0.1235203E+000  0.1731519E+03  0.7818608E-02  0.1174600E+00
         21   -1    0    0  501  502  0.00000000000E+00  0.00000000000E+00  0.58422341981E+02  0.58422341981E+02  0.00000000000E+00 0.  1.
         21   -1    0    0  502  503 -0.00000000000E+00 -0.00000000000E+00 -0.61360472475E+03  0.61360472475E+03  0.00000000000E+00 0.  1.
          6    1    1    2  501    0  0.11770837454E+02  0.16094417242E+02 -0.14166043258E+03  0.22371692166E+03  0.17200000000E+03 0.  1.
         -6    1    1    2    0  503 -0.11770837454E+02 -0.16094417242E+02 -0.41352195019E+03  0.44831014506E+03  0.17200000000E+03 0.  1.
</event>
<event>
 4    1  0.1235203E+000  0.1768873E+03  0.7818608E-02  0.1170850E+00
         21   -1    0    0  501  502  0.00000000000E+00  0.00000000000E+00  0.12092187598E+03  0.12092187598E+03  0.00000000000E+00 0.  1.
         21   -1    0    0  502  503 -0.00000000000E+00 -0.00000000000E+00 -0.54516641777E+03  0.54516641777E+03  0.00000000000E+00 0.  1.
          6    1    1    2  501    0  0.26610083989E+02  0.31575903363E+02  0.29275056501E+02  0.17929351125E+03  0.17200000000E+03 0.  1.
         -6    1    1    2    0  503 -0.26610083989E+02 -0.31575903363E+02 -0.45351959829E+03  0.48679478250E+03  0.17200000000E+03 0.  1.
</event>
<event>
 4    1  0.1235203E+000  0.1858957E+03  0.7818608E-02  0.1162216E+00
         21   -1    0    0  501  502  0.00000000000E+00  0.00000000000E+00  0.67776439919E+02  0.67776439919E+02  0.00000000000E+00 0.  1.
         21   -1    0    0  502  503 -0.00000000000E+00 -0.00000000000E+00 -0.53226319905E+03  0.53226319905E+03  0.00000000000E+00 0.  1.
          6    1    1    2  501    0 -0.43118090429E+01  0.70388939038E+02 -0.17070560463E+03  0.25238383048E+03  0.17200000000E+03 0. -1.
         -6    1    1    2    0  503  0.43118090429E+01 -0.70388939038E+02 -0.29378115450E+03  0.34765580849E+03  0.17200000000E+03 0. -1.
</event>
<event>
 4    1  0.1235203E+000  0.1761321E+03  0.7818608E-02  0.1171600E+00
         21   -1    0    0  501  502  0.00000000000E+00  0.00000000000E+00  0.33568952029E+03  0.33568952029E+03  0.00000000000E+00 0.  1.
         21   -1    0    0  502  503 -0.00000000000E+00 -0.00000000000E+00 -0.97696214193E+02  0.97696214193E+02  0.00000000000E+00 0.  1.
          6    1    1    2  501    0 -0.56723499826E+01 -0.37501044094E+02  0.16938178735E+03  0.24436180910E+03  0.17200000000E+03 0.  1.
         -6    1    1    2    0  503  0.56723499826E+01  0.37501044094E+02  0.68611518754E+02  0.18902392539E+03  0.17200000000E+03 0.  1.
</event>
<event>
 4    1  0.1235203E+000  0.2067298E+03  0.7818608E-02  0.1144182E+00
         21   -1    0    0  501  502  0.00000000000E+00  0.00000000000E+00  0.20113101419E+03  0.20113101419E+03  0.00000000000E+00 0.  1.
         21   -1    0    0  502  503 -0.00000000000E+00 -0.00000000000E+00 -0.24520530689E+03  0.24520530689E+03  0.00000000000E+00 0.  1.
          6    1    1    2  501    0  0.37350189192E+02 -0.10843517591E+03  0.59485687843E+02  0.21511803984E+03  0.17200000000E+03 0.  1.
         -6    1    1    2    0  503 -0.37350189192E+02  0.10843517591E+03 -0.10355998055E+03  0.23121828124E+03  0.17200000000E+03 0.  1.
</event>
<event>
 4    1  0.1235203E+000  0.2100857E+03  0.7818608E-02  0.1141498E+00
         21   -1    0    0  501  502  0.00000000000E+00  0.00000000000E+00  0.34982376427E+03  0.34982376427E+03  0.00000000000E+00 0.  1.
         21   -1    0    0  502  503 -0.00000000000E+00 -0.00000000000E+00 -0.45937850735E+03  0.45937850735E+03  0.00000000000E+00 0. -1.
          6    1    1    2  501    0  0.11080950194E+03 -0.47678827522E+02  0.28981219752E+03  0.35794849650E+03  0.17200000000E+03 0.  1.
         -6    1    1    2    0  503 -0.11080950194E+03  0.47678827522E+02 -0.39936694061E+03  0.45125377512E+03  0.17200000000E+03 0. -1.
</event>
<event>
 4    1  0.1235203E+000  0.2374732E+03  0.7818608E-02  0.1121488E+00
         21   -1    0    0  503  502  0.00000000000E+00  0.00000000000E+00  0.26609637494E+03  0.26609637494E+03  0.00000000000E+00 0. -1.
         21   -1    0    0  501  503 -0.00000000000E+00 -0.00000000000E+00 -0.23104820379E+03  0.23104820379E+03  0.00000000000E+00 0. -1.
          6    1    1    2  501    0 -0.45327395371E+02  0.15733701104E+03  0.89029286427E+02  0.25361333099E+03  0.17200000000E+03 0. -1.
         -6    1    1    2    0  502  0.45327395371E+02 -0.15733701104E+03 -0.53981115280E+02  0.24353124773E+03  0.17200000000E+03 0. -1.
</event>
<event>
 4    1  0.1235203E+000  0.1856221E+03  0.7818608E-02  0.1162470E+00
         21   -1    0    0  503  502  0.00000000000E+00  0.00000000000E+00  0.53838366830E+03  0.53838366830E+03  0.00000000000E+00 0. -1.
         21   -1    0    0  501  503 -0.00000000000E+00 -0.00000000000E+00 -0.78737164735E+02  0.78737164735E+02  0.00000000000E+00 0. -1.
          6    1    1    2  501    0  0.14710927386E+02 -0.68228790564E+02  0.96322413734E+02  0.20912576750E+03  0.17200000000E+03 0. -1.
         -6    1    1    2    0  502 -0.14710927386E+02  0.68228790564E+02  0.36332408983E+03  0.40799506553E+03  0.17200000000E+03 0. -1.
</event>
<event>
 4    1  0.1235203E+000  0.1749925E+03  0.7818608E-02  0.1172739E+00
         21   -1    0    0  503  502  0.00000000000E+00  0.00000000000E+00  0.19453820028E+03  0.19453820028E+03  0.00000000000E+00 0.  1.
         21   -1    0    0  501  503 -0.00000000000E+00 -0.00000000000E+00 -0.20222377734E+03  0.20222377734E+03  0.00000000000E+00 0.  1.
          6    1    1    2  501    0  0.27024217705E+02 -0.17552047843E+02  0.89544252158E+02  0.19657201179E+03  0.17200000000E+03 0.  1.
         -6    1    1    2    0  502 -0.27024217705E+02  0.17552047843E+02 -0.97229829220E+02  0.20018996582E+03  0.17200000000E+03 0.  1.
</event>
<event>
 4    1  0.1235203E+000  0.1894429E+03  0.7818608E-02  0.1158965E+00
         21   -1    0    0  501  502  0.00000000000E+00  0.00000000000E+00  0.84000899184E+03  0.84000899184E+03  0.00000000000E+00 0. -1.
         21   -1    0    0  502  503 -0.00000000000E+00 -0.00000000000E+00 -0.10355970499E+03  0.10355970499E+03  0.00000000000E+00 0. -1.
          6    1    1    2  501    0 -0.34783079351E+02 -0.71377463411E+02  0.72982357719E+03  0.75400998582E+03  0.17200000000E+03 0. -1.
         -6    1    1    2    0  503  0.34783079351E+02  0.71377463411E+02  0.66257096517E+01  0.18955871101E+03  0.17200000000E+03 0. -1.
</event>
<event>
 4    1  0.1235203E+000  0.2552669E+03  0.7818608E-02  0.1110021E+00
         21   -1    0    0  501  502  0.00000000000E+00  0.00000000000E+00  0.53241569131E+03  0.53241569131E+03  0.00000000000E+00 0. -1.
         21   -1    0    0  502  503 -0.00000000000E+00 -0.00000000000E+00 -0.12981696433E+03  0.12981696433E+03  0.00000000000E+00 0. -1.
          6    1    1    2  501    0 -0.16484435386E+03 -0.91670871603E+02  0.28051000065E+03  0.37927176294E+03  0.17200000000E+03 0.  1.
         -6    1    1    2    0  503  0.16484435386E+03  0.91670871603E+02  0.12208872633E+03  0.28296089270E+03  0.17200000000E+03 0.  1.
</event>
<event>
 4    1  0.1235203E+000  0.2481083E+03  0.7818608E-02  0.1114506E+00
         21   -1    0    0  501  502  0.00000000000E+00  0.00000000000E+00  0.11919379365E+04  0.11919379365E+04  0.00000000000E+00 0.  1.
         21   -1    0    0  502  503 -0.00000000000E+00 -0.00000000000E+00 -0.51829508001E+02  0.51829508001E+02  0.00000000000E+00 0. -1.
          6    1    1    2  501    0 -0.17211759581E+03 -0.48469089967E+02  0.60715170716E+03  0.65588940758E+03  0.17200000000E+03 0. -1.
         -6    1    1    2    0  503  0.17211759581E+03  0.48469089967E+02  0.53295672130E+03  0.58787803689E+03  0.17200000000E+03 0. -1.
</event>
<event>
 4    1  0.1235203E+000  0.2016231E+03  0.7818608E-02  0.1148377E+00
         21   -1    0    0  501  502  0.00000000000E+00  0.00000000000E+00  0.98017020587E+02  0.98017020587E+02  0.00000000000E+00 0.  1.
         21   -1    0    0  502  503 -0.00000000000E+00 -0.00000000000E+00 -0.42253085144E+03  0.42253085144E+03  0.00000000000E+00 0. -1.
          6    1    1    2  501    0  0.40246474983E+02  0.97201279453E+02 -0.19759247034E+03  0.28230241198E+03  0.17200000000E+03 0. -1.
         -6    1    1    2    0  503 -0.40246474983E+02 -0.97201279453E+02 -0.12692136051E+03  0.23824546004E+03  0.17200000000E+03 0.  1.
</event>
<event>
 4    1  0.1235203E+000  0.2585368E+03  0.7818608E-02  0.1108026E+00
         21   -1    0    0  503  502  0.00000000000E+00  0.00000000000E+00  0.15554702378E+04  0.15554702378E+04  0.00000000000E+00 0.  1.
         21   -1    0    0  501  503 -0.00000000000E+00 -0.00000000000E+00 -0.44769778641E+02  0.44769778641E+02  0.00000000000E+00 0. -1.
          6    1    1    2  501    0 -0.15506383234E+03  0.11494562267E+03  0.91569698535E+03  0.95149474893E+03  0.17200000000E+03 0.  1.
         -6    1    1    2    0  502  0.15506383234E+03 -0.11494562267E+03  0.59500347386E+03  0.64874526755E+03  0.17200000000E+03 0.  1.
</event>
<event>
 4    1  0.1235203E+000  0.1729927E+03  0.7818608E-02  0.1174762E+00
         21   -1    0    0  501  502  0.00000000000E+00  0.00000000000E+00  0.56543483650E+03  0.56543483650E+03  0.00000000000E+00 0. -1.
         21   -1    0    0  502  503 -0.00000000000E+00 -0.00000000000E+00 -0.18401210592E+03  0.18401210592E+03  0.00000000000E+00 0. -1.
          6    1    1    2  501    0  0.18225392599E+00  0.18505465218E+02  0.50698661385E+03  0.53568826017E+03  0.17200000000E+03 0. -1.
         -6    1    1    2    0  503 -0.18225392599E+00 -0.18505465218E+02 -0.12556388327E+03  0.21375868226E+03  0.17200000000E+03 0. -1.
</event>
<event>
 4    1  0.1235203E+000  0.2423986E+03  0.7818608E-02  0.1118205E+00
         21   -1    0    0  501  502  0.00000000000E+00  0.00000000000E+00  0.65103352158E+02  0.65103352158E+02  0.00000000000E+00 0. -1.
         21   -1    0    0  502  503 -0.00000000000E+00 -0.00000000000E+00 -0.95580279080E+03  0.95580279080E+03  0.00000000000E+00 0. -1.
          6    1    1    2  501    0  0.37311401034E+02 -0.16667615543E+03 -0.32482811532E+03  0.40530283238E+03  0.17200000000E+03 0. -1.
         -6    1    1    2    0  503 -0.37311401034E+02  0.16667615543E+03 -0.56587132332E+03  0.61560331058E+03  0.17200000000E+03 0. -1.
</event>
<event>
 4    1  0.1235203E+000  0.2275430E+03  0.7818608E-02  0.1128381E+00
         21   -1    0    0  503  502  0.00000000000E+00  0.00000000000E+00  0.40573601466E+03  0.40573601466E+03  0.00000000000E+00 0.  1.
         21   -1    0    0  501  503 -0.00000000000E+00 -0.00000000000E+00 -0.16092986407E+03  0.16092986407E+03  0.00000000000E+00 0.  1.
          6    1    1    2  501    0 -0.14896012328E+03 -0.16487451749E+01  0.25132671036E+03  0.33902942650E+03  0.17200000000E+03 0.  1.
         -6    1    1    2    0  502  0.14896012328E+03  0.16487451749E+01 -0.65205597729E+01  0.22763645224E+03  0.17200000000E+03 0.  1.
</event>
<event>
 4    1  0.1235203E+000  0.1722197E+03  0.7818608E-02  0.1175553E+00
         21   -1    0    0  501  502  0.00000000000E+00  0.00000000000E+00  0.78438662830E+02  0.78438662830E+02  0.00000000000E+00 0.  1.
         21   -1    0    0  502  503 -0.00000000000E+00 -0.00000000000E+00 -0.40680365851E+03  0.40680365851E+03  0.00000000000E+00 0.  1.
          6    1    1    2  501    0 -0.60925320518E+01  0.62043364274E+01 -0.99763152233E+02  0.19902838813E+03  0.17200000000E+03 0. -1.
         -6    1    1    2    0  503  0.60925320518E+01 -0.62043364274E+01 -0.22860184345E+03  0.28621393321E+03  0.17200000000E+03 0. -1.
</event>
<event>
 4    1  0.1235203E+000  0.1729287E+03  0.7818608E-02  0.1174828E+00
         21   -1    0    0  501  502  0.00000000000E+00  0.00000000000E+00  0.14730926908E+03  0.14730926908E+03  0.00000000000E+00 0.  1.
         21   -1    0    0  502  503 -0.00000000000E+00 -0.00000000000E+00 -0.27410282079E+03  0.27410282079E+03  0.00000000000E+00 0.  1.
          6    1    1    2  501    0  0.13611355407E+02 -0.11621814846E+02 -0.17070973563E+03  0.24299413453E+03  0.17200000000E+03 0.  1.
         -6    1    1    2    0  503 -0.13611355407E+02  0.11621814846E+02  0.43916183932E+02  0.17841795534E+03  0.17200000000E+03 0.  1.
</event>
<event>
 4    1  0.1235203E+000  0.1796461E+03  0.7818608E-02  0.1168146E+00
         21   -1    0    0  503  502  0.00000000000E+00  0.00000000000E+00  0.20417321405E+03  0.20417321405E+03  0.00000000000E+00 0. -1.
         21   -1    0    0  501  503 -0.00000000000E+00 -0.00000000000E+00 -0.27574985316E+03  0.27574985316E+03  0.00000000000E+00 0. -1.
          6    1    1    2  501    0 -0.11014627340E+02 -0.50669580712E+02 -0.19255128178E+03  0.26334145997E+03  0.17200000000E+03 0. -1.
         -6    1    1    2    0  502  0.11014627340E+02  0.50669580712E+02  0.12097464267E+03  0.21658160724E+03  0.17200000000E+03 0. -1.
</event>
<event>
 4    1  0.1235203E+000  0.1854389E+03  0.7818608E-02  0.1162641E+00
         21   -1    0    0  503  502  0.00000000000E+00  0.00000000000E+00  0.45403485282E+03  0.45403485282E+03  0.00000000000E+00 0.  1.
         21   -1    0    0  501  503 -0.00000000000E+00 -0.00000000000E+00 -0.11692717516E+03  0.11692717516E+03  0.00000000000E+00 0.  1.
          6    1    1    2  501    0  0.45339634792E+02 -0.52420479208E+02  0.33799239426E+03  0.38552100812E+03  0.17200000000E+03 0.  1.
         -6    1    1    2    0  502 -0.45339634792E+02  0.52420479208E+02 -0.88471659432E+00  0.18544101986E+03  0.17200000000E+03 0.  1.
</event>
<event>
 4    1  0.1235203E+000  0.2813524E+03  0.7818608E-02  0.1094953E+00
         21   -1    0    0  501  502  0.00000000000E+00  0.00000000000E+00  0.20898752126E+04  0.20898752126E+04  0.00000000000E+00 0.  1.
         21   -1    0    0  502  503 -0.00000000000E+00 -0.00000000000E+00 -0.38075352844E+02  0.38075352844E+02  0.00000000000E+00 0. -1.
          6    1    1    2  501    0 -0.13931818573E+03 -0.17368243771E+03  0.11026068325E+04  0.11379371569E+04  0.17200000000E+03 0.  1.
         -6    1    1    2    0  503  0.13931818573E+03  0.17368243771E+03  0.94919302723E+03  0.99001340849E+03  0.17200000000E+03 0. -1.
</event>
<event>
 4    1  0.1235203E+000  0.2273643E+03  0.7818608E-02  0.1128509E+00
         21   -1    0    0  501  502  0.00000000000E+00  0.00000000000E+00  0.20748470685E+03  0.20748470685E+03  0.00000000000E+00 0. -1.
         21   -1    0    0  502  503 -0.00000000000E+00 -0.00000000000E+00 -0.32971800927E+03  0.32971800927E+03  0.00000000000E+00 0.  1.
          6    1    1    2  501    0 -0.75284076592E+02  0.12822958220E+03  0.71660100911E+02  0.23838978167E+03  0.17200000000E+03 0. -1.
         -6    1    1    2    0  503  0.75284076592E+02 -0.12822958220E+03 -0.19389340333E+03  0.29881293445E+03  0.17200000000E+03 0.  1.
</event>
<event>
 4    1  0.1235203E+000  0.1890277E+03  0.7818608E-02  0.1159341E+00
         21   -1    0    0  503  502  0.00000000000E+00  0.00000000000E+00  0.94374338254E+03  0.94374338254E+03  0.00000000000E+00 0. -1.
         21   -1    0    0  501  503 -0.00000000000E+00 -0.00000000000E+00 -0.50751160917E+02  0.50751160917E+02  0.00000000000E+00 0. -1.
          6    1    1    2  501    0 -0.76625125440E+02  0.16614641850E+02  0.19590153719E+03  0.27222944081E+03  0.17200000000E+03 0.  1.
         -6    1    1    2    0  502  0.76625125440E+02 -0.16614641850E+02  0.69709068444E+03  0.72226510265E+03  0.17200000000E+03 0.  1.
</event>
<event>
 4    1  0.1235203E+000  0.1811519E+03  0.7818608E-02  0.1166693E+00
         21   -1    0    0  503  502  0.00000000000E+00  0.00000000000E+00  0.23739608852E+03  0.23739608852E+03  0.00000000000E+00 0.  1.
         21   -1    0    0  501  503 -0.00000000000E+00 -0.00000000000E+00 -0.15720105340E+03  0.15720105340E+03  0.00000000000E+00 0.  1.
          6    1    1    2  501    0 -0.26441150755E+02  0.50327543645E+02 -0.28436549596E+02  0.18337020875E+03  0.17200000000E+03 0. -1.
         -6    1    1    2    0  502  0.26441150755E+02 -0.50327543645E+02  0.10863158471E+03  0.21122693318E+03  0.17200000000E+03 0. -1.
</event>
<event>
 4    1  0.1235203E+000  0.1964728E+03  0.7818608E-02  0.1152749E+00
         21   -1    0    0  503  502  0.00000000000E+00  0.00000000000E+00  0.27052283749E+03  0.27052283749E+03  0.00000000000E+00 0.  1.
         21   -1    0    0  501  503 -0.00000000000E+00 -0.00000000000E+00 -0.25174453314E+03  0.25174453314E+03  0.00000000000E+00 0.  1.
          6    1    1    2  501    0  0.89008825751E+02  0.33090616233E+02 -0.16248077967E+03  0.25495404234E+03  0.17200000000E+03 0.  1.
         -6    1    1    2    0  502 -0.89008825751E+02 -0.33090616233E+02  0.18125908402E+03  0.26731332829E+03  0.17200000000E+03 0.  1.
</event>
<event>
 4    1  0.1235203E+000  0.2235981E+03  0.7818608E-02  0.1131229E+00
         21   -1    0    0  501  502  0.00000000000E+00  0.00000000000E+00  0.10755437828E+03  0.10755437828E+03  0.00000000000E+00 0. -1.
         21   -1    0    0  502  503 -0.00000000000E+00 -0.00000000000E+00 -0.91592125997E+03  0.91592125997E+03  0.00000000000E+00 0.  1.
          6    1    1    2  501    0 -0.75675740329E+02  0.12118294886E+03 -0.45060304156E+02  0.22809330499E+03  0.17200000000E+03 0. -1.
         -6    1    1    2    0  503  0.75675740329E+02 -0.12118294886E+03 -0.76330657753E+03  0.79538233327E+03  0.17200000000E+03 0.  1.
</event>
<event>
 4    1  0.1235203E+000  0.2052289E+03  0.7818608E-02  0.1145401E+00
         21   -1    0    0  501  502  0.00000000000E+00  0.00000000000E+00  0.55286595884E+03  0.55286595884E+03  0.00000000000E+00 0. -1.
         21   -1    0    0  502  503 -0.00000000000E+00 -0.00000000000E+00 -0.26330407789E+03  0.26330407789E+03  0.00000000000E+00 0. -1.
          6    1    1    2  501    0  0.84712216906E+02 -0.73203423295E+02  0.48880070588E+03  0.53013680399E+03  0.17200000000E+03 0. -1.
         -6    1    1    2    0  503 -0.84712216906E+02  0.73203423295E+02 -0.19923882493E+03  0.28603323274E+03  0.17200000000E+03 0. -1.
</event>
<event>
 4    1  0.1235203E+000  0.2025599E+03  0.7818608E-02  0.1147597E+00
         21   -1    0    0  503  502  0.00000000000E+00  0.00000000000E+00  0.13930334049E+03  0.13930334049E+03  0.00000000000E+00 0.  1.
         21   -1    0    0  501  503 -0.00000000000E+00 -0.00000000000E+00 -0.31693924475E+03  0.31693924475E+03  0.00000000000E+00 0.  1.
          6    1    1    2  501    0 -0.96054744202E+02  0.47116752069E+02 -0.14946194669E+03  0.25173274661E+03  0.17200000000E+03 0.  1.
         -6    1    1    2    0  502  0.96054744202E+02 -0.47116752069E+02 -0.28173957578E+02  0.20450983863E+03  0.17200000000E+03 0.  1.
</event>
<event>
 4    1  0.1235203E+000  0.1744344E+03  0.7818608E-02  0.1173301E+00
         21   -1    0    0  503  502  0.00000000000E+00  0.00000000000E+00  0.69508741531E+03  0.69508741531E+03  0.00000000000E+00 0.  1.
         21   -1    0    0  501  503 -0.00000000000E+00 -0.00000000000E+00 -0.11734256850E+03  0.11734256850E+03  0.00000000000E+00 0.  1.
          6    1    1    2  501    0 -0.28317813054E+02  0.64397042236E+01 -0.32768801416E+02  0.17748566892E+03  0.17200000000E+03 0.  1.
         -6    1    1    2    0  502  0.28317813054E+02 -0.64397042236E+01  0.61051364823E+03  0.63494431489E+03  0.17200000000E+03 0.  1.
</event>
<event>
 4    1  0.1235203E+000  0.2268103E+03  0.7818608E-02  0.1128905E+00
         21   -1    0    0  503  502  0.00000000000E+00  0.00000000000E+00  0.10769340671E+03  0.10769340671E+03  0.00000000000E+00 0.  1.
         21   -1    0    0  501  503 -0.00000000000E+00 -0.00000000000E+00 -0.62874729721E+03  0.62874729721E+03  0.00000000000E+00 0.  1.
          6    1    1    2  501    0  0.37823988844E+02 -0.14292750353E+03 -0.44101803562E+03  0.49592321295E+03  0.17200000000E+03 0.  1.
         -6    1    1    2    0  502 -0.37823988844E+02  0.14292750353E+03 -0.80035854877E+02  0.24051749097E+03  0.17200000000E+03 0.  1.
</event>
<event>
 4    1  0.1235203E+000  0.2964688E+03  0.7818608E-02  0.1087019E+00
         21   -1    0    0  501  502  0.00000000000E+00  0.00000000000E+00  0.12810848213E+03  0.12810848213E+03  0.00000000000E+00 0.  1.
         21   -1    0    0  502  503 -0.00000000000E+00 -0.00000000000E+00 -0.91811994646E+03  0.91811994646E+03  0.00000000000E+00 0. -1.
          6    1    1    2  501    0  0.76185902162E+02 -0.22914068327E+03 -0.13202718576E+03  0.32453801348E+03  0.17200000000E+03 0.  1.
         -6    1    1    2    0  503 -0.76185902162E+02  0.22914068327E+03 -0.65798427857E+03  0.72169041511E+03  0.17200000000E+03 0. -1.
</event>
<event>
 4    1  0.1235203E+000  0.2100210E+03  0.7818608E-02  0.1141549E+00
         21   -1    0    0  503  502  0.00000000000E+00  0.00000000000E+00  0.17250224689E+04  0.17250224689E+04  0.00000000000E+00 0. -1.
         21   -1    0    0  501  503 -0.00000000000E+00 -0.00000000000E+00 -0.46045824825E+02  0.46045824825E+02  0.00000000000E+00 0. -1.
          6    1    1    2  501    0  0.89170124637E+02  0.81077088459E+02  0.24897322610E+03  0.32572453502E+03  0.17200000000E+03 0. -1.
         -6    1    1    2    0  502 -0.89170124637E+02 -0.81077088459E+02  0.14300034180E+04  0.14453437587E+04  0.17200000000E+03 0. -1.
</event>
<event>
 4    1  0.1235203E+000  0.1959381E+03  0.7818608E-02  0.1153212E+00
         21   -1    0    0  503  502  0.00000000000E+00  0.00000000000E+00  0.55755775264E+02  0.55755775264E+02  0.00000000000E+00 0.  1.
         21   -1    0    0  501  503 -0.00000000000E+00 -0.00000000000E+00 -0.79668226628E+03  0.79668226628E+03  0.00000000000E+00 0. -1.
          6    1    1    2  501    0  0.72594995697E+02 -0.59478526028E+02 -0.52747373367E+03  0.56269020622E+03  0.17200000000E+03 0. -1.
         -6    1    1    2    0  502 -0.72594995697E+02  0.59478526028E+02 -0.21345275734E+03  0.28974783532E+03  0.17200000000E+03 0. -1.
</event>
<event>
 4    1  0.1235203E+000  0.1765905E+03  0.7818608E-02  0.1171144E+00
         21   -1    0    0  503  502  0.00000000000E+00  0.00000000000E+00  0.29160423878E+03  0.29160423878E+03  0.00000000000E+00 0.  1.
         21   -1    0    0  501  503 -0.00000000000E+00 -0.00000000000E+00 -0.15784625785E+03  0.15784625785E+03  0.00000000000E+00 0.  1.
          6    1    1    2  501    0 -0.13855313662E+02  0.37526687856E+02 -0.60741192687E+02  0.18674505216E+03  0.17200000000E+03 0.  1.
         -6    1    1    2    0  502  0.13855313662E+02 -0.37526687856E+02  0.19449917361E+03  0.26270544447E+03  0.17200000000E+03 0.  1.
</event>
<event>
 4    1  0.1235203E+000  0.2026642E+03  0.7818608E-02  0.1147510E+00
         21   -1    0    0  503  502  0.00000000000E+00  0.00000000000E+00  0.72767404828E+02  0.72767404828E+02  0.00000000000E+00 0.  1.
         21   -1    0    0  501  503 -0.00000000000E+00 -0.00000000000E+00 -0.89053556869E+03  0.89053556869E+03  0.00000000000E+00 0.  1.
          6    1    1    2  501    0  0.74699328293E+02  0.76868768975E+02 -0.70034481606E+03  0.72907863682E+03  0.17200000000E+03 0.  1.
         -6    1    1    2    0  502 -0.74699328293E+02 -0.76868768975E+02 -0.11742334781E+03  0.23422433670E+03  0.17200000000E+03 0.  1.
</event>
<event>
 4    1  0.1235203E+000  0.2457215E+03  0.7818608E-02  0.1116039E+00
         21   -1    0    0  503  502  0.00000000000E+00  0.00000000000E+00  0.12252636286E+03  0.12252636286E+03  0.00000000000E+00 0.  1.
         21   -1    0    0  501  503 -0.00000000000E+00 -0.00000000000E+00 -0.62373474554E+03  0.62373474554E+03  0.00000000000E+00 0. -1.
          6    1    1    2  501    0 -0.37605483516E+02 -0.17140851298E+03 -0.42157208769E+03  0.48795704302E+03  0.17200000000E+03 0.  1.
         -6    1    1    2    0  502  0.37605483516E+02  0.17140851298E+03 -0.79636294983E+02  0.25830406538E+03  0.17200000000E+03 0.  1.
</event>
<event>
 4    1  0.1235203E+000  0.1908766E+03  0.7818608E-02  0.1157673E+00
         21   -1    0    0  503  502  0.00000000000E+00  0.00000000000E+00  0.16723072319E+03  0.16723072319E+03  0.00000000000E+00 0.  1.
         21   -1    0    0  501  503 -0.00000000000E+00 -0.00000000000E+00 -0.21853341310E+03  0.21853341310E+03  0.00000000000E+00 0.  1.
          6    1    1    2  501    0  0.82762637627E+02 -0.45990981496E+00 -0.14990905530E+02  0.19146433859E+03  0.17200000000E+03 0. -1.
         -6    1    1    2    0  502 -0.82762637627E+02  0.45990981496E+00 -0.36311784380E+02  0.19429979771E+03  0.17200000000E+03 0. -1.
</event>
<event>
 4    1  0.1235203E+000  0.2457842E+03  0.7818608E-02  0.1115998E+00
         21   -1    0    0  501  502  0.00000000000E+00  0.00000000000E+00  0.47480995733E+02  0.47480995733E+02  0.00000000000E+00 0. -1.
         21   -1    0    0  502  503 -0.00000000000E+00 -0.00000000000E+00 -0.14038718368E+04  0.14038718368E+04  0.00000000000E+00 0.  1.
          6    1    1    2  501    0  0.13603987116E+03 -0.11099104337E+03 -0.45603425896E+03  0.51805125576E+03  0.17200000000E+03 0. -1.
         -6    1    1    2    0  503 -0.13603987116E+03  0.11099104337E+03 -0.90035658213E+03  0.93330157679E+03  0.17200000000E+03 0.  1.
</event>
<event>
 4    1  0.1235203E+000  0.1914152E+03  0.7818608E-02  0.1157191E+00
         21   -1    0    0  503  502  0.00000000000E+00  0.00000000000E+00  0.34149332406E+03  0.34149332406E+03  0.00000000000E+00 0.  1.
         21   -1    0    0  501  503 -0.00000000000E+00 -0.00000000000E+00 -0.30954953967E+03  0.30954953967E+03  0.00000000000E+00 0.  1.
          6    1    1    2  501    0  0.72140820180E+02  0.43028822125E+02 -0.24715546212E+03  0.31261094019E+03  0.17200000000E+03 0.  1.
         -6    1    1    2    0  502 -0.72140820180E+02 -0.43028822125E+02  0.27909924651E+03  0.33843192354E+03  0.17200000000E+03 0.  1.
</event>
<event>
 4    1  0.1235203E+000  0.1772602E+03  0.7818608E-02  0.1170481E+00
         21   -1    0    0  501  502  0.00000000000E+00  0.00000000000E+00  0.40566613481E+02  0.40566613481E+02  0.00000000000E+00 0. -1.
         21   -1    0    0  502  503 -0.00000000000E+00 -0.00000000000E+00 -0.77921267862E+03  0.77921267862E+03  0.00000000000E+00 0. -1.
          6    1    1    2  501    0 -0.42292140808E+02 -0.69691123630E+01 -0.33764302386E+03  0.38134499507E+03  0.17200000000E+03 0. -1.
         -6    1    1    2    0  503  0.42292140808E+02  0.69691123630E+01 -0.40100304128E+03  0.43843429703E+03  0.17200000000E+03 0. -1.
</event>
<event>
 4    1  0.1235203E+000  0.1795249E+03  0.7818608E-02  0.1168264E+00
         21   -1    0    0  501  502  0.00000000000E+00  0.00000000000E+00  0.26159214719E+04  0.26159214719E+04  0.00000000000E+00 0.  1.
         21   -1    0    0  502  503 -0.00000000000E+00 -0.00000000000E+00 -0.22628208328E+02  0.22628208328E+02  0.00000000000E+00 0.  1.
          6    1    1    2  501    0  0.97117828989E+01 -0.50506149328E+02  0.21870636173E+04  0.21944193893E+04  0.17200000000E+03 0.  1.
         -6    1    1    2    0  503 -0.97117828989E+01  0.50506149328E+02  0.40622964631E+03  0.44413029100E+03  0.17200000000E+03 0.  1.
</event>
<event>
 4    1  0.1235203E+000  0.2062049E+03  0.7818608E-02  0.1144607E+00
         21   -1    0    0  501  502  0.00000000000E+00  0.00000000000E+00  0.25975132411E+03  0.25975132411E+03  0.00000000000E+00 0. -1.
         21   -1    0    0  502  503 -0.00000000000E+00 -0.00000000000E+00 -0.18088512514E+03  0.18088512514E+03  0.00000000000E+00 0.  1.
          6    1    1    2  501    0 -0.92340226397E+02  0.66405871508E+02 -0.28481937280E+02  0.20816262377E+03  0.17200000000E+03 0.  1.
         -6    1    1    2    0  503  0.92340226397E+02 -0.66405871508E+02  0.10734813625E+03  0.23247382549E+03  0.17200000000E+03 0. -1.
</event>
<event>
 4    1  0.1235203E+000  0.1866480E+03  0.7818608E-02  0.1161520E+00
         21   -1    0    0  501  502  0.00000000000E+00  0.00000000000E+00  0.76277638344E+02  0.76277638344E+02  0.00000000000E+00 0. -1.
         21   -1    0    0  502  503 -0.00000000000E+00 -0.00000000000E+00 -0.67214593911E+03  0.67214593911E+03  0.00000000000E+00 0. -1.
          6    1    1    2  501    0  0.70140781911E+02 -0.18268894803E+02 -0.86080858376E+02  0.20554171349E+03  0.17200000000E+03 0. -1.
         -6    1    1    2    0  503 -0.70140781911E+02  0.18268894803E+02 -0.50978744239E+03  0.54288186397E+03  0.17200000000E+03 0. -1.
</event>
<event>
 4    1  0.1235203E+000  0.1938264E+03  0.7818608E-02  0.1155055E+00
         21   -1    0    0  503  502  0.00000000000E+00  0.00000000000E+00  0.21815979460E+03  0.21815979460E+03  0.00000000000E+00 0. -1.
         21   -1    0    0  501  503 -0.00000000000E+00 -0.00000000000E+00 -0.24470330650E+03  0.24470330650E+03  0.00000000000E+00 0. -1.
          6    1    1    2  501    0  0.78328082189E+02 -0.43004564958E+02 -0.13923970961E+03  0.23865535359E+03  0.17200000000E+03 0. -1.
         -6    1    1    2    0  502 -0.78328082189E+02  0.43004564958E+02  0.11269619771E+03  0.22420774751E+03  0.17200000000E+03 0. -1.
</event>
<event>
 4    1  0.1235203E+000  0.1731209E+03  0.7818608E-02  0.1174632E+00
         21   -1    0    0  501  502  0.00000000000E+00  0.00000000000E+00  0.27291528348E+03  0.27291528348E+03  0.00000000000E+00 0.  1.
         21   -1    0    0  502  503 -0.00000000000E+00 -0.00000000000E+00 -0.35899594940E+03  0.35899594940E+03  0.00000000000E+00 0.  1.
          6    1    1    2  501    0 -0.19668257919E+02 -0.17637149541E-01  0.22019043568E+03  0.28009760557E+03  0.17200000000E+03 0.  1.
         -6    1    1    2    0  503  0.19668257919E+02  0.17637149541E-01 -0.30627110160E+03  0.35181362730E+03  0.17200000000E+03 0.  1.
</event>
<event>
 4    1  0.1235203E+000  0.1896097E+03  0.7818608E-02  0.1158814E+00
         21   -1    0    0  501  502  0.00000000000E+00  0.00000000000E+00  0.18671526664E+03  0.18671526664E+03  0.00000000000E+00 0.  1.
         21   -1    0    0  502  503 -0.00000000000E+00 -0.00000000000E+00 -0.21793089115E+03  0.21793089115E+03  0.00000000000E+00 0. -1.
          6    1    1    2  501    0  0.69240669718E+02  0.39668069616E+02  0.53439782801E+02  0.19699653925E+03  0.17200000000E+03 0.  1.
         -6    1    1    2    0  503 -0.69240669718E+02 -0.39668069616E+02 -0.84655407313E+02  0.20764961853E+03  0.17200000000E+03 0. -1.
</event>
<event>
 4    1  0.1235203E+000  0.1742033E+03  0.7818608E-02  0.1173534E+00
         21   -1    0    0  503  502  0.00000000000E+00  0.00000000000E+00  0.38245872201E+03  0.38245872201E+03  0.00000000000E+00 0. -1.
         21   -1    0    0  501  503 -0.00000000000E+00 -0.00000000000E+00 -0.10395944289E+03  0.10395944289E+03  0.00000000000E+00 0. -1.
          6    1    1    2  501    0 -0.17012522620E+02 -0.21757111538E+02  0.20910409407E+02  0.17545382028E+03  0.17200000000E+03 0. -1.
         -6    1    1    2    0  502  0.17012522620E+02  0.21757111538E+02  0.25758886971E+03  0.31096434462E+03  0.17200000000E+03 0. -1.
</event>
<event>
 4    1  0.1235203E+000  0.1843146E+03  0.7818608E-02  0.1163691E+00
         21   -1    0    0  503  502  0.00000000000E+00  0.00000000000E+00  0.71228198321E+03  0.71228198321E+03  0.00000000000E+00 0.  1.
         21   -1    0    0  501  503 -0.00000000000E+00 -0.00000000000E+00 -0.57403430316E+02  0.57403430316E+02  0.00000000000E+00 0. -1.
          6    1    1    2  501    0  0.65851003093E+02  0.71776403748E+01  0.16916807062E+03  0.25017935416E+03  0.17200000000E+03 0. -1.
         -6    1    1    2    0  502 -0.65851003093E+02 -0.71776403748E+01  0.48571048227E+03  0.51950605937E+03  0.17200000000E+03 0.  1.
</event>
<event>
 4    1  0.1235203E+000  0.2205679E+03  0.7818608E-02  0.1133460E+00
         21   -1    0    0  503  502  0.00000000000E+00  0.00000000000E+00  0.50852156779E+03  0.50852156779E+03  0.00000000000E+00 0. -1.
         21   -1    0    0  501  503 -0.00000000000E+00 -0.00000000000E+00 -0.13248916141E+03  0.13248916141E+03  0.00000000000E+00 0. -1.
          6    1    1    2  501    0 -0.87554051918E+02 -0.10677313202E+03  0.19056712429E+02  0.22138963846E+03  0.17200000000E+03 0. -1.
         -6    1    1    2    0  502  0.87554051918E+02  0.10677313202E+03  0.35697569395E+03  0.41962109075E+03  0.17200000000E+03 0. -1.
</event>
<event>
 4    1  0.1235203E+000  0.1721935E+03  0.7818608E-02  0.1175580E+00
         21   -1    0    0  501  502  0.00000000000E+00  0.00000000000E+00  0.92920928729E+02  0.92920928729E+02  0.00000000000E+00 0. -1.
         21   -1    0    0  502  503 -0.00000000000E+00 -0.00000000000E+00 -0.32664661537E+03  0.32664661537E+03  0.00000000000E+00 0. -1.
          6    1    1    2  501    0 -0.32668201013E+01 -0.74783051659E+01 -0.14876020621E+03  0.22755262273E+03  0.17200000000E+03 0. -1.
         -6    1    1    2    0  503  0.32668201013E+01  0.74783051659E+01 -0.84965480432E+02  0.19201492136E+03  0.17200000000E+03 0. -1.
</event>
<event>
 4    1  0.1235203E+000  0.4428779E+03  0.7818608E-02  0.1029867E+00
         21   -1    0    0  501  502  0.00000000000E+00  0.00000000000E+00  0.54759984446E+03  0.54759984446E+03  0.00000000000E+00 0.  1.
         21   -1    0    0  502  503 -0.00000000000E+00 -0.00000000000E+00 -0.47268402759E+03  0.47268402759E+03  0.00000000000E+00 0. -1.
          6    1    1    2  501    0  0.67848477057E+02 -0.40243438281E+03  0.28853704372E+03  0.52857778416E+03  0.17200000000E+03 0.  1.
         -6    1    1    2    0  503 -0.67848477057E+02  0.40243438281E+03 -0.21362122685E+03  0.49170608789E+03  0.17200000000E+03 0.  1.
</event>
<event>
 4    1  0.1235203E+000  0.1794710E+03  0.7818608E-02  0.1168316E+00
         21   -1    0    0  501  502  0.00000000000E+00  0.00000000000E+00  0.27783240773E+03  0.27783240773E+03  0.00000000000E+00 0.  1.
         21   -1    0    0  502  503 -0.00000000000E+00 -0.00000000000E+00 -0.24373777957E+03  0.24373777957E+03  0.00000000000E+00 0.  1.
          6    1    1    2  501    0 -0.39966031962E+02 -0.32071122185E+02  0.20588797942E+03  0.27312945769E+03  0.17200000000E+03 0.  1.
         -6    1    1    2    0  503  0.39966031962E+02  0.32071122185E+02 -0.17179335126E+03  0.24844072961E+03  0.17200000000E+03 0.  1.
</event>
<event>
 4    1  0.1235203E+000  0.2032615E+03  0.7818608E-02  0.1147016E+00
         21   -1    0    0  501  502  0.00000000000E+00  0.00000000000E+00  0.12698673000E+04  0.12698673000E+04  0.00000000000E+00 0.  1.
         21   -1    0    0  502  503 -0.00000000000E+00 -0.00000000000E+00 -0.48481341684E+02  0.48481341684E+02  0.00000000000E+00 0.  1.
          6    1    1    2  501    0  0.64713464971E+02  0.86852691497E+02  0.23264881924E+03  0.30893477574E+03  0.17200000000E+03 0.  1.
         -6    1    1    2    0  503 -0.64713464971E+02 -0.86852691497E+02  0.98873713908E+03  0.10094138659E+04  0.17200000000E+03 0.  1.
</event>
<event>
 4    1  0.1235203E+000  0.2049890E+03  0.7818608E-02  0.1145597E+00
         21   -1    0    0  501  502  0.00000000000E+00  0.00000000000E+00  0.38708011902E+03  0.38708011902E+03  0.00000000000E+00 0.  1.
         21   -1    0    0  502  503 -0.00000000000E+00 -0.00000000000E+00 -0.76951929082E+03  0.76951929082E+03  0.00000000000E+00 0.  1.
          6    1    1    2  501    0  0.56092749861E+02  0.96385051628E+02  0.34473917096E+03  0.40108050409E+03  0.17200000000E+03 0.  1.
         -6    1    1    2    0  503 -0.56092749861E+02 -0.96385051628E+02 -0.72717834276E+03  0.75551890575E+03  0.17200000000E+03 0.  1.
</event>
<event>
 4    1  0.1235203E+000  0.1749168E+03  0.7818608E-02  0.1172815E+00
         21   -1    0    0  503  502  0.00000000000E+00  0.00000000000E+00  0.31476213021E+03  0.31476213021E+03  0.00000000000E+00 0.  1.
         21   -1    0    0  501  503 -0.00000000000E+00 -0.00000000000E+00 -0.45698985001E+03  0.45698985001E+03  0.00000000000E+00 0.  1.
          6    1    1    2  501    0  0.10833771239E+02 -0.29908394648E+02 -0.41350065673E+03  0.44897513939E+03  0.17200000000E+03 0. -1.
         -6    1    1    2    0  502 -0.10833771239E+02  0.29908394648E+02  0.27127293693E+03  0.32277684084E+03  0.17200000000E+03 0. -1.
</event>
<event>
 4    1  0.1235203E+000  0.2374748E+03  0.7818608E-02  0.1121487E+00
         21   -1    0    0  503  502  0.00000000000E+00  0.00000000000E+00  0.91161822846E+02  0.91161822846E+02  0.00000000000E+00 0. -1.
         21   -1    0    0  501  503 -0.00000000000E+00 -0.00000000000E+00 -0.63473440758E+03  0.63473440758E+03  0.00000000000E+00 0. -1.
          6    1    1    2  501    0  0.67416499076E+02  0.14921554060E+03 -0.32962184063E+03  0.40625708576E+03  0.17200000000E+03 0. -1.
         -6    1    1    2    0  502 -0.67416499076E+02 -0.14921554060E+03 -0.21395074410E+03  0.31963914467E+03  0.17200000000E+03 0. -1.
</event>
<event>
 4    1  0.1235203E+000  0.1860417E+03  0.7818608E-02  0.1162081E+00
         21   -1    0    0  501  502  0.00000000000E+00  0.00000000000E+00  0.42297826312E+02  0.42297826312E+02  0.00000000000E+00 0.  1.
         21   -1    0    0  502  503 -0.00000000000E+00 -0.00000000000E+00 -0.16513545068E+04  0.16513545068E+04  0.00000000000E+00 0. -1.
          6    1    1    2  501    0 -0.57102776760E+02  0.42033060271E+02 -0.20305582436E+03  0.27539639264E+03  0.17200000000E+03 0.  1.
         -6    1    1    2    0  503  0.57102776760E+02 -0.42033060271E+02 -0.14060008561E+04  0.14182559405E+04  0.17200000000E+03 0. -1.
</event>
<event>
 4    1  0.1235203E+000  0.2344467E+03  0.7818608E-02  0.1123549E+00
         21   -1    0    0  503  502  0.00000000000E+00  0.00000000000E+00  0.60629432304E+03  0.60629432304E+03  0.00000000000E+00 0. -1.
         21   -1    0    0  501  503 -0.00000000000E+00 -0.00000000000E+00 -0.15404789360E+03  0.15404789360E+03  0.00000000000E+00 0. -1.
          6    1    1    2  501    0  0.79012477946E+02  0.13834111100E+03  0.46999544274E+03  0.52522466703E+03  0.17200000000E+03 0. -1.
         -6    1    1    2    0  502 -0.79012477946E+02 -0.13834111100E+03 -0.17749013296E+02  0.23511754961E+03  0.17200000000E+03 0. -1.
</event>
<event>
 4    1  0.1235203E+000  0.2022533E+03  0.7818608E-02  0.1147852E+00
         21   -1    0    0  501  502  0.00000000000E+00  0.00000000000E+00  0.62658857352E+03  0.62658857352E+03  0.00000000000E+00 0.  1.
         21   -1    0    0  502  503 -0.00000000000E+00 -0.00000000000E+00 -0.68194392266E+02  0.68194392266E+02  0.00000000000E+00 0.  1.
          6    1    1    2  501    0  0.86134186732E+02 -0.62476492639E+02  0.20743475498E+03  0.28971639207E+03  0.17200000000E+03 0.  1.
         -6    1    1    2    0  503 -0.86134186732E+02  0.62476492639E+02  0.35095942627E+03  0.40506657371E+03  0.17200000000E+03 0.  1.
</event>
<event>
 4    1  0.1235203E+000  0.1765149E+03  0.7818608E-02  0.1171219E+00
         21   -1    0    0  501  502  0.00000000000E+00  0.00000000000E+00  0.42654317896E+03  0.42654317896E+03  0.00000000000E+00 0. -1.
         21   -1    0    0  502  503 -0.00000000000E+00 -0.00000000000E+00 -0.98812614727E+02  0.98812614727E+02  0.00000000000E+00 0. -1.
          6    1    1    2  501    0 -0.29561548557E+02  0.26450305461E+02  0.29800007938E+03  0.34635466089E+03  0.17200000000E+03 0.  1.
         -6    1    1    2    0  503  0.29561548557E+02 -0.26450305461E+02  0.29730484854E+02  0.17900113279E+03  0.17200000000E+03 0.  1.
</event>
<event>
 4    1  0.1235203E+000  0.1790244E+03  0.7818608E-02  0.1168751E+00
         21   -1    0    0  501  502  0.00000000000E+00  0.00000000000E+00  0.23783428342E+03  0.23783428342E+03  0.00000000000E+00 0.  1.
         21   -1    0    0  502  503 -0.00000000000E+00 -0.00000000000E+00 -0.14359297054E+03  0.14359297054E+03  0.00000000000E+00 0.  1.
          6    1    1    2  501    0 -0.36470616632E+02  0.33699197569E+02  0.94430536557E+02  0.20240273721E+03  0.17200000000E+03 0. -1.
         -6    1    1    2    0  503  0.36470616632E+02 -0.33699197569E+02 -0.18922367303E+00  0.17902451676E+03  0.17200000000E+03 0. -1.
</event>
<event>
 4    1  0.1235203E+000  0.2049959E+03  0.7818608E-02  0.1145591E+00
         21   -1    0    0  503  502  0.00000000000E+00  0.00000000000E+00  0.56105275057E+02  0.56105275057E+02  0.00000000000E+00 0.  1.
         21   -1    0    0  501  503 -0.00000000000E+00 -0.00000000000E+00 -0.10507024740E+04  0.10507024740E+04  0.00000000000E+00 0. -1.
          6    1    1    2  501    0 -0.65902218264E+02  0.89978923143E+02 -0.79384037175E+03  0.81988160414E+03  0.17200000000E+03 0. -1.
         -6    1    1    2    0  502  0.65902218264E+02 -0.89978923143E+02 -0.20075682724E+03  0.28692614497E+03  0.17200000000E+03 0.  1.
</event>
<event>
 4    1  0.1235203E+000  0.1812376E+03  0.7818608E-02  0.1166611E+00
         21   -1    0    0  501  502  0.00000000000E+00  0.00000000000E+00  0.86661617489E+03  0.86661617489E+03  0.00000000000E+00 0.  1.
         21   -1    0    0  502  503 -0.00000000000E+00 -0.00000000000E+00 -0.72295469167E+02  0.72295469167E+02  0.00000000000E+00 0.  1.
          6    1    1    2  501    0 -0.23785413214E+02 -0.51935839137E+02  0.72095739369E+03  0.74338862030E+03  0.17200000000E+03 0.  1.
         -6    1    1    2    0  503  0.23785413214E+02  0.51935839137E+02  0.73363312034E+02  0.19552302376E+03  0.17200000000E+03 0.  1.
</event>
<event>
 4    1  0.1235203E+000  0.2293177E+03  0.7818608E-02  0.1127121E+00
         21   -1    0    0  501  502  0.00000000000E+00  0.00000000000E+00  0.10793458164E+04  0.10793458164E+04  0.00000000000E+00 0.  1.
         21   -1    0    0  502  503 -0.00000000000E+00 -0.00000000000E+00 -0.25301097390E+03  0.25301097390E+03  0.00000000000E+00 0.  1.
          6    1    1    2  501    0 -0.23680694311E+02  0.14980592168E+03  0.10117783012E+04  0.10374400803E+04  0.17200000000E+03 0.  1.
         -6    1    1    2    0  503  0.23680694311E+02 -0.14980592168E+03 -0.18544345871E+03  0.29491670999E+03  0.17200000000E+03 0.  1.
</event>
<event>
 4    1  0.1235203E+000  0.2197224E+03  0.7818608E-02  0.1134090E+00
         21   -1    0    0  501  502  0.00000000000E+00  0.00000000000E+00  0.12253040474E+04  0.12253040474E+04  0.00000000000E+00 0.  1.
         21   -1    0    0  502  503 -0.00000000000E+00 -0.00000000000E+00 -0.10430510272E+03  0.10430510272E+03  0.00000000000E+00 0. -1.
          6    1    1    2  501    0 -0.12147000394E+02 -0.13618512810E+03  0.10849179959E+04  0.11069439898E+04  0.17200000000E+03 0.  1.
         -6    1    1    2    0  503  0.12147000394E+02  0.13618512810E+03  0.36080948736E+02  0.22266516026E+03  0.17200000000E+03 0. -1.
</event>
<event>
 4    1  0.1235203E+000  0.1834732E+03  0.7818608E-02  0.1164483E+00
         21   -1    0    0  503  502  0.00000000000E+00  0.00000000000E+00  0.84020014130E+03  0.84020014130E+03  0.00000000000E+00 0.  1.
         21   -1    0    0  501  503 -0.00000000000E+00 -0.00000000000E+00 -0.40064790280E+02  0.40064790280E+02  0.00000000000E+00 0.  1.
          6    1    1    2  501    0  0.15831211907E+02 -0.61869227007E+02  0.40035083750E+03  0.44038985185E+03  0.17200000000E+03 0.  1.
         -6    1    1    2    0  502 -0.15831211907E+02  0.61869227007E+02  0.39978451351E+03  0.43987507973E+03  0.17200000000E+03 0.  1.
</event>
<event>
 4    1  0.1235203E+000  0.3136990E+03  0.7818608E-02  0.1078586E+00
         21   -1    0    0  501  502  0.00000000000E+00  0.00000000000E+00  0.11539739654E+04  0.11539739654E+04  0.00000000000E+00 0.  1.
         21   -1    0    0  502  503 -0.00000000000E+00 -0.00000000000E+00 -0.11818480655E+03  0.11818480655E+03  0.00000000000E+00 0.  1.
          6    1    1    2  501    0  0.46467699246E+01 -0.26230031938E+03  0.85354112544E+03  0.90936214064E+03  0.17200000000E+03 0.  1.
         -6    1    1    2    0  503 -0.46467699246E+01  0.26230031938E+03  0.18224803343E+03  0.36279663134E+03  0.17200000000E+03 0.  1.
</event>
<event>
 4    1  0.1235203E+000  0.1803926E+03  0.7818608E-02  0.1167424E+00
         21   -1    0    0  501  502  0.00000000000E+00  0.00000000000E+00  0.14980159911E+03  0.14980159911E+03  0.00000000000E+00 0.  1.
         21   -1    0    0  502  503 -0.00000000000E+00 -0.00000000000E+00 -0.35714153182E+03  0.35714153182E+03  0.00000000000E+00 0.  1.
          6    1    1    2  501    0 -0.15708659956E+01 -0.54360222696E+02  0.54978101646E+02  0.18858444552E+03  0.17200000000E+03 0.  1.
         -6    1    1    2    0  503  0.15708659956E+01  0.54360222696E+02 -0.26231803435E+03  0.31835868541E+03  0.17200000000E+03 0.  1.
</event>
<event>
 4    1  0.1235203E+000  0.1811098E+03  0.7818608E-02  0.1166733E+00
         21   -1    0    0  501  502  0.00000000000E+00  0.00000000000E+00  0.54577667542E+03  0.54577667542E+03  0.00000000000E+00 0.  1.
         21   -1    0    0  502  503 -0.00000000000E+00 -0.00000000000E+00 -0.74075265616E+02  0.74075265616E+02  0.00000000000E+00 0.  1.
          6    1    1    2  501    0  0.36061214753E+02  0.43776318661E+02  0.37047170417E+03  0.41237126582E+03  0.17200000000E+03 0.  1.
         -6    1    1    2    0  503 -0.36061214753E+02 -0.43776318661E+02  0.10122970564E+03  0.20748067522E+03  0.17200000000E+03 0.  1.
</event>
<event>
 4    1  0.1235203E+000  0.1955504E+03  0.7818608E-02  0.1153548E+00
         21   -1    0    0  503  502  0.00000000000E+00  0.00000000000E+00  0.11224819334E+03  0.11224819334E+03  0.00000000000E+00 0.  1.
         21   -1    0    0  501  503 -0.00000000000E+00 -0.00000000000E+00 -0.41227468421E+03  0.41227468421E+03  0.00000000000E+00 0.  1.
          6    1    1    2  501    0  0.28524061580E+02 -0.88556943415E+02 -0.25930868330E+03  0.32477830523E+03  0.17200000000E+03 0.  1.
         -6    1    1    2    0  502 -0.28524061580E+02  0.88556943415E+02 -0.40717807573E+02  0.19974457232E+03  0.17200000000E+03 0.  1.
</event>
<event>
 4    1  0.1235203E+000  0.2326179E+03  0.7818608E-02  0.1124811E+00
         21   -1    0    0  501  502  0.00000000000E+00  0.00000000000E+00  0.29544082088E+03  0.29544082088E+03  0.00000000000E+00 0.  1.
         21   -1    0    0  502  503 -0.00000000000E+00 -0.00000000000E+00 -0.19012742581E+03  0.19012742581E+03  0.00000000000E+00 0.  1.
          6    1    1    2  501    0 -0.83952752822E+02 -0.13220822764E+03  0.61591271758E+01  0.23269940913E+03  0.17200000000E+03 0.  1.
         -6    1    1    2    0  503  0.83952752822E+02  0.13220822764E+03  0.99154267896E+02  0.25286883755E+03  0.17200000000E+03 0.  1.
</event>
<event>
 4    1  0.1235203E+000  0.2672961E+03  0.7818608E-02  0.1102837E+00
         21   -1    0    0  503  502  0.00000000000E+00  0.00000000000E+00  0.25480709823E+03  0.25480709823E+03  0.00000000000E+00 0.  1.
         21   -1    0    0  501  503 -0.00000000000E+00 -0.00000000000E+00 -0.28374076889E+03  0.28374076889E+03  0.00000000000E+00 0.  1.
          6    1    1    2  501    0  0.84996662970E+02 -0.18611500101E+03  0.14763317104E+02  0.26770353350E+03  0.17200000000E+03 0.  1.
         -6    1    1    2    0  502 -0.84996662970E+02  0.18611500101E+03 -0.43696987764E+02  0.27084433362E+03  0.17200000000E+03 0.  1.
</event>
<event>
 4    1  0.1235203E+000  0.1903785E+03  0.7818608E-02  0.1158120E+00
         21   -1    0    0  503  502  0.00000000000E+00  0.00000000000E+00  0.27578136591E+03  0.27578136591E+03  0.00000000000E+00 0.  1.
         21   -1    0    0  501  503 -0.00000000000E+00 -0.00000000000E+00 -0.20560974647E+03  0.20560974647E+03  0.00000000000E+00 0. -1.
          6    1    1    2  501    0 -0.57726566858E+02  0.57685505409E+02  0.17966634049E+03  0.26177083100E+03  0.17200000000E+03 0.  1.
         -6    1    1    2    0  502  0.57726566858E+02 -0.57685505409E+02 -0.10949472106E+03  0.21962028138E+03  0.17200000000E+03 0. -1.
</event>
<event>
 4    1  0.1235203E+000  0.1805480E+03  0.7818608E-02  0.1167274E+00
         21   -1    0    0  503  502  0.00000000000E+00  0.00000000000E+00  0.48109198403E+03  0.48109198403E+03  0.00000000000E+00 0.  1.
         21   -1    0    0  501  503 -0.00000000000E+00 -0.00000000000E+00 -0.68756527138E+02  0.68756527138E+02  0.00000000000E+00 0.  1.
          6    1    1    2  501    0 -0.52423972484E+02 -0.16288787329E+02  0.23930688127E+03  0.29977555088E+03  0.17200000000E+03 0.  1.
         -6    1    1    2    0  502  0.52423972484E+02  0.16288787329E+02  0.17302857562E+03  0.25007296029E+03  0.17200000000E+03 0.  1.
</event>
<event>
 4    1  0.1235203E+000  0.2055859E+03  0.7818608E-02  0.1145110E+00
         21   -1    0    0  501  502  0.00000000000E+00  0.00000000000E+00  0.49028294139E+03  0.49028294139E+03  0.00000000000E+00 0. -1.
         21   -1    0    0  502  503 -0.00000000000E+00 -0.00000000000E+00 -0.86259607318E+02  0.86259607318E+02  0.00000000000E+00 0. -1.
          6    1    1    2  501    0  0.11023324437E+03  0.23025729108E+02  0.20916774493E+03  0.29328603425E+03  0.17200000000E+03 0. -1.
         -6    1    1    2    0  503 -0.11023324437E+03 -0.23025729108E+02  0.19485558914E+03  0.28325651446E+03  0.17200000000E+03 0. -1.
</event>
<event>
 4    1  0.1235203E+000  0.1847822E+03  0.7818608E-02  0.1163253E+00
         21   -1    0    0  503  502  0.00000000000E+00  0.00000000000E+00  0.78756739309E+03  0.78756739309E+03  0.00000000000E+00 0. -1.
         21   -1    0    0  501  503 -0.00000000000E+00 -0.00000000000E+00 -0.43558009409E+02  0.43558009409E+02  0.00000000000E+00 0. -1.
          6    1    1    2  501    0  0.56038032534E+02  0.37685325056E+02  0.40042260233E+03  0.44100193341E+03  0.17200000000E+03 0. -1.
         -6    1    1    2    0  502 -0.56038032534E+02 -0.37685325056E+02  0.34358678135E+03  0.39012346909E+03  0.17200000000E+03 0. -1.
</event>
<event>
 4    1  0.1235203E+000  0.1880979E+03  0.7818608E-02  0.1160188E+00
         21   -1    0    0  501  502  0.00000000000E+00  0.00000000000E+00  0.25149604580E+02  0.25149604580E+02  0.00000000000E+00 0.  1.
         21   -1    0    0  502  503 -0.00000000000E+00 -0.00000000000E+00 -0.18659168785E+04  0.18659168785E+04  0.00000000000E+00 0.  1.
          6    1    1    2  501    0  0.76106997862E+02 -0.21302561553E+01 -0.45136973715E+03  0.48899432792E+03  0.17200000000E+03 0.  1.
         -6    1    1    2    0  503 -0.76106997862E+02  0.21302561553E+01 -0.13893975368E+04  0.14020721552E+04  0.17200000000E+03 0.  1.
</event>
<event>
 4    1  0.1235203E+000  0.1873740E+03  0.7818608E-02  0.1160851E+00
         21   -1    0    0  503  502  0.00000000000E+00  0.00000000000E+00  0.52751625368E+03  0.52751625368E+03  0.00000000000E+00 0. -1.
         21   -1    0    0  501  503 -0.00000000000E+00 -0.00000000000E+00 -0.13891431852E+03  0.13891431852E+03  0.00000000000E+00 0. -1.
          6    1    1    2  501    0  0.69737656176E+02 -0.25723356509E+02 -0.46189339714E+02  0.19298312585E+03  0.17200000000E+03 0. -1.
         -6    1    1    2    0  502 -0.69737656176E+02  0.25723356509E+02  0.43479127486E+03  0.47344744635E+03  0.17200000000E+03 0. -1.
</event>
<event>
 4    1  0.1235203E+000  0.3953801E+03  0.7818608E-02  0.1045391E+00
         21   -1    0    0  501  502  0.00000000000E+00  0.00000000000E+00  0.97051767178E+02  0.97051767178E+02  0.00000000000E+00 0. -1.
         21   -1    0    0  502  503 -0.00000000000E+00 -0.00000000000E+00 -0.17369583452E+04  0.17369583452E+04  0.00000000000E+00 0.  1.
          6    1    1    2  501    0  0.27371128075E+03 -0.22764793999E+03 -0.57276198202E+03  0.69597538595E+03  0.17200000000E+03 0. -1.
         -6    1    1    2    0  503 -0.27371128075E+03  0.22764793999E+03 -0.10671445960E+04  0.11380347264E+04  0.17200000000E+03 0.  1.
</event>
<event>
 4    1  0.1235203E+000  0.1944157E+03  0.7818608E-02  0.1154538E+00
         21   -1    0    0  503  502  0.00000000000E+00  0.00000000000E+00  0.66683297771E+03  0.66683297771E+03  0.00000000000E+00 0.  1.
         21   -1    0    0  501  503 -0.00000000000E+00 -0.00000000000E+00 -0.64473441534E+02  0.64473441534E+02  0.00000000000E+00 0. -1.
          6    1    1    2  501    0 -0.73576548608E+02 -0.52914591544E+02  0.42829171804E+03  0.47035227037E+03  0.17200000000E+03 0.  1.
         -6    1    1    2    0  502  0.73576548608E+02  0.52914591544E+02  0.17406781814E+03  0.26095414888E+03  0.17200000000E+03 0. -1.
</event>
<event>
 4    1  0.1235203E+000  0.1867523E+03  0.7818608E-02  0.1161424E+00
         21   -1    0    0  503  502  0.00000000000E+00  0.00000000000E+00  0.57261391377E+03  0.57261391377E+03  0.00000000000E+00 0.  1.
         21   -1    0    0  501  503 -0.00000000000E+00 -0.00000000000E+00 -0.63962135875E+02  0.63962135875E+02  0.00000000000E+00 0.  1.
          6    1    1    2  501    0  0.51147096191E+02 -0.51734030185E+02  0.18476832998E+03  0.26270852878E+03  0.17200000000E+03 0.  1.
         -6    1    1    2    0  502 -0.51147096191E+02  0.51734030185E+02  0.32388344791E+03  0.37386752086E+03  0.17200000000E+03 0.  1.
</event>
<event>
 4    1  0.1235203E+000  0.1823933E+03  0.7818608E-02  0.1165507E+00
         21   -1    0    0  501  502  0.00000000000E+00  0.00000000000E+00  0.11832515588E+04  0.11832515588E+04  0.00000000000E+00 0.  1.
         21   -1    0    0  502  503 -0.00000000000E+00 -0.00000000000E+00 -0.28300396436E+02  0.28300396436E+02  0.00000000000E+00 0.  1.
          6    1    1    2  501    0 -0.60113874287E+02 -0.83450998077E+01  0.62648363179E+03  0.65249448999E+03  0.17200000000E+03 0.  1.
         -6    1    1    2    0  503  0.60113874287E+02  0.83450998077E+01  0.52846753060E+03  0.55905746527E+03  0.17200000000E+03 0.  1.
</event>
<event>
 4    1  0.1235203E+000  0.5007328E+03  0.7818608E-02  0.1013588E+00
         21   -1    0    0  501  502  0.00000000000E+00  0.00000000000E+00  0.79181998229E+03  0.79181998229E+03  0.00000000000E+00 0.  1.
         21   -1    0    0  502  503 -0.00000000000E+00 -0.00000000000E+00 -0.60054127960E+03  0.60054127960E+03  0.00000000000E+00 0. -1.
          6    1    1    2  501    0 -0.35308886974E+03 -0.31060835797E+03  0.57429495153E+03  0.76193700089E+03  0.17200000000E+03 0. -1.
         -6    1    1    2    0  503  0.35308886974E+03  0.31060835797E+03 -0.38301624884E+03  0.63042426100E+03  0.17200000000E+03 0. -1.
</event>
<event>
 4    1  0.1235203E+000  0.2282690E+03  0.7818608E-02  0.1127864E+00
         21   -1    0    0  503  502  0.00000000000E+00  0.00000000000E+00  0.86573969228E+03  0.86573969228E+03  0.00000000000E+00 0.  1.
         21   -1    0    0  501  503 -0.00000000000E+00 -0.00000000000E+00 -0.78707744401E+02  0.78707744401E+02  0.00000000000E+00 0. -1.
          6    1    1    2  501    0  0.14802739203E+03 -0.24710696776E+02  0.16444917094E+03  0.28133655495E+03  0.17200000000E+03 0.  1.
         -6    1    1    2    0  502 -0.14802739203E+03  0.24710696776E+02  0.62258277695E+03  0.66311088174E+03  0.17200000000E+03 0.  1.
</event>
<event>
 4    1  0.1235203E+000  0.1801281E+03  0.7818608E-02  0.1167679E+00
         21   -1    0    0  503  502  0.00000000000E+00  0.00000000000E+00  0.75528156240E+03  0.75528156240E+03  0.00000000000E+00 0. -1.
         21   -1    0    0  501  503 -0.00000000000E+00 -0.00000000000E+00 -0.67985104748E+02  0.67985104748E+02  0.00000000000E+00 0. -1.
          6    1    1    2  501    0  0.24743047499E+02 -0.47433420415E+02  0.93901276218E+02  0.20313443196E+03  0.17200000000E+03 0. -1.
         -6    1    1    2    0  502 -0.24743047499E+02  0.47433420415E+02  0.59339518144E+03  0.62013223519E+03  0.17200000000E+03 0. -1.
</event>
<event>
 4    1  0.1235203E+000  0.1732757E+03  0.7818608E-02  0.1174474E+00
         21   -1    0    0  501  502  0.00000000000E+00  0.00000000000E+00  0.19986877035E+03  0.19986877035E+03  0.00000000000E+00 0. -1.
         21   -1    0    0  502  503 -0.00000000000E+00 -0.00000000000E+00 -0.15387476312E+03  0.15387476312E+03  0.00000000000E+00 0. -1.
          6    1    1    2  501    0  0.79612765226E+01 -0.19418541173E+02  0.50252394118E+02  0.18041553364E+03  0.17200000000E+03 0.  1.
         -6    1    1    2    0  503 -0.79612765226E+01  0.19418541173E+02 -0.42583868956E+01  0.17332799983E+03  0.17200000000E+03 0.  1.
</event>
<event>
 4    1  0.1235203E+000  0.2066135E+03  0.7818608E-02  0.1144276E+00
         21   -1    0    0  503  502  0.00000000000E+00  0.00000000000E+00  0.44594936923E+03  0.44594936923E+03  0.00000000000E+00 0.  1.
         21   -1    0    0  501  503 -0.00000000000E+00 -0.00000000000E+00 -0.10190446388E+03  0.10190446388E+03  0.00000000000E+00 0.  1.
          6    1    1    2  501    0 -0.10688514885E+03 -0.40996498966E+02  0.10457544227E+03  0.23157109297E+03  0.17200000000E+03 0.  1.
         -6    1    1    2    0  502  0.10688514885E+03  0.40996498966E+02  0.23946946307E+03  0.31628274015E+03  0.17200000000E+03 0.  1.
</event>
<event>
 4    1  0.1235203E+000  0.1732078E+03  0.7818608E-02  0.1174543E+00
         21   -1    0    0  501  502  0.00000000000E+00  0.00000000000E+00  0.27969166629E+03  0.27969166629E+03  0.00000000000E+00 0.  1.
         21   -1    0    0  502  503 -0.00000000000E+00 -0.00000000000E+00 -0.12162008862E+03  0.12162008862E+03  0.00000000000E+00 0.  1.
          6    1    1    2  501    0 -0.15511057666E+02 -0.13279087686E+02  0.14797446767E+03  0.22780994307E+03  0.17200000000E+03 0.  1.
         -6    1    1    2    0  503  0.15511057666E+02  0.13279087686E+02  0.10097110002E+02  0.17350181184E+03  0.17200000000E+03 0.  1.
</event>
<event>
 4    1  0.1235203E+000  0.2062099E+03  0.7818608E-02  0.1144603E+00
         21   -1    0    0  503  502  0.00000000000E+00  0.00000000000E+00  0.91691016225E+02  0.91691016225E+02  0.00000000000E+00 0.  1.
         21   -1    0    0  501  503 -0.00000000000E+00 -0.00000000000E+00 -0.65085699065E+03  0.65085699065E+03  0.00000000000E+00 0.  1.
          6    1    1    2  501    0  0.20869426598E+02  0.11181673925E+03 -0.47864415237E+03  0.52117438611E+03  0.17200000000E+03 0.  1.
         -6    1    1    2    0  502 -0.20869426598E+02 -0.11181673925E+03 -0.80521822058E+02  0.22137362076E+03  0.17200000000E+03 0.  1.
</event>
<event>
 4    1  0.1235203E+000  0.1721535E+03  0.7818608E-02  0.1175621E+00
         21   -1    0    0  503  502  0.00000000000E+00  0.00000000000E+00  0.11436528945E+03  0.11436528945E+03  0.00000000000E+00 0.  1.
         21   -1    0    0  501  503 -0.00000000000E+00 -0.00000000000E+00 -0.30073338788E+03  0.30073338788E+03  0.00000000000E+00 0.  1.
          6    1    1    2  501    0 -0.54911839379E+01 -0.47626344723E+01 -0.15999054588E+02  0.17289536008E+03  0.17200000000E+03 0.  1.
         -6    1    1    2    0  502  0.54911839379E+01  0.47626344723E+01 -0.17036904384E+03  0.24220331725E+03  0.17200000000E+03 0.  1.
</event>
<event>
 4    1  0.1235203E+000  0.2304121E+03  0.7818608E-02  0.1126350E+00
         21   -1    0    0  503  502  0.00000000000E+00  0.00000000000E+00  0.12828102748E+03  0.12828102748E+03  0.00000000000E+00 0.  1.
         21   -1    0    0  501  503 -0.00000000000E+00 -0.00000000000E+00 -0.43044567775E+03  0.43044567775E+03  0.00000000000E+00 0. -1.
          6    1    1    2  501    0 -0.40639372138E+02  0.14783152654E+03 -0.96236325432E+02  0.24970212081E+03  0.17200000000E+03 0. -1.
         -6    1    1    2    0  502  0.40639372138E+02 -0.14783152654E+03 -0.20592832483E+03  0.30902458442E+03  0.17200000000E+03 0. -1.
</event>
<event>
 4    1  0.1235203E+000  0.2280899E+03  0.7818608E-02  0.1127991E+00
         21   -1    0    0  503  502  0.00000000000E+00  0.00000000000E+00  0.22348844935E+03  0.22348844935E+03  0.00000000000E+00 0.  1.
         21   -1    0    0  501  503 -0.00000000000E+00 -0.00000000000E+00 -0.28462624645E+03  0.28462624645E+03  0.00000000000E+00 0.  1.
          6    1    1    2  501    0  0.14730434592E+03 -0.27247638039E+02 -0.13899339280E+03  0.26710328966E+03  0.17200000000E+03 0.  1.
         -6    1    1    2    0  502 -0.14730434592E+03  0.27247638039E+02  0.77855595698E+02  0.24101140613E+03  0.17200000000E+03 0.  1.
</event>
<event>
 4    1  0.1235203E+000  0.2026582E+03  0.7818608E-02  0.1147515E+00
         21   -1    0    0  501  502  0.00000000000E+00  0.00000000000E+00  0.56628319252E+03  0.56628319252E+03  0.00000000000E+00 0.  1.
         21   -1    0    0  502  503 -0.00000000000E+00 -0.00000000000E+00 -0.13072474113E+03  0.13072474113E+03  0.00000000000E+00 0.  1.
          6    1    1    2  501    0  0.70520677315E+02  0.80704395318E+02  0.45031238793E+03  0.49381333728E+03  0.17200000000E+03 0.  1.
         -6    1    1    2    0  503 -0.70520677315E+02 -0.80704395318E+02 -0.14753936537E+02  0.20319459637E+03  0.17200000000E+03 0.  1.
</event>
<event>
 4    1  0.1235203E+000  0.1738274E+03  0.7818608E-02  0.1173914E+00
         21   -1    0    0  501  502  0.00000000000E+00  0.00000000000E+00  0.22517814788E+04  0.22517814788E+04  0.00000000000E+00 0. -1.
         21   -1    0    0  502  503 -0.00000000000E+00 -0.00000000000E+00 -0.20023970373E+02  0.20023970373E+02  0.00000000000E+00 0. -1.
          6    1    1    2  501    0  0.25124339354E+02  0.86540797447E+00  0.17682748088E+04  0.17767981823E+04  0.17200000000E+03 0. -1.
         -6    1    1    2    0  503 -0.25124339354E+02 -0.86540797447E+00  0.46348269968E+03  0.49500726688E+03  0.17200000000E+03 0. -1.
</event>
<event>
 4    1  0.1235203E+000  0.2648471E+03  0.7818608E-02  0.1104265E+00
         21   -1    0    0  503  502  0.00000000000E+00  0.00000000000E+00  0.12627365993E+04  0.12627365993E+04  0.00000000000E+00 0.  1.
         21   -1    0    0  501  503 -0.00000000000E+00 -0.00000000000E+00 -0.13180590667E+03  0.13180590667E+03  0.00000000000E+00 0.  1.
          6    1    1    2  501    0  0.16501327571E+03  0.11545830438E+03  0.35102171334E+02  0.26716317793E+03  0.17200000000E+03 0.  1.
         -6    1    1    2    0  502 -0.16501327571E+03 -0.11545830438E+03  0.10958285213E+04  0.11273793280E+04  0.17200000000E+03 0.  1.
</event>
<event>
 4    1  0.1235203E+000  0.1924589E+03  0.7818608E-02  0.1156262E+00
         21   -1    0    0  501  502  0.00000000000E+00  0.00000000000E+00  0.28344003374E+03  0.28344003374E+03  0.00000000000E+00 0. -1.
         21   -1    0    0  502  503 -0.00000000000E+00 -0.00000000000E+00 -0.15151081065E+03  0.15151081065E+03  0.00000000000E+00 0.  1.
          6    1    1    2  501    0 -0.60005510475E+02  0.62094931956E+02  0.14659952643E+03  0.24193359215E+03  0.17200000000E+03 0. -1.
         -6    1    1    2    0  503  0.60005510475E+02 -0.62094931956E+02 -0.14670303343E+02  0.19301725224E+03  0.17200000000E+03 0.  1.
</event>
<event>
 4    1  0.1235203E+000  0.2322861E+03  0.7818608E-02  0.1125041E+00
         21   -1    0    0  501  502  0.00000000000E+00  0.00000000000E+00  0.18754933466E+03  0.18754933466E+03  0.00000000000E+00 0. -1.
         21   -1    0    0  502  503 -0.00000000000E+00 -0.00000000000E+00 -0.29591793661E+03  0.29591793661E+03  0.00000000000E+00 0.  1.
          6    1    1    2  501    0 -0.14310976878E+03  0.62389385249E+02 -0.94482726104E+02  0.25076647871E+03  0.17200000000E+03 0.  1.
         -6    1    1    2    0  503  0.14310976878E+03 -0.62389385249E+02 -0.13885875846E+02  0.23270079256E+03  0.17200000000E+03 0.  1.
</event>
<event>
 4    1  0.1235203E+000  0.2484166E+03  0.7818608E-02  0.1114310E+00
         21   -1    0    0  501  502  0.00000000000E+00  0.00000000000E+00  0.29531308703E+02  0.29531308703E+02  0.00000000000E+00 0. -1.
         21   -1    0    0  502  503 -0.00000000000E+00 -0.00000000000E+00 -0.24393326458E+04  0.24393326458E+04  0.00000000000E+00 0. -1.
          6    1    1    2  501    0  0.78046745317E+02 -0.16135524841E+03 -0.16722630246E+04  0.16906136265E+04  0.17200000000E+03 0. -1.
         -6    1    1    2    0  503 -0.78046745317E+02  0.16135524841E+03 -0.73753831248E+03  0.77825032800E+03  0.17200000000E+03 0. -1.
</event>
<event>
 4    1  0.1235203E+000  0.1856625E+03  0.7818608E-02  0.1162433E+00
         21   -1    0    0  503  502  0.00000000000E+00  0.00000000000E+00  0.15982306929E+03  0.15982306929E+03  0.00000000000E+00 0. -1.
         21   -1    0    0  501  503 -0.00000000000E+00 -0.00000000000E+00 -0.50077597533E+03  0.50077597533E+03  0.00000000000E+00 0. -1.
          6    1    1    2  501    0 -0.29328433497E+02  0.63453949337E+02 -0.41969601136E+03  0.45892842868E+03  0.17200000000E+03 0. -1.
         -6    1    1    2    0  502  0.29328433497E+02 -0.63453949337E+02  0.78743105316E+02  0.20167061594E+03  0.17200000000E+03 0. -1.
</event>
<event>
 4    1  0.1235203E+000  0.4688766E+03  0.7818608E-02  0.1022238E+00
         21   -1    0    0  503  502  0.00000000000E+00  0.00000000000E+00  0.16753858581E+03  0.16753858581E+03  0.00000000000E+00 0. -1.
         21   -1    0    0  501  503 -0.00000000000E+00 -0.00000000000E+00 -0.14965885698E+04  0.14965885698E+04  0.00000000000E+00 0.  1.
          6    1    1    2  501    0  0.37738559856E+03  0.21872669342E+03 -0.37247015992E+03  0.59881489330E+03  0.17200000000E+03 0.  1.
         -6    1    1    2    0  502 -0.37738559856E+03 -0.21872669342E+03 -0.95657982411E+03  0.10653122623E+04  0.17200000000E+03 0.  1.
</event>
<event>
 4    1  0.1235203E+000  0.2225234E+03  0.7818608E-02  0.1132016E+00
         21   -1    0    0  501  502  0.00000000000E+00  0.00000000000E+00  0.14895211710E+03  0.14895211710E+03  0.00000000000E+00 0.  1.
         21   -1    0    0  502  503 -0.00000000000E+00 -0.00000000000E+00 -0.34326033409E+03  0.34326033409E+03  0.00000000000E+00 0. -1.
          6    1    1    2  501    0 -0.10498956690E+03  0.94391944087E+02 -0.53445704925E+02  0.22885168044E+03  0.17200000000E+03 0. -1.
         -6    1    1    2    0  503  0.10498956690E+03 -0.94391944087E+02 -0.14086251207E+03  0.26336077075E+03  0.17200000000E+03 0. -1.
</event>
<event>
 4    1  0.1235203E+000  0.1826097E+03  0.7818608E-02  0.1165301E+00
         21   -1    0    0  501  502  0.00000000000E+00  0.00000000000E+00  0.27261636785E+03  0.27261636785E+03  0.00000000000E+00 0.  1.
         21   -1    0    0  502  503 -0.00000000000E+00 -0.00000000000E+00 -0.14117854426E+03  0.14117854426E+03  0.00000000000E+00 0.  1.
          6    1    1    2  501    0 -0.61337572537E+02  0.43581078962E-01  0.14133784753E+03  0.23091705621E+03  0.17200000000E+03 0.  1.
         -6    1    1    2    0  503  0.61337572537E+02 -0.43581078962E-01 -0.99000239336E+01  0.18287785590E+03  0.17200000000E+03 0.  1.
</event>
<event>
 4    1  0.1235203E+000  0.2231548E+03  0.7818608E-02  0.1131553E+00
         21   -1    0    0  501  502  0.00000000000E+00  0.00000000000E+00  0.16579448303E+03  0.16579448303E+03  0.00000000000E+00 0.  1.
         21   -1    0    0  502  503 -0.00000000000E+00 -0.00000000000E+00 -0.30143891228E+03  0.30143891228E+03  0.00000000000E+00 0. -1.
          6    1    1    2  501    0  0.36996926047E+02  0.13727820252E+03 -0.81796861213E+02  0.23767373420E+03  0.17200000000E+03 0. -1.
         -6    1    1    2    0  503 -0.36996926047E+02 -0.13727820252E+03 -0.53847568041E+02  0.22955966111E+03  0.17200000000E+03 0.  1.
</event>
<event>
 4    1  0.1235203E+000  0.1748867E+03  0.7818608E-02  0.1172846E+00
         21   -1    0    0  501  502  0.00000000000E+00  0.00000000000E+00  0.19768039769E+03  0.19768039769E+03  0.00000000000E+00 0.  1.
         21   -1    0    0  502  503 -0.00000000000E+00 -0.00000000000E+00 -0.22045363768E+03  0.22045363768E+03  0.00000000000E+00 0.  1.
          6    1    1    2  501    0 -0.20842317080E+02 -0.23810550092E+02  0.10277413262E+03  0.20284936976E+03  0.17200000000E+03 0.  1.
         -6    1    1    2    0  503  0.20842317080E+02  0.23810550092E+02 -0.12554737261E+03  0.21528466561E+03  0.17200000000E+03 0.  1.
</event>
<event>
 4    1  0.1235203E+000  0.2454844E+03  0.7818608E-02  0.1116192E+00
         21   -1    0    0  501  502  0.00000000000E+00  0.00000000000E+00  0.64096241146E+02  0.64096241146E+02  0.00000000000E+00 0. -1.
         21   -1    0    0  502  503 -0.00000000000E+00 -0.00000000000E+00 -0.97292374045E+03  0.97292374045E+03  0.00000000000E+00 0.  1.
          6    1    1    2  501    0  0.63308073921E+02  0.16331158264E+03 -0.35930472542E+03  0.43515798390E+03  0.17200000000E+03 0. -1.
         -6    1    1    2    0  503 -0.63308073921E+02 -0.16331158264E+03 -0.54952277388E+03  0.60186199769E+03  0.17200000000E+03 0.  1.
</event>
<event>
 4    1  0.1235203E+000  0.1874621E+03  0.7818608E-02  0.1160770E+00
         21   -1    0    0  503  502  0.00000000000E+00  0.00000000000E+00  0.32858819727E+03  0.32858819727E+03  0.00000000000E+00 0. -1.
         21   -1    0    0  501  503 -0.00000000000E+00 -0.00000000000E+00 -0.10722031503E+03  0.10722031503E+03  0.00000000000E+00 0. -1.
          6    1    1    2  501    0  0.44340335989E+02 -0.59933230925E+02  0.99715120058E+02  0.21233266996E+03  0.17200000000E+03 0. -1.
         -6    1    1    2    0  502 -0.44340335989E+02  0.59933230925E+02  0.12165276218E+03  0.22347584234E+03  0.17200000000E+03 0. -1.
</event>
<event>
 4    1  0.1235203E+000  0.1920066E+03  0.7818608E-02  0.1156664E+00
         21   -1    0    0  501  502  0.00000000000E+00  0.00000000000E+00  0.10242708526E+03  0.10242708526E+03  0.00000000000E+00 0. -1.
         21   -1    0    0  502  503 -0.00000000000E+00 -0.00000000000E+00 -0.36969943951E+03  0.36969943951E+03  0.00000000000E+00 0. -1.
          6    1    1    2  501    0  0.73975923736E+02 -0.42545025068E+02 -0.17201156660E+03  0.25778769462E+03  0.17200000000E+03 0. -1.
         -6    1    1    2    0  503 -0.73975923736E+02  0.42545025068E+02 -0.95260787646E+02  0.21433883016E+03  0.17200000000E+03 0. -1.
</event>
<event>
 4    1  0.1235203E+000  0.1853642E+03  0.7818608E-02  0.1162710E+00
         21   -1    0    0  503  502  0.00000000000E+00  0.00000000000E+00  0.21370382982E+03  0.21370382982E+03  0.00000000000E+00 0. -1.
         21   -1    0    0  501  503 -0.00000000000E+00 -0.00000000000E+00 -0.16406001405E+03  0.16406001405E+03  0.00000000000E+00 0. -1.
          6    1    1    2  501    0 -0.31663299650E+02 -0.61427471877E+02 -0.18738234549E+01  0.18537370380E+03  0.17200000000E+03 0.  1.
         -6    1    1    2    0  502  0.31663299650E+02  0.61427471877E+02  0.51517639226E+02  0.19239014007E+03  0.17200000000E+03 0.  1.
</event>
<event>
 4    1  0.1235203E+000  0.1972418E+03  0.7818608E-02  0.1152087E+00
         21   -1    0    0  501  502  0.00000000000E+00  0.00000000000E+00  0.14132747803E+03  0.14132747803E+03  0.00000000000E+00 0. -1.
         21   -1    0    0  502  503 -0.00000000000E+00 -0.00000000000E+00 -0.39287441921E+03  0.39287441921E+03  0.00000000000E+00 0. -1.
          6    1    1    2  501    0 -0.75493095111E+02 -0.60175840862E+02 -0.27190559070E+03  0.33591217525E+03  0.17200000000E+03 0.  1.
         -6    1    1    2    0  503  0.75493095111E+02  0.60175840862E+02  0.20358649515E+02  0.19828972198E+03  0.17200000000E+03 0.  1.
</event>
<event>
 4    1  0.1235203E+000  0.2020665E+03  0.7818608E-02  0.1148007E+00
         21   -1    0    0  503  502  0.00000000000E+00  0.00000000000E+00  0.74436814465E+02  0.74436814465E+02  0.00000000000E+00 0.  1.
         21   -1    0    0  501  503 -0.00000000000E+00 -0.00000000000E+00 -0.64611220919E+03  0.64611220919E+03  0.00000000000E+00 0.  1.
          6    1    1    2  501    0 -0.10028776176E+03 -0.34485478488E+02 -0.14582637186E+03  0.24919111966E+03  0.17200000000E+03 0.  1.
         -6    1    1    2    0  502  0.10028776176E+03  0.34485478488E+02 -0.42584902287E+03  0.47135790400E+03  0.17200000000E+03 0.  1.
</event>
<event>
 4    1  0.1235203E+000  0.1934114E+03  0.7818608E-02  0.1155420E+00
         21   -1    0    0  501  502  0.00000000000E+00  0.00000000000E+00  0.26814068672E+04  0.26814068672E+04  0.00000000000E+00 0.  1.
         21   -1    0    0  502  503 -0.00000000000E+00 -0.00000000000E+00 -0.13952217001E+02  0.13952217001E+02  0.00000000000E+00 0. -1.
          6    1    1    2  501    0  0.62996592432E+02 -0.62091838795E+02  0.13469536259E+04  0.13607689140E+04  0.17200000000E+03 0.  1.
         -6    1    1    2    0  503 -0.62996592432E+02  0.62091838795E+02  0.13205010243E+04  0.13345901702E+04  0.17200000000E+03 0. -1.
</event>
<event>
 4    1  0.1235203E+000  0.2113306E+03  0.7818608E-02  0.1140517E+00
         21   -1    0    0  503  502  0.00000000000E+00  0.00000000000E+00  0.76084227176E+02  0.76084227176E+02  0.00000000000E+00 0.  1.
         21   -1    0    0  501  503 -0.00000000000E+00 -0.00000000000E+00 -0.78474126162E+03  0.78474126162E+03  0.00000000000E+00 0. -1.
          6    1    1    2  501    0  0.10968567012E+03 -0.55187745260E+02 -0.57039240608E+03  0.60828293612E+03  0.17200000000E+03 0. -1.
         -6    1    1    2    0  502 -0.10968567012E+03  0.55187745260E+02 -0.13826462836E+03  0.25254255268E+03  0.17200000000E+03 0.  1.
</event>
<event>
 4    1  0.1235203E+000  0.1822978E+03  0.7818608E-02  0.1165598E+00
         21   -1    0    0  501  502  0.00000000000E+00  0.00000000000E+00  0.76274109960E+03  0.76274109960E+03  0.00000000000E+00 0. -1.
         21   -1    0    0  502  503 -0.00000000000E+00 -0.00000000000E+00 -0.43614303568E+02  0.43614303568E+02  0.00000000000E+00 0. -1.
          6    1    1    2  501    0  0.22857949582E+02  0.55910789437E+02  0.34668923533E+03  0.39169621919E+03  0.17200000000E+03 0.  1.
         -6    1    1    2    0  503 -0.22857949582E+02 -0.55910789437E+02  0.37243756070E+03  0.41465918397E+03  0.17200000000E+03 0.  1.
</event>
<event>
 4    1  0.1235203E+000  0.1940482E+03  0.7818608E-02  0.1154860E+00
         21   -1    0    0  501  502  0.00000000000E+00  0.00000000000E+00  0.69823533420E+02  0.69823533420E+02  0.00000000000E+00 0.  1.
         21   -1    0    0  502  503 -0.00000000000E+00 -0.00000000000E+00 -0.56717429416E+03  0.56717429416E+03  0.00000000000E+00 0.  1.
          6    1    1    2  501    0 -0.27562296976E+02 -0.85504479717E+02 -0.17804716136E+03  0.26335430115E+03  0.17200000000E+03 0. -1.
         -6    1    1    2    0  503  0.27562296976E+02  0.85504479717E+02 -0.31930359938E+03  0.37364352643E+03  0.17200000000E+03 0. -1.
</event>
<event>
 4    1  0.1235203E+000  0.2103798E+03  0.7818608E-02  0.1141266E+00
         21   -1    0    0  501  502  0.00000000000E+00  0.00000000000E+00  0.66343653827E+03  0.66343653827E+03  0.00000000000E+00 0.  1.
         21   -1    0    0  502  503 -0.00000000000E+00 -0.00000000000E+00 -0.77978997083E+02  0.77978997083E+02  0.00000000000E+00 0.  1.
          6    1    1    2  501    0 -0.21460986432E+02 -0.11922697687E+03  0.43363603059E+03  0.48197495057E+03  0.17200000000E+03 0. -1.
         -6    1    1    2    0  503  0.21460986432E+02  0.11922697687E+03  0.15182151059E+03  0.25944058478E+03  0.17200000000E+03 0. -1.
</event>
<event>
 4    1  0.1235203E+000  0.2029137E+03  0.7818608E-02  0.1147304E+00
         21   -1    0    0  501  502  0.00000000000E+00  0.00000000000E+00  0.12116571038E+03  0.12116571038E+03  0.00000000000E+00 0. -1.
         21   -1    0    0  502  503 -0.00000000000E+00 -0.00000000000E+00 -0.33984652140E+03  0.33984652140E+03  0.00000000000E+00 0. -1.
          6    1    1    2  501    0  0.10606376754E+03 -0.18451267349E+02 -0.10713391373E+03  0.22945946815E+03  0.17200000000E+03 0. -1.
         -6    1    1    2    0  503 -0.10606376754E+03  0.18451267349E+02 -0.11154689729E+03  0.23155276363E+03  0.17200000000E+03 0. -1.
</event>
<event>
 4    1  0.1235203E+000  0.2105751E+03  0.7818608E-02  0.1141111E+00
         21   -1    0    0  501  502  0.00000000000E+00  0.00000000000E+00  0.84317600654E+03  0.84317600654E+03  0.00000000000E+00 0. -1.
         21   -1    0    0  502  503 -0.00000000000E+00 -0.00000000000E+00 -0.71901605914E+02  0.71901605914E+02  0.00000000000E+00 0. -1.
          6    1    1    2  501    0  0.63066768815E+02 -0.10382889511E+03  0.62276261037E+03  0.65740027811E+03  0.17200000000E+03 0. -1.
         -6    1    1    2    0  503 -0.63066768815E+02  0.10382889511E+03  0.14851179026E+03  0.25767733434E+03  0.17200000000E+03 0. -1.
</event>
<event>
 4    1  0.1235203E+000  0.2305357E+03  0.7818608E-02  0.1126263E+00
         21   -1    0    0  503  502  0.00000000000E+00  0.00000000000E+00  0.53034893544E+02  0.53034893544E+02  0.00000000000E+00 0. -1.
         21   -1    0    0  501  503 -0.00000000000E+00 -0.00000000000E+00 -0.10600569832E+04  0.10600569832E+04  0.00000000000E+00 0.  1.
          6    1    1    2  501    0  0.13053242577E+02  0.15294543727E+03 -0.63363555948E+03  0.67427050666E+03  0.17200000000E+03 0.  1.
         -6    1    1    2    0  502 -0.13053242577E+02 -0.15294543727E+03 -0.37338653022E+03  0.43882137012E+03  0.17200000000E+03 0.  1.
</event>
<event>
 4    1  0.1235203E+000  0.1743766E+03  0.7818608E-02  0.1173359E+00
         21   -1    0    0  501  502  0.00000000000E+00  0.00000000000E+00  0.60716168267E+02  0.60716168267E+02  0.00000000000E+00 0. -1.
         21   -1    0    0  502  503 -0.00000000000E+00 -0.00000000000E+00 -0.54855760878E+03  0.54855760878E+03  0.00000000000E+00 0. -1.
          6    1    1    2  501    0  0.12483035049E+02 -0.25833448826E+02 -0.15404290650E+03  0.23267232385E+03  0.17200000000E+03 0. -1.
         -6    1    1    2    0  503 -0.12483035049E+02  0.25833448826E+02 -0.33379853401E+03  0.37660145320E+03  0.17200000000E+03 0. -1.
</event>
<event>
 4    1  0.1235203E+000  0.2122210E+03  0.7818608E-02  0.1139819E+00
         21   -1    0    0  503  502  0.00000000000E+00  0.00000000000E+00  0.13092347000E+03  0.13092347000E+03  0.00000000000E+00 0.  1.
         21   -1    0    0  501  503 -0.00000000000E+00 -0.00000000000E+00 -0.34442853790E+03  0.34442853790E+03  0.00000000000E+00 0. -1.
          6    1    1    2  501    0  0.40359375490E+02  0.11757913264E+03 -0.11513180082E+03  0.24143956424E+03  0.17200000000E+03 0.  1.
         -6    1    1    2    0  502 -0.40359375490E+02 -0.11757913264E+03 -0.98373267079E+02  0.23391244366E+03  0.17200000000E+03 0.  1.
</event>
<event>
 4    1  0.1235203E+000  0.3007050E+03  0.7818608E-02  0.1084889E+00
         21   -1    0    0  503  502  0.00000000000E+00  0.00000000000E+00  0.14142081793E+04  0.14142081793E+04  0.00000000000E+00 0.  1.
         21   -1    0    0  501  503 -0.00000000000E+00 -0.00000000000E+00 -0.64017441010E+02  0.64017441010E+02  0.00000000000E+00 0. -1.
          6    1    1    2  501    0 -0.17314784187E+03  0.17566816992E+03  0.64927270549E+03  0.71552674804E+03  0.17200000000E+03 0. -1.
         -6    1    1    2    0  502  0.17314784187E+03 -0.17566816992E+03  0.70091803285E+03  0.76269887232E+03  0.17200000000E+03 0.  1.
</event>
<event>
 4    1  0.1235203E+000  0.1793853E+03  0.7818608E-02  0.1168399E+00
         21   -1    0    0  501  502  0.00000000000E+00  0.00000000000E+00  0.86966414557E+02  0.86966414557E+02  0.00000000000E+00 0.  1.
         21   -1    0    0  502  503 -0.00000000000E+00 -0.00000000000E+00 -0.43071963105E+03  0.43071963105E+03  0.00000000000E+00 0. -1.
          6    1    1    2  501    0 -0.28575727666E+02  0.42172409530E+02 -0.74704516916E+02  0.19431893676E+03  0.17200000000E+03 0.  1.
         -6    1    1    2    0  503  0.28575727666E+02 -0.42172409530E+02 -0.26904869958E+03  0.32336710884E+03  0.17200000000E+03 0.  1.
</event>
<event>
 4    1  0.1235203E+000  0.1872153E+03  0.7818608E-02  0.1160997E+00
         21   -1    0    0  503  502  0.00000000000E+00  0.00000000000E+00  0.13864166650E+03  0.13864166650E+03  0.00000000000E+00 0. -1.
         21   -1    0    0  501  503 -0.00000000000E+00 -0.00000000000E+00 -0.25341146209E+03  0.25341146209E+03  0.00000000000E+00 0. -1.
          6    1    1    2  501    0 -0.52575528454E+02  0.51974770946E+02 -0.47809867381E+02  0.19322356592E+03  0.17200000000E+03 0. -1.
         -6    1    1    2    0  502  0.52575528454E+02 -0.51974770946E+02 -0.66959928207E+02  0.19882956267E+03  0.17200000000E+03 0. -1.
</event>
<event>
 4    1  0.1235203E+000  0.2047919E+03  0.7818608E-02  0.1145758E+00
         21   -1    0    0  501  502  0.00000000000E+00  0.00000000000E+00  0.30770176663E+03  0.30770176663E+03  0.00000000000E+00 0. -1.
         21   -1    0    0  502  503 -0.00000000000E+00 -0.00000000000E+00 -0.14054061880E+03  0.14054061880E+03  0.00000000000E+00 0. -1.
          6    1    1    2  501    0 -0.70457565803E+02 -0.85973450609E+02  0.12251238433E+03  0.23863986906E+03  0.17200000000E+03 0. -1.
         -6    1    1    2    0  503  0.70457565803E+02  0.85973450609E+02  0.44648763498E+02  0.20960251637E+03  0.17200000000E+03 0. -1.
</event>
<event>
 4    1  0.1235203E+000  0.2551733E+03  0.7818608E-02  0.1110078E+00
         21   -1    0    0  501  502  0.00000000000E+00  0.00000000000E+00  0.50969800939E+03  0.50969800939E+03  0.00000000000E+00 0.  1.
         21   -1    0    0  502  503 -0.00000000000E+00 -0.00000000000E+00 -0.16255074466E+03  0.16255074466E+03  0.00000000000E+00 0.  1.
          6    1    1    2  501    0  0.18258313125E+03  0.46827311655E+02  0.32910078066E+03  0.41643813558E+03  0.17200000000E+03 0.  1.
         -6    1    1    2    0  503 -0.18258313125E+03 -0.46827311655E+02  0.18046484070E+02  0.25581061847E+03  0.17200000000E+03 0.  1.
</event>
<event>
 4    1  0.1235203E+000  0.2734063E+03  0.7818608E-02  0.1099346E+00
         21   -1    0    0  503  502  0.00000000000E+00  0.00000000000E+00  0.14053519157E+03  0.14053519157E+03  0.00000000000E+00 0. -1.
         21   -1    0    0  501  503 -0.00000000000E+00 -0.00000000000E+00 -0.57798038288E+03  0.57798038288E+03  0.00000000000E+00 0.  1.
          6    1    1    2  501    0  0.26684905927E+02 -0.21084334486E+03 -0.11728555930E+03  0.29750109697E+03  0.17200000000E+03 0. -1.
         -6    1    1    2    0  502 -0.26684905927E+02  0.21084334486E+03 -0.32015963201E+03  0.42101447748E+03  0.17200000000E+03 0.  1.
</event>
<event>
 4    1  0.1235203E+000  0.1965248E+03  0.7818608E-02  0.1152705E+00
         21   -1    0    0  503  502  0.00000000000E+00  0.00000000000E+00  0.16789376787E+04  0.16789376787E+04  0.00000000000E+00 0.  1.
         21   -1    0    0  501  503 -0.00000000000E+00 -0.00000000000E+00 -0.23092594327E+02  0.23092594327E+02  0.00000000000E+00 0.  1.
          6    1    1    2  501    0  0.14345827595E+02  0.93979802273E+02  0.88068280459E+03  0.90234373069E+03  0.17200000000E+03 0.  1.
         -6    1    1    2    0  502 -0.14345827595E+02 -0.93979802273E+02  0.77516227976E+03  0.79968654232E+03  0.17200000000E+03 0.  1.
</event>
<event>
 4    1  0.1235203E+000  0.1758254E+03  0.7818608E-02  0.1171906E+00
         21   -1    0    0  503  502  0.00000000000E+00  0.00000000000E+00  0.35147955549E+03  0.35147955549E+03  0.00000000000E+00 0.  1.
         21   -1    0    0  501  503 -0.00000000000E+00 -0.00000000000E+00 -0.91262694971E+02  0.91262694971E+02  0.00000000000E+00 0.  1.
          6    1    1    2  501    0 -0.25681191865E+02 -0.25904320094E+02  0.87967441799E+02  0.19660322538E+03  0.17200000000E+03 0.  1.
         -6    1    1    2    0  502  0.25681191865E+02  0.25904320094E+02  0.17224941872E+03  0.24613902507E+03  0.17200000000E+03 0.  1.
</event>
<event>
 4    1  0.1235203E+000  0.1889024E+03  0.7818608E-02  0.1159455E+00
         21   -1    0    0  503  502  0.00000000000E+00  0.00000000000E+00  0.23736554707E+03  0.23736554707E+03  0.00000000000E+00 0. -1.
         21   -1    0    0  501  503 -0.00000000000E+00 -0.00000000000E+00 -0.15360154477E+03  0.15360154477E+03  0.00000000000E+00 0. -1.
          6    1    1    2  501    0 -0.77826119589E+02 -0.65743534105E+01  0.13370569201E+02  0.18937502247E+03  0.17200000000E+03 0. -1.
         -6    1    1    2    0  502  0.77826119589E+02  0.65743534105E+01  0.70393433099E+02  0.20159206938E+03  0.17200000000E+03 0. -1.
</event>
<event>
 4    1  0.1235203E+000  0.3063140E+03  0.7818608E-02  0.1082126E+00
         21   -1    0    0  501  502  0.00000000000E+00  0.00000000000E+00  0.19810485851E+03  0.19810485851E+03  0.00000000000E+00 0.  1.
         21   -1    0    0  502  503 -0.00000000000E+00 -0.00000000000E+00 -0.64454352185E+03  0.64454352185E+03  0.00000000000E+00 0. -1.
          6    1    1    2  501    0  0.17336733798E+03  0.18490006387E+03 -0.62594882172E+01  0.30637795072E+03  0.17200000000E+03 0.  1.
         -6    1    1    2    0  503 -0.17336733798E+03 -0.18490006387E+03 -0.44017917512E+03  0.53627042964E+03  0.17200000000E+03 0.  1.
</event>
<event>
 4    1  0.1235203E+000  0.1819670E+03  0.7818608E-02  0.1165913E+00
         21   -1    0    0  503  502  0.00000000000E+00  0.00000000000E+00  0.55200322395E+02  0.55200322395E+02  0.00000000000E+00 0.  1.
         21   -1    0    0  501  503 -0.00000000000E+00 -0.00000000000E+00 -0.66673426778E+03  0.66673426778E+03  0.00000000000E+00 0.  1.
          6    1    1    2  501    0 -0.56016562650E+02 -0.19751717647E+02 -0.19143986792E+03  0.26412347240E+03  0.17200000000E+03 0.  1.
         -6    1    1    2    0  502  0.56016562650E+02  0.19751717647E+02 -0.42009407746E+03  0.45781111777E+03  0.17200000000E+03 0.  1.
</event>
<event>
 4    1  0.1235203E+000  0.1968416E+03  0.7818608E-02  0.1152431E+00
         21   -1    0    0  501  502  0.00000000000E+00  0.00000000000E+00  0.21319578393E+03  0.21319578393E+03  0.00000000000E+00 0.  1.
         21   -1    0    0  502  503 -0.00000000000E+00 -0.00000000000E+00 -0.31817663661E+03  0.31817663661E+03  0.00000000000E+00 0.  1.
          6    1    1    2  501    0  0.93773126483E+02  0.19215400432E+02  0.12148870969E+03  0.23131393699E+03  0.17200000000E+03 0.  1.
         -6    1    1    2    0  503 -0.93773126483E+02 -0.19215400432E+02 -0.22646956238E+03  0.30005848354E+03  0.17200000000E+03 0.  1.
</event>
<event>
 4    1  0.1235203E+000  0.1951162E+03  0.7818608E-02  0.1153926E+00
         21   -1    0    0  501  502  0.00000000000E+00  0.00000000000E+00  0.14956366616E+04  0.14956366616E+04  0.00000000000E+00 0.  1.
         21   -1    0    0  502  503 -0.00000000000E+00 -0.00000000000E+00 -0.40450468255E+02  0.40450468255E+02  0.00000000000E+00 0.  1.
          6    1    1    2  501    0  0.91553732122E+02  0.10210998607E+02  0.11952362267E+04  0.12110573843E+04  0.17200000000E+03 0. -1.
         -6    1    1    2    0  503 -0.91553732122E+02 -0.10210998607E+02  0.25994996662E+03  0.32502974557E+03  0.17200000000E+03 0. -1.
</event>
<event>
 4    1  0.1235203E+000  0.1807893E+03  0.7818608E-02  0.1167041E+00
         21   -1    0    0  503  502  0.00000000000E+00  0.00000000000E+00  0.39678245714E+03  0.39678245714E+03  0.00000000000E+00 0. -1.
         21   -1    0    0  501  503 -0.00000000000E+00 -0.00000000000E+00 -0.91122750020E+02  0.91122750020E+02  0.00000000000E+00 0. -1.
          6    1    1    2  501    0  0.24135579209E+02 -0.50182152000E+02  0.77242087080E+02  0.19659886719E+03  0.17200000000E+03 0. -1.
         -6    1    1    2    0  502 -0.24135579209E+02  0.50182152000E+02  0.22841762004E+03  0.29130633997E+03  0.17200000000E+03 0. -1.
</event>
<event>
 4    1  0.1235203E+000  0.1820614E+03  0.7818608E-02  0.1165823E+00
         21   -1    0    0  503  502  0.00000000000E+00  0.00000000000E+00  0.39680323885E+03  0.39680323885E+03  0.00000000000E+00 0.  1.
         21   -1    0    0  501  503 -0.00000000000E+00 -0.00000000000E+00 -0.85360326592E+02  0.85360326592E+02  0.00000000000E+00 0.  1.
          6    1    1    2  501    0 -0.54874315900E+02 -0.23476945687E+02  0.12045297405E+03  0.21830088521E+03  0.17200000000E+03 0.  1.
         -6    1    1    2    0  502  0.54874315900E+02  0.23476945687E+02  0.19098993820E+03  0.26386268023E+03  0.17200000000E+03 0.  1.
</event>
<event>
 4    1  0.1235203E+000  0.1985960E+03  0.7818608E-02  0.1150929E+00
         21   -1    0    0  501  502  0.00000000000E+00  0.00000000000E+00  0.19183138545E+02  0.19183138545E+02  0.00000000000E+00 0. -1.
         21   -1    0    0  502  503 -0.00000000000E+00 -0.00000000000E+00 -0.21198864819E+04  0.21198864819E+04  0.00000000000E+00 0.  1.
          6    1    1    2  501    0 -0.89549426605E+01  0.98874529320E+02 -0.12360350819E+04  0.12518878094E+04  0.17200000000E+03 0.  1.
         -6    1    1    2    0  503  0.89549426605E+01 -0.98874529320E+02 -0.86466826149E+03  0.88718181112E+03  0.17200000000E+03 0.  1.
</event>
<event>
 4    1  0.1235203E+000  0.1736765E+03  0.7818608E-02  0.1174067E+00
         21   -1    0    0  503  502  0.00000000000E+00  0.00000000000E+00  0.98556672570E+02  0.98556672570E+02  0.00000000000E+00 0.  1.
         21   -1    0    0  501  503 -0.00000000000E+00 -0.00000000000E+00 -0.46582122843E+03  0.46582122843E+03  0.00000000000E+00 0.  1.
          6    1    1    2  501    0  0.47458981307E+01  0.23600796293E+02 -0.34889548836E+03  0.38973270703E+03  0.17200000000E+03 0.  1.
         -6    1    1    2    0  502 -0.47458981307E+01 -0.23600796293E+02 -0.18369067501E+02  0.17464519397E+03  0.17200000000E+03 0.  1.
</event>
<event>
 4    1  0.1235203E+000  0.2121163E+03  0.7818608E-02  0.1139901E+00
         21   -1    0    0  503  502  0.00000000000E+00  0.00000000000E+00  0.48090820054E+03  0.48090820054E+03  0.00000000000E+00 0.  1.
         21   -1    0    0  501  503 -0.00000000000E+00 -0.00000000000E+00 -0.13415933506E+03  0.13415933506E+03  0.00000000000E+00 0.  1.
          6    1    1    2  501    0  0.28364263388E+02 -0.12085031217E+03  0.41953230918E+01  0.21215779535E+03  0.17200000000E+03 0.  1.
         -6    1    1    2    0  502 -0.28364263388E+02  0.12085031217E+03  0.34255354239E+03  0.40290974026E+03  0.17200000000E+03 0.  1.
</event>
<event>
 4    1  0.1235203E+000  0.1756612E+03  0.7818608E-02  0.1172069E+00
         21   -1    0    0  503  502  0.00000000000E+00  0.00000000000E+00  0.14459594914E+03  0.14459594914E+03  0.00000000000E+00 0. -1.
         21   -1    0    0  501  503 -0.00000000000E+00 -0.00000000000E+00 -0.26856241087E+03  0.26856241087E+03  0.00000000000E+00 0. -1.
          6    1    1    2  501    0 -0.14329371887E+02  0.32673024831E+02 -0.15560639731E+03  0.23467042492E+03  0.17200000000E+03 0. -1.
         -6    1    1    2    0  502  0.14329371887E+02 -0.32673024831E+02  0.31639935577E+02  0.17848793509E+03  0.17200000000E+03 0. -1.
</event>
<event>
 4    1  0.1235203E+000  0.1738549E+03  0.7818608E-02  0.1173886E+00
         21   -1    0    0  503  502  0.00000000000E+00  0.00000000000E+00  0.27833986984E+02  0.27833986984E+02  0.00000000000E+00 0.  1.
         21   -1    0    0  501  503 -0.00000000000E+00 -0.00000000000E+00 -0.11491242052E+04  0.11491242052E+04  0.00000000000E+00 0.  1.
          6    1    1    2  501    0  0.68151362204E+01 -0.24394328015E+02 -0.69865647099E+03  0.71996277250E+03  0.17200000000E+03 0. -1.
         -6    1    1    2    0  502 -0.68151362204E+01  0.24394328015E+02 -0.42263374719E+03  0.45699541965E+03  0.17200000000E+03 0. -1.
</event>
<event>
 4    1  0.1235203E+000  0.1778681E+03  0.7818608E-02  0.1169882E+00
         21   -1    0    0  501  502  0.00000000000E+00  0.00000000000E+00  0.43657287302E+02  0.43657287302E+02  0.00000000000E+00 0. -1.
         21   -1    0    0  502  503 -0.00000000000E+00 -0.00000000000E+00 -0.73213997081E+03  0.73213997081E+03  0.00000000000E+00 0. -1.
          6    1    1    2  501    0 -0.44280633021E+02  0.96068148766E+01 -0.30505621322E+03  0.35312371569E+03  0.17200000000E+03 0. -1.
         -6    1    1    2    0  503  0.44280633021E+02 -0.96068148766E+01 -0.38342647028E+03  0.42267354242E+03  0.17200000000E+03 0. -1.
</event>
<event>
 4    1  0.1235203E+000  0.1787461E+03  0.7818608E-02  0.1169022E+00
         21   -1    0    0  503  502  0.00000000000E+00  0.00000000000E+00  0.17166548318E+03  0.17166548318E+03  0.00000000000E+00 0. -1.
         21   -1    0    0  501  503 -0.00000000000E+00 -0.00000000000E+00 -0.25407585908E+03  0.25407585908E+03  0.00000000000E+00 0. -1.
          6    1    1    2  501    0  0.45513449267E+02 -0.17167095780E+02 -0.15129604153E+03  0.23418086050E+03  0.17200000000E+03 0. -1.
         -6    1    1    2    0  502 -0.45513449267E+02  0.17167095780E+02  0.68885665636E+02  0.19156048176E+03  0.17200000000E+03 0. -1.
</event>
<event>
 4    1  0.1235203E+000  0.2690084E+03  0.7818608E-02  0.1101848E+00
         21   -1    0    0  503  502  0.00000000000E+00  0.00000000000E+00  0.14339030616E+03  0.14339030616E+03  0.00000000000E+00 0. -1.
         21   -1    0    0  501  503 -0.00000000000E+00 -0.00000000000E+00 -0.73608601430E+03  0.73608601430E+03  0.00000000000E+00 0. -1.
          6    1    1    2  501    0 -0.19110143376E+03 -0.79131407811E+02 -0.54290730624E+03  0.60589923325E+03  0.17200000000E+03 0. -1.
         -6    1    1    2    0  502  0.19110143376E+03  0.79131407811E+02 -0.49788401898E+02  0.27357708722E+03  0.17200000000E+03 0. -1.
</event>
<event>
 4    1  0.1235203E+000  0.1831590E+03  0.7818608E-02  0.1164780E+00
         21   -1    0    0  501  502  0.00000000000E+00  0.00000000000E+00  0.23806387445E+03  0.23806387445E+03  0.00000000000E+00 0. -1.
         21   -1    0    0  502  503 -0.00000000000E+00 -0.00000000000E+00 -0.35649244565E+03  0.35649244565E+03  0.00000000000E+00 0. -1.
          6    1    1    2  501    0 -0.46007661192E+02  0.42971010987E+02  0.17195899184E+03  0.25123118347E+03  0.17200000000E+03 0. -1.
         -6    1    1    2    0  503  0.46007661192E+02 -0.42971010987E+02 -0.29038756304E+03  0.34332513663E+03  0.17200000000E+03 0. -1.
</event>
<event>
 4    1  0.1235203E+000  0.2522178E+03  0.7818608E-02  0.1111911E+00
         21   -1    0    0  501  502  0.00000000000E+00  0.00000000000E+00  0.71510094414E+03  0.71510094414E+03  0.00000000000E+00 0. -1.
         21   -1    0    0  502  503 -0.00000000000E+00 -0.00000000000E+00 -0.19901015864E+03  0.19901015864E+03  0.00000000000E+00 0. -1.
          6    1    1    2  501    0 -0.26864496433E+02 -0.18250507245E+03  0.59792965365E+03  0.64894812840E+03  0.17200000000E+03 0. -1.
         -6    1    1    2    0  503  0.26864496433E+02  0.18250507245E+03 -0.81838868157E+02  0.26516297437E+03  0.17200000000E+03 0. -1.
</event>
<event>
 4    1  0.1235203E+000  0.1852396E+03  0.7818608E-02  0.1162826E+00
         21   -1    0    0  501  502  0.00000000000E+00  0.00000000000E+00  0.14246609375E+04  0.14246609375E+04  0.00000000000E+00 0. -1.
         21   -1    0    0  502  503 -0.00000000000E+00 -0.00000000000E+00 -0.24971504933E+02  0.24971504933E+02  0.00000000000E+00 0. -1.
          6    1    1    2  501    0 -0.36143642664E+02 -0.58509238437E+02  0.83637207248E+03  0.85663991123E+03  0.17200000000E+03 0.  1.
         -6    1    1    2    0  503  0.36143642664E+02  0.58509238437E+02  0.56331736007E+03  0.59299253119E+03  0.17200000000E+03 0.  1.
</event>
<event>
 4    1  0.1235203E+000  0.1850224E+03  0.7818608E-02  0.1163029E+00
         21   -1    0    0  503  502  0.00000000000E+00  0.00000000000E+00  0.49687791197E+03  0.49687791197E+03  0.00000000000E+00 0.  1.
         21   -1    0    0  501  503 -0.00000000000E+00 -0.00000000000E+00 -0.14749490173E+03  0.14749490173E+03  0.00000000000E+00 0.  1.
          6    1    1    2  501    0 -0.20390650828E+02  0.65065544012E+02 -0.60501665516E+02  0.19466318396E+03  0.17200000000E+03 0.  1.
         -6    1    1    2    0  502  0.20390650828E+02 -0.65065544012E+02  0.40988467576E+03  0.44970962974E+03  0.17200000000E+03 0.  1.
</event>
<event>
 4    1  0.1235203E+000  0.1924761E+03  0.7818608E-02  0.1156247E+00
         21   -1    0    0  501  502  0.00000000000E+00  0.00000000000E+00  0.53249945808E+03  0.53249945808E+03  0.00000000000E+00 0. -1.
         21   -1    0    0  502  503 -0.00000000000E+00 -0.00000000000E+00 -0.11748238243E+03  0.11748238243E+03  0.00000000000E+00 0. -1.
          6    1    1    2  501    0 -0.70561041972E+01  0.86100351686E+02  0.41504748793E+03  0.45750571188E+03  0.17200000000E+03 0. -1.
         -6    1    1    2    0  503  0.70561041972E+01 -0.86100351686E+02 -0.30412281381E-01  0.19247612863E+03  0.17200000000E+03 0. -1.
</event>
<event>
 4    1  0.1235203E+000  0.2084059E+03  0.7818608E-02  0.1142835E+00
         21   -1    0    0  501  502  0.00000000000E+00  0.00000000000E+00  0.12566258779E+03  0.12566258779E+03  0.00000000000E+00 0. -1.
         21   -1    0    0  502  503 -0.00000000000E+00 -0.00000000000E+00 -0.36824265498E+03  0.36824265498E+03  0.00000000000E+00 0. -1.
          6    1    1    2  501    0  0.25363914673E+02  0.11491606998E+03 -0.60097046292E+02  0.21689787062E+03  0.17200000000E+03 0. -1.
         -6    1    1    2    0  503 -0.25363914673E+02 -0.11491606998E+03 -0.18248302089E+03  0.27700737215E+03  0.17200000000E+03 0. -1.
</event>
<event>
 4    1  0.1235203E+000  0.1821247E+03  0.7818608E-02  0.1165762E+00
         21   -1    0    0  501  502  0.00000000000E+00  0.00000000000E+00  0.12496460705E+02  0.12496460705E+02  0.00000000000E+00 0. -1.
         21   -1    0    0  502  503 -0.00000000000E+00 -0.00000000000E+00 -0.27623637089E+04  0.27623637089E+04  0.00000000000E+00 0. -1.
          6    1    1    2  501    0  0.44724514972E+02  0.39813472031E+02 -0.11005208542E+04  0.11154889265E+04  0.17200000000E+03 0. -1.
         -6    1    1    2    0  503 -0.44724514972E+02 -0.39813472031E+02 -0.16493463940E+04  0.16593712430E+04  0.17200000000E+03 0. -1.
</event>
<event>
 4    1  0.1235203E+000  0.1911235E+03  0.7818608E-02  0.1157452E+00
         21   -1    0    0  503  502  0.00000000000E+00  0.00000000000E+00  0.13180382283E+04  0.13180382283E+04  0.00000000000E+00 0. -1.
         21   -1    0    0  501  503 -0.00000000000E+00 -0.00000000000E+00 -0.50756294772E+02  0.50756294772E+02  0.00000000000E+00 0. -1.
          6    1    1    2  501    0 -0.72952141949E+02  0.40276123533E+02  0.17250852865E+03  0.25746334418E+03  0.17200000000E+03 0. -1.
         -6    1    1    2    0  502  0.72952141949E+02 -0.40276123533E+02  0.10947734049E+04  0.11113311789E+04  0.17200000000E+03 0. -1.
</event>
<event>
 4    1  0.1235203E+000  0.1916049E+03  0.7818608E-02  0.1157022E+00
         21   -1    0    0  503  502  0.00000000000E+00  0.00000000000E+00  0.14691710650E+03  0.14691710650E+03  0.00000000000E+00 0. -1.
         21   -1    0    0  501  503 -0.00000000000E+00 -0.00000000000E+00 -0.28303685689E+03  0.28303685689E+03  0.00000000000E+00 0. -1.
          6    1    1    2  501    0 -0.79621041241E+02  0.28087744490E+02 -0.14163349865E+03  0.23826976212E+03  0.17200000000E+03 0.  1.
         -6    1    1    2    0  502  0.79621041241E+02 -0.28087744490E+02  0.55137482663E+01  0.19168420128E+03  0.17200000000E+03 0.  1.
</event>
<event>
 4    1  0.1235203E+000  0.1756850E+03  0.7818608E-02  0.1172046E+00
         21   -1    0    0  503  502  0.00000000000E+00  0.00000000000E+00  0.27996036587E+03  0.27996036587E+03  0.00000000000E+00 0.  1.
         21   -1    0    0  501  503 -0.00000000000E+00 -0.00000000000E+00 -0.12844785434E+03  0.12844785434E+03  0.00000000000E+00 0.  1.
          6    1    1    2  501    0 -0.91122974699E+01 -0.34614866455E+02  0.15262123383E+03  0.23271971116E+03  0.17200000000E+03 0. -1.
         -6    1    1    2    0  502  0.91122974699E+01  0.34614866455E+02 -0.11087223025E+01  0.17568850904E+03  0.17200000000E+03 0. -1.
</event>
<event>
 4    1  0.1235203E+000  0.2079418E+03  0.7818608E-02  0.1143206E+00
         21   -1    0    0  503  502  0.00000000000E+00  0.00000000000E+00  0.13576076964E+03  0.13576076964E+03  0.00000000000E+00 0.  1.
         21   -1    0    0  501  503 -0.00000000000E+00 -0.00000000000E+00 -0.32616729007E+03  0.32616729007E+03  0.00000000000E+00 0.  1.
          6    1    1    2  501    0 -0.86791417056E+02  0.78249883429E+02 -0.59791513799E+02  0.21636732529E+03  0.17200000000E+03 0.  1.
         -6    1    1    2    0  502  0.86791417056E+02 -0.78249883429E+02 -0.13061500662E+03  0.24556073442E+03  0.17200000000E+03 0.  1.
</event>
<event>
 4    1  0.1235203E+000  0.2521627E+03  0.7818608E-02  0.1111946E+00
         21   -1    0    0  503  502  0.00000000000E+00  0.00000000000E+00  0.12308301677E+04  0.12308301677E+04  0.00000000000E+00 0. -1.
         21   -1    0    0  501  503 -0.00000000000E+00 -0.00000000000E+00 -0.17143423507E+03  0.17143423507E+03  0.00000000000E+00 0. -1.
          6    1    1    2  501    0 -0.18068110703E+03  0.36828882752E+02 -0.56346894865E+02  0.25838150399E+03  0.17200000000E+03 0. -1.
         -6    1    1    2    0  502  0.18068110703E+03 -0.36828882752E+02  0.11157428275E+04  0.11438828988E+04  0.17200000000E+03 0. -1.
</event>
<event>
 4    1  0.1235203E+000  0.3842582E+03  0.7818608E-02  0.1049371E+00
         21   -1    0    0  501  502  0.00000000000E+00  0.00000000000E+00  0.18932733858E+03  0.18932733858E+03  0.00000000000E+00 0.  1.
         21   -1    0    0  502  503 -0.00000000000E+00 -0.00000000000E+00 -0.91350848286E+03  0.91350848286E+03  0.00000000000E+00 0. -1.
          6    1    1    2  501    0  0.61297738874E+02  0.33810195353E+03 -0.15119902694E+03  0.41293521225E+03  0.17200000000E+03 0.  1.
         -6    1    1    2    0  503 -0.61297738874E+02 -0.33810195353E+03 -0.57298211735E+03  0.68990060920E+03  0.17200000000E+03 0.  1.
</event>
<event>
 4    1  0.1235203E+000  0.1894774E+03  0.7818608E-02  0.1158933E+00
         21   -1    0    0  503  502  0.00000000000E+00  0.00000000000E+00  0.14502366450E+03  0.14502366450E+03  0.00000000000E+00 0.  1.
         21   -1    0    0  501  503 -0.00000000000E+00 -0.00000000000E+00 -0.25690447832E+03  0.25690447832E+03  0.00000000000E+00 0.  1.
          6    1    1    2  501    0 -0.30257025777E+02 -0.73499740322E+02 -0.17607864722E+02  0.19029381581E+03  0.17200000000E+03 0.  1.
         -6    1    1    2    0  502  0.30257025777E+02  0.73499740322E+02 -0.94272949092E+02  0.21163432700E+03  0.17200000000E+03 0.  1.
</event>
<event>
 4    1  0.1235203E+000  0.1895457E+03  0.7818608E-02  0.1158872E+00
         21   -1    0    0  503  502  0.00000000000E+00  0.00000000000E+00  0.10216971220E+03  0.10216971220E+03  0.00000000000E+00 0. -1.
         21   -1    0    0  501  503 -0.00000000000E+00 -0.00000000000E+00 -0.48472190793E+03  0.48472190793E+03  0.00000000000E+00 0. -1.
          6    1    1    2  501    0 -0.32286482186E+02  0.72809119653E+02 -0.34503174668E+03  0.39366799597E+03  0.17200000000E+03 0. -1.
         -6    1    1    2    0  502  0.32286482186E+02 -0.72809119653E+02 -0.37520449051E+02  0.19322362416E+03  0.17200000000E+03 0. -1.
</event>
<event>
 4    1  0.1235203E+000  0.1786308E+03  0.7818608E-02  0.1169135E+00
         21   -1    0    0  503  502  0.00000000000E+00  0.00000000000E+00  0.32524733727E+03  0.32524733727E+03  0.00000000000E+00 0.  1.
         21   -1    0    0  501  503 -0.00000000000E+00 -0.00000000000E+00 -0.25944132769E+03  0.25944132769E+03  0.00000000000E+00 0.  1.
          6    1    1    2  501    0 -0.42739006449E+01 -0.48027937616E+02 -0.19763305715E+03  0.26639777457E+03  0.17200000000E+03 0. -1.
         -6    1    1    2    0  502  0.42739006449E+01  0.48027937616E+02  0.26343906674E+03  0.31829089038E+03  0.17200000000E+03 0. -1.
</event>
<event>
 4    1  0.1235203E+000  0.1790836E+03  0.7818608E-02  0.1168693E+00
         21   -1    0    0  501  502  0.00000000000E+00  0.00000000000E+00  0.17025876056E+03  0.17025876056E+03  0.00000000000E+00 0. -1.
         21   -1    0    0  502  503 -0.00000000000E+00 -0.00000000000E+00 -0.35791002756E+03  0.35791002756E+03  0.00000000000E+00 0. -1.
          6    1    1    2  501    0  0.73703174943E+01  0.49321457675E+02  0.87933945247E+02  0.19950766024E+03  0.17200000000E+03 0. -1.
         -6    1    1    2    0  503 -0.73703174943E+01 -0.49321457675E+02 -0.27558521225E+03  0.32866112788E+03  0.17200000000E+03 0. -1.
</event>
<event>
 4    1  0.1235203E+000  0.1778584E+03  0.7818608E-02  0.1169892E+00
         21   -1    0    0  503  502  0.00000000000E+00  0.00000000000E+00  0.10845960415E+03  0.10845960415E+03  0.00000000000E+00 0.  1.
         21   -1    0    0  501  503 -0.00000000000E+00 -0.00000000000E+00 -0.29185028532E+03  0.29185028532E+03  0.00000000000E+00 0.  1.
          6    1    1    2  501    0  0.20097019464E+02 -0.40567498304E+02 -0.96770859146E+02  0.20248015036E+03  0.17200000000E+03 0. -1.
         -6    1    1    2    0  502 -0.20097019464E+02  0.40567498304E+02 -0.86619822026E+02  0.19782973911E+03  0.17200000000E+03 0. -1.
</event>
<event>
 4    1  0.1235203E+000  0.2137171E+03  0.7818608E-02  0.1138656E+00
         21   -1    0    0  501  502  0.00000000000E+00  0.00000000000E+00  0.13030162263E+03  0.13030162263E+03  0.00000000000E+00 0.  1.
         21   -1    0    0  502  503 -0.00000000000E+00 -0.00000000000E+00 -0.69743327745E+03  0.69743327745E+03  0.00000000000E+00 0.  1.
          6    1    1    2  501    0  0.11912994334E+03  0.43578120604E+02  0.83195717814E+01  0.21387896406E+03  0.17200000000E+03 0.  1.
         -6    1    1    2    0  503 -0.11912994334E+03 -0.43578120604E+02 -0.57545122660E+03  0.61385593602E+03  0.17200000000E+03 0.  1.
</event>
<event>
 4    1  0.1235203E+000  0.1904358E+03  0.7818608E-02  0.1158069E+00
         21   -1    0    0  501  502  0.00000000000E+00  0.00000000000E+00  0.17410018500E+03  0.17410018500E+03  0.00000000000E+00 0. -1.
         21   -1    0    0  502  503 -0.00000000000E+00 -0.00000000000E+00 -0.22236687007E+03  0.22236687007E+03  0.00000000000E+00 0.  1.
          6    1    1    2  501    0  0.80110828896E+02  0.16250062120E+02  0.25717798580E+02  0.19216455081E+03  0.17200000000E+03 0. -1.
         -6    1    1    2    0  503 -0.80110828896E+02 -0.16250062120E+02 -0.73984483642E+02  0.20430250426E+03  0.17200000000E+03 0. -1.
</event>
<event>
 4    1  0.1235203E+000  0.1820646E+03  0.7818608E-02  0.1165820E+00
         21   -1    0    0  503  502  0.00000000000E+00  0.00000000000E+00  0.35194458221E+03  0.35194458221E+03  0.00000000000E+00 0. -1.
         21   -1    0    0  501  503 -0.00000000000E+00 -0.00000000000E+00 -0.20492186598E+03  0.20492186598E+03  0.00000000000E+00 0. -1.
          6    1    1    2  501    0  0.13741570074E+02  0.58092184750E+02 -0.13116848184E+03  0.22439408037E+03  0.17200000000E+03 0.  1.
         -6    1    1    2    0  502 -0.13741570074E+02 -0.58092184750E+02  0.27819119807E+03  0.33247236782E+03  0.17200000000E+03 0.  1.
</event>
<event>
 4    1  0.1235203E+000  0.2683141E+03  0.7818608E-02  0.1102248E+00
         21   -1    0    0  503  502  0.00000000000E+00  0.00000000000E+00  0.27893003494E+03  0.27893003494E+03  0.00000000000E+00 0. -1.
         21   -1    0    0  501  503 -0.00000000000E+00 -0.00000000000E+00 -0.28452719707E+03  0.28452719707E+03  0.00000000000E+00 0. -1.
          6    1    1    2  501    0  0.15340936841E+03  0.13738270032E+03 -0.88655833205E+02  0.28258148812E+03  0.17200000000E+03 0.  1.
         -6    1    1    2    0  502 -0.15340936841E+03 -0.13738270032E+03  0.83058671072E+02  0.28087574389E+03  0.17200000000E+03 0.  1.
</event>
<event>
 4    1  0.1235203E+000  0.1732561E+03  0.7818608E-02  0.1174494E+00
         21   -1    0    0  503  502  0.00000000000E+00  0.00000000000E+00  0.52256664082E+02  0.52256664082E+02  0.00000000000E+00 0.  1.
         21   -1    0    0  501  503 -0.00000000000E+00 -0.00000000000E+00 -0.10119974570E+04  0.10119974570E+04  0.00000000000E+00 0.  1.
          6    1    1    2  501    0 -0.79212695619E+01  0.19259840754E+02 -0.82977460281E+03  0.84766949894E+03  0.17200000000E+03 0.  1.
         -6    1    1    2    0  502  0.79212695619E+01 -0.19259840754E+02 -0.12996619013E+03  0.21658462215E+03  0.17200000000E+03 0.  1.
</event>
<event>
 4    1  0.1235203E+000  0.1797104E+03  0.7818608E-02  0.1168084E+00
         21   -1    0    0  501  502  0.00000000000E+00  0.00000000000E+00  0.29986144673E+03  0.29986144673E+03  0.00000000000E+00 0.  1.
         21   -1    0    0  502  503 -0.00000000000E+00 -0.00000000000E+00 -0.12884977734E+03  0.12884977734E+03  0.00000000000E+00 0.  1.
          6    1    1    2  501    0 -0.38500237195E+02 -0.35065006870E+02 -0.13342836207E+01  0.17971533959E+03  0.17200000000E+03 0.  1.
         -6    1    1    2    0  503  0.38500237195E+02  0.35065006870E+02  0.17234595301E+03  0.24899588448E+03  0.17200000000E+03 0.  1.
</event>
<event>
 4    1  0.1235203E+000  0.1829846E+03  0.7818608E-02  0.1164945E+00
         21   -1    0    0  501  502  0.00000000000E+00  0.00000000000E+00  0.39468306103E+03  0.39468306103E+03  0.00000000000E+00 0. -1.
         21   -1    0    0  502  503 -0.00000000000E+00 -0.00000000000E+00 -0.88033812128E+02  0.88033812128E+02  0.00000000000E+00 0.  1.
          6    1    1    2  501    0 -0.62434087283E+02  0.11549120397E+01  0.10732425786E+03  0.21213638396E+03  0.17200000000E+03 0.  1.
         -6    1    1    2    0  503  0.62434087283E+02 -0.11549120397E+01  0.19932499104E+03  0.27058048919E+03  0.17200000000E+03 0.  1.
</event>
<event>
 4    1  0.1235203E+000  0.1804272E+03  0.7818608E-02  0.1167390E+00
         21   -1    0    0  501  502  0.00000000000E+00  0.00000000000E+00  0.25882598161E+03  0.25882598161E+03  0.00000000000E+00 0.  1.
         21   -1    0    0  502  503 -0.00000000000E+00 -0.00000000000E+00 -0.20162759454E+03  0.20162759454E+03  0.00000000000E+00 0.  1.
          6    1    1    2  501    0  0.10384721994E+02  0.53498841481E+02 -0.11261054383E+03  0.21268545571E+03  0.17200000000E+03 0.  1.
         -6    1    1    2    0  503 -0.10384721994E+02 -0.53498841481E+02  0.16980893090E+03  0.24776812044E+03  0.17200000000E+03 0.  1.
</event>
<event>
 4    1  0.1235203E+000  0.1803768E+03  0.7818608E-02  0.1167439E+00
         21   -1    0    0  503  502  0.00000000000E+00  0.00000000000E+00  0.14715351880E+04  0.14715351880E+04  0.00000000000E+00 0.  1.
         21   -1    0    0  501  503 -0.00000000000E+00 -0.00000000000E+00 -0.22348456155E+02  0.22348456155E+02  0.00000000000E+00 0.  1.
          6    1    1    2  501    0  0.33038869182E+02 -0.43130398898E+02  0.64745485885E+03  0.67211129467E+03  0.17200000000E+03 0. -1.
         -6    1    1    2    0  502 -0.33038869182E+02  0.43130398898E+02  0.80173187296E+03  0.82177234944E+03  0.17200000000E+03 0. -1.
</event>
<event>
 4    1  0.1235203E+000  0.3056100E+03  0.7818608E-02  0.1082469E+00
         21   -1    0    0  501  502  0.00000000000E+00  0.00000000000E+00  0.36050983823E+03  0.36050983823E+03  0.00000000000E+00 0. -1.
         21   -1    0    0  502  503 -0.00000000000E+00 -0.00000000000E+00 -0.37788931302E+03  0.37788931302E+03  0.00000000000E+00 0.  1.
          6    1    1    2  501    0  0.70493468616E+01  0.25251487518E+03 -0.21571413823E+03  0.37407224557E+03  0.17200000000E+03 0. -1.
         -6    1    1    2    0  503 -0.70493468616E+01 -0.25251487518E+03  0.19833466344E+03  0.36432690568E+03  0.17200000000E+03 0. -1.
</event>
<event>
 4    1  0.1235203E+000  0.2728675E+03  0.7818608E-02  0.1099650E+00
         21   -1    0    0  503  502  0.00000000000E+00  0.00000000000E+00  0.62121315640E+03  0.62121315640E+03  0.00000000000E+00 0.  1.
         21   -1    0    0  501  503 -0.00000000000E+00 -0.00000000000E+00 -0.29376675154E+03  0.29376675154E+03  0.00000000000E+00 0.  1.
          6    1    1    2  501    0 -0.11666587528E+03  0.17680986603E+03 -0.18827657577E+03  0.33151881419E+03  0.17200000000E+03 0. -1.
         -6    1    1    2    0  502  0.11666587528E+03 -0.17680986603E+03  0.51572298063E+03  0.58346109376E+03  0.17200000000E+03 0. -1.
</event>
<event>
 4    1  0.1235203E+000  0.4348838E+03  0.7818608E-02  0.1032328E+00
         21   -1    0    0  501  502  0.00000000000E+00  0.00000000000E+00  0.37137356182E+03  0.37137356182E+03  0.00000000000E+00 0.  1.
         21   -1    0    0  502  503 -0.00000000000E+00 -0.00000000000E+00 -0.69814362870E+03  0.69814362870E+03  0.00000000000E+00 0. -1.
          6    1    1    2  501    0 -0.39626454484E+03  0.50142810300E+02  0.11477078153E+03  0.44977352436E+03  0.17200000000E+03 0.  1.
         -6    1    1    2    0  503  0.39626454484E+03 -0.50142810300E+02 -0.44154084841E+03  0.61974366615E+03  0.17200000000E+03 0.  1.
</event>
<event>
 4    1  0.1235203E+000  0.3775403E+03  0.7818608E-02  0.1051847E+00
         21   -1    0    0  503  502  0.00000000000E+00  0.00000000000E+00  0.17703703154E+03  0.17703703154E+03  0.00000000000E+00 0.  1.
         21   -1    0    0  501  503 -0.00000000000E+00 -0.00000000000E+00 -0.10699847926E+04  0.10699847926E+04  0.00000000000E+00 0. -1.
          6    1    1    2  501    0  0.33556029597E+03  0.18761566362E+02 -0.75668998849E+03  0.84564558018E+03  0.17200000000E+03 0.  1.
         -6    1    1    2    0  502 -0.33556029597E+03 -0.18761566362E+02 -0.13625777253E+03  0.40137624392E+03  0.17200000000E+03 0.  1.
</event>
<event>
 4    1  0.1235203E+000  0.2432497E+03  0.7818608E-02  0.1117647E+00
         21   -1    0    0  501  502  0.00000000000E+00  0.00000000000E+00  0.10795369380E+03  0.10795369380E+03  0.00000000000E+00 0. -1.
         21   -1    0    0  502  503 -0.00000000000E+00 -0.00000000000E+00 -0.64656176730E+03  0.64656176730E+03  0.00000000000E+00 0.  1.
          6    1    1    2  501    0  0.19946600092E+02 -0.17084661741E+03 -0.12209101215E+03  0.27217025698E+03  0.17200000000E+03 0.  1.
         -6    1    1    2    0  503 -0.19946600092E+02  0.17084661741E+03 -0.41651706136E+03  0.48234520412E+03  0.17200000000E+03 0.  1.
</event>
<event>
 4    1  0.1235203E+000  0.3261882E+03  0.7818608E-02  0.1072836E+00
         21   -1    0    0  501  502  0.00000000000E+00  0.00000000000E+00  0.70065048899E+03  0.70065048899E+03  0.00000000000E+00 0.  1.
         21   -1    0    0  502  503 -0.00000000000E+00 -0.00000000000E+00 -0.15890610961E+03  0.15890610961E+03  0.00000000000E+00 0. -1.
          6    1    1    2  501    0 -0.27251407215E+03 -0.50505570636E+02  0.36139105064E+03  0.48682874161E+03  0.17200000000E+03 0.  1.
         -6    1    1    2    0  503  0.27251407215E+03  0.50505570636E+02  0.18035332875E+03  0.37272785699E+03  0.17200000000E+03 0. -1.
</event>
<event>
 4    1  0.1235203E+000  0.1739811E+03  0.7818608E-02  0.1173759E+00
         21   -1    0    0  503  502  0.00000000000E+00  0.00000000000E+00  0.32732657227E+02  0.32732657227E+02  0.00000000000E+00 0. -1.
         21   -1    0    0  501  503 -0.00000000000E+00 -0.00000000000E+00 -0.10002119217E+04  0.10002119217E+04  0.00000000000E+00 0. -1.
          6    1    1    2  501    0 -0.25293797683E+02 -0.67554048227E+01 -0.34187475635E+03  0.38359843681E+03  0.17200000000E+03 0. -1.
         -6    1    1    2    0  502  0.25293797683E+02  0.67554048227E+01 -0.62560450812E+03  0.64934614212E+03  0.17200000000E+03 0. -1.
</event>
<event>
 4    1  0.1235203E+000  0.1780986E+03  0.7818608E-02  0.1169656E+00
         21   -1    0    0  503  502  0.00000000000E+00  0.00000000000E+00  0.19460554758E+04  0.19460554758E+04  0.00000000000E+00 0. -1.
         21   -1    0    0  501  503 -0.00000000000E+00 -0.00000000000E+00 -0.10841498232E+03  0.10841498232E+03  0.00000000000E+00 0. -1.
          6    1    1    2  501    0 -0.29904785341E+02  0.35225371705E+02 -0.28054001651E+02  0.18029462002E+03  0.17200000000E+03 0. -1.
         -6    1    1    2    0  502  0.29904785341E+02 -0.35225371705E+02  0.18656944951E+04  0.18741758381E+04  0.17200000000E+03 0. -1.
</event>
<event>
 4    1  0.1235203E+000  0.1741090E+03  0.7818608E-02  0.1173629E+00
         21   -1    0    0  503  502  0.00000000000E+00  0.00000000000E+00  0.68055361454E+02  0.68055361454E+02  0.00000000000E+00 0.  1.
         21   -1    0    0  501  503 -0.00000000000E+00 -0.00000000000E+00 -0.67374237674E+03  0.67374237674E+03  0.00000000000E+00 0.  1.
          6    1    1    2  501    0 -0.24215883956E+02 -0.11981148183E+02 -0.51875338158E+03  0.54719194790E+03  0.17200000000E+03 0.  1.
         -6    1    1    2    0  502  0.24215883956E+02  0.11981148183E+02 -0.86933633715E+02  0.19460579030E+03  0.17200000000E+03 0.  1.
</event>
<event>
 4    1  0.1235203E+000  0.2014711E+03  0.7818608E-02  0.1148504E+00
         21   -1    0    0  501  502  0.00000000000E+00  0.00000000000E+00  0.41366661149E+02  0.41366661149E+02  0.00000000000E+00 0.  1.
         21   -1    0    0  502  503 -0.00000000000E+00 -0.00000000000E+00 -0.12916901503E+04  0.12916901503E+04  0.00000000000E+00 0.  1.
          6    1    1    2  501    0 -0.86842394978E+02  0.58864422797E+02 -0.29839681547E+03  0.36004344365E+03  0.17200000000E+03 0.  1.
         -6    1    1    2    0  503  0.86842394978E+02 -0.58864422797E+02 -0.95192667369E+03  0.97301336780E+03  0.17200000000E+03 0.  1.
</event>
<event>
 4    1  0.1235203E+000  0.2123161E+03  0.7818608E-02  0.1139745E+00
         21   -1    0    0  503  502  0.00000000000E+00  0.00000000000E+00  0.10911732692E+04  0.10911732692E+04  0.00000000000E+00 0. -1.
         21   -1    0    0  501  503 -0.00000000000E+00 -0.00000000000E+00 -0.47541084076E+02  0.47541084076E+02  0.00000000000E+00 0. -1.
          6    1    1    2  501    0 -0.30123684470E+02  0.12077531702E+03  0.72791529004E+03  0.75824717806E+03  0.17200000000E+03 0.  1.
         -6    1    1    2    0  502  0.30123684470E+02 -0.12077531702E+03  0.31571689504E+03  0.38046717517E+03  0.17200000000E+03 0.  1.
</event>
<event>
 4    1  0.1235203E+000  0.1752652E+03  0.7818608E-02  0.1172466E+00
         21   -1    0    0  501  502  0.00000000000E+00  0.00000000000E+00  0.67187553201E+02  0.67187553201E+02  0.00000000000E+00 0. -1.
         21   -1    0    0  502  503 -0.00000000000E+00 -0.00000000000E+00 -0.60210501185E+03  0.60210501185E+03  0.00000000000E+00 0. -1.
          6    1    1    2  501    0 -0.14749695932E+02  0.30271073698E+02 -0.10328739080E+03  0.20343592734E+03  0.17200000000E+03 0.  1.
         -6    1    1    2    0  503  0.14749695932E+02 -0.30271073698E+02 -0.43163006785E+03  0.46585663771E+03  0.17200000000E+03 0.  1.
</event>
<event>
 4    1  0.1235203E+000  0.2324116E+03  0.7818608E-02  0.1124954E+00
         21   -1    0    0  503  502  0.00000000000E+00  0.00000000000E+00  0.10331210794E+04  0.10331210794E+04  0.00000000000E+00 0. -1.
         21   -1    0    0  501  503 -0.00000000000E+00 -0.00000000000E+00 -0.54492185201E+02  0.54492185201E+02  0.00000000000E+00 0. -1.
          6    1    1    2  501    0 -0.13020777158E+03  0.86470261662E+02  0.59879722877E+03  0.64231868345E+03  0.17200000000E+03 0.  1.
         -6    1    1    2    0  502  0.13020777158E+03 -0.86470261662E+02  0.37983166540E+03  0.44529458112E+03  0.17200000000E+03 0.  1.
</event>
<event>
 4    1  0.1235203E+000  0.1840135E+03  0.7818608E-02  0.1163974E+00
         21   -1    0    0  503  502  0.00000000000E+00  0.00000000000E+00  0.16114142637E+03  0.16114142637E+03  0.00000000000E+00 0.  1.
         21   -1    0    0  501  503 -0.00000000000E+00 -0.00000000000E+00 -0.29144751118E+03  0.29144751118E+03  0.00000000000E+00 0.  1.
          6    1    1    2  501    0 -0.52455748792E+01  0.65187821546E+02 -0.18468402672E+03  0.26070895240E+03  0.17200000000E+03 0. -1.
         -6    1    1    2    0  502  0.52455748792E+01 -0.65187821546E+02  0.54377941918E+02  0.19187998515E+03  0.17200000000E+03 0. -1.
</event>
<event>
 4    1  0.1235203E+000  0.2348527E+03  0.7818608E-02  0.1123270E+00
         21   -1    0    0  503  502  0.00000000000E+00  0.00000000000E+00  0.21148473454E+03  0.21148473454E+03  0.00000000000E+00 0. -1.
         21   -1    0    0  501  503 -0.00000000000E+00 -0.00000000000E+00 -0.26681455738E+03  0.26681455738E+03  0.00000000000E+00 0. -1.
          6    1    1    2  501    0  0.10871636659E+03  0.11727117761E+03 -0.63563007810E+02  0.24330234981E+03  0.17200000000E+03 0. -1.
         -6    1    1    2    0  502 -0.10871636659E+03 -0.11727117761E+03  0.82331849768E+01  0.23499694210E+03  0.17200000000E+03 0. -1.
</event>
<event>
 4    1  0.1235203E+000  0.2525071E+03  0.7818608E-02  0.1111731E+00
         21   -1    0    0  501  502  0.00000000000E+00  0.00000000000E+00  0.29451627538E+03  0.29451627538E+03  0.00000000000E+00 0.  1.
         21   -1    0    0  502  503 -0.00000000000E+00 -0.00000000000E+00 -0.35356898951E+03  0.35356898951E+03  0.00000000000E+00 0. -1.
          6    1    1    2  501    0 -0.16307408997E+03 -0.87078507403E+02  0.17224082672E+03  0.30565786046E+03  0.17200000000E+03 0.  1.
         -6    1    1    2    0  503  0.16307408997E+03  0.87078507403E+02 -0.23129354085E+03  0.34242740444E+03  0.17200000000E+03 0. -1.
</event>
<event>
 4    1  0.1235203E+000  0.1932002E+03  0.7818608E-02  0.1155606E+00
         21   -1    0    0  501  502  0.00000000000E+00  0.00000000000E+00  0.12313409750E+04  0.12313409750E+04  0.00000000000E+00 0. -1.
         21   -1    0    0  502  503 -0.00000000000E+00 -0.00000000000E+00 -0.30963975197E+02  0.30963975197E+02  0.00000000000E+00 0. -1.
          6    1    1    2  501    0 -0.87403618915E+02  0.10144430196E+02  0.69166477027E+03  0.71814097258E+03  0.17200000000E+03 0.  1.
         -6    1    1    2    0  503  0.87403618915E+02 -0.10144430196E+02  0.50871222957E+03  0.54416397766E+03  0.17200000000E+03 0.  1.
</event>
<event>
 4    1  0.1235203E+000  0.2121152E+03  0.7818608E-02  0.1139902E+00
         21   -1    0    0  503  502  0.00000000000E+00  0.00000000000E+00  0.31063623762E+03  0.31063623762E+03  0.00000000000E+00 0.  1.
         21   -1    0    0  501  503 -0.00000000000E+00 -0.00000000000E+00 -0.14768595164E+03  0.14768595164E+03  0.00000000000E+00 0. -1.
          6    1    1    2  501    0  0.81367781059E+02 -0.93745153000E+02  0.49669277889E+02  0.21785294736E+03  0.17200000000E+03 0.  1.
         -6    1    1    2    0  502 -0.81367781059E+02  0.93745153000E+02  0.11328100810E+03  0.24046924190E+03  0.17200000000E+03 0.  1.
</event>
<event>
 4    1  0.1235203E+000  0.1725039E+03  0.7818608E-02  0.1175262E+00
         21   -1    0    0  503  502  0.00000000000E+00  0.00000000000E+00  0.59552813527E+02  0.59552813527E+02  0.00000000000E+00 0.  1.
         21   -1    0    0  501  503 -0.00000000000E+00 -0.00000000000E+00 -0.50019161064E+03  0.50019161064E+03  0.00000000000E+00 0.  1.
          6    1    1    2  501    0  0.11204586505E+02 -0.69313704418E+01 -0.22923533850E+03  0.28689096722E+03  0.17200000000E+03 0.  1.
         -6    1    1    2    0  502 -0.11204586505E+02  0.69313704418E+01 -0.21140345862E+03  0.27285345695E+03  0.17200000000E+03 0.  1.
</event>
<event>
 4    1  0.1235203E+000  0.1796136E+03  0.7818608E-02  0.1168178E+00
         21   -1    0    0  501  502  0.00000000000E+00  0.00000000000E+00  0.79379902937E+02  0.79379902937E+02  0.00000000000E+00 0.  1.
         21   -1    0    0  502  503 -0.00000000000E+00 -0.00000000000E+00 -0.40698427425E+03  0.40698427425E+03  0.00000000000E+00 0.  1.
          6    1    1    2  501    0  0.34602513346E+02 -0.38467145973E+02 -0.15469429593E+03  0.23704721142E+03  0.17200000000E+03 0. -1.
         -6    1    1    2    0  503 -0.34602513346E+02  0.38467145973E+02 -0.17291007538E+03  0.24931696576E+03  0.17200000000E+03 0. -1.
</event>
<event>
 4    1  0.1235203E+000  0.2109304E+03  0.7818608E-02  0.1140831E+00
         21   -1    0    0  501  502  0.00000000000E+00  0.00000000000E+00  0.72884145483E+03  0.72884145483E+03  0.00000000000E+00 0.  1.
         21   -1    0    0  502  503 -0.00000000000E+00 -0.00000000000E+00 -0.65756914541E+02  0.65756914541E+02  0.00000000000E+00 0. -1.
          6    1    1    2  501    0  0.81770926984E+02  0.90670571844E+02  0.43790184987E+03  0.48605521005E+03  0.17200000000E+03 0.  1.
         -6    1    1    2    0  503 -0.81770926984E+02 -0.90670571844E+02  0.22518269042E+03  0.30854315932E+03  0.17200000000E+03 0. -1.
</event>
<event>
 4    1  0.1235203E+000  0.1866706E+03  0.7818608E-02  0.1161499E+00
         21   -1    0    0  503  502  0.00000000000E+00  0.00000000000E+00  0.25353815331E+03  0.25353815331E+03  0.00000000000E+00 0.  1.
         21   -1    0    0  501  503 -0.00000000000E+00 -0.00000000000E+00 -0.13988698523E+03  0.13988698523E+03  0.00000000000E+00 0.  1.
          6    1    1    2  501    0 -0.26725460026E+02 -0.67436472652E+02  0.30801011549E+02  0.18919468906E+03  0.17200000000E+03 0. -1.
         -6    1    1    2    0  502  0.26725460026E+02  0.67436472652E+02  0.82850156535E+02  0.20423044948E+03  0.17200000000E+03 0. -1.
</event>
<event>
 4    1  0.1235203E+000  0.2065946E+03  0.7818608E-02  0.1144291E+00
         21   -1    0    0  501  502  0.00000000000E+00  0.00000000000E+00  0.65702438727E+03  0.65702438727E+03  0.00000000000E+00 0.  1.
         21   -1    0    0  502  503 -0.00000000000E+00 -0.00000000000E+00 -0.66042329750E+02  0.66042329750E+02  0.00000000000E+00 0.  1.
          6    1    1    2  501    0  0.83358228650E+02  0.78413925088E+02  0.24924216265E+03  0.32373290468E+03  0.17200000000E+03 0. -1.
         -6    1    1    2    0  503 -0.83358228650E+02 -0.78413925088E+02  0.34173989487E+03  0.39933381234E+03  0.17200000000E+03 0. -1.
</event>
<event>
 4    1  0.1235203E+000  0.2034039E+03  0.7818608E-02  0.1146898E+00
         21   -1    0    0  501  502  0.00000000000E+00  0.00000000000E+00  0.50953970318E+03  0.50953970318E+03  0.00000000000E+00 0.  1.
         21   -1    0    0  502  503 -0.00000000000E+00 -0.00000000000E+00 -0.92113441382E+02  0.92113441382E+02  0.00000000000E+00 0. -1.
          6    1    1    2  501    0 -0.45776283392E+02  0.98456489967E+02  0.10515286529E+03  0.22897657875E+03  0.17200000000E+03 0. -1.
         -6    1    1    2    0  503  0.45776283392E+02 -0.98456489967E+02  0.31227339651E+03  0.37267656581E+03  0.17200000000E+03 0.  1.
</event>
<event>
 4    1  0.1235203E+000  0.1784510E+03  0.7818608E-02  0.1169311E+00
         21   -1    0    0  503  502  0.00000000000E+00  0.00000000000E+00  0.21326985148E+03  0.21326985148E+03  0.00000000000E+00 0. -1.
         21   -1    0    0  501  503 -0.00000000000E+00 -0.00000000000E+00 -0.15001846894E+03  0.15001846894E+03  0.00000000000E+00 0. -1.
          6    1    1    2  501    0  0.59958302718E+01  0.47167724014E+02  0.19201868897E+02  0.17948107404E+03  0.17200000000E+03 0. -1.
         -6    1    1    2    0  502 -0.59958302718E+01 -0.47167724014E+02  0.44049513640E+02  0.18380724638E+03  0.17200000000E+03 0. -1.
</event>
<event>
 4    1  0.1235203E+000  0.2286715E+03  0.7818608E-02  0.1127578E+00
         21   -1    0    0  501  502  0.00000000000E+00  0.00000000000E+00  0.15295191874E+03  0.15295191874E+03  0.00000000000E+00 0.  1.
         21   -1    0    0  502  503 -0.00000000000E+00 -0.00000000000E+00 -0.38970195314E+03  0.38970195314E+03  0.00000000000E+00 0. -1.
          6    1    1    2  501    0 -0.14092584037E+03 -0.53353017926E+02 -0.23323939366E+02  0.22985787598E+03  0.17200000000E+03 0.  1.
         -6    1    1    2    0  503  0.14092584037E+03  0.53353017926E+02 -0.21342609503E+03  0.31279599589E+03  0.17200000000E+03 0. -1.
</event>
<event>
 4    1  0.1235203E+000  0.1969051E+03  0.7818608E-02  0.1152377E+00
         21   -1    0    0  501  502  0.00000000000E+00  0.00000000000E+00  0.41589136994E+03  0.41589136994E+03  0.00000000000E+00 0.  1.
         21   -1    0    0  502  503 -0.00000000000E+00 -0.00000000000E+00 -0.15916591706E+03  0.15916591706E+03  0.00000000000E+00 0.  1.
          6    1    1    2  501    0  0.62430655402E+02  0.72732737363E+02  0.31343112355E+03  0.37014957386E+03  0.17200000000E+03 0.  1.
         -6    1    1    2    0  503 -0.62430655402E+02 -0.72732737363E+02 -0.56705670671E+02  0.20490771314E+03  0.17200000000E+03 0.  1.
</event>
<event>
 4    1  0.1235203E+000  0.1925099E+03  0.7818608E-02  0.1156217E+00
         21   -1    0    0  501  502  0.00000000000E+00  0.00000000000E+00  0.45869966551E+03  0.45869966551E+03  0.00000000000E+00 0. -1.
         21   -1    0    0  502  503 -0.00000000000E+00 -0.00000000000E+00 -0.16939479421E+03  0.16939479421E+03  0.00000000000E+00 0. -1.
          6    1    1    2  501    0  0.38931274827E+02  0.77203770392E+02  0.37177713012E+03  0.41866251421E+03  0.17200000000E+03 0. -1.
         -6    1    1    2    0  503 -0.38931274827E+02 -0.77203770392E+02 -0.82472258822E+02  0.20943194550E+03  0.17200000000E+03 0. -1.
</event>
<event>
 4    1  0.1235203E+000  0.3732522E+03  0.7818608E-02  0.1053456E+00
         21   -1    0    0  501  502  0.00000000000E+00  0.00000000000E+00  0.11090259713E+04  0.11090259713E+04  0.00000000000E+00 0. -1.
         21   -1    0    0  502  503 -0.00000000000E+00 -0.00000000000E+00 -0.16641778337E+03  0.16641778337E+03  0.00000000000E+00 0.  1.
          6    1    1    2  501    0  0.32966146800E+03  0.32503945980E+02  0.78705402634E+03  0.87107475590E+03  0.17200000000E+03 0. -1.
         -6    1    1    2    0  503 -0.32966146800E+03 -0.32503945980E+02  0.15555416161E+03  0.40436899879E+03  0.17200000000E+03 0.  1.
</event>
<event>
 4    1  0.1235203E+000  0.2421547E+03  0.7818608E-02  0.1118366E+00
         21   -1    0    0  501  502  0.00000000000E+00  0.00000000000E+00  0.35695328805E+03  0.35695328805E+03  0.00000000000E+00 0. -1.
         21   -1    0    0  502  503 -0.00000000000E+00 -0.00000000000E+00 -0.16449160128E+03  0.16449160128E+03  0.00000000000E+00 0. -1.
          6    1    1    2  501    0  0.17036489604E+03 -0.55425837713E+01  0.86795368995E+02  0.25723987660E+03  0.17200000000E+03 0.  1.
         -6    1    1    2    0  503 -0.17036489604E+03  0.55425837713E+01  0.10566631777E+03  0.26420501272E+03  0.17200000000E+03 0.  1.
</event>
<event>
 4    1  0.1235203E+000  0.1791063E+03  0.7818608E-02  0.1168671E+00
         21   -1    0    0  501  502  0.00000000000E+00  0.00000000000E+00  0.23796968181E+02  0.23796968181E+02  0.00000000000E+00 0. -1.
         21   -1    0    0  502  503 -0.00000000000E+00 -0.00000000000E+00 -0.16879443824E+04  0.16879443824E+04  0.00000000000E+00 0. -1.
          6    1    1    2  501    0  0.32025735977E+02  0.38332933891E+02 -0.44800146342E+03  0.48247732881E+03  0.17200000000E+03 0. -1.
         -6    1    1    2    0  503 -0.32025735977E+02 -0.38332933891E+02 -0.12161459508E+04  0.12292640218E+04  0.17200000000E+03 0. -1.
</event>
<event>
 4    1  0.1235203E+000  0.1801322E+03  0.7818608E-02  0.1167675E+00
         21   -1    0    0  501  502  0.00000000000E+00  0.00000000000E+00  0.90003382257E+03  0.90003382257E+03  0.00000000000E+00 0.  1.
         21   -1    0    0  502  503 -0.00000000000E+00 -0.00000000000E+00 -0.59560443076E+02  0.59560443076E+02  0.00000000000E+00 0.  1.
          6    1    1    2  501    0  0.29217537284E+02  0.44832518575E+02  0.72167241967E+03  0.74381361948E+03  0.17200000000E+03 0.  1.
         -6    1    1    2    0  503 -0.29217537284E+02 -0.44832518575E+02  0.11880095983E+03  0.21578064617E+03  0.17200000000E+03 0.  1.
</event>
<event>
 4    1  0.1235203E+000  0.1889023E+03  0.7818608E-02  0.1159455E+00
         21   -1    0    0  503  502  0.00000000000E+00  0.00000000000E+00  0.89096663058E+03  0.89096663058E+03  0.00000000000E+00 0.  1.
         21   -1    0    0  501  503 -0.00000000000E+00 -0.00000000000E+00 -0.86441716990E+02  0.86441716990E+02  0.00000000000E+00 0.  1.
          6    1    1    2  501    0 -0.26365950273E+02 -0.73518156375E+02  0.44248454152E+02  0.19401548481E+03  0.17200000000E+03 0. -1.
         -6    1    1    2    0  502  0.26365950273E+02  0.73518156375E+02  0.76027645944E+03  0.78339286276E+03  0.17200000000E+03 0. -1.
</event>
<event>
 4    1  0.1235203E+000  0.1814418E+03  0.7818608E-02  0.1166415E+00
         21   -1    0    0  503  502  0.00000000000E+00  0.00000000000E+00  0.12496373127E+04  0.12496373127E+04  0.00000000000E+00 0.  1.
         21   -1    0    0  501  503 -0.00000000000E+00 -0.00000000000E+00 -0.27264392311E+02  0.27264392311E+02  0.00000000000E+00 0.  1.
          6    1    1    2  501    0 -0.24821913777E+02  0.52163233474E+02  0.72845639735E+03  0.75071289663E+03  0.17200000000E+03 0.  1.
         -6    1    1    2    0  502  0.24821913777E+02 -0.52163233474E+02  0.49391652301E+03  0.52618880835E+03  0.17200000000E+03 0.  1.
</event>
<event>
 4    1  0.1235203E+000  0.1733083E+03  0.7818608E-02  0.1174441E+00
         21   -1    0    0  503  502  0.00000000000E+00  0.00000000000E+00  0.69509169354E+03  0.69509169354E+03  0.00000000000E+00 0.  1.
         21   -1    0    0  501  503 -0.00000000000E+00 -0.00000000000E+00 -0.52146838523E+02  0.52146838523E+02  0.00000000000E+00 0.  1.
          6    1    1    2  501    0 -0.11701378012E+02  0.17744197182E+02  0.16681281156E+03  0.24054582283E+03  0.17200000000E+03 0.  1.
         -6    1    1    2    0  502  0.11701378012E+02 -0.17744197182E+02  0.47613204346E+03  0.50669270923E+03  0.17200000000E+03 0.  1.
</event>
<event>
 4    1  0.1235203E+000  0.3182781E+03  0.7818608E-02  0.1076444E+00
         21   -1    0    0  501  502  0.00000000000E+00  0.00000000000E+00  0.79907369646E+03  0.79907369646E+03  0.00000000000E+00 0.  1.
         21   -1    0    0  502  503 -0.00000000000E+00 -0.00000000000E+00 -0.16267714945E+03  0.16267714945E+03  0.00000000000E+00 0. -1.
          6    1    1    2  501    0  0.28469947423E+02  0.26628262192E+03  0.54411147170E+03  0.63036359847E+03  0.17200000000E+03 0.  1.
         -6    1    1    2    0  503 -0.28469947423E+02 -0.26628262192E+03  0.92285075302E+02  0.33138724744E+03  0.17200000000E+03 0. -1.
</event>
<event>
 4    1  0.1235203E+000  0.1826935E+03  0.7818608E-02  0.1165221E+00
         21   -1    0    0  503  502  0.00000000000E+00  0.00000000000E+00  0.81342725631E+02  0.81342725631E+02  0.00000000000E+00 0. -1.
         21   -1    0    0  501  503 -0.00000000000E+00 -0.00000000000E+00 -0.43061314462E+03  0.43061314462E+03  0.00000000000E+00 0. -1.
          6    1    1    2  501    0 -0.43794816155E+02  0.43300273582E+02 -0.23019840291E+03  0.29388467860E+03  0.17200000000E+03 0.  1.
         -6    1    1    2    0  502  0.43794816155E+02 -0.43300273582E+02 -0.11907201608E+03  0.21807119165E+03  0.17200000000E+03 0.  1.
</event>
<event>
 4    1  0.1235203E+000  0.2197435E+03  0.7818608E-02  0.1134074E+00
         21   -1    0    0  501  502  0.00000000000E+00  0.00000000000E+00  0.11593249189E+03  0.11593249189E+03  0.00000000000E+00 0.  1.
         21   -1    0    0  502  503 -0.00000000000E+00 -0.00000000000E+00 -0.43735561499E+03  0.43735561499E+03  0.00000000000E+00 0. -1.
          6    1    1    2  501    0 -0.13406526544E+03 -0.27012885015E+02 -0.10031698514E+03  0.24155887246E+03  0.17200000000E+03 0. -1.
         -6    1    1    2    0  503  0.13406526544E+03  0.27012885015E+02 -0.22110613795E+03  0.31172923443E+03  0.17200000000E+03 0. -1.
</event>
<event>
 4    1  0.1235203E+000  0.2769590E+03  0.7818608E-02  0.1097362E+00
         21   -1    0    0  503  502  0.00000000000E+00  0.00000000000E+00  0.35840236659E+03  0.35840236659E+03  0.00000000000E+00 0.  1.
         21   -1    0    0  501  503 -0.00000000000E+00 -0.00000000000E+00 -0.22546158002E+03  0.22546158002E+03  0.00000000000E+00 0. -1.
          6    1    1    2  501    0  0.95795560080E-01 -0.21707666689E+03  0.13222628773E+03  0.30690402352E+03  0.17200000000E+03 0.  1.
         -6    1    1    2    0  502 -0.95795560080E-01  0.21707666689E+03  0.71449884459E+00  0.27695992309E+03  0.17200000000E+03 0. -1.
</event>
<event>
 4    1  0.1235203E+000  0.1735140E+03  0.7818608E-02  0.1174232E+00
         21   -1    0    0  501  502  0.00000000000E+00  0.00000000000E+00  0.25708860027E+03  0.25708860027E+03  0.00000000000E+00 0. -1.
         21   -1    0    0  502  503 -0.00000000000E+00 -0.00000000000E+00 -0.12095638552E+03  0.12095638552E+03  0.00000000000E+00 0. -1.
          6    1    1    2  501    0  0.16369453947E+02  0.15973863372E+02  0.10178243232E+03  0.20116358235E+03  0.17200000000E+03 0. -1.
         -6    1    1    2    0  503 -0.16369453947E+02 -0.15973863372E+02  0.34349782426E+02  0.17688140345E+03  0.17200000000E+03 0. -1.
</event>
<event>
 4    1  0.1235203E+000  0.2643054E+03  0.7818608E-02  0.1104584E+00
         21   -1    0    0  503  502  0.00000000000E+00  0.00000000000E+00  0.26182132577E+04  0.26182132577E+04  0.00000000000E+00 0. -1.
         21   -1    0    0  501  503 -0.00000000000E+00 -0.00000000000E+00 -0.46963515745E+02  0.46963515745E+02  0.00000000000E+00 0.  1.
          6    1    1    2  501    0  0.14926424717E+03  0.13413996734E+03  0.40988853522E+03  0.48771503732E+03  0.17200000000E+03 0.  1.
         -6    1    1    2    0  502 -0.14926424717E+03 -0.13413996734E+03  0.21613612067E+04  0.21774617361E+04  0.17200000000E+03 0. -1.
</event>
<event>
 4    1  0.1235203E+000  0.2388717E+03  0.7818608E-02  0.1120547E+00
         21   -1    0    0  503  502  0.00000000000E+00  0.00000000000E+00  0.85389118664E+02  0.85389118664E+02  0.00000000000E+00 0.  1.
         21   -1    0    0  501  503 -0.00000000000E+00 -0.00000000000E+00 -0.81574062626E+03  0.81574062626E+03  0.00000000000E+00 0.  1.
          6    1    1    2  501    0  0.14715241372E+03 -0.76301042791E+02 -0.55677377504E+03  0.60585205997E+03  0.17200000000E+03 0. -1.
         -6    1    1    2    0  502 -0.14715241372E+03  0.76301042791E+02 -0.17357773256E+03  0.29527768496E+03  0.17200000000E+03 0. -1.
</event>
<event>
 4    1  0.1235203E+000  0.2939364E+03  0.7818608E-02  0.1088312E+00
         21   -1    0    0  501  502  0.00000000000E+00  0.00000000000E+00  0.18280599852E+04  0.18280599852E+04  0.00000000000E+00 0. -1.
         21   -1    0    0  502  503 -0.00000000000E+00 -0.00000000000E+00 -0.77237445147E+02  0.77237445147E+02  0.00000000000E+00 0.  1.
          6    1    1    2  501    0  0.22903483160E+03  0.66012520476E+02  0.14688806879E+04  0.14980016963E+04  0.17200000000E+03 0. -1.
         -6    1    1    2    0  503 -0.22903483160E+03 -0.66012520476E+02  0.28194185216E+03  0.40729573402E+03  0.17200000000E+03 0.  1.
</event>
<event>
 4    1  0.1235203E+000  0.1773106E+03  0.7818608E-02  0.1170432E+00
         21   -1    0    0  501  502  0.00000000000E+00  0.00000000000E+00  0.19939697578E+04  0.19939697578E+04  0.00000000000E+00 0.  1.
         21   -1    0    0  502  503 -0.00000000000E+00 -0.00000000000E+00 -0.32576211522E+02  0.32576211522E+02  0.00000000000E+00 0.  1.
          6    1    1    2  501    0 -0.25570960890E+02 -0.34657766429E+02  0.17085588806E+04  0.17177346953E+04  0.17200000000E+03 0.  1.
         -6    1    1    2    0  503  0.25570960890E+02  0.34657766429E+02  0.25283466563E+03  0.30881127401E+03  0.17200000000E+03 0.  1.
</event>
<event>
 4    1  0.1235203E+000  0.1895502E+03  0.7818608E-02  0.1158868E+00
         21   -1    0    0  501  502  0.00000000000E+00  0.00000000000E+00  0.11331761532E+03  0.11331761532E+03  0.00000000000E+00 0. -1.
         21   -1    0    0  502  503 -0.00000000000E+00 -0.00000000000E+00 -0.32284260400E+03  0.32284260400E+03  0.00000000000E+00 0.  1.
          6    1    1    2  501    0 -0.59510050791E+02  0.52951206554E+02 -0.75593643961E+02  0.20406782066E+03  0.17200000000E+03 0. -1.
         -6    1    1    2    0  503  0.59510050791E+02 -0.52951206554E+02 -0.13393134472E+03  0.23209239867E+03  0.17200000000E+03 0.  1.
</event>
<event>
 4    1  0.1235203E+000  0.2040940E+03  0.7818608E-02  0.1146330E+00
         21   -1    0    0  501  502  0.00000000000E+00  0.00000000000E+00  0.25218239277E+02  0.25218239277E+02  0.00000000000E+00 0.  1.
         21   -1    0    0  502  503 -0.00000000000E+00 -0.00000000000E+00 -0.19593022788E+04  0.19593022788E+04  0.00000000000E+00 0.  1.
          6    1    1    2  501    0 -0.70327803875E+01  0.10963986900E+03 -0.57391708134E+03  0.60912656905E+03  0.17200000000E+03 0.  1.
         -6    1    1    2    0  503  0.70327803875E+01 -0.10963986900E+03 -0.13601669582E+04  0.13753939490E+04  0.17200000000E+03 0.  1.
</event>
<event>
 4    1  0.1235203E+000  0.1761490E+03  0.7818608E-02  0.1171583E+00
         21   -1    0    0  501  502  0.00000000000E+00  0.00000000000E+00  0.16879703716E+03  0.16879703716E+03  0.00000000000E+00 0. -1.
         21   -1    0    0  502  503 -0.00000000000E+00 -0.00000000000E+00 -0.18412367713E+03  0.18412367713E+03  0.00000000000E+00 0. -1.
          6    1    1    2  501    0  0.39622815168E+01 -0.37798984085E+02 -0.51036298850E+00  0.17614971854E+03  0.17200000000E+03 0. -1.
         -6    1    1    2    0  503 -0.39622815168E+01  0.37798984085E+02 -0.14816276976E+02  0.17677099574E+03  0.17200000000E+03 0. -1.
</event>
<event>
 4    1  0.1235203E+000  0.1797568E+03  0.7818608E-02  0.1168039E+00
         21   -1    0    0  501  502  0.00000000000E+00  0.00000000000E+00  0.67524096322E+02  0.67524096322E+02  0.00000000000E+00 0.  1.
         21   -1    0    0  502  503 -0.00000000000E+00 -0.00000000000E+00 -0.92967646185E+03  0.92967646185E+03  0.00000000000E+00 0.  1.
          6    1    1    2  501    0 -0.12915957311E+02  0.50613116014E+02 -0.83744879603E+02  0.19830712122E+03  0.17200000000E+03 0.  1.
         -6    1    1    2    0  503  0.12915957311E+02 -0.50613116014E+02 -0.77840748592E+03  0.79889343695E+03  0.17200000000E+03 0.  1.
</event>
<event>
 4    1  0.1235203E+000  0.1879679E+03  0.7818608E-02  0.1160307E+00
         21   -1    0    0  501  502  0.00000000000E+00  0.00000000000E+00  0.15036653186E+03  0.15036653186E+03  0.00000000000E+00 0.  1.
         21   -1    0    0  502  503 -0.00000000000E+00 -0.00000000000E+00 -0.32473213898E+03  0.32473213898E+03  0.00000000000E+00 0.  1.
          6    1    1    2  501    0 -0.21346952860E+02  0.72747735984E+02  0.37708710065E+02  0.19171299461E+03  0.17200000000E+03 0. -1.
         -6    1    1    2    0  503  0.21346952860E+02 -0.72747735984E+02 -0.21207431719E+03  0.28338567624E+03  0.17200000000E+03 0. -1.
</event>
<event>
 4    1  0.1235203E+000  0.2080996E+03  0.7818608E-02  0.1143080E+00
         21   -1    0    0  503  502  0.00000000000E+00  0.00000000000E+00  0.19314977333E+03  0.19314977333E+03  0.00000000000E+00 0. -1.
         21   -1    0    0  501  503 -0.00000000000E+00 -0.00000000000E+00 -0.32014269160E+03  0.32014269160E+03  0.00000000000E+00 0. -1.
          6    1    1    2  501    0 -0.69902845088E+02 -0.93994812822E+02 -0.20398935313E+03  0.29140536848E+03  0.17200000000E+03 0. -1.
         -6    1    1    2    0  502  0.69902845088E+02  0.93994812822E+02  0.76996434861E+02  0.22188709645E+03  0.17200000000E+03 0. -1.
</event>
<event>
 4    1  0.1235203E+000  0.1814487E+03  0.7818608E-02  0.1166408E+00
         21   -1    0    0  503  502  0.00000000000E+00  0.00000000000E+00  0.10826463866E+03  0.10826463866E+03  0.00000000000E+00 0. -1.
         21   -1    0    0  501  503 -0.00000000000E+00 -0.00000000000E+00 -0.37721869696E+03  0.37721869696E+03  0.00000000000E+00 0. -1.
          6    1    1    2  501    0 -0.47934976778E+02 -0.32278178304E+02 -0.27607990397E+02  0.18353703694E+03  0.17200000000E+03 0. -1.
         -6    1    1    2    0  502  0.47934976778E+02  0.32278178304E+02 -0.24134606790E+03  0.30194629868E+03  0.17200000000E+03 0. -1.
</event>
<event>
 4    1  0.1235203E+000  0.2201851E+03  0.7818608E-02  0.1133745E+00
         21   -1    0    0  503  502  0.00000000000E+00  0.00000000000E+00  0.38588057135E+02  0.38588057135E+02  0.00000000000E+00 0. -1.
         21   -1    0    0  501  503 -0.00000000000E+00 -0.00000000000E+00 -0.12713995397E+04  0.12713995397E+04  0.00000000000E+00 0. -1.
          6    1    1    2  501    0  0.62966341192E+02 -0.12219943729E+03 -0.54522708862E+03  0.58800853800E+03  0.17200000000E+03 0. -1.
         -6    1    1    2    0  502 -0.62966341192E+02  0.12219943729E+03 -0.68758439392E+03  0.72197905881E+03  0.17200000000E+03 0. -1.
</event>
<event>
 4    1  0.1235203E+000  0.2919342E+03  0.7818608E-02  0.1089344E+00
         21   -1    0    0  501  502  0.00000000000E+00  0.00000000000E+00  0.47923901638E+03  0.47923901638E+03  0.00000000000E+00 0. -1.
         21   -1    0    0  502  503 -0.00000000000E+00 -0.00000000000E+00 -0.29733861335E+03  0.29733861335E+03  0.00000000000E+00 0.  1.
          6    1    1    2  501    0 -0.20380347721E+03  0.11876742960E+03  0.33711129067E+03  0.44594795880E+03  0.17200000000E+03 0. -1.
         -6    1    1    2    0  503  0.20380347721E+03 -0.11876742960E+03 -0.15521088764E+03  0.33062967093E+03  0.17200000000E+03 0.  1.
</event>
<event>
 4    1  0.1235203E+000  0.1966230E+03  0.7818608E-02  0.1152620E+00
         21   -1    0    0  501  502  0.00000000000E+00  0.00000000000E+00  0.99478239679E+03  0.99478239679E+03  0.00000000000E+00 0. -1.
         21   -1    0    0  502  503 -0.00000000000E+00 -0.00000000000E+00 -0.88696544291E+02  0.88696544291E+02  0.00000000000E+00 0. -1.
          6    1    1    2  501    0 -0.52668463883E+02  0.79389133512E+02  0.85910869686E+03  0.88132193586E+03  0.17200000000E+03 0. -1.
         -6    1    1    2    0  503  0.52668463883E+02 -0.79389133512E+02  0.46977155639E+02  0.20215700522E+03  0.17200000000E+03 0. -1.
</event>
<event>
 4    1  0.1235203E+000  0.1771999E+03  0.7818608E-02  0.1170541E+00
         21   -1    0    0  503  502  0.00000000000E+00  0.00000000000E+00  0.60130790374E+02  0.60130790374E+02  0.00000000000E+00 0. -1.
         21   -1    0    0  501  503 -0.00000000000E+00 -0.00000000000E+00 -0.52527353768E+03  0.52527353768E+03  0.00000000000E+00 0.  1.
          6    1    1    2  501    0  0.42303293025E+02 -0.51225894796E+01 -0.25499090239E+03  0.31051597355E+03  0.17200000000E+03 0.  1.
         -6    1    1    2    0  502 -0.42303293025E+02  0.51225894796E+01 -0.21015184491E+03  0.27488835451E+03  0.17200000000E+03 0. -1.
</event>
<event>
 4    1  0.1235203E+000  0.1832700E+03  0.7818608E-02  0.1164675E+00
         21   -1    0    0  503  502  0.00000000000E+00  0.00000000000E+00  0.52750355639E+03  0.52750355639E+03  0.00000000000E+00 0. -1.
         21   -1    0    0  501  503 -0.00000000000E+00 -0.00000000000E+00 -0.80004933681E+02  0.80004933681E+02  0.00000000000E+00 0. -1.
          6    1    1    2  501    0  0.18118646565E+01 -0.63250368497E+02  0.86509917241E+02  0.20266192970E+03  0.17200000000E+03 0.  1.
         -6    1    1    2    0  502 -0.18118646565E+01  0.63250368497E+02  0.36098870547E+03  0.40484656037E+03  0.17200000000E+03 0.  1.
</event>
<event>
 4    1  0.1235203E+000  0.1950266E+03  0.7818608E-02  0.1154004E+00
         21   -1    0    0  501  502  0.00000000000E+00  0.00000000000E+00  0.68815644871E+02  0.68815644871E+02  0.00000000000E+00 0. -1.
         21   -1    0    0  502  503 -0.00000000000E+00 -0.00000000000E+00 -0.55274166788E+03  0.55274166788E+03  0.00000000000E+00 0.  1.
          6    1    1    2  501    0 -0.91420914181E+02  0.96743833533E+01 -0.24415778268E+03  0.31248743988E+03  0.17200000000E+03 0.  1.
         -6    1    1    2    0  503  0.91420914181E+02 -0.96743833533E+01 -0.23976824033E+03  0.30906987287E+03  0.17200000000E+03 0. -1.
</event>
<event>
 4    1  0.1235203E+000  0.2283259E+03  0.7818608E-02  0.1127824E+00
         21   -1    0    0  501  502  0.00000000000E+00  0.00000000000E+00  0.98363407539E+02  0.98363407539E+02  0.00000000000E+00 0.  1.
         21   -1    0    0  502  503 -0.00000000000E+00 -0.00000000000E+00 -0.11588772758E+04  0.11588772758E+04  0.00000000000E+00 0. -1.
          6    1    1    2  501    0 -0.14694289119E+03 -0.30927515721E+02 -0.67180967596E+02  0.23800421615E+03  0.17200000000E+03 0.  1.
         -6    1    1    2    0  503  0.14694289119E+03  0.30927515721E+02 -0.99333290063E+03  0.10192364672E+04  0.17200000000E+03 0. -1.
</event>
<event>
 4    1  0.1235203E+000  0.1781992E+03  0.7818608E-02  0.1169557E+00
         21   -1    0    0  501  502  0.00000000000E+00  0.00000000000E+00  0.17078962039E+03  0.17078962039E+03  0.00000000000E+00 0.  1.
         21   -1    0    0  502  503 -0.00000000000E+00 -0.00000000000E+00 -0.20012174386E+03  0.20012174386E+03  0.00000000000E+00 0. -1.
          6    1    1    2  501    0  0.29621498573E+02  0.35965753099E+02  0.34720183448E+02  0.18155015757E+03  0.17200000000E+03 0.  1.
         -6    1    1    2    0  503 -0.29621498573E+02 -0.35965753099E+02 -0.64052306919E+02  0.18936120668E+03  0.17200000000E+03 0.  1.
</event>
<event>
 4    1  0.1235203E+000  0.1887173E+03  0.7818608E-02  0.1159623E+00
         21   -1    0    0  501  502  0.00000000000E+00  0.00000000000E+00  0.34267744774E+02  0.34267744774E+02  0.00000000000E+00 0. -1.
         21   -1    0    0  502  503 -0.00000000000E+00 -0.00000000000E+00 -0.13305700307E+04  0.13305700307E+04  0.00000000000E+00 0.  1.
          6    1    1    2  501    0  0.60293342496E+02  0.48938013233E+02 -0.32886098764E+03  0.37916192515E+03  0.17200000000E+03 0. -1.
         -6    1    1    2    0  503 -0.60293342496E+02 -0.48938013233E+02 -0.96744129824E+03  0.98567585029E+03  0.17200000000E+03 0.  1.
</event>
<event>
 4    1  0.1235203E+000  0.3236228E+03  0.7818608E-02  0.1073994E+00
         21   -1    0    0  503  502  0.00000000000E+00  0.00000000000E+00  0.14689842847E+04  0.14689842847E+04  0.00000000000E+00 0. -1.
         21   -1    0    0  501  503 -0.00000000000E+00 -0.00000000000E+00 -0.98972727114E+02  0.98972727114E+02  0.00000000000E+00 0.  1.
          6    1    1    2  501    0 -0.23407291765E+03  0.14268004076E+03  0.27042517404E+03  0.42173629149E+03  0.17200000000E+03 0.  1.
         -6    1    1    2    0  502  0.23407291765E+03 -0.14268004076E+03  0.10995863835E+04  0.11462207203E+04  0.17200000000E+03 0. -1.
</event>
<event>
 4    1  0.1235203E+000  0.1864340E+03  0.7818608E-02  0.1161717E+00
         21   -1    0    0  503  502  0.00000000000E+00  0.00000000000E+00  0.10224230213E+04  0.10224230213E+04  0.00000000000E+00 0. -1.
         21   -1    0    0  501  503 -0.00000000000E+00 -0.00000000000E+00 -0.81525253704E+02  0.81525253704E+02  0.00000000000E+00 0. -1.
          6    1    1    2  501    0  0.42715644234E+02 -0.57870790974E+02  0.48989235959E+02  0.19276306687E+03  0.17200000000E+03 0. -1.
         -6    1    1    2    0  502 -0.42715644234E+02  0.57870790974E+02  0.89190853166E+03  0.91118520815E+03  0.17200000000E+03 0. -1.
</event>
<event>
 4    1  0.1235203E+000  0.2102993E+03  0.7818608E-02  0.1141329E+00
         21   -1    0    0  501  502  0.00000000000E+00  0.00000000000E+00  0.48808610141E+03  0.48808610141E+03  0.00000000000E+00 0. -1.
         21   -1    0    0  502  503 -0.00000000000E+00 -0.00000000000E+00 -0.15623629020E+03  0.15623629020E+03  0.00000000000E+00 0.  1.
          6    1    1    2  501    0 -0.11963288259E+03  0.18159953271E+02  0.37471936382E+03  0.42969804761E+03  0.17200000000E+03 0. -1.
         -6    1    1    2    0  503  0.11963288259E+03 -0.18159953271E+02 -0.42869552614E+02  0.21462434401E+03  0.17200000000E+03 0.  1.
</event>
<event>
 4    1  0.1235203E+000  0.1862170E+03  0.7818608E-02  0.1161918E+00
         21   -1    0    0  503  502  0.00000000000E+00  0.00000000000E+00  0.36599182163E+03  0.36599182163E+03  0.00000000000E+00 0.  1.
         21   -1    0    0  501  503 -0.00000000000E+00 -0.00000000000E+00 -0.18596092056E+03  0.18596092056E+03  0.00000000000E+00 0. -1.
          6    1    1    2  501    0  0.67443162236E+02 -0.23327539213E+02 -0.10326627349E+03  0.21293350478E+03  0.17200000000E+03 0. -1.
         -6    1    1    2    0  502 -0.67443162236E+02  0.23327539213E+02  0.28329717456E+03  0.33901923740E+03  0.17200000000E+03 0.  1.
</event>
<event>
 4    1  0.1235203E+000  0.2252384E+03  0.7818608E-02  0.1130037E+00
         21   -1    0    0  501  502  0.00000000000E+00  0.00000000000E+00  0.35586222504E+03  0.35586222504E+03  0.00000000000E+00 0. -1.
         21   -1    0    0  502  503 -0.00000000000E+00 -0.00000000000E+00 -0.14290183682E+03  0.14290183682E+03  0.00000000000E+00 0.  1.
          6    1    1    2  501    0 -0.13111150710E+03  0.62913650583E+02  0.94315042243E+02  0.24418780051E+03  0.17200000000E+03 0.  1.
         -6    1    1    2    0  503  0.13111150710E+03 -0.62913650583E+02  0.11864534598E+03  0.25457626135E+03  0.17200000000E+03 0.  1.
</event>
<event>
 4    1  0.1235203E+000  0.1768018E+03  0.7818608E-02  0.1170935E+00
         21   -1    0    0  503  502  0.00000000000E+00  0.00000000000E+00  0.40000856747E+03  0.40000856747E+03  0.00000000000E+00 0.  1.
         21   -1    0    0  501  503 -0.00000000000E+00 -0.00000000000E+00 -0.87055496707E+02  0.87055496707E+02  0.00000000000E+00 0.  1.
          6    1    1    2  501    0 -0.29741584569E+01 -0.40816870142E+02  0.23438725077E+03  0.29359197167E+03  0.17200000000E+03 0.  1.
         -6    1    1    2    0  502  0.29741584569E+01  0.40816870142E+02  0.78565819990E+02  0.19347209250E+03  0.17200000000E+03 0.  1.
</event>
<event>
 4    1  0.1235203E+000  0.1995224E+03  0.7818608E-02  0.1150143E+00
         21   -1    0    0  503  502  0.00000000000E+00  0.00000000000E+00  0.39341626017E+03  0.39341626017E+03  0.00000000000E+00 0.  1.
         21   -1    0    0  501  503 -0.00000000000E+00 -0.00000000000E+00 -0.10404721911E+03  0.10404721911E+03  0.00000000000E+00 0.  1.
          6    1    1    2  501    0 -0.94744355464E+02 -0.35336779477E+02  0.10345525070E+03  0.22474912630E+03  0.17200000000E+03 0.  1.
         -6    1    1    2    0  502  0.94744355464E+02  0.35336779477E+02  0.18591379036E+03  0.27271435298E+03  0.17200000000E+03 0.  1.
</event>
<event>
 4    1  0.1235203E+000  0.1955615E+03  0.7818608E-02  0.1153539E+00
         21   -1    0    0  501  502  0.00000000000E+00  0.00000000000E+00  0.13437380158E+04  0.13437380158E+04  0.00000000000E+00 0.  1.
         21   -1    0    0  502  503 -0.00000000000E+00 -0.00000000000E+00 -0.44859065877E+02  0.44859065877E+02  0.00000000000E+00 0.  1.
          6    1    1    2  501    0  0.90296287668E+02 -0.22514073614E+02  0.10692136574E+04  0.10869508490E+04  0.17200000000E+03 0.  1.
         -6    1    1    2    0  503 -0.90296287668E+02  0.22514073614E+02  0.22966529258E+03  0.30164623268E+03  0.17200000000E+03 0.  1.
</event>
<event>
 4    1  0.1235203E+000  0.1733916E+03  0.7818608E-02  0.1174356E+00
         21   -1    0    0  501  502  0.00000000000E+00  0.00000000000E+00  0.11365247892E+03  0.11365247892E+03  0.00000000000E+00 0.  1.
         21   -1    0    0  502  503 -0.00000000000E+00 -0.00000000000E+00 -0.54473796360E+03  0.54473796360E+03  0.00000000000E+00 0.  1.
          6    1    1    2  501    0 -0.12426757859E+02  0.18061630814E+02  0.20558824973E+02  0.17460616284E+03  0.17200000000E+03 0.  1.
         -6    1    1    2    0  503  0.12426757859E+02 -0.18061630814E+02 -0.45164430966E+03  0.48378427968E+03  0.17200000000E+03 0.  1.
</event>
<event>
 4    1  0.1235203E+000  0.1993791E+03  0.7818608E-02  0.1150264E+00
         21   -1    0    0  503  502  0.00000000000E+00  0.00000000000E+00  0.79278392951E+03  0.79278392951E+03  0.00000000000E+00 0. -1.
         21   -1    0    0  501  503 -0.00000000000E+00 -0.00000000000E+00 -0.52764201049E+02  0.52764201049E+02  0.00000000000E+00 0. -1.
          6    1    1    2  501    0 -0.35419754269E+02  0.94411127694E+02  0.46425212968E+03  0.50525445068E+03  0.17200000000E+03 0.  1.
         -6    1    1    2    0  502  0.35419754269E+02 -0.94411127694E+02  0.27576759879E+03  0.34029367988E+03  0.17200000000E+03 0.  1.
</event>
<event>
 4    1  0.1235203E+000  0.1765064E+03  0.7818608E-02  0.1171228E+00
         21   -1    0    0  503  502  0.00000000000E+00  0.00000000000E+00  0.15701280382E+03  0.15701280382E+03  0.00000000000E+00 0.  1.
         21   -1    0    0  501  503 -0.00000000000E+00 -0.00000000000E+00 -0.24692946736E+03  0.24692946736E+03  0.00000000000E+00 0.  1.
          6    1    1    2  501    0 -0.22811621266E+02  0.32405825732E+02 -0.13447735374E+03  0.22189787353E+03  0.17200000000E+03 0.  1.
         -6    1    1    2    0  502  0.22811621266E+02 -0.32405825732E+02  0.44560690196E+02  0.18204439765E+03  0.17200000000E+03 0.  1.
</event>
<event>
 4    1  0.1235203E+000  0.1826391E+03  0.7818608E-02  0.1165273E+00
         21   -1    0    0  501  502  0.00000000000E+00  0.00000000000E+00  0.94545553970E+02  0.94545553970E+02  0.00000000000E+00 0. -1.
         21   -1    0    0  502  503 -0.00000000000E+00 -0.00000000000E+00 -0.48655682929E+03  0.48655682929E+03  0.00000000000E+00 0. -1.
          6    1    1    2  501    0  0.38499066348E+02 -0.47862828304E+02 -0.43673844349E+02  0.18778826673E+03  0.17200000000E+03 0. -1.
         -6    1    1    2    0  503 -0.38499066348E+02  0.47862828304E+02 -0.34833743097E+03  0.39331411653E+03  0.17200000000E+03 0. -1.
</event>
<event>
 4    1  0.1235203E+000  0.1777211E+03  0.7818608E-02  0.1170027E+00
         21   -1    0    0  503  502  0.00000000000E+00  0.00000000000E+00  0.15566230220E+03  0.15566230220E+03  0.00000000000E+00 0. -1.
         21   -1    0    0  501  503 -0.00000000000E+00 -0.00000000000E+00 -0.25788040342E+03  0.25788040342E+03  0.00000000000E+00 0. -1.
          6    1    1    2  501    0 -0.37270523887E+02  0.24732712194E+02 -0.14657793980E+03  0.23036903316E+03  0.17200000000E+03 0. -1.
         -6    1    1    2    0  502  0.37270523887E+02 -0.24732712194E+02  0.44359838583E+02  0.18317367246E+03  0.17200000000E+03 0. -1.
</event>
<event>
 4    1  0.1235203E+000  0.2074906E+03  0.7818608E-02  0.1143569E+00
         21   -1    0    0  503  502  0.00000000000E+00  0.00000000000E+00  0.11011172685E+03  0.11011172685E+03  0.00000000000E+00 0. -1.
         21   -1    0    0  501  503 -0.00000000000E+00 -0.00000000000E+00 -0.63769136096E+03  0.63769136096E+03  0.00000000000E+00 0. -1.
          6    1    1    2  501    0 -0.11395072998E+03 -0.21990533581E+02 -0.49635227889E+03  0.53797577752E+03  0.17200000000E+03 0. -1.
         -6    1    1    2    0  502  0.11395072998E+03  0.21990533581E+02 -0.31227355217E+02  0.20982731029E+03  0.17200000000E+03 0. -1.
</event>
<event>
 4    1  0.1235203E+000  0.2017209E+03  0.7818608E-02  0.1148295E+00
         21   -1    0    0  503  502  0.00000000000E+00  0.00000000000E+00  0.70755418556E+03  0.70755418556E+03  0.00000000000E+00 0.  1.
         21   -1    0    0  501  503 -0.00000000000E+00 -0.00000000000E+00 -0.12734746819E+03  0.12734746819E+03  0.00000000000E+00 0.  1.
          6    1    1    2  501    0  0.67118213147E+02 -0.81255568952E+02 -0.19036450928E+02  0.20261714756E+03  0.17200000000E+03 0.  1.
         -6    1    1    2    0  502 -0.67118213147E+02  0.81255568952E+02  0.59924316830E+03  0.63228450619E+03  0.17200000000E+03 0.  1.
</event>
<event>
 4    1  0.1235203E+000  0.1741501E+03  0.7818608E-02  0.1173588E+00
         21   -1    0    0  503  502  0.00000000000E+00  0.00000000000E+00  0.12870247771E+03  0.12870247771E+03  0.00000000000E+00 0. -1.
         21   -1    0    0  501  503 -0.00000000000E+00 -0.00000000000E+00 -0.31136897725E+03  0.31136897725E+03  0.00000000000E+00 0. -1.
          6    1    1    2  501    0 -0.22453013021E+01 -0.27188495184E+02 -0.19984297660E+03  0.26507634928E+03  0.17200000000E+03 0.  1.
         -6    1    1    2    0  502  0.22453013021E+01  0.27188495184E+02  0.17176477062E+02  0.17499510568E+03  0.17200000000E+03 0.  1.
</event>
<event>
 4    1  0.1235203E+000  0.2777961E+03  0.7818608E-02  0.1096899E+00
         21   -1    0    0  503  502  0.00000000000E+00  0.00000000000E+00  0.10001151644E+04  0.10001151644E+04  0.00000000000E+00 0.  1.
         21   -1    0    0  501  503 -0.00000000000E+00 -0.00000000000E+00 -0.18783664358E+03  0.18783664358E+03  0.00000000000E+00 0. -1.
          6    1    1    2  501    0  0.19710086983E+03 -0.93476979169E+02 -0.49795917760E+02  0.28222390393E+03  0.17200000000E+03 0. -1.
         -6    1    1    2    0  502 -0.19710086983E+03  0.93476979169E+02  0.86207443859E+03  0.90572790406E+03  0.17200000000E+03 0.  1.
</event>
<event>
 4    1  0.1235203E+000  0.1765010E+03  0.7818608E-02  0.1171233E+00
         21   -1    0    0  501  502  0.00000000000E+00  0.00000000000E+00  0.20622964668E+03  0.20622964668E+03  0.00000000000E+00 0.  1.
         21   -1    0    0  502  503 -0.00000000000E+00 -0.00000000000E+00 -0.19151880068E+03  0.19151880068E+03  0.00000000000E+00 0.  1.
          6    1    1    2  501    0 -0.38080970342E+02  0.10883517525E+02  0.98764794346E+02  0.20225502678E+03  0.17200000000E+03 0.  1.
         -6    1    1    2    0  503  0.38080970342E+02 -0.10883517525E+02 -0.84053948349E+02  0.19549342058E+03  0.17200000000E+03 0.  1.
</event>
<event>
 4    1  0.1235203E+000  0.2786640E+03  0.7818608E-02  0.1096421E+00
         21   -1    0    0  501  502  0.00000000000E+00  0.00000000000E+00  0.99449581027E+03  0.99449581027E+03  0.00000000000E+00 0. -1.
         21   -1    0    0  502  503 -0.00000000000E+00 -0.00000000000E+00 -0.92210161373E+02  0.92210161373E+02  0.00000000000E+00 0.  1.
          6    1    1    2  501    0  0.25440224484E+02 -0.21776688605E+03  0.66381655790E+03  0.71993474998E+03  0.17200000000E+03 0. -1.
         -6    1    1    2    0  503 -0.25440224484E+02  0.21776688605E+03  0.23846909100E+03  0.36677122167E+03  0.17200000000E+03 0.  1.
</event>
<event>
 4    1  0.1235203E+000  0.2391075E+03  0.7818608E-02  0.1120389E+00
         21   -1    0    0  503  502  0.00000000000E+00  0.00000000000E+00  0.76669050920E+02  0.76669050920E+02  0.00000000000E+00 0. -1.
         21   -1    0    0  501  503 -0.00000000000E+00 -0.00000000000E+00 -0.76755940201E+03  0.76755940201E+03  0.00000000000E+00 0.  1.
          6    1    1    2  501    0  0.24401717303E+02  0.16429525753E+03 -0.27421583924E+03  0.36382234943E+03  0.17200000000E+03 0. -1.
         -6    1    1    2    0  502 -0.24401717303E+02 -0.16429525753E+03 -0.41667451185E+03  0.48040610350E+03  0.17200000000E+03 0.  1.
</event>
<event>
 4    1  0.1235203E+000  0.1943322E+03  0.7818608E-02  0.1154611E+00
         21   -1    0    0  501  502  0.00000000000E+00  0.00000000000E+00  0.57547748781E+03  0.57547748781E+03  0.00000000000E+00 0. -1.
         21   -1    0    0  502  503 -0.00000000000E+00 -0.00000000000E+00 -0.73311343272E+02  0.73311343272E+02  0.00000000000E+00 0. -1.
          6    1    1    2  501    0  0.56408998804E+02 -0.70703806940E+02  0.35612975872E+03  0.40570113200E+03  0.17200000000E+03 0. -1.
         -6    1    1    2    0  503 -0.56408998804E+02  0.70703806940E+02  0.14603638582E+03  0.24308769908E+03  0.17200000000E+03 0. -1.
</event>
<event>
 4    1  0.1235203E+000  0.3217792E+03  0.7818608E-02  0.1074833E+00
         21   -1    0    0  503  502  0.00000000000E+00  0.00000000000E+00  0.89603023115E+03  0.89603023115E+03  0.00000000000E+00 0. -1.
         21   -1    0    0  501  503 -0.00000000000E+00 -0.00000000000E+00 -0.11564303577E+03  0.11564303577E+03  0.00000000000E+00 0. -1.
          6    1    1    2  501    0 -0.85589069076E+02 -0.25813239718E+03  0.37633016806E+03  0.49514262451E+03  0.17200000000E+03 0. -1.
         -6    1    1    2    0  502  0.85589069076E+02  0.25813239718E+03  0.40405702732E+03  0.51653064240E+03  0.17200000000E+03 0. -1.
</event>
<event>
 4    1  0.1235203E+000  0.3017245E+03  0.7818608E-02  0.1084382E+00
         21   -1    0    0  501  502  0.00000000000E+00  0.00000000000E+00  0.87712296721E+03  0.87712296721E+03  0.00000000000E+00 0.  1.
         21   -1    0    0  502  503 -0.00000000000E+00 -0.00000000000E+00 -0.10945089736E+03  0.10945089736E+03  0.00000000000E+00 0. -1.
          6    1    1    2  501    0  0.55271047247E+02 -0.24165835479E+03  0.49600853160E+03  0.58057050608E+03  0.17200000000E+03 0.  1.
         -6    1    1    2    0  503 -0.55271047247E+02  0.24165835479E+03  0.27166353825E+03  0.40600335850E+03  0.17200000000E+03 0. -1.
</event>
<event>
 4    1  0.1235203E+000  0.2153809E+03  0.7818608E-02  0.1137374E+00
         21   -1    0    0  501  502  0.00000000000E+00  0.00000000000E+00  0.47677372925E+02  0.47677372925E+02  0.00000000000E+00 0.  1.
         21   -1    0    0  502  503 -0.00000000000E+00 -0.00000000000E+00 -0.98347322017E+03  0.98347322017E+03  0.00000000000E+00 0. -1.
          6    1    1    2  501    0  0.12957667362E+03 -0.38481117852E+01 -0.41463126131E+03  0.46723442207E+03  0.17200000000E+03 0. -1.
         -6    1    1    2    0  503 -0.12957667362E+03  0.38481117852E+01 -0.52116458594E+03  0.56391617103E+03  0.17200000000E+03 0.  1.
</event>
<event>
 4    1  0.1235203E+000  0.2169320E+03  0.7818608E-02  0.1136191E+00
         21   -1    0    0  501  502  0.00000000000E+00  0.00000000000E+00  0.20391402040E+03  0.20391402040E+03  0.00000000000E+00 0. -1.
         21   -1    0    0  502  503 -0.00000000000E+00 -0.00000000000E+00 -0.35247461383E+03  0.35247461383E+03  0.00000000000E+00 0. -1.
          6    1    1    2  501    0  0.12750962502E+03 -0.34882460790E+02  0.89182207403E+02  0.23454841006E+03  0.17200000000E+03 0. -1.
         -6    1    1    2    0  503 -0.12750962502E+03  0.34882460790E+02 -0.23774280083E+03  0.32184022417E+03  0.17200000000E+03 0. -1.
</event>
<event>
 4    1  0.1235203E+000  0.1971375E+03  0.7818608E-02  0.1152177E+00
         21   -1    0    0  503  502  0.00000000000E+00  0.00000000000E+00  0.11823391044E+02  0.11823391044E+02  0.00000000000E+00 0. -1.
         21   -1    0    0  501  503 -0.00000000000E+00 -0.00000000000E+00 -0.34583950319E+04  0.34583950319E+04  0.00000000000E+00 0.  1.
          6    1    1    2  501    0 -0.78992162159E+02  0.55130876249E+02 -0.21095833859E+04  0.21187744659E+04  0.17200000000E+03 0. -1.
         -6    1    1    2    0  502  0.78992162159E+02 -0.55130876249E+02 -0.13369882550E+04  0.13514439571E+04  0.17200000000E+03 0. -1.
</event>
<event>
 4    1  0.1235203E+000  0.2612448E+03  0.7818608E-02  0.1106398E+00
         21   -1    0    0  501  502  0.00000000000E+00  0.00000000000E+00  0.20698598218E+03  0.20698598218E+03  0.00000000000E+00 0. -1.
         21   -1    0    0  502  503 -0.00000000000E+00 -0.00000000000E+00 -0.76513854216E+03  0.76513854216E+03  0.00000000000E+00 0.  1.
          6    1    1    2  501    0  0.18010023444E+03 -0.78922495507E+02  0.87590751317E+02  0.27553764618E+03  0.17200000000E+03 0. -1.
         -6    1    1    2    0  503 -0.18010023444E+03  0.78922495507E+02 -0.64574331130E+03  0.69658687816E+03  0.17200000000E+03 0. -1.
</event>
<event>
 4    1  0.1235203E+000  0.2266018E+03  0.7818608E-02  0.1129055E+00
         21   -1    0    0  503  502  0.00000000000E+00  0.00000000000E+00  0.32642848581E+03  0.32642848581E+03  0.00000000000E+00 0.  1.
         21   -1    0    0  501  503 -0.00000000000E+00 -0.00000000000E+00 -0.20847043357E+03  0.20847043357E+03  0.00000000000E+00 0. -1.
          6    1    1    2  501    0 -0.13378468058E+03 -0.62177525194E+02 -0.73520290460E+02  0.23823017967E+03  0.17200000000E+03 0. -1.
         -6    1    1    2    0  502  0.13378468058E+03  0.62177525194E+02  0.19147834269E+03  0.29666873970E+03  0.17200000000E+03 0.  1.
</event>
<event>
 4    1  0.1235203E+000  0.1738590E+03  0.7818608E-02  0.1173882E+00
         21   -1    0    0  503  502  0.00000000000E+00  0.00000000000E+00  0.31911137603E+02  0.31911137603E+02  0.00000000000E+00 0. -1.
         21   -1    0    0  501  503 -0.00000000000E+00 -0.00000000000E+00 -0.10417213721E+04  0.10417213721E+04  0.00000000000E+00 0. -1.
          6    1    1    2  501    0 -0.58524972190E+01 -0.24671614309E+02 -0.66658787425E+03  0.68888775165E+03  0.17200000000E+03 0.  1.
         -6    1    1    2    0  502  0.58524972190E+01  0.24671614309E+02 -0.34322236025E+03  0.38474475806E+03  0.17200000000E+03 0.  1.
</event>
<event>
 4    1  0.1235203E+000  0.1922337E+03  0.7818608E-02  0.1156462E+00
         21   -1    0    0  503  502  0.00000000000E+00  0.00000000000E+00  0.94837984654E+03  0.94837984654E+03  0.00000000000E+00 0. -1.
         21   -1    0    0  501  503 -0.00000000000E+00 -0.00000000000E+00 -0.40767233904E+02  0.40767233904E+02  0.00000000000E+00 0. -1.
          6    1    1    2  501    0  0.81853538423E+02 -0.25880486875E+02  0.34982437417E+03  0.39916274139E+03  0.17200000000E+03 0. -1.
         -6    1    1    2    0  502 -0.81853538423E+02  0.25880486875E+02  0.55778823846E+03  0.58998433904E+03  0.17200000000E+03 0. -1.
</event>
<event>
 4    1  0.1235203E+000  0.6200362E+03  0.7818608E-02  0.9864688E-01
         21   -1    0    0  503  502  0.00000000000E+00  0.00000000000E+00  0.57846105491E+03  0.57846105491E+03  0.00000000000E+00 0. -1.
         21   -1    0    0  501  503 -0.00000000000E+00 -0.00000000000E+00 -0.21609007014E+04  0.21609007014E+04  0.00000000000E+00 0.  1.
          6    1    1    2  501    0  0.40407929213E+03 -0.43769944411E+03 -0.19309748397E+04  0.20280800549E+04  0.17200000000E+03 0.  1.
         -6    1    1    2    0  502 -0.40407929213E+03  0.43769944411E+03  0.34853519325E+03  0.71128170132E+03  0.17200000000E+03 0. -1.
</event>
<event>
 4    1  0.1235203E+000  0.1994093E+03  0.7818608E-02  0.1150238E+00
         21   -1    0    0  503  502  0.00000000000E+00  0.00000000000E+00  0.63328770001E+02  0.63328770001E+02  0.00000000000E+00 0. -1.
         21   -1    0    0  501  503 -0.00000000000E+00 -0.00000000000E+00 -0.74842690927E+03  0.74842690927E+03  0.00000000000E+00 0. -1.
          6    1    1    2  501    0  0.36998237649E+02  0.93868091122E+02 -0.50542765088E+03  0.54334261603E+03  0.17200000000E+03 0. -1.
         -6    1    1    2    0  502 -0.36998237649E+02 -0.93868091122E+02 -0.17967048838E+03  0.26841306324E+03  0.17200000000E+03 0. -1.
</event>
<event>
 4    1  0.1235203E+000  0.2879288E+03  0.7818608E-02  0.1091435E+00
         21   -1    0    0  501  502  0.00000000000E+00  0.00000000000E+00  0.84876332608E+03  0.84876332608E+03  0.00000000000E+00 0. -1.
         21   -1    0    0  502  503 -0.00000000000E+00 -0.00000000000E+00 -0.11793895757E+03  0.11793895757E+03  0.00000000000E+00 0.  1.
          6    1    1    2  501    0 -0.22423830725E+03  0.55101752026E+02  0.16505937483E+03  0.33188494804E+03  0.17200000000E+03 0.  1.
         -6    1    1    2    0  503  0.22423830725E+03 -0.55101752026E+02  0.56576499368E+03  0.63481733561E+03  0.17200000000E+03 0.  1.
</event>
<event>
 4    1  0.1235203E+000  0.2497402E+03  0.7818608E-02  0.1113469E+00
         21   -1    0    0  501  502  0.00000000000E+00  0.00000000000E+00  0.12394852938E+03  0.12394852938E+03  0.00000000000E+00 0. -1.
         21   -1    0    0  502  503 -0.00000000000E+00 -0.00000000000E+00 -0.58665619278E+03  0.58665619278E+03  0.00000000000E+00 0.  1.
          6    1    1    2  501    0 -0.38273077643E+02 -0.17697837490E+03 -0.97339638963E+02  0.26803951009E+03  0.17200000000E+03 0. -1.
         -6    1    1    2    0  503  0.38273077643E+02  0.17697837490E+03 -0.36536802444E+03  0.44256521207E+03  0.17200000000E+03 0.  1.
</event>
<event>
 4    1  0.1235203E+000  0.1789155E+03  0.7818608E-02  0.1168857E+00
         21   -1    0    0  501  502  0.00000000000E+00  0.00000000000E+00  0.81029235120E+02  0.81029235120E+02  0.00000000000E+00 0.  1.
         21   -1    0    0  502  503 -0.00000000000E+00 -0.00000000000E+00 -0.17718074343E+04  0.17718074343E+04  0.00000000000E+00 0.  1.
          6    1    1    2  501    0  0.44875853320E+02 -0.20319965517E+02 -0.28755364072E+02  0.18121151777E+03  0.17200000000E+03 0.  1.
         -6    1    1    2    0  503 -0.44875853320E+02  0.20319965517E+02 -0.16620228351E+04  0.16716251517E+04  0.17200000000E+03 0.  1.
</event>
<event>
 4    1  0.1235203E+000  0.1892177E+03  0.7818608E-02  0.1159169E+00
         21   -1    0    0  501  502  0.00000000000E+00  0.00000000000E+00  0.14312843356E+04  0.14312843356E+04  0.00000000000E+00 0. -1.
         21   -1    0    0  502  503 -0.00000000000E+00 -0.00000000000E+00 -0.75575090438E+02  0.75575090438E+02  0.00000000000E+00 0. -1.
          6    1    1    2  501    0 -0.18549053516E+02 -0.76650421295E+02  0.12941061326E+04  0.13078662152E+04  0.17200000000E+03 0. -1.
         -6    1    1    2    0  503  0.18549053516E+02  0.76650421295E+02  0.61603112543E+02  0.19899321080E+03  0.17200000000E+03 0. -1.
</event>
<event>
 4    1  0.1235203E+000  0.2200738E+03  0.7818608E-02  0.1133828E+00
         21   -1    0    0  503  502  0.00000000000E+00  0.00000000000E+00  0.13980589775E+03  0.13980589775E+03  0.00000000000E+00 0.  1.
         21   -1    0    0  501  503 -0.00000000000E+00 -0.00000000000E+00 -0.44129889697E+03  0.44129889697E+03  0.00000000000E+00 0.  1.
          6    1    1    2  501    0 -0.22513340463E+02  0.13543130876E+03 -0.28546511722E+03  0.36044808647E+03  0.17200000000E+03 0.  1.
         -6    1    1    2    0  502  0.22513340463E+02 -0.13543130876E+03 -0.16027882003E+02  0.22065670824E+03  0.17200000000E+03 0.  1.
</event>
<event>
 4    1  0.1235203E+000  0.2104956E+03  0.7818608E-02  0.1141174E+00
         21   -1    0    0  501  502  0.00000000000E+00  0.00000000000E+00  0.11789204408E+04  0.11789204408E+04  0.00000000000E+00 0. -1.
         21   -1    0    0  502  503 -0.00000000000E+00 -0.00000000000E+00 -0.50029811163E+02  0.50029811163E+02  0.00000000000E+00 0. -1.
          6    1    1    2  501    0  0.40546816023E+02  0.11436931496E+03  0.87092653430E+03  0.89600302044E+03  0.17200000000E+03 0. -1.
         -6    1    1    2    0  503 -0.40546816023E+02 -0.11436931496E+03  0.25796409533E+03  0.33294723152E+03  0.17200000000E+03 0. -1.
</event>
<event>
 4    1  0.1235203E+000  0.1767690E+03  0.7818608E-02  0.1170967E+00
         21   -1    0    0  501  502  0.00000000000E+00  0.00000000000E+00  0.10678920396E+04  0.10678920396E+04  0.00000000000E+00 0.  1.
         21   -1    0    0  502  503 -0.00000000000E+00 -0.00000000000E+00 -0.79152435024E+02  0.79152435024E+02  0.00000000000E+00 0.  1.
          6    1    1    2  501    0  0.38431426386E+02  0.13649989660E+02  0.94970614032E+03  0.96601710633E+03  0.17200000000E+03 0.  1.
         -6    1    1    2    0  503 -0.38431426386E+02 -0.13649989660E+02  0.39033464293E+02  0.18102736834E+03  0.17200000000E+03 0.  1.
</event>
<event>
 4    1  0.1235203E+000  0.2072775E+03  0.7818608E-02  0.1143740E+00
         21   -1    0    0  503  502  0.00000000000E+00  0.00000000000E+00  0.33207813780E+02  0.33207813780E+02  0.00000000000E+00 0. -1.
         21   -1    0    0  501  503 -0.00000000000E+00 -0.00000000000E+00 -0.13600958155E+04  0.13600958155E+04  0.00000000000E+00 0. -1.
          6    1    1    2  501    0  0.11413764808E+03 -0.18776951252E+02 -0.81726051439E+03  0.84313624344E+03  0.17200000000E+03 0. -1.
         -6    1    1    2    0  502 -0.11413764808E+03  0.18776951252E+02 -0.50962748732E+03  0.55016738584E+03  0.17200000000E+03 0. -1.
</event>
<event>
 4    1  0.1235203E+000  0.1978447E+03  0.7818608E-02  0.1151570E+00
         21   -1    0    0  503  502  0.00000000000E+00  0.00000000000E+00  0.96612787490E+03  0.96612787490E+03  0.00000000000E+00 0. -1.
         21   -1    0    0  501  503 -0.00000000000E+00 -0.00000000000E+00 -0.17908906744E+03  0.17908906744E+03  0.00000000000E+00 0.  1.
          6    1    1    2  501    0  0.55421461634E+02 -0.80541944680E+02 -0.11017186248E+03  0.22645172233E+03  0.17200000000E+03 0.  1.
         -6    1    1    2    0  502 -0.55421461634E+02  0.80541944680E+02  0.89721066994E+03  0.91876522002E+03  0.17200000000E+03 0. -1.
</event>
<event>
 4    1  0.1235203E+000  0.2029326E+03  0.7818608E-02  0.1147288E+00
         21   -1    0    0  501  502  0.00000000000E+00  0.00000000000E+00  0.39007227129E+03  0.39007227129E+03  0.00000000000E+00 0. -1.
         21   -1    0    0  502  503 -0.00000000000E+00 -0.00000000000E+00 -0.20630497114E+03  0.20630497114E+03  0.00000000000E+00 0.  1.
          6    1    1    2  501    0  0.67878078474E+02 -0.83607499292E+02  0.30024485511E+03  0.36239290900E+03  0.17200000000E+03 0. -1.
         -6    1    1    2    0  503 -0.67878078474E+02  0.83607499292E+02 -0.11647755497E+03  0.23398433342E+03  0.17200000000E+03 0.  1.
</event>
<event>
 4    1  0.1235203E+000  0.1827748E+03  0.7818608E-02  0.1165144E+00
         21   -1    0    0  501  502  0.00000000000E+00  0.00000000000E+00  0.78538854044E+02  0.78538854044E+02  0.00000000000E+00 0. -1.
         21   -1    0    0  502  503 -0.00000000000E+00 -0.00000000000E+00 -0.15971909483E+04  0.15971909483E+04  0.00000000000E+00 0. -1.
          6    1    1    2  501    0  0.61482264163E+02 -0.65237693113E+01 -0.41648080152E+02  0.18745983824E+03  0.17200000000E+03 0.  1.
         -6    1    1    2    0  503 -0.61482264163E+02  0.65237693113E+01 -0.14770040141E+04  0.14882699641E+04  0.17200000000E+03 0.  1.
</event>
<event>
 4    1  0.1235203E+000  0.1772518E+03  0.7818608E-02  0.1170490E+00
         21   -1    0    0  501  502  0.00000000000E+00  0.00000000000E+00  0.18562454128E+04  0.18562454128E+04  0.00000000000E+00 0.  1.
         21   -1    0    0  502  503 -0.00000000000E+00 -0.00000000000E+00 -0.30285946847E+02  0.30285946847E+02  0.00000000000E+00 0.  1.
          6    1    1    2  501    0  0.20029229561E+01  0.42780903210E+02  0.15394796362E+04  0.15496502081E+04  0.17200000000E+03 0.  1.
         -6    1    1    2    0  503 -0.20029229561E+01 -0.42780903210E+02  0.28647982985E+03  0.33688115158E+03  0.17200000000E+03 0.  1.
</event>
<event>
 4    1  0.1235203E+000  0.1931834E+03  0.7818608E-02  0.1155621E+00
         21   -1    0    0  501  502  0.00000000000E+00  0.00000000000E+00  0.31793210566E+03  0.31793210566E+03  0.00000000000E+00 0. -1.
         21   -1    0    0  502  503 -0.00000000000E+00 -0.00000000000E+00 -0.13736101527E+03  0.13736101527E+03  0.00000000000E+00 0. -1.
          6    1    1    2  501    0 -0.82861962987E+02  0.29490758294E+02  0.17710279359E+03  0.26207863178E+03  0.17200000000E+03 0.  1.
         -6    1    1    2    0  503  0.82861962987E+02 -0.29490758294E+02  0.34682967905E+01  0.19321448915E+03  0.17200000000E+03 0.  1.
</event>
<event>
 4    1  0.1235203E+000  0.1769386E+03  0.7818608E-02  0.1170799E+00
         21   -1    0    0  501  502  0.00000000000E+00  0.00000000000E+00  0.83958878518E+01  0.83958878518E+01  0.00000000000E+00 0.  1.
         21   -1    0    0  502  503 -0.00000000000E+00 -0.00000000000E+00 -0.41072486719E+04  0.41072486719E+04  0.00000000000E+00 0.  1.
          6    1    1    2  501    0  0.29139442007E+02 -0.29565963986E+02 -0.14248432010E+04  0.14357873801E+04  0.17200000000E+03 0.  1.
         -6    1    1    2    0  503 -0.29139442007E+02  0.29565963986E+02 -0.26740095831E+04  0.26798571797E+04  0.17200000000E+03 0.  1.
</event>
<event>
 4    1  0.1235203E+000  0.2641229E+03  0.7818608E-02  0.1104691E+00
         21   -1    0    0  501  502  0.00000000000E+00  0.00000000000E+00  0.27047658586E+03  0.27047658586E+03  0.00000000000E+00 0.  1.
         21   -1    0    0  502  503 -0.00000000000E+00 -0.00000000000E+00 -0.31378465077E+03  0.31378465077E+03  0.00000000000E+00 0. -1.
          6    1    1    2  501    0 -0.18184197194E+03  0.84323297081E+02  0.10160975847E+03  0.28299375294E+03  0.17200000000E+03 0. -1.
         -6    1    1    2    0  503  0.18184197194E+03 -0.84323297081E+02 -0.14491782338E+03  0.30126748368E+03  0.17200000000E+03 0.  1.
</event>
<event>
 4    1  0.1235203E+000  0.2031730E+03  0.7818608E-02  0.1147089E+00
         21   -1    0    0  501  502  0.00000000000E+00  0.00000000000E+00  0.13277541081E+04  0.13277541081E+04  0.00000000000E+00 0. -1.
         21   -1    0    0  502  503 -0.00000000000E+00 -0.00000000000E+00 -0.46846124422E+02  0.46846124422E+02  0.00000000000E+00 0.  1.
          6    1    1    2  501    0  0.50363713180E+02 -0.95701379949E+02  0.10390571118E+04  0.10587345934E+04  0.17200000000E+03 0.  1.
         -6    1    1    2    0  503 -0.50363713180E+02  0.95701379949E+02  0.24185087184E+03  0.31586563906E+03  0.17200000000E+03 0.  1.
</event>
<event>
 4    1  0.1235203E+000  0.2160865E+03  0.7818608E-02  0.1136835E+00
         21   -1    0    0  503  502  0.00000000000E+00  0.00000000000E+00  0.17476357627E+04  0.17476357627E+04  0.00000000000E+00 0. -1.
         21   -1    0    0  501  503 -0.00000000000E+00 -0.00000000000E+00 -0.36978734696E+02  0.36978734696E+02  0.00000000000E+00 0. -1.
          6    1    1    2  501    0 -0.96562415295E+02 -0.88233041068E+02  0.38529678504E+03  0.44175443647E+03  0.17200000000E+03 0. -1.
         -6    1    1    2    0  502  0.96562415295E+02  0.88233041068E+02  0.13253602430E+04  0.13428600609E+04  0.17200000000E+03 0. -1.
</event>
<event>
 4    1  0.1235203E+000  0.3461134E+03  0.7818608E-02  0.1064222E+00
         21   -1    0    0  503  502  0.00000000000E+00  0.00000000000E+00  0.54487937058E+03  0.54487937058E+03  0.00000000000E+00 0.  1.
         21   -1    0    0  501  503 -0.00000000000E+00 -0.00000000000E+00 -0.48643365153E+03  0.48643365153E+03  0.00000000000E+00 0. -1.
          6    1    1    2  501    0 -0.15266785291E+03  0.25865614167E+03 -0.35251159046E+03  0.49402317187E+03  0.17200000000E+03 0. -1.
         -6    1    1    2    0  502  0.15266785291E+03 -0.25865614167E+03  0.41095730951E+03  0.53728985024E+03  0.17200000000E+03 0.  1.
</event>
<event>
 4    1  0.1235203E+000  0.2073131E+03  0.7818608E-02  0.1143712E+00
         21   -1    0    0  503  502  0.00000000000E+00  0.00000000000E+00  0.19408903338E+03  0.19408903338E+03  0.00000000000E+00 0. -1.
         21   -1    0    0  501  503 -0.00000000000E+00 -0.00000000000E+00 -0.55586284686E+03  0.55586284686E+03  0.00000000000E+00 0.  1.
          6    1    1    2  501    0 -0.99006864755E+02  0.59936404138E+02 -0.47173665936E+03  0.51528070757E+03  0.17200000000E+03 0.  1.
         -6    1    1    2    0  502  0.99006864755E+02 -0.59936404138E+02  0.10996284588E+03  0.23467117267E+03  0.17200000000E+03 0. -1.
</event>
<event>
 4    1  0.1235203E+000  0.1822112E+03  0.7818608E-02  0.1165680E+00
         21   -1    0    0  503  502  0.00000000000E+00  0.00000000000E+00  0.29136326289E+03  0.29136326289E+03  0.00000000000E+00 0. -1.
         21   -1    0    0  501  503 -0.00000000000E+00 -0.00000000000E+00 -0.11468646835E+03  0.11468646835E+03  0.00000000000E+00 0. -1.
          6    1    1    2  501    0  0.15910240527E+02 -0.57998045729E+02  0.72071521856E+02  0.19594696559E+03  0.17200000000E+03 0.  1.
         -6    1    1    2    0  502 -0.15910240527E+02  0.57998045729E+02  0.10460527268E+03  0.21010276565E+03  0.17200000000E+03 0.  1.
</event>
<event>
 4    1  0.1235203E+000  0.2229175E+03  0.7818608E-02  0.1131726E+00
         21   -1    0    0  503  502  0.00000000000E+00  0.00000000000E+00  0.25732901532E+03  0.25732901532E+03  0.00000000000E+00 0.  1.
         21   -1    0    0  501  503 -0.00000000000E+00 -0.00000000000E+00 -0.28178351146E+03  0.28178351146E+03  0.00000000000E+00 0.  1.
          6    1    1    2  501    0  0.83014554553E+02 -0.11496431476E+03 -0.16344203653E+03  0.27641546491E+03  0.17200000000E+03 0.  1.
         -6    1    1    2    0  502 -0.83014554553E+02  0.11496431476E+03  0.13898754039E+03  0.26269706188E+03  0.17200000000E+03 0.  1.
</event>
<event>
 4    1  0.1235203E+000  0.1754024E+03  0.7818608E-02  0.1172328E+00
         21   -1    0    0  501  502  0.00000000000E+00  0.00000000000E+00  0.19072885189E+03  0.19072885189E+03  0.00000000000E+00 0.  1.
         21   -1    0    0  502  503 -0.00000000000E+00 -0.00000000000E+00 -0.26073563300E+03  0.26073563300E+03  0.00000000000E+00 0.  1.
          6    1    1    2  501    0  0.10022731615E+02  0.32886726708E+02  0.10439189031E+03  0.20411677713E+03  0.17200000000E+03 0.  1.
         -6    1    1    2    0  503 -0.10022731615E+02 -0.32886726708E+02 -0.17439867142E+03  0.24734770777E+03  0.17200000000E+03 0.  1.
</event>
<event>
 4    1  0.1235203E+000  0.2198170E+03  0.7818608E-02  0.1134020E+00
         21   -1    0    0  501  502  0.00000000000E+00  0.00000000000E+00  0.44978824747E+03  0.44978824747E+03  0.00000000000E+00 0. -1.
         21   -1    0    0  502  503 -0.00000000000E+00 -0.00000000000E+00 -0.10834356248E+03  0.10834356248E+03  0.00000000000E+00 0.  1.
          6    1    1    2  501    0  0.48110908253E+02  0.12814393551E+03  0.14505859493E+03  0.26336576023E+03  0.17200000000E+03 0. -1.
         -6    1    1    2    0  503 -0.48110908253E+02 -0.12814393551E+03  0.19638609007E+03  0.29476604973E+03  0.17200000000E+03 0.  1.
</event>
<event>
 4    1  0.1235203E+000  0.2294249E+03  0.7818608E-02  0.1127045E+00
         21   -1    0    0  501  502  0.00000000000E+00  0.00000000000E+00  0.10544392591E+03  0.10544392591E+03  0.00000000000E+00 0.  1.
         21   -1    0    0  502  503 -0.00000000000E+00 -0.00000000000E+00 -0.76606046301E+03  0.76606046301E+03  0.00000000000E+00 0. -1.
          6    1    1    2  501    0 -0.10978533621E+03 -0.10487595229E+03 -0.58750428583E+03  0.63071155949E+03  0.17200000000E+03 0. -1.
         -6    1    1    2    0  503  0.10978533621E+03  0.10487595229E+03 -0.73112251276E+02  0.24079282942E+03  0.17200000000E+03 0.  1.
</event>
<event>
 4    1  0.1235203E+000  0.1844054E+03  0.7818608E-02  0.1163606E+00
         21   -1    0    0  503  502  0.00000000000E+00  0.00000000000E+00  0.65420771182E+02  0.65420771182E+02  0.00000000000E+00 0. -1.
         21   -1    0    0  501  503 -0.00000000000E+00 -0.00000000000E+00 -0.53958216379E+03  0.53958216379E+03  0.00000000000E+00 0. -1.
          6    1    1    2  501    0  0.28046546526E+02  0.60288770643E+02 -0.29500996366E+03  0.34790260605E+03  0.17200000000E+03 0.  1.
         -6    1    1    2    0  502 -0.28046546526E+02 -0.60288770643E+02 -0.17915142895E+03  0.25710032892E+03  0.17200000000E+03 0.  1.
</event>
<event>
 4    1  0.1235203E+000  0.2801639E+03  0.7818608E-02  0.1095599E+00
         21   -1    0    0  501  502  0.00000000000E+00  0.00000000000E+00  0.88430058009E+02  0.88430058009E+02  0.00000000000E+00 0.  1.
         21   -1    0    0  502  503 -0.00000000000E+00 -0.00000000000E+00 -0.94715676794E+03  0.94715676794E+03  0.00000000000E+00 0. -1.
          6    1    1    2  501    0 -0.15779836088E+03 -0.15494352517E+03 -0.29953858115E+03  0.41014043971E+03  0.17200000000E+03 0.  1.
         -6    1    1    2    0  503  0.15779836088E+03  0.15494352517E+03 -0.55918812878E+03  0.62544638624E+03  0.17200000000E+03 0.  1.
</event>
<event>
 4    1  0.1235203E+000  0.1873922E+03  0.7818608E-02  0.1160835E+00
         21   -1    0    0  501  502  0.00000000000E+00  0.00000000000E+00  0.20119971791E+03  0.20119971791E+03  0.00000000000E+00 0. -1.
         21   -1    0    0  502  503 -0.00000000000E+00 -0.00000000000E+00 -0.22182164943E+03  0.22182164943E+03  0.00000000000E+00 0. -1.
          6    1    1    2  501    0 -0.74375862444E+02 -0.26045186454E+00  0.87348041495E+02  0.20674989021E+03  0.17200000000E+03 0. -1.
         -6    1    1    2    0  503  0.74375862444E+02  0.26045186454E+00 -0.10796997301E+03  0.21627147713E+03  0.17200000000E+03 0. -1.
</event>
<event>
 4    1  0.1235203E+000  0.1970810E+03  0.7818608E-02  0.1152225E+00
         21   -1    0    0  503  502  0.00000000000E+00  0.00000000000E+00  0.10492302973E+03  0.10492302973E+03  0.00000000000E+00 0.  1.
         21   -1    0    0  501  503 -0.00000000000E+00 -0.00000000000E+00 -0.49707919173E+03  0.49707919173E+03  0.00000000000E+00 0.  1.
          6    1    1    2  501    0  0.24050931265E+01  0.96182923303E+02 -0.34815946526E+03  0.40006993446E+03  0.17200000000E+03 0. -1.
         -6    1    1    2    0  502 -0.24050931265E+01 -0.96182923303E+02 -0.43996696738E+02  0.20193228700E+03  0.17200000000E+03 0. -1.
</event>
<event>
 4    1  0.1235203E+000  0.2319722E+03  0.7818608E-02  0.1125259E+00
         21   -1    0    0  501  502  0.00000000000E+00  0.00000000000E+00  0.80112141214E+03  0.80112141214E+03  0.00000000000E+00 0.  1.
         21   -1    0    0  502  503 -0.00000000000E+00 -0.00000000000E+00 -0.99240429665E+02  0.99240429665E+02  0.00000000000E+00 0.  1.
          6    1    1    2  501    0  0.14766242594E+03  0.49223202090E+02  0.60685619007E+03  0.64968111492E+03  0.17200000000E+03 0.  1.
         -6    1    1    2    0  503 -0.14766242594E+03 -0.49223202090E+02  0.95024792404E+02  0.25068072688E+03  0.17200000000E+03 0.  1.
</event>
<event>
 4    1  0.1235203E+000  0.2486182E+03  0.7818608E-02  0.1114181E+00
         21   -1    0    0  503  502  0.00000000000E+00  0.00000000000E+00  0.69945994557E+03  0.69945994557E+03  0.00000000000E+00 0.  1.
         21   -1    0    0  501  503 -0.00000000000E+00 -0.00000000000E+00 -0.10054403102E+03  0.10054403102E+03  0.00000000000E+00 0. -1.
          6    1    1    2  501    0  0.88850058806E+02 -0.15598942380E+03  0.16026816738E+03  0.29579878087E+03  0.17200000000E+03 0. -1.
         -6    1    1    2    0  502 -0.88850058806E+02  0.15598942380E+03  0.43864774717E+03  0.50420519571E+03  0.17200000000E+03 0.  1.
</event>
<event>
 4    1  0.1235203E+000  0.2014248E+03  0.7818608E-02  0.1148542E+00
         21   -1    0    0  501  502  0.00000000000E+00  0.00000000000E+00  0.24086137354E+03  0.24086137354E+03  0.00000000000E+00 0. -1.
         21   -1    0    0  502  503 -0.00000000000E+00 -0.00000000000E+00 -0.19088096341E+03  0.19088096341E+03  0.00000000000E+00 0. -1.
          6    1    1    2  501    0  0.45722087203E+02 -0.94326202033E+02  0.98999076665E+02  0.22443876410E+03  0.17200000000E+03 0.  1.
         -6    1    1    2    0  503 -0.45722087203E+02  0.94326202033E+02 -0.49018666530E+02  0.20730357285E+03  0.17200000000E+03 0.  1.
</event>
<event>
 4    1  0.1235203E+000  0.3720893E+03  0.7818608E-02  0.1053897E+00
         21   -1    0    0  503  502  0.00000000000E+00  0.00000000000E+00  0.29900433255E+03  0.29900433255E+03  0.00000000000E+00 0. -1.
         21   -1    0    0  501  503 -0.00000000000E+00 -0.00000000000E+00 -0.98307466250E+03  0.98307466250E+03  0.00000000000E+00 0.  1.
          6    1    1    2  501    0 -0.21012979734E+03 -0.25438536845E+03 -0.80827396075E+03  0.88980741907E+03  0.17200000000E+03 0.  1.
         -6    1    1    2    0  502  0.21012979734E+03  0.25438536845E+03  0.12420363080E+03  0.39227157597E+03  0.17200000000E+03 0. -1.
</event>
<event>
 4    1  0.1235203E+000  0.2194351E+03  0.7818608E-02  0.1134305E+00
         21   -1    0    0  503  502  0.00000000000E+00  0.00000000000E+00  0.14359196804E+04  0.14359196804E+04  0.00000000000E+00 0.  1.
         21   -1    0    0  501  503 -0.00000000000E+00 -0.00000000000E+00 -0.34222281173E+02  0.34222281173E+02  0.00000000000E+00 0.  1.
          6    1    1    2  501    0 -0.70958110876E+02 -0.11633019432E+03  0.59658395674E+03  0.63566043219E+03  0.17200000000E+03 0. -1.
         -6    1    1    2    0  502  0.70958110876E+02  0.11633019432E+03  0.80511344244E+03  0.83448152934E+03  0.17200000000E+03 0. -1.
</event>
<event>
 4    1  0.1235203E+000  0.2072915E+03  0.7818608E-02  0.1143729E+00
         21   -1    0    0  501  502  0.00000000000E+00  0.00000000000E+00  0.14094894555E+03  0.14094894555E+03  0.00000000000E+00 0. -1.
         21   -1    0    0  502  503 -0.00000000000E+00 -0.00000000000E+00 -0.65158871149E+03  0.65158871149E+03  0.00000000000E+00 0. -1.
          6    1    1    2  501    0 -0.33329273512E+02  0.11079226440E+03  0.33746590008E+02  0.21002047200E+03  0.17200000000E+03 0. -1.
         -6    1    1    2    0  503  0.33329273512E+02 -0.11079226440E+03 -0.54438635594E+03  0.58251718504E+03  0.17200000000E+03 0. -1.
</event>
<event>
 4    1  0.1235203E+000  0.1985844E+03  0.7818608E-02  0.1150939E+00
         21   -1    0    0  503  502  0.00000000000E+00  0.00000000000E+00  0.16632505704E+04  0.16632505704E+04  0.00000000000E+00 0.  1.
         21   -1    0    0  501  503 -0.00000000000E+00 -0.00000000000E+00 -0.30866402103E+02  0.30866402103E+02  0.00000000000E+00 0. -1.
          6    1    1    2  501    0  0.56548943011E+02  0.81571865608E+02  0.40832723417E+03  0.45405603441E+03  0.17200000000E+03 0. -1.
         -6    1    1    2    0  502 -0.56548943011E+02 -0.81571865608E+02  0.12240569341E+04  0.12400609381E+04  0.17200000000E+03 0.  1.
</event>
<event>
 4    1  0.1235203E+000  0.1858966E+03  0.7818608E-02  0.1162215E+00
         21   -1    0    0  501  502  0.00000000000E+00  0.00000000000E+00  0.46362954932E+03  0.46362954932E+03  0.00000000000E+00 0. -1.
         21   -1    0    0  502  503 -0.00000000000E+00 -0.00000000000E+00 -0.74538280661E+02  0.74538280661E+02  0.00000000000E+00 0. -1.
          6    1    1    2  501    0  0.57581605614E+02  0.40717323572E+02  0.19341722604E+03  0.26826808433E+03  0.17200000000E+03 0.  1.
         -6    1    1    2    0  503 -0.57581605614E+02 -0.40717323572E+02  0.19567404262E+03  0.26989974564E+03  0.17200000000E+03 0.  1.
</event>
<event>
 4    1  0.1235203E+000  0.1798588E+03  0.7818608E-02  0.1167940E+00
         21   -1    0    0  501  502  0.00000000000E+00  0.00000000000E+00  0.78362323373E+03  0.78362323373E+03  0.00000000000E+00 0.  1.
         21   -1    0    0  502  503 -0.00000000000E+00 -0.00000000000E+00 -0.66395141530E+02  0.66395141530E+02  0.00000000000E+00 0.  1.
          6    1    1    2  501    0 -0.52551358113E+02  0.18856397246E+01  0.62000127799E+03  0.64556237931E+03  0.17200000000E+03 0.  1.
         -6    1    1    2    0  503  0.52551358113E+02 -0.18856397246E+01  0.97226814210E+02  0.20445599595E+03  0.17200000000E+03 0.  1.
</event>
<event>
 4    1  0.1235203E+000  0.2503113E+03  0.7818608E-02  0.1113108E+00
         21   -1    0    0  501  502  0.00000000000E+00  0.00000000000E+00  0.65691156332E+02  0.65691156332E+02  0.00000000000E+00 0. -1.
         21   -1    0    0  502  503 -0.00000000000E+00 -0.00000000000E+00 -0.96246756233E+03  0.96246756233E+03  0.00000000000E+00 0. -1.
          6    1    1    2  501    0 -0.11870834416E+03 -0.13776819496E+03 -0.39958279208E+03  0.47151050279E+03  0.17200000000E+03 0. -1.
         -6    1    1    2    0  503  0.11870834416E+03  0.13776819496E+03 -0.49719361392E+03  0.55664821587E+03  0.17200000000E+03 0. -1.
</event>
<event>
 4    1  0.1235203E+000  0.2147349E+03  0.7818608E-02  0.1137870E+00
         21   -1    0    0  501  502  0.00000000000E+00  0.00000000000E+00  0.91779759054E+02  0.91779759054E+02  0.00000000000E+00 0. -1.
         21   -1    0    0  502  503 -0.00000000000E+00 -0.00000000000E+00 -0.52500521814E+03  0.52500521814E+03  0.00000000000E+00 0. -1.
          6    1    1    2  501    0 -0.59708566142E+01  0.12841890286E+03 -0.15263474340E+03  0.26345479809E+03  0.17200000000E+03 0. -1.
         -6    1    1    2    0  503  0.59708566142E+01 -0.12841890286E+03 -0.28059071569E+03  0.35333017911E+03  0.17200000000E+03 0. -1.
</event>
<event>
 4    1  0.1235203E+000  0.2704429E+03  0.7818608E-02  0.1101026E+00
         21   -1    0    0  503  502  0.00000000000E+00  0.00000000000E+00  0.20551189802E+03  0.20551189802E+03  0.00000000000E+00 0.  1.
         21   -1    0    0  501  503 -0.00000000000E+00 -0.00000000000E+00 -0.51017459895E+03  0.51017459895E+03  0.00000000000E+00 0.  1.
          6    1    1    2  501    0  0.16415220495E+03  0.12887746874E+03 -0.34911844995E+03  0.44161413070E+03  0.17200000000E+03 0.  1.
         -6    1    1    2    0  502 -0.16415220495E+03 -0.12887746874E+03  0.44455749018E+02  0.27407236628E+03  0.17200000000E+03 0.  1.
</event>
<event>
 4    1  0.1235203E+000  0.1854455E+03  0.7818608E-02  0.1162635E+00
         21   -1    0    0  503  502  0.00000000000E+00  0.00000000000E+00  0.15358415691E+03  0.15358415691E+03  0.00000000000E+00 0. -1.
         21   -1    0    0  501  503 -0.00000000000E+00 -0.00000000000E+00 -0.22531588873E+03  0.22531588873E+03  0.00000000000E+00 0. -1.
          6    1    1    2  501    0 -0.51870888147E+02  0.45993802616E+02 -0.20935310078E+02  0.18662343402E+03  0.17200000000E+03 0.  1.
         -6    1    1    2    0  502  0.51870888147E+02 -0.45993802616E+02 -0.50796421734E+02  0.19227661162E+03  0.17200000000E+03 0.  1.
</event>
<event>
 4    1  0.1235203E+000  0.2105867E+03  0.7818608E-02  0.1141102E+00
         21   -1    0    0  501  502  0.00000000000E+00  0.00000000000E+00  0.55488731404E+03  0.55488731404E+03  0.00000000000E+00 0.  1.
         21   -1    0    0  502  503 -0.00000000000E+00 -0.00000000000E+00 -0.12845105897E+03  0.12845105897E+03  0.00000000000E+00 0.  1.
          6    1    1    2  501    0 -0.27802457997E+02  0.11827837173E+03  0.42323084627E+03  0.47272729890E+03  0.17200000000E+03 0.  1.
         -6    1    1    2    0  503  0.27802457997E+02 -0.11827837173E+03  0.32054088001E+01  0.21061107411E+03  0.17200000000E+03 0.  1.
</event>
<event>
 4    1  0.1235203E+000  0.2347449E+03  0.7818608E-02  0.1123344E+00
         21   -1    0    0  503  502  0.00000000000E+00  0.00000000000E+00  0.56773471725E+02  0.56773471725E+02  0.00000000000E+00 0. -1.
         21   -1    0    0  501  503 -0.00000000000E+00 -0.00000000000E+00 -0.11441258150E+04  0.11441258150E+04  0.00000000000E+00 0.  1.
          6    1    1    2  501    0  0.45139272665E+02 -0.15324362773E+03 -0.77750788504E+03  0.81217219521E+03  0.17200000000E+03 0.  1.
         -6    1    1    2    0  502 -0.45139272665E+02  0.15324362773E+03 -0.30984445823E+03  0.38872709151E+03  0.17200000000E+03 0.  1.
</event>
<event>
 4    1  0.1235203E+000  0.1796688E+03  0.7818608E-02  0.1168124E+00
         21   -1    0    0  503  502  0.00000000000E+00  0.00000000000E+00  0.14926471150E+04  0.14926471150E+04  0.00000000000E+00 0. -1.
         21   -1    0    0  501  503 -0.00000000000E+00 -0.00000000000E+00 -0.21629523143E+02  0.21629523143E+02  0.00000000000E+00 0. -1.
          6    1    1    2  501    0  0.19164989842E+02 -0.48265800278E+02  0.74430847025E+03  0.76568660900E+03  0.17200000000E+03 0. -1.
         -6    1    1    2    0  502 -0.19164989842E+02  0.48265800278E+02  0.72670912164E+03  0.74859002918E+03  0.17200000000E+03 0. -1.
</event>
<event>
 4    1  0.1235203E+000  0.2176495E+03  0.7818608E-02  0.1135648E+00
         21   -1    0    0  501  502  0.00000000000E+00  0.00000000000E+00  0.40823503781E+03  0.40823503781E+03  0.00000000000E+00 0. -1.
         21   -1    0    0  502  503 -0.00000000000E+00 -0.00000000000E+00 -0.12584247409E+03  0.12584247409E+03  0.00000000000E+00 0. -1.
          6    1    1    2  501    0 -0.46838286361E+02  0.12487392356E+03  0.21572836832E+03  0.30644746818E+03  0.17200000000E+03 0. -1.
         -6    1    1    2    0  503  0.46838286361E+02 -0.12487392356E+03  0.66664195401E+02  0.22763004372E+03  0.17200000000E+03 0. -1.
</event>
<event>
 4    1  0.1235203E+000  0.2119212E+03  0.7818608E-02  0.1140054E+00
         21   -1    0    0  501  502  0.00000000000E+00  0.00000000000E+00  0.10843490902E+03  0.10843490902E+03  0.00000000000E+00 0. -1.
         21   -1    0    0  502  503 -0.00000000000E+00 -0.00000000000E+00 -0.44916040364E+03  0.44916040364E+03  0.00000000000E+00 0. -1.
          6    1    1    2  501    0  0.42621040821E+02 -0.11623278962E+03 -0.92549144495E+02  0.23124869438E+03  0.17200000000E+03 0.  1.
         -6    1    1    2    0  503 -0.42621040821E+02  0.11623278962E+03 -0.24817635012E+03  0.32634661828E+03  0.17200000000E+03 0.  1.
</event>
<event>
 4    1  0.1235203E+000  0.2455775E+03  0.7818608E-02  0.1116132E+00
         21   -1    0    0  503  502  0.00000000000E+00  0.00000000000E+00  0.95551615012E+02  0.95551615012E+02  0.00000000000E+00 0. -1.
         21   -1    0    0  501  503 -0.00000000000E+00 -0.00000000000E+00 -0.63128013892E+03  0.63128013892E+03  0.00000000000E+00 0. -1.
          6    1    1    2  501    0 -0.34994940765E+02 -0.17175464744E+03 -0.27288914780E+03  0.36711958785E+03  0.17200000000E+03 0.  1.
         -6    1    1    2    0  502  0.34994940765E+02  0.17175464744E+03 -0.26283937611E+03  0.35971216608E+03  0.17200000000E+03 0.  1.
</event>
<event>
 4    1  0.1235203E+000  0.1913086E+03  0.7818608E-02  0.1157286E+00
         21   -1    0    0  501  502  0.00000000000E+00  0.00000000000E+00  0.70977354628E+03  0.70977354628E+03  0.00000000000E+00 0. -1.
         21   -1    0    0  502  503 -0.00000000000E+00 -0.00000000000E+00 -0.51868737930E+02  0.51868737930E+02  0.00000000000E+00 0. -1.
          6    1    1    2  501    0  0.77149468465E+02 -0.32602776427E+02  0.35812748862E+03  0.40602251123E+03  0.17200000000E+03 0. -1.
         -6    1    1    2    0  503 -0.77149468465E+02  0.32602776427E+02  0.29977731973E+03  0.35561977299E+03  0.17200000000E+03 0. -1.
</event>
<event>
 4    1  0.1235203E+000  0.2493564E+03  0.7818608E-02  0.1113712E+00
         21   -1    0    0  503  502  0.00000000000E+00  0.00000000000E+00  0.68991773531E+02  0.68991773531E+02  0.00000000000E+00 0.  1.
         21   -1    0    0  501  503 -0.00000000000E+00 -0.00000000000E+00 -0.90141818675E+03  0.90141818675E+03  0.00000000000E+00 0.  1.
          6    1    1    2  501    0  0.11386638450E+03 -0.14010377558E+03 -0.40952461857E+03  0.47946744902E+03  0.17200000000E+03 0. -1.
         -6    1    1    2    0  502 -0.11386638450E+03  0.14010377558E+03 -0.42290179464E+03  0.49094251126E+03  0.17200000000E+03 0. -1.
</event>
<event>
 4    1  0.1235203E+000  0.2318287E+03  0.7818608E-02  0.1125359E+00
         21   -1    0    0  501  502  0.00000000000E+00  0.00000000000E+00  0.88471287123E+02  0.88471287123E+02  0.00000000000E+00 0. -1.
         21   -1    0    0  502  503 -0.00000000000E+00 -0.00000000000E+00 -0.10900295812E+04  0.10900295812E+04  0.00000000000E+00 0. -1.
          6    1    1    2  501    0  0.22044892284E+02 -0.15386548520E+03 -0.10871999000E+03  0.25605585531E+03  0.17200000000E+03 0. -1.
         -6    1    1    2    0  503 -0.22044892284E+02  0.15386548520E+03 -0.89283830403E+03  0.92244501297E+03  0.17200000000E+03 0. -1.
</event>
<event>
 4    1  0.1235203E+000  0.1872019E+03  0.7818608E-02  0.1161010E+00
         21   -1    0    0  503  502  0.00000000000E+00  0.00000000000E+00  0.82603631742E+03  0.82603631742E+03  0.00000000000E+00 0.  1.
         21   -1    0    0  501  503 -0.00000000000E+00 -0.00000000000E+00 -0.43295877012E+02  0.43295877012E+02  0.00000000000E+00 0.  1.
          6    1    1    2  501    0 -0.73699836913E+02 -0.53743820731E+01  0.32972161816E+03  0.37915814040E+03  0.17200000000E+03 0.  1.
         -6    1    1    2    0  502  0.73699836913E+02  0.53743820731E+01  0.45301882224E+03  0.49017405403E+03  0.17200000000E+03 0.  1.
</event>
<event>
 4    1  0.1235203E+000  0.2176815E+03  0.7818608E-02  0.1135624E+00
         21   -1    0    0  501  502  0.00000000000E+00  0.00000000000E+00  0.15864243244E+03  0.15864243244E+03  0.00000000000E+00 0. -1.
         21   -1    0    0  502  503 -0.00000000000E+00 -0.00000000000E+00 -0.36814255197E+03  0.36814255197E+03  0.00000000000E+00 0. -1.
          6    1    1    2  501    0  0.87569964897E+01 -0.13313351240E+03  0.96518823321E+01  0.21789533254E+03  0.17200000000E+03 0. -1.
         -6    1    1    2    0  503 -0.87569964897E+01  0.13313351240E+03 -0.21915200187E+03  0.30888965187E+03  0.17200000000E+03 0. -1.
</event>
<event>
 4    1  0.1235203E+000  0.3164577E+03  0.7818608E-02  0.1077291E+00
         21   -1    0    0  503  502  0.00000000000E+00  0.00000000000E+00  0.20434288062E+03  0.20434288062E+03  0.00000000000E+00 0. -1.
         21   -1    0    0  501  503 -0.00000000000E+00 -0.00000000000E+00 -0.79049880382E+03  0.79049880382E+03  0.00000000000E+00 0.  1.
          6    1    1    2  501    0  0.11453117301E+03  0.23967500305E+03 -0.59972085326E+03  0.67809335531E+03  0.17200000000E+03 0.  1.
         -6    1    1    2    0  502 -0.11453117301E+03 -0.23967500305E+03  0.13564930059E+02  0.31674832913E+03  0.17200000000E+03 0. -1.
</event>
<event>
 4    1  0.1235203E+000  0.2266242E+03  0.7818608E-02  0.1129039E+00
         21   -1    0    0  503  502  0.00000000000E+00  0.00000000000E+00  0.21476293477E+04  0.21476293477E+04  0.00000000000E+00 0.  1.
         21   -1    0    0  501  503 -0.00000000000E+00 -0.00000000000E+00 -0.32642385776E+02  0.32642385776E+02  0.00000000000E+00 0.  1.
          6    1    1    2  501    0 -0.12637656681E+03  0.76180588132E+02  0.49378396088E+03  0.54330573222E+03  0.17200000000E+03 0.  1.
         -6    1    1    2    0  502  0.12637656681E+03 -0.76180588132E+02  0.16212030010E+04  0.16369660012E+04  0.17200000000E+03 0.  1.
</event>
<event>
 4    1  0.1235203E+000  0.1984571E+03  0.7818608E-02  0.1151047E+00
         21   -1    0    0  501  502  0.00000000000E+00  0.00000000000E+00  0.35099384231E+03  0.35099384231E+03  0.00000000000E+00 0. -1.
         21   -1    0    0  502  503 -0.00000000000E+00 -0.00000000000E+00 -0.45229806263E+03  0.45229806263E+03  0.00000000000E+00 0. -1.
          6    1    1    2  501    0  0.63680212353E+02 -0.75802714247E+02  0.29762614324E+03  0.35772411447E+03  0.17200000000E+03 0. -1.
         -6    1    1    2    0  503 -0.63680212353E+02  0.75802714247E+02 -0.39893036356E+03  0.44556779047E+03  0.17200000000E+03 0. -1.
</event>
<event>
 4    1  0.1235203E+000  0.1974731E+03  0.7818608E-02  0.1151889E+00
         21   -1    0    0  501  502  0.00000000000E+00  0.00000000000E+00  0.31718994506E+03  0.31718994506E+03  0.00000000000E+00 0.  1.
         21   -1    0    0  502  503 -0.00000000000E+00 -0.00000000000E+00 -0.14507462732E+03  0.14507462732E+03  0.00000000000E+00 0. -1.
          6    1    1    2  501    0  0.78286536083E+02  0.57295957580E+02  0.17633784255E+03  0.26474637524E+03  0.17200000000E+03 0.  1.
         -6    1    1    2    0  503 -0.78286536083E+02 -0.57295957580E+02 -0.42225248129E+01  0.19751819714E+03  0.17200000000E+03 0. -1.
</event>
<event>
 4    1  0.1235203E+000  0.1732945E+03  0.7818608E-02  0.1174455E+00
         21   -1    0    0  503  502  0.00000000000E+00  0.00000000000E+00  0.70276375617E+02  0.70276375617E+02  0.00000000000E+00 0. -1.
         21   -1    0    0  501  503 -0.00000000000E+00 -0.00000000000E+00 -0.53042016604E+03  0.53042016604E+03  0.00000000000E+00 0. -1.
          6    1    1    2  501    0  0.12866048645E+02  0.16776809756E+02 -0.36248468856E+03  0.40177872765E+03  0.17200000000E+03 0. -1.
         -6    1    1    2    0  502 -0.12866048645E+02 -0.16776809756E+02 -0.97659101869E+02  0.19891781401E+03  0.17200000000E+03 0. -1.
</event>
<event>
 4    1  0.1235203E+000  0.1781732E+03  0.7818608E-02  0.1169583E+00
         21   -1    0    0  501  502  0.00000000000E+00  0.00000000000E+00  0.98637869207E+03  0.98637869207E+03  0.00000000000E+00 0.  1.
         21   -1    0    0  502  503 -0.00000000000E+00 -0.00000000000E+00 -0.49640461211E+02  0.49640461211E+02  0.00000000000E+00 0.  1.
          6    1    1    2  501    0  0.23229430707E+02  0.40275057558E+02  0.77555202124E+03  0.79575537972E+03  0.17200000000E+03 0. -1.
         -6    1    1    2    0  503 -0.23229430707E+02 -0.40275057558E+02  0.16118620962E+03  0.24026377356E+03  0.17200000000E+03 0. -1.
</event>
<event>
 4    1  0.1235203E+000  0.1949949E+03  0.7818608E-02  0.1154032E+00
         21   -1    0    0  503  502  0.00000000000E+00  0.00000000000E+00  0.77358231659E+02  0.77358231659E+02  0.00000000000E+00 0. -1.
         21   -1    0    0  501  503 -0.00000000000E+00 -0.00000000000E+00 -0.11816612659E+04  0.11816612659E+04  0.00000000000E+00 0. -1.
          6    1    1    2  501    0 -0.66084618276E+01  0.91625990956E+02 -0.71062477478E+02  0.20754004359E+03  0.17200000000E+03 0.  1.
         -6    1    1    2    0  502  0.66084618276E+01 -0.91625990956E+02 -0.10332405567E+04  0.10514794540E+04  0.17200000000E+03 0.  1.
</event>
<event>
 4    1  0.1235203E+000  0.1745904E+03  0.7818608E-02  0.1173144E+00
         21   -1    0    0  503  502  0.00000000000E+00  0.00000000000E+00  0.18446931631E+03  0.18446931631E+03  0.00000000000E+00 0. -1.
         21   -1    0    0  501  503 -0.00000000000E+00 -0.00000000000E+00 -0.30171663580E+03  0.30171663580E+03  0.00000000000E+00 0. -1.
          6    1    1    2  501    0  0.14579312951E+02  0.26177374938E+02 -0.22211737426E+03  0.28252068822E+03  0.17200000000E+03 0. -1.
         -6    1    1    2    0  502 -0.14579312951E+02 -0.26177374938E+02  0.10487005477E+03  0.20366526388E+03  0.17200000000E+03 0. -1.
</event>
<event>
 4    1  0.1235203E+000  0.1939038E+03  0.7818608E-02  0.1154987E+00
         21   -1    0    0  501  502  0.00000000000E+00  0.00000000000E+00  0.20317061543E+03  0.20317061543E+03  0.00000000000E+00 0.  1.
         21   -1    0    0  502  503 -0.00000000000E+00 -0.00000000000E+00 -0.91362613748E+03  0.91362613748E+03  0.00000000000E+00 0.  1.
          6    1    1    2  501    0  0.89342751531E+02  0.57052328435E+01  0.14342071185E+03  0.24118079841E+03  0.17200000000E+03 0.  1.
         -6    1    1    2    0  503 -0.89342751531E+02 -0.57052328435E+01 -0.85387623390E+03  0.87561595449E+03  0.17200000000E+03 0.  1.
</event>
<event>
 4    1  0.1235203E+000  0.1924196E+03  0.7818608E-02  0.1156297E+00
         21   -1    0    0  503  502  0.00000000000E+00  0.00000000000E+00  0.28123454632E+03  0.28123454632E+03  0.00000000000E+00 0.  1.
         21   -1    0    0  501  503 -0.00000000000E+00 -0.00000000000E+00 -0.13681031729E+03  0.13681031729E+03  0.00000000000E+00 0.  1.
          6    1    1    2  501    0 -0.53307273679E+02 -0.67820688023E+02  0.31628150402E+02  0.19500166935E+03  0.17200000000E+03 0.  1.
         -6    1    1    2    0  502  0.53307273679E+02  0.67820688023E+02  0.11279607862E+03  0.22304319426E+03  0.17200000000E+03 0.  1.
</event>
<event>
 4    1  0.1235203E+000  0.2354628E+03  0.7818608E-02  0.1122853E+00
         21   -1    0    0  501  502  0.00000000000E+00  0.00000000000E+00  0.42916168079E+03  0.42916168079E+03  0.00000000000E+00 0.  1.
         21   -1    0    0  502  503 -0.00000000000E+00 -0.00000000000E+00 -0.12935571443E+03  0.12935571443E+03  0.00000000000E+00 0. -1.
          6    1    1    2  501    0  0.94367513507E+02  0.13020562089E+03  0.13986101631E+03  0.27386828075E+03  0.17200000000E+03 0.  1.
         -6    1    1    2    0  503 -0.94367513507E+02 -0.13020562089E+03  0.15994495006E+03  0.28464911447E+03  0.17200000000E+03 0. -1.
</event>
<event>
 4    1  0.1235203E+000  0.3716515E+03  0.7818608E-02  0.1054063E+00
         21   -1    0    0  503  502  0.00000000000E+00  0.00000000000E+00  0.86261519959E+03  0.86261519959E+03  0.00000000000E+00 0. -1.
         21   -1    0    0  501  503 -0.00000000000E+00 -0.00000000000E+00 -0.23169782311E+03  0.23169782311E+03  0.00000000000E+00 0.  1.
          6    1    1    2  501    0 -0.23985036420E+03  0.22585980899E+03  0.11349443824E+02  0.37182477109E+03  0.17200000000E+03 0.  1.
         -6    1    1    2    0  502  0.23985036420E+03 -0.22585980899E+03  0.61956793266E+03  0.72248825160E+03  0.17200000000E+03 0. -1.
</event>
<event>
 4    1  0.1235203E+000  0.1951426E+03  0.7818608E-02  0.1153903E+00
         21   -1    0    0  503  502  0.00000000000E+00  0.00000000000E+00  0.34403553379E+03  0.34403553379E+03  0.00000000000E+00 0. -1.
         21   -1    0    0  501  503 -0.00000000000E+00 -0.00000000000E+00 -0.15660055672E+03  0.15660055672E+03  0.00000000000E+00 0.  1.
          6    1    1    2  501    0 -0.34681447344E+02 -0.85403982993E+02 -0.41820402991E+02  0.19957351830E+03  0.17200000000E+03 0.  1.
         -6    1    1    2    0  502  0.34681447344E+02  0.85403982993E+02  0.22925538006E+03  0.30106257221E+03  0.17200000000E+03 0. -1.
</event>
<event>
 4    1  0.1235203E+000  0.1772391E+03  0.7818608E-02  0.1170502E+00
         21   -1    0    0  501  502  0.00000000000E+00  0.00000000000E+00  0.30997501262E+03  0.30997501262E+03  0.00000000000E+00 0.  1.
         21   -1    0    0  502  503 -0.00000000000E+00 -0.00000000000E+00 -0.30350182345E+03  0.30350182345E+03  0.00000000000E+00 0.  1.
          6    1    1    2  501    0 -0.30076806756E+02  0.30415325039E+02  0.25357886607E+03  0.30937994056E+03  0.17200000000E+03 0.  1.
         -6    1    1    2    0  503  0.30076806756E+02 -0.30415325039E+02 -0.24710567690E+03  0.30409689551E+03  0.17200000000E+03 0.  1.
</event>
<event>
 4    1  0.1235203E+000  0.2628107E+03  0.7818608E-02  0.1105466E+00
         21   -1    0    0  503  502  0.00000000000E+00  0.00000000000E+00  0.51691137344E+02  0.51691137344E+02  0.00000000000E+00 0. -1.
         21   -1    0    0  501  503 -0.00000000000E+00 -0.00000000000E+00 -0.13918978484E+04  0.13918978484E+04  0.00000000000E+00 0.  1.
          6    1    1    2  501    0 -0.57034408947E+02  0.19034847874E+03 -0.81449646880E+03  0.85584692840E+03  0.17200000000E+03 0. -1.
         -6    1    1    2    0  502  0.57034408947E+02 -0.19034847874E+03 -0.52571024228E+03  0.58774205737E+03  0.17200000000E+03 0.  1.
</event>
<event>
 4    1  0.1235203E+000  0.2256957E+03  0.7818608E-02  0.1129707E+00
         21   -1    0    0  501  502  0.00000000000E+00  0.00000000000E+00  0.47471263693E+03  0.47471263693E+03  0.00000000000E+00 0. -1.
         21   -1    0    0  502  503 -0.00000000000E+00 -0.00000000000E+00 -0.11325011983E+03  0.11325011983E+03  0.00000000000E+00 0. -1.
          6    1    1    2  501    0 -0.14593984243E+03  0.74898560126E+01  0.24809397076E+03  0.33539402779E+03  0.17200000000E+03 0.  1.
         -6    1    1    2    0  503  0.14593984243E+03 -0.74898560126E+01  0.11336854634E+03  0.25256872896E+03  0.17200000000E+03 0.  1.
</event>
<event>
 4    1  0.1235203E+000  0.2433200E+03  0.7818608E-02  0.1117601E+00
         21   -1    0    0  501  502  0.00000000000E+00  0.00000000000E+00  0.30265990026E+03  0.30265990026E+03  0.00000000000E+00 0. -1.
         21   -1    0    0  502  503 -0.00000000000E+00 -0.00000000000E+00 -0.22466719146E+03  0.22466719146E+03  0.00000000000E+00 0. -1.
          6    1    1    2  501    0 -0.81793332144E+02 -0.15142812147E+03  0.13381078288E+03  0.27768678537E+03  0.17200000000E+03 0. -1.
         -6    1    1    2    0  503  0.81793332144E+02  0.15142812147E+03 -0.55818074085E+02  0.24964030634E+03  0.17200000000E+03 0. -1.
</event>
<event>
 4    1  0.1235203E+000  0.2922544E+03  0.7818608E-02  0.1089178E+00
         21   -1    0    0  503  502  0.00000000000E+00  0.00000000000E+00  0.90482440597E+03  0.90482440597E+03  0.00000000000E+00 0. -1.
         21   -1    0    0  501  503 -0.00000000000E+00 -0.00000000000E+00 -0.16333065982E+03  0.16333065982E+03  0.00000000000E+00 0. -1.
          6    1    1    2  501    0  0.20708433394E+03  0.11377485679E+03  0.23781317751E+02  0.29322037868E+03  0.17200000000E+03 0. -1.
         -6    1    1    2    0  502 -0.20708433394E+03 -0.11377485679E+03  0.71771242841E+03  0.77493468711E+03  0.17200000000E+03 0. -1.
</event>
<event>
 4    1  0.1235203E+000  0.1851095E+03  0.7818608E-02  0.1162948E+00
         21   -1    0    0  503  502  0.00000000000E+00  0.00000000000E+00  0.40762543308E+03  0.40762543308E+03  0.00000000000E+00 0.  1.
         21   -1    0    0  501  503 -0.00000000000E+00 -0.00000000000E+00 -0.12025616704E+03  0.12025616704E+03  0.00000000000E+00 0.  1.
          6    1    1    2  501    0 -0.58589496376E+01  0.68170252769E+02 -0.11180259302E+01  0.18511283217E+03  0.17200000000E+03 0.  1.
         -6    1    1    2    0  502  0.58589496376E+01 -0.68170252769E+02  0.28848729197E+03  0.34276876795E+03  0.17200000000E+03 0.  1.
</event>
<event>
 4    1  0.1235203E+000  0.1775269E+03  0.7818608E-02  0.1170218E+00
         21   -1    0    0  503  502  0.00000000000E+00  0.00000000000E+00  0.12566630065E+04  0.12566630065E+04  0.00000000000E+00 0. -1.
         21   -1    0    0  501  503 -0.00000000000E+00 -0.00000000000E+00 -0.32425299822E+02  0.32425299822E+02  0.00000000000E+00 0. -1.
          6    1    1    2  501    0 -0.43821029736E+02 -0.33926505707E+01  0.30532519311E+03  0.35318446493E+03  0.17200000000E+03 0. -1.
         -6    1    1    2    0  502  0.43821029736E+02  0.33926505707E+01  0.91891251356E+03  0.93590384137E+03  0.17200000000E+03 0. -1.
</event>
<event>
 4    1  0.1235203E+000  0.1981940E+03  0.7818608E-02  0.1151272E+00
         21   -1    0    0  503  502  0.00000000000E+00  0.00000000000E+00  0.16110694318E+03  0.16110694318E+03  0.00000000000E+00 0. -1.
         21   -1    0    0  501  503 -0.00000000000E+00 -0.00000000000E+00 -0.26751582320E+03  0.26751582320E+03  0.00000000000E+00 0.  1.
          6    1    1    2  501    0 -0.15188970676E+02 -0.97294207053E+02 -0.11698955350E+03  0.23014652547E+03  0.17200000000E+03 0. -1.
         -6    1    1    2    0  502  0.15188970676E+02  0.97294207053E+02  0.10580673480E+02  0.19847624091E+03  0.17200000000E+03 0. -1.
</event>
<event>
 4    1  0.1235203E+000  0.1977809E+03  0.7818608E-02  0.1151625E+00
         21   -1    0    0  501  502  0.00000000000E+00  0.00000000000E+00  0.29048958783E+03  0.29048958783E+03  0.00000000000E+00 0.  1.
         21   -1    0    0  502  503 -0.00000000000E+00 -0.00000000000E+00 -0.17870284252E+03  0.17870284252E+03  0.00000000000E+00 0.  1.
          6    1    1    2  501    0  0.69216488324E+02 -0.68864856412E+02  0.17235787423E+03  0.26234429194E+03  0.17200000000E+03 0.  1.
         -6    1    1    2    0  503 -0.69216488324E+02  0.68864856412E+02 -0.60571128913E+02  0.20684813841E+03  0.17200000000E+03 0.  1.
</event>
<event>
 4    1  0.1235203E+000  0.2079925E+03  0.7818608E-02  0.1143166E+00
         21   -1    0    0  503  502  0.00000000000E+00  0.00000000000E+00  0.11936208940E+03  0.11936208940E+03  0.00000000000E+00 0.  1.
         21   -1    0    0  501  503 -0.00000000000E+00 -0.00000000000E+00 -0.64203684460E+03  0.64203684460E+03  0.00000000000E+00 0.  1.
          6    1    1    2  501    0 -0.83140288009E+02 -0.82247125226E+02 -0.51256822964E+03  0.55316099568E+03  0.17200000000E+03 0.  1.
         -6    1    1    2    0  502  0.83140288009E+02  0.82247125226E+02 -0.10106525549E+02  0.20823793832E+03  0.17200000000E+03 0.  1.
</event>
<event>
 4    1  0.1235203E+000  0.2012697E+03  0.7818608E-02  0.1148672E+00
         21   -1    0    0  503  502  0.00000000000E+00  0.00000000000E+00  0.80723896810E+02  0.80723896810E+02  0.00000000000E+00 0. -1.
         21   -1    0    0  501  503 -0.00000000000E+00 -0.00000000000E+00 -0.61547890400E+03  0.61547890400E+03  0.00000000000E+00 0. -1.
          6    1    1    2  501    0  0.37428713636E+01  0.10445796464E+03 -0.41696196747E+03  0.46299757859E+03  0.17200000000E+03 0.  1.
         -6    1    1    2    0  502 -0.37428713636E+01 -0.10445796464E+03 -0.11779303972E+03  0.23320522222E+03  0.17200000000E+03 0.  1.
</event>
<event>
 4    1  0.1235203E+000  0.2505846E+03  0.7818608E-02  0.1112936E+00
         21   -1    0    0  501  502  0.00000000000E+00  0.00000000000E+00  0.30432988590E+03  0.30432988590E+03  0.00000000000E+00 0. -1.
         21   -1    0    0  502  503 -0.00000000000E+00 -0.00000000000E+00 -0.20666051581E+03  0.20666051581E+03  0.00000000000E+00 0. -1.
          6    1    1    2  501    0  0.16877266426E+03  0.68734446446E+02  0.59039558691E+02  0.25744573374E+03  0.17200000000E+03 0.  1.
         -6    1    1    2    0  503 -0.16877266426E+03 -0.68734446446E+02  0.38629811390E+02  0.25354466797E+03  0.17200000000E+03 0.  1.
</event>
<event>
 4    1  0.1235203E+000  0.2410952E+03  0.7818608E-02  0.1119065E+00
         21   -1    0    0  503  502  0.00000000000E+00  0.00000000000E+00  0.19286184947E+04  0.19286184947E+04  0.00000000000E+00 0. -1.
         21   -1    0    0  501  503 -0.00000000000E+00 -0.00000000000E+00 -0.98326158508E+02  0.98326158508E+02  0.00000000000E+00 0. -1.
          6    1    1    2  501    0 -0.16889423328E+03  0.41968736664E+01  0.71173749799E+02  0.25138134068E+03  0.17200000000E+03 0. -1.
         -6    1    1    2    0  502  0.16889423328E+03 -0.41968736664E+01  0.17591185864E+04  0.17755633125E+04  0.17200000000E+03 0. -1.
</event>
<event>
 4    1  0.1235203E+000  0.1798061E+03  0.7818608E-02  0.1167991E+00
         21   -1    0    0  503  502  0.00000000000E+00  0.00000000000E+00  0.51782680323E+03  0.51782680323E+03  0.00000000000E+00 0. -1.
         21   -1    0    0  501  503 -0.00000000000E+00 -0.00000000000E+00 -0.84857456593E+02  0.84857456593E+02  0.00000000000E+00 0. -1.
          6    1    1    2  501    0 -0.26290973320E+01 -0.52338388185E+02  0.61580896527E+02  0.19005900623E+03  0.17200000000E+03 0. -1.
         -6    1    1    2    0  502  0.26290973320E+01  0.52338388185E+02  0.37138845011E+03  0.41262525360E+03  0.17200000000E+03 0. -1.
</event>
<event>
 4    1  0.1235203E+000  0.2620871E+03  0.7818608E-02  0.1105896E+00
         21   -1    0    0  503  502  0.00000000000E+00  0.00000000000E+00  0.43690632791E+03  0.43690632791E+03  0.00000000000E+00 0.  1.
         21   -1    0    0  501  503 -0.00000000000E+00 -0.00000000000E+00 -0.16442691521E+03  0.16442691521E+03  0.00000000000E+00 0.  1.
          6    1    1    2  501    0  0.11748097784E+03  0.15907189164E+03  0.19919413539E+03  0.32919287726E+03  0.17200000000E+03 0.  1.
         -6    1    1    2    0  502 -0.11748097784E+03 -0.15907189164E+03  0.73285277299E+02  0.27214036586E+03  0.17200000000E+03 0.  1.
</event>
<event>
 4    1  0.1235203E+000  0.1897373E+03  0.7818608E-02  0.1158699E+00
         21   -1    0    0  503  502  0.00000000000E+00  0.00000000000E+00  0.10857554618E+04  0.10857554618E+04  0.00000000000E+00 0.  1.
         21   -1    0    0  501  503 -0.00000000000E+00 -0.00000000000E+00 -0.39270283933E+02  0.39270283933E+02  0.00000000000E+00 0. -1.
          6    1    1    2  501    0  0.57029454384E+02 -0.56248266650E+02  0.30129868852E+03  0.35606337339E+03  0.17200000000E+03 0. -1.
         -6    1    1    2    0  502 -0.57029454384E+02  0.56248266650E+02  0.74518648936E+03  0.76896237235E+03  0.17200000000E+03 0.  1.
</event>
<event>
 4    1  0.1235203E+000  0.1891021E+03  0.7818608E-02  0.1159274E+00
         21   -1    0    0  503  502  0.00000000000E+00  0.00000000000E+00  0.19551698831E+03  0.19551698831E+03  0.00000000000E+00 0. -1.
         21   -1    0    0  501  503 -0.00000000000E+00 -0.00000000000E+00 -0.18570379498E+03  0.18570379498E+03  0.00000000000E+00 0. -1.
          6    1    1    2  501    0 -0.28991822442E+02 -0.73041733738E+02  0.28337129110E+02  0.19121352861E+03  0.17200000000E+03 0. -1.
         -6    1    1    2    0  502  0.28991822442E+02  0.73041733738E+02 -0.18523935778E+02  0.19000725468E+03  0.17200000000E+03 0. -1.
</event>
<event>
 4    1  0.1235203E+000  0.2616636E+03  0.7818608E-02  0.1106148E+00
         21   -1    0    0  503  502  0.00000000000E+00  0.00000000000E+00  0.13544179458E+03  0.13544179458E+03  0.00000000000E+00 0.  1.
         21   -1    0    0  501  503 -0.00000000000E+00 -0.00000000000E+00 -0.83294952796E+03  0.83294952796E+03  0.00000000000E+00 0. -1.
          6    1    1    2  501    0 -0.36253178019E+02  0.19382861811E+03 -0.65233441934E+03  0.70285704149E+03  0.17200000000E+03 0.  1.
         -6    1    1    2    0  502  0.36253178019E+02 -0.19382861811E+03 -0.45173314034E+02  0.26553428105E+03  0.17200000000E+03 0.  1.
</event>
<event>
 4    1  0.1235203E+000  0.2306457E+03  0.7818608E-02  0.1126186E+00
         21   -1    0    0  501  502  0.00000000000E+00  0.00000000000E+00  0.22386344129E+03  0.22386344129E+03  0.00000000000E+00 0. -1.
         21   -1    0    0  502  503 -0.00000000000E+00 -0.00000000000E+00 -0.25544795255E+03  0.25544795255E+03  0.00000000000E+00 0. -1.
          6    1    1    2  501    0 -0.15232532071E+03 -0.20258924340E+02  0.47496154443E+02  0.23548526925E+03  0.17200000000E+03 0. -1.
         -6    1    1    2    0  503  0.15232532071E+03  0.20258924340E+02 -0.79080665701E+02  0.24382612459E+03  0.17200000000E+03 0. -1.
</event>
<event>
 4    1  0.1235203E+000  0.2008757E+03  0.7818608E-02  0.1149002E+00
         21   -1    0    0  501  502  0.00000000000E+00  0.00000000000E+00  0.18279815103E+04  0.18279815103E+04  0.00000000000E+00 0. -1.
         21   -1    0    0  502  503 -0.00000000000E+00 -0.00000000000E+00 -0.26376378797E+02  0.26376378797E+02  0.00000000000E+00 0. -1.
          6    1    1    2  501    0  0.10376379944E+03 -0.34882654496E+00  0.12752623820E+04  0.12909861311E+04  0.17200000000E+03 0. -1.
         -6    1    1    2    0  503 -0.10376379944E+03  0.34882654496E+00  0.52634274955E+03  0.56337175804E+03  0.17200000000E+03 0. -1.
</event>
<event>
 4    1  0.1235203E+000  0.1922235E+03  0.7818608E-02  0.1156471E+00
         21   -1    0    0  501  502  0.00000000000E+00  0.00000000000E+00  0.79573406729E+02  0.79573406729E+02  0.00000000000E+00 0.  1.
         21   -1    0    0  502  503 -0.00000000000E+00 -0.00000000000E+00 -0.48384671094E+03  0.48384671094E+03  0.00000000000E+00 0.  1.
          6    1    1    2  501    0  0.40428103136E+02  0.75706392942E+02 -0.14558670439E+03  0.24113352722E+03  0.17200000000E+03 0. -1.
         -6    1    1    2    0  503 -0.40428103136E+02 -0.75706392942E+02 -0.25868659982E+03  0.32228659044E+03  0.17200000000E+03 0. -1.
</event>
<event>
 4    1  0.1235203E+000  0.1729022E+03  0.7818608E-02  0.1174855E+00
         21   -1    0    0  503  502  0.00000000000E+00  0.00000000000E+00  0.81312480862E+02  0.81312480862E+02  0.00000000000E+00 0. -1.
         21   -1    0    0  501  503 -0.00000000000E+00 -0.00000000000E+00 -0.39338319903E+03  0.39338319903E+03  0.00000000000E+00 0. -1.
          6    1    1    2  501    0 -0.12482388232E+02 -0.12464387033E+02 -0.21673108563E+03  0.27724994939E+03  0.17200000000E+03 0. -1.
         -6    1    1    2    0  502  0.12482388232E+02  0.12464387033E+02 -0.95339632539E+02  0.19744573050E+03  0.17200000000E+03 0. -1.
</event>
<event>
 4    1  0.1235203E+000  0.3290921E+03  0.7818608E-02  0.1071539E+00
         21   -1    0    0  503  502  0.00000000000E+00  0.00000000000E+00  0.93789311488E+03  0.93789311488E+03  0.00000000000E+00 0. -1.
         21   -1    0    0  501  503 -0.00000000000E+00 -0.00000000000E+00 -0.13620180653E+03  0.13620180653E+03  0.00000000000E+00 0.  1.
          6    1    1    2  501    0  0.22100278869E+03 -0.17284489112E+03  0.19133529173E+03  0.38067148942E+03  0.17200000000E+03 0. -1.
         -6    1    1    2    0  502 -0.22100278869E+03  0.17284489112E+03  0.61035601662E+03  0.69342343198E+03  0.17200000000E+03 0.  1.
</event>
<event>
 4    1  0.1235203E+000  0.3140675E+03  0.7818608E-02  0.1078412E+00
         21   -1    0    0  503  502  0.00000000000E+00  0.00000000000E+00  0.73744994047E+03  0.73744994047E+03  0.00000000000E+00 0.  1.
         21   -1    0    0  501  503 -0.00000000000E+00 -0.00000000000E+00 -0.13654942181E+03  0.13654942181E+03  0.00000000000E+00 0. -1.
          6    1    1    2  501    0 -0.25089426700E+03  0.78143650070E+02  0.36295363834E+03  0.47997261051E+03  0.17200000000E+03 0. -1.
         -6    1    1    2    0  502  0.25089426700E+03 -0.78143650070E+02  0.23794688031E+03  0.39402675177E+03  0.17200000000E+03 0. -1.
</event>
<event>
 4    1  0.1235203E+000  0.1766043E+03  0.7818608E-02  0.1171130E+00
         21   -1    0    0  501  502  0.00000000000E+00  0.00000000000E+00  0.11315992548E+04  0.11315992548E+04  0.00000000000E+00 0. -1.
         21   -1    0    0  502  503 -0.00000000000E+00 -0.00000000000E+00 -0.27592250342E+02  0.27592250342E+02  0.00000000000E+00 0. -1.
          6    1    1    2  501    0 -0.33591754131E+02 -0.21832841720E+02  0.57121120371E+03  0.59788905172E+03  0.17200000000E+03 0.  1.
         -6    1    1    2    0  503  0.33591754131E+02  0.21832841720E+02  0.53279580076E+03  0.56130245343E+03  0.17200000000E+03 0.  1.
</event>
<event>
 4    1  0.1235203E+000  0.2037366E+03  0.7818608E-02  0.1146624E+00
         21   -1    0    0  503  502  0.00000000000E+00  0.00000000000E+00  0.34138399348E+03  0.34138399348E+03  0.00000000000E+00 0.  1.
         21   -1    0    0  501  503 -0.00000000000E+00 -0.00000000000E+00 -0.15373030335E+03  0.15373030335E+03  0.00000000000E+00 0.  1.
          6    1    1    2  501    0  0.67208939312E+02  0.86067069103E+02 -0.19367989711E+02  0.20465507796E+03  0.17200000000E+03 0.  1.
         -6    1    1    2    0  502 -0.67208939312E+02 -0.86067069103E+02  0.20702167984E+03  0.29045921888E+03  0.17200000000E+03 0.  1.
</event>
<event>
 4    1  0.1235203E+000  0.2425715E+03  0.7818608E-02  0.1118092E+00
         21   -1    0    0  501  502  0.00000000000E+00  0.00000000000E+00  0.86300543267E+03  0.86300543267E+03  0.00000000000E+00 0.  1.
         21   -1    0    0  502  503 -0.00000000000E+00 -0.00000000000E+00 -0.81098192415E+02  0.81098192415E+02  0.00000000000E+00 0. -1.
          6    1    1    2  501    0  0.45777324020E+02  0.16480704074E+03  0.57934512528E+03  0.62807778042E+03  0.17200000000E+03 0.  1.
         -6    1    1    2    0  503 -0.45777324020E+02 -0.16480704074E+03  0.20256211497E+03  0.31602584466E+03  0.17200000000E+03 0. -1.
</event>
<event>
 4    1  0.1235203E+000  0.3740300E+03  0.7818608E-02  0.1053163E+00
         21   -1    0    0  501  502  0.00000000000E+00  0.00000000000E+00  0.11263284239E+04  0.11263284239E+04  0.00000000000E+00 0.  1.
         21   -1    0    0  502  503 -0.00000000000E+00 -0.00000000000E+00 -0.30819855860E+03  0.30819855860E+03  0.00000000000E+00 0. -1.
          6    1    1    2  501    0 -0.21956762809E+03  0.24920772003E+03  0.96325889519E+03  0.10333276974E+04  0.17200000000E+03 0.  1.
         -6    1    1    2    0  503  0.21956762809E+03 -0.24920772003E+03 -0.14512902992E+03  0.40119928508E+03  0.17200000000E+03 0.  1.
</event>
<event>
 4    1  0.1235203E+000  0.1854850E+03  0.7818608E-02  0.1162598E+00
         21   -1    0    0  501  502  0.00000000000E+00  0.00000000000E+00  0.65913891475E+02  0.65913891475E+02  0.00000000000E+00 0.  1.
         21   -1    0    0  502  503 -0.00000000000E+00 -0.00000000000E+00 -0.58681620454E+03  0.58681620454E+03  0.00000000000E+00 0. -1.
          6    1    1    2  501    0  0.38882105207E+02 -0.57522599868E+02 -0.15195470965E+03  0.23978094458E+03  0.17200000000E+03 0.  1.
         -6    1    1    2    0  503 -0.38882105207E+02  0.57522599868E+02 -0.36894760342E+03  0.41294915143E+03  0.17200000000E+03 0. -1.
</event>
<event>
 4    1  0.1235203E+000  0.1723885E+03  0.7818608E-02  0.1175380E+00
         21   -1    0    0  503  502  0.00000000000E+00  0.00000000000E+00  0.22380481801E+03  0.22380481801E+03  0.00000000000E+00 0. -1.
         21   -1    0    0  501  503 -0.00000000000E+00 -0.00000000000E+00 -0.14618896312E+03  0.14618896312E+03  0.00000000000E+00 0. -1.
          6    1    1    2  501    0 -0.62147616754E+01 -0.97549656362E+01 -0.17210884248E+02  0.17324548235E+03  0.17200000000E+03 0. -1.
         -6    1    1    2    0  502  0.62147616754E+01  0.97549656362E+01  0.94826739138E+02  0.19674829878E+03  0.17200000000E+03 0. -1.
</event>
<event>
 4    1  0.1235203E+000  0.1862306E+03  0.7818608E-02  0.1161906E+00
         21   -1    0    0  501  502  0.00000000000E+00  0.00000000000E+00  0.71582699483E+02  0.71582699483E+02  0.00000000000E+00 0. -1.
         21   -1    0    0  502  503 -0.00000000000E+00 -0.00000000000E+00 -0.75935148530E+03  0.75935148530E+03  0.00000000000E+00 0. -1.
          6    1    1    2  501    0  0.53485900673E+02 -0.47298126044E+02 -0.59384055608E+03  0.62235718068E+03  0.17200000000E+03 0. -1.
         -6    1    1    2    0  503 -0.53485900673E+02  0.47298126044E+02 -0.93928229731E+02  0.20857700410E+03  0.17200000000E+03 0. -1.
</event>
<event>
 4    1  0.1235203E+000  0.1743054E+03  0.7818608E-02  0.1173431E+00
         21   -1    0    0  501  502  0.00000000000E+00  0.00000000000E+00  0.95874400217E+03  0.95874400217E+03  0.00000000000E+00 0.  1.
         21   -1    0    0  502  503 -0.00000000000E+00 -0.00000000000E+00 -0.31740886327E+02  0.31740886327E+02  0.00000000000E+00 0.  1.
          6    1    1    2  501    0 -0.91259735328E+01  0.26740986585E+02  0.48337835758E+03  0.51384530778E+03  0.17200000000E+03 0.  1.
         -6    1    1    2    0  503  0.91259735328E+01 -0.26740986585E+02  0.44362475826E+03  0.47663958071E+03  0.17200000000E+03 0.  1.
</event>
<event>
 4    1  0.1235203E+000  0.2676779E+03  0.7818608E-02  0.1102616E+00
         21   -1    0    0  501  502  0.00000000000E+00  0.00000000000E+00  0.51314894111E+03  0.51314894111E+03  0.00000000000E+00 0. -1.
         21   -1    0    0  502  503 -0.00000000000E+00 -0.00000000000E+00 -0.43301783340E+03  0.43301783340E+03  0.00000000000E+00 0. -1.
          6    1    1    2  501    0  0.17430599252E+03  0.10809651229E+03  0.42947385891E+03  0.50606247686E+03  0.17200000000E+03 0. -1.
         -6    1    1    2    0  503 -0.17430599252E+03 -0.10809651229E+03 -0.34934275120E+03  0.44010429765E+03  0.17200000000E+03 0. -1.
</event>
<event>
 4    1  0.1235203E+000  0.1836786E+03  0.7818608E-02  0.1164290E+00
         21   -1    0    0  503  502  0.00000000000E+00  0.00000000000E+00  0.67620698274E+03  0.67620698274E+03  0.00000000000E+00 0.  1.
         21   -1    0    0  501  503 -0.00000000000E+00 -0.00000000000E+00 -0.84733269157E+02  0.84733269157E+02  0.00000000000E+00 0.  1.
          6    1    1    2  501    0 -0.51052424687E+02  0.39337923132E+02  0.51767139098E+02  0.19083411370E+03  0.17200000000E+03 0.  1.
         -6    1    1    2    0  502  0.51052424687E+02 -0.39337923132E+02  0.53970657448E+03  0.57010613819E+03  0.17200000000E+03 0.  1.
</event>
<event>
 4    1  0.1235203E+000  0.1956961E+03  0.7818608E-02  0.1153422E+00
         21   -1    0    0  503  502  0.00000000000E+00  0.00000000000E+00  0.19366845729E+03  0.19366845729E+03  0.00000000000E+00 0.  1.
         21   -1    0    0  501  503 -0.00000000000E+00 -0.00000000000E+00 -0.22755443258E+03  0.22755443258E+03  0.00000000000E+00 0.  1.
          6    1    1    2  501    0 -0.42803276299E+02  0.82950955799E+02 -0.93171194622E+02  0.21674374971E+03  0.17200000000E+03 0.  1.
         -6    1    1    2    0  502  0.42803276299E+02 -0.82950955799E+02  0.59285219330E+02  0.20447914016E+03  0.17200000000E+03 0.  1.
</event>
<event>
 4    1  0.1235203E+000  0.2191091E+03  0.7818608E-02  0.1134549E+00
         21   -1    0    0  501  502  0.00000000000E+00  0.00000000000E+00  0.37316802238E+03  0.37316802238E+03  0.00000000000E+00 0. -1.
         21   -1    0    0  502  503 -0.00000000000E+00 -0.00000000000E+00 -0.13182524017E+03  0.13182524017E+03  0.00000000000E+00 0. -1.
          6    1    1    2  501    0  0.92523188339E+02  0.99318908046E+02  0.81496063136E+02  0.23377423764E+03  0.17200000000E+03 0.  1.
         -6    1    1    2    0  503 -0.92523188339E+02 -0.99318908046E+02  0.15984671907E+03  0.27121902491E+03  0.17200000000E+03 0.  1.
</event>
<event>
 4    1  0.1235203E+000  0.4624495E+03  0.7818608E-02  0.1024073E+00
         21   -1    0    0  503  502  0.00000000000E+00  0.00000000000E+00  0.14019909632E+04  0.14019909632E+04  0.00000000000E+00 0. -1.
         21   -1    0    0  501  503 -0.00000000000E+00 -0.00000000000E+00 -0.15457461954E+03  0.15457461954E+03  0.00000000000E+00 0.  1.
          6    1    1    2  501    0  0.47182100109E+02 -0.42667247798E+03  0.71300194339E+03  0.84984194137E+03  0.17200000000E+03 0. -1.
         -6    1    1    2    0  502 -0.47182100109E+02  0.42667247798E+03  0.53441440023E+03  0.70672364133E+03  0.17200000000E+03 0. -1.
</event>
<event>
 4    1  0.1235203E+000  0.1748871E+03  0.7818608E-02  0.1172845E+00
         21   -1    0    0  503  502  0.00000000000E+00  0.00000000000E+00  0.50758411264E+02  0.50758411264E+02  0.00000000000E+00 0.  1.
         21   -1    0    0  501  503 -0.00000000000E+00 -0.00000000000E+00 -0.81311349443E+03  0.81311349443E+03  0.00000000000E+00 0.  1.
          6    1    1    2  501    0 -0.23743739219E+02  0.20922322647E+02 -0.60097082781E+03  0.62590050696E+03  0.17200000000E+03 0.  1.
         -6    1    1    2    0  502  0.23743739219E+02 -0.20922322647E+02 -0.16138425536E+03  0.23797139873E+03  0.17200000000E+03 0.  1.
</event>
<event>
 4    1  0.1235203E+000  0.1892145E+03  0.7818608E-02  0.1159172E+00
         21   -1    0    0  503  502  0.00000000000E+00  0.00000000000E+00  0.17593388178E+03  0.17593388178E+03  0.00000000000E+00 0. -1.
         21   -1    0    0  501  503 -0.00000000000E+00 -0.00000000000E+00 -0.32203428617E+03  0.32203428617E+03  0.00000000000E+00 0.  1.
          6    1    1    2  501    0 -0.61580917437E+02 -0.49253691688E+02  0.78008861077E+02  0.20466440322E+03  0.17200000000E+03 0. -1.
         -6    1    1    2    0  502  0.61580917437E+02  0.49253691688E+02 -0.22410926547E+03  0.29330376473E+03  0.17200000000E+03 0.  1.
</event>
<event>
 4    1  0.1235203E+000  0.1990385E+03  0.7818608E-02  0.1150553E+00
         21   -1    0    0  501  502  0.00000000000E+00  0.00000000000E+00  0.27664469049E+03  0.27664469049E+03  0.00000000000E+00 0.  1.
         21   -1    0    0  502  503 -0.00000000000E+00 -0.00000000000E+00 -0.22591988595E+03  0.22591988595E+03  0.00000000000E+00 0. -1.
          6    1    1    2  501    0 -0.21854656667E+02  0.97748211263E+02  0.17741079670E+03  0.26662882367E+03  0.17200000000E+03 0.  1.
         -6    1    1    2    0  503  0.21854656667E+02 -0.97748211263E+02 -0.12668599217E+03  0.23593575277E+03  0.17200000000E+03 0. -1.
</event>
<event>
 4    1  0.1235203E+000  0.1853390E+03  0.7818608E-02  0.1162734E+00
         21   -1    0    0  503  502  0.00000000000E+00  0.00000000000E+00  0.44534318505E+02  0.44534318505E+02  0.00000000000E+00 0. -1.
         21   -1    0    0  501  503 -0.00000000000E+00 -0.00000000000E+00 -0.12019480891E+04  0.12019480891E+04  0.00000000000E+00 0. -1.
          6    1    1    2  501    0  0.62191801295E+02  0.29978852927E+02 -0.95175136328E+03  0.96962941853E+03  0.17200000000E+03 0. -1.
         -6    1    1    2    0  502 -0.62191801295E+02 -0.29978852927E+02 -0.20566240727E+03  0.27685298903E+03  0.17200000000E+03 0. -1.
</event>
<event>
 4    1  0.1235203E+000  0.2201667E+03  0.7818608E-02  0.1133759E+00
         21   -1    0    0  503  502  0.00000000000E+00  0.00000000000E+00  0.35187479123E+03  0.35187479123E+03  0.00000000000E+00 0. -1.
         21   -1    0    0  501  503 -0.00000000000E+00 -0.00000000000E+00 -0.13916552619E+03  0.13916552619E+03  0.00000000000E+00 0. -1.
          6    1    1    2  501    0 -0.13626590635E+03  0.17916146633E+02  0.81658478658E+02  0.23482225764E+03  0.17200000000E+03 0. -1.
         -6    1    1    2    0  502  0.13626590635E+03 -0.17916146633E+02  0.13105078638E+03  0.25621805978E+03  0.17200000000E+03 0. -1.
</event>
<event>
 4    1  0.1235203E+000  0.1891079E+03  0.7818608E-02  0.1159268E+00
         21   -1    0    0  501  502  0.00000000000E+00  0.00000000000E+00  0.37893376357E+02  0.37893376357E+02  0.00000000000E+00 0.  1.
         21   -1    0    0  502  503 -0.00000000000E+00 -0.00000000000E+00 -0.10445545663E+04  0.10445545663E+04  0.00000000000E+00 0.  1.
          6    1    1    2  501    0  0.47642061665E+02 -0.62514231785E+02 -0.33519640517E+03  0.38486156635E+03  0.17200000000E+03 0.  1.
         -6    1    1    2    0  503 -0.47642061665E+02  0.62514231785E+02 -0.67146478477E+03  0.69758637630E+03  0.17200000000E+03 0.  1.
</event>
<event>
 4    1  0.1235203E+000  0.2833352E+03  0.7818608E-02  0.1093881E+00
         21   -1    0    0  503  502  0.00000000000E+00  0.00000000000E+00  0.21861298820E+03  0.21861298820E+03  0.00000000000E+00 0.  1.
         21   -1    0    0  501  503 -0.00000000000E+00 -0.00000000000E+00 -0.38452179721E+03  0.38452179721E+03  0.00000000000E+00 0. -1.
          6    1    1    2  501    0  0.22258017563E+03  0.33954505953E+02 -0.14692524401E+03  0.31916433132E+03  0.17200000000E+03 0. -1.
         -6    1    1    2    0  502 -0.22258017563E+03 -0.33954505953E+02 -0.18983564996E+02  0.28397045409E+03  0.17200000000E+03 0.  1.
</event>
<event>
 4    1  0.1235203E+000  0.2546869E+03  0.7818608E-02  0.1110378E+00
         21   -1    0    0  503  502  0.00000000000E+00  0.00000000000E+00  0.68925220761E+02  0.68925220761E+02  0.00000000000E+00 0. -1.
         21   -1    0    0  501  503 -0.00000000000E+00 -0.00000000000E+00 -0.10070778814E+04  0.10070778814E+04  0.00000000000E+00 0.  1.
          6    1    1    2  501    0 -0.18122078364E+03  0.49401024575E+02 -0.33136947651E+03  0.41793679381E+03  0.17200000000E+03 0.  1.
         -6    1    1    2    0  502  0.18122078364E+03 -0.49401024575E+02 -0.60678318412E+03  0.65806630835E+03  0.17200000000E+03 0. -1.
</event>
<event>
 4    1  0.1235203E+000  0.2132191E+03  0.7818608E-02  0.1139042E+00
         21   -1    0    0  503  502  0.00000000000E+00  0.00000000000E+00  0.67028532922E+03  0.67028532922E+03  0.00000000000E+00 0. -1.
         21   -1    0    0  501  503 -0.00000000000E+00 -0.00000000000E+00 -0.15453001830E+03  0.15453001830E+03  0.00000000000E+00 0.  1.
          6    1    1    2  501    0  0.11983922117E+03  0.38947934750E+02 -0.51039045165E+02  0.21924270725E+03  0.17200000000E+03 0.  1.
         -6    1    1    2    0  502 -0.11983922117E+03 -0.38947934750E+02  0.56679435608E+03  0.60557264027E+03  0.17200000000E+03 0. -1.
</event>
<event>
 4    1  0.1235203E+000  0.2290367E+03  0.7818608E-02  0.1127320E+00
         21   -1    0    0  503  502  0.00000000000E+00  0.00000000000E+00  0.32568491769E+03  0.32568491769E+03  0.00000000000E+00 0. -1.
         21   -1    0    0  501  503 -0.00000000000E+00 -0.00000000000E+00 -0.25912481692E+03  0.25912481692E+03  0.00000000000E+00 0.  1.
          6    1    1    2  501    0 -0.10833996566E+03 -0.10552857751E+03 -0.14659304060E+03  0.27193261736E+03  0.17200000000E+03 0.  1.
         -6    1    1    2    0  502  0.10833996566E+03  0.10552857751E+03  0.21315314136E+03  0.31287711726E+03  0.17200000000E+03 0. -1.
</event>
<event>
 4    1  0.1235203E+000  0.1729767E+03  0.7818608E-02  0.1174779E+00
         21   -1    0    0  503  502  0.00000000000E+00  0.00000000000E+00  0.18533866750E+04  0.18533866750E+04  0.00000000000E+00 0.  1.
         21   -1    0    0  501  503 -0.00000000000E+00 -0.00000000000E+00 -0.16366427760E+02  0.16366427760E+02  0.00000000000E+00 0.  1.
          6    1    1    2  501    0 -0.31219132026E+01 -0.18088567645E+02  0.10275138280E+04  0.10419719811E+04  0.17200000000E+03 0. -1.
         -6    1    1    2    0  502  0.31219132026E+01  0.18088567645E+02  0.80950641926E+03  0.82778112170E+03  0.17200000000E+03 0. -1.
</event>
<event>
 4    1  0.1235203E+000  0.1874342E+03  0.7818608E-02  0.1160796E+00
         21   -1    0    0  501  502  0.00000000000E+00  0.00000000000E+00  0.57737797464E+03  0.57737797464E+03  0.00000000000E+00 0. -1.
         21   -1    0    0  502  503 -0.00000000000E+00 -0.00000000000E+00 -0.81343000025E+02  0.81343000025E+02  0.00000000000E+00 0.  1.
          6    1    1    2  501    0  0.73546309374E+02 -0.11768946045E+02  0.41334636247E+03  0.45385766830E+03  0.17200000000E+03 0.  1.
         -6    1    1    2    0  503 -0.73546309374E+02  0.11768946045E+02  0.82688612146E+02  0.20486330636E+03  0.17200000000E+03 0.  1.
</event>
<event>
 4    1  0.1235203E+000  0.1928043E+03  0.7818608E-02  0.1155956E+00
         21   -1    0    0  501  502  0.00000000000E+00  0.00000000000E+00  0.72533089797E+02  0.72533089797E+02  0.00000000000E+00 0.  1.
         21   -1    0    0  502  503 -0.00000000000E+00 -0.00000000000E+00 -0.53336595936E+03  0.53336595936E+03  0.00000000000E+00 0.  1.
          6    1    1    2  501    0 -0.79757974692E+02  0.35045360209E+02 -0.17050174858E+03  0.25737979344E+03  0.17200000000E+03 0.  1.
         -6    1    1    2    0  503  0.79757974692E+02 -0.35045360209E+02 -0.29033112098E+03  0.34851925572E+03  0.17200000000E+03 0.  1.
</event>
<event>
 4    1  0.1235203E+000  0.2965538E+03  0.7818608E-02  0.1086976E+00
         21   -1    0    0  501  502  0.00000000000E+00  0.00000000000E+00  0.88792386678E+03  0.88792386678E+03  0.00000000000E+00 0. -1.
         21   -1    0    0  502  503 -0.00000000000E+00 -0.00000000000E+00 -0.12802059057E+03  0.12802059057E+03  0.00000000000E+00 0. -1.
          6    1    1    2  501    0 -0.23665358159E+03 -0.48530504862E+02  0.62161937076E+03  0.68873417927E+03  0.17200000000E+03 0. -1.
         -6    1    1    2    0  503  0.23665358159E+03  0.48530504862E+02  0.13828390544E+03  0.32721027809E+03  0.17200000000E+03 0. -1.
</event>
<event>
 4    1  0.1235203E+000  0.2096911E+03  0.7818608E-02  0.1141811E+00
         21   -1    0    0  501  502  0.00000000000E+00  0.00000000000E+00  0.43727564899E+03  0.43727564899E+03  0.00000000000E+00 0. -1.
         21   -1    0    0  502  503 -0.00000000000E+00 -0.00000000000E+00 -0.25243621635E+03  0.25243621635E+03  0.00000000000E+00 0.  1.
          6    1    1    2  501    0 -0.62306406916E+02  0.10249027512E+03  0.35991344421E+03  0.41654295356E+03  0.17200000000E+03 0. -1.
         -6    1    1    2    0  503  0.62306406916E+02 -0.10249027512E+03 -0.17507401156E+03  0.27316891178E+03  0.17200000000E+03 0. -1.
</event>
<event>
 4    1  0.1235203E+000  0.1793854E+03  0.7818608E-02  0.1168399E+00
         21   -1    0    0  501  502  0.00000000000E+00  0.00000000000E+00  0.13414385712E+03  0.13414385712E+03  0.00000000000E+00 0. -1.
         21   -1    0    0  502  503 -0.00000000000E+00 -0.00000000000E+00 -0.25730668116E+03  0.25730668116E+03  0.00000000000E+00 0. -1.
          6    1    1    2  501    0 -0.99889000624E+01 -0.49953365499E+02 -0.10652458199E+02  0.17970139597E+03  0.17200000000E+03 0. -1.
         -6    1    1    2    0  503  0.99889000624E+01  0.49953365499E+02 -0.11251036584E+03  0.21174914231E+03  0.17200000000E+03 0. -1.
</event>
<event>
 4    1  0.1235203E+000  0.2614130E+03  0.7818608E-02  0.1106297E+00
         21   -1    0    0  503  502  0.00000000000E+00  0.00000000000E+00  0.63964085762E+03  0.63964085762E+03  0.00000000000E+00 0. -1.
         21   -1    0    0  501  503 -0.00000000000E+00 -0.00000000000E+00 -0.18699993032E+03  0.18699993032E+03  0.00000000000E+00 0. -1.
          6    1    1    2  501    0  0.19653185641E+03  0.11313588285E+02 -0.44296615105E+02  0.26513950662E+03  0.17200000000E+03 0. -1.
         -6    1    1    2    0  502 -0.19653185641E+03 -0.11313588285E+02  0.49693754241E+03  0.56150128132E+03  0.17200000000E+03 0. -1.
</event>
<event>
 4    1  0.1235203E+000  0.2102976E+03  0.7818608E-02  0.1141331E+00
         21   -1    0    0  501  502  0.00000000000E+00  0.00000000000E+00  0.18502596978E+03  0.18502596978E+03  0.00000000000E+00 0. -1.
         21   -1    0    0  502  503 -0.00000000000E+00 -0.00000000000E+00 -0.24382545625E+03  0.24382545625E+03  0.00000000000E+00 0. -1.
          6    1    1    2  501    0  0.11310140678E+03 -0.43001961332E+02 -0.59499178316E+02  0.21855262322E+03  0.17200000000E+03 0. -1.
         -6    1    1    2    0  503 -0.11310140678E+03  0.43001961332E+02  0.69969183961E+00  0.21029880281E+03  0.17200000000E+03 0. -1.
</event>
<event>
 4    1  0.1235203E+000  0.1791255E+03  0.7818608E-02  0.1168652E+00
         21   -1    0    0  503  502  0.00000000000E+00  0.00000000000E+00  0.81226294839E+02  0.81226294839E+02  0.00000000000E+00 0. -1.
         21   -1    0    0  501  503 -0.00000000000E+00 -0.00000000000E+00 -0.39501959131E+03  0.39501959131E+03  0.00000000000E+00 0. -1.
          6    1    1    2  501    0 -0.43747125615E+02  0.24251125757E+02 -0.15660031335E+03  0.23792769120E+03  0.17200000000E+03 0. -1.
         -6    1    1    2    0  502  0.43747125615E+02 -0.24251125757E+02 -0.15719298313E+03  0.23831819495E+03  0.17200000000E+03 0. -1.
</event>
<event>
 4    1  0.1235203E+000  0.2423595E+03  0.7818608E-02  0.1118231E+00
         21   -1    0    0  501  502  0.00000000000E+00  0.00000000000E+00  0.28614571374E+03  0.28614571374E+03  0.00000000000E+00 0.  1.
         21   -1    0    0  502  503 -0.00000000000E+00 -0.00000000000E+00 -0.94441050381E+03  0.94441050381E+03  0.00000000000E+00 0.  1.
          6    1    1    2  501    0  0.10529020623E+03 -0.13441770172E+03  0.21518663419E+03  0.32410404749E+03  0.17200000000E+03 0.  1.
         -6    1    1    2    0  503 -0.10529020623E+03  0.13441770172E+03 -0.87345142426E+03  0.90645217006E+03  0.17200000000E+03 0.  1.
</event>
<event>
 4    1  0.1235203E+000  0.1803557E+03  0.7818608E-02  0.1167459E+00
         21   -1    0    0  503  502  0.00000000000E+00  0.00000000000E+00  0.13639101901E+03  0.13639101901E+03  0.00000000000E+00 0. -1.
         21   -1    0    0  501  503 -0.00000000000E+00 -0.00000000000E+00 -0.61571417437E+03  0.61571417437E+03  0.00000000000E+00 0. -1.
          6    1    1    2  501    0 -0.31525576838E+02  0.44162306799E+02 -0.53400721580E+03  0.56364162183E+03  0.17200000000E+03 0. -1.
         -6    1    1    2    0  502  0.31525576838E+02 -0.44162306799E+02  0.54684060437E+02  0.18846357155E+03  0.17200000000E+03 0. -1.
</event>
<event>
 4    1  0.1235203E+000  0.1935886E+03  0.7818608E-02  0.1155264E+00
         21   -1    0    0  503  502  0.00000000000E+00  0.00000000000E+00  0.85861363855E+03  0.85861363855E+03  0.00000000000E+00 0. -1.
         21   -1    0    0  501  503 -0.00000000000E+00 -0.00000000000E+00 -0.80222422676E+02  0.80222422676E+02  0.00000000000E+00 0. -1.
          6    1    1    2  501    0 -0.88684622950E+02 -0.52521512769E+01  0.72237295456E+02  0.20662713833E+03  0.17200000000E+03 0. -1.
         -6    1    1    2    0  502  0.88684622950E+02  0.52521512769E+01  0.70615392042E+03  0.73220892289E+03  0.17200000000E+03 0. -1.
</event>
<event>
 4    1  0.1235203E+000  0.2427161E+03  0.7818608E-02  0.1117997E+00
         21   -1    0    0  503  502  0.00000000000E+00  0.00000000000E+00  0.10950604180E+03  0.10950604180E+03  0.00000000000E+00 0. -1.
         21   -1    0    0  501  503 -0.00000000000E+00 -0.00000000000E+00 -0.96948688445E+03  0.96948688445E+03  0.00000000000E+00 0. -1.
          6    1    1    2  501    0  0.31567872764E+02  0.16831691599E+03 -0.78991859484E+03  0.82636704997E+03  0.17200000000E+03 0.  1.
         -6    1    1    2    0  502 -0.31567872764E+02 -0.16831691599E+03 -0.70062247811E+02  0.25262587628E+03  0.17200000000E+03 0.  1.
</event>
<event>
 4    1  0.1235203E+000  0.1923732E+03  0.7818608E-02  0.1156338E+00
         21   -1    0    0  501  502  0.00000000000E+00  0.00000000000E+00  0.13205628641E+03  0.13205628641E+03  0.00000000000E+00 0. -1.
         21   -1    0    0  502  503 -0.00000000000E+00 -0.00000000000E+00 -0.30256860855E+03  0.30256860855E+03  0.00000000000E+00 0.  1.
          6    1    1    2  501    0  0.18145877101E+02 -0.84226987592E+02 -0.26222031916E+02  0.19415213945E+03  0.17200000000E+03 0. -1.
         -6    1    1    2    0  503 -0.18145877101E+02  0.84226987592E+02 -0.14429029022E+03  0.24047275552E+03  0.17200000000E+03 0. -1.
</event>
<event>
 4    1  0.1235203E+000  0.2061757E+03  0.7818608E-02  0.1144631E+00
         21   -1    0    0  501  502  0.00000000000E+00  0.00000000000E+00  0.18294909143E+03  0.18294909143E+03  0.00000000000E+00 0. -1.
         21   -1    0    0  502  503 -0.00000000000E+00 -0.00000000000E+00 -0.24383291107E+03  0.24383291107E+03  0.00000000000E+00 0.  1.
          6    1    1    2  501    0 -0.43396844774E+02 -0.10507681817E+03 -0.76747669325E+02  0.21999688316E+03  0.17200000000E+03 0. -1.
         -6    1    1    2    0  503  0.43396844774E+02  0.10507681817E+03  0.15863849686E+02  0.20678511934E+03  0.17200000000E+03 0. -1.
</event>
<event>
 4    1  0.1235203E+000  0.1815983E+03  0.7818608E-02  0.1166265E+00
         21   -1    0    0  503  502  0.00000000000E+00  0.00000000000E+00  0.15952635221E+03  0.15952635221E+03  0.00000000000E+00 0.  1.
         21   -1    0    0  501  503 -0.00000000000E+00 -0.00000000000E+00 -0.20698711985E+03  0.20698711985E+03  0.00000000000E+00 0.  1.
          6    1    1    2  501    0 -0.12705438331E+02 -0.56855294524E+02 -0.30262067380E+02  0.18410254045E+03  0.17200000000E+03 0.  1.
         -6    1    1    2    0  502  0.12705438331E+02  0.56855294524E+02 -0.17198700257E+02  0.18241093161E+03  0.17200000000E+03 0.  1.
</event>
<event>
 4    1  0.1235203E+000  0.2484108E+03  0.7818608E-02  0.1114313E+00
         21   -1    0    0  503  502  0.00000000000E+00  0.00000000000E+00  0.34150659824E+03  0.34150659824E+03  0.00000000000E+00 0. -1.
         21   -1    0    0  501  503 -0.00000000000E+00 -0.00000000000E+00 -0.18925426295E+03  0.18925426295E+03  0.00000000000E+00 0. -1.
          6    1    1    2  501    0  0.17255457077E+03 -0.48464948839E+02  0.19683298778E+02  0.24918941272E+03  0.17200000000E+03 0. -1.
         -6    1    1    2    0  502 -0.17255457077E+03  0.48464948839E+02  0.13256903651E+03  0.28157144848E+03  0.17200000000E+03 0. -1.
</event>
<event>
 4    1  0.1235203E+000  0.2061995E+03  0.7818608E-02  0.1144611E+00
         21   -1    0    0  503  502  0.00000000000E+00  0.00000000000E+00  0.64216345276E+03  0.64216345276E+03  0.00000000000E+00 0. -1.
         21   -1    0    0  501  503 -0.00000000000E+00 -0.00000000000E+00 -0.14258981792E+03  0.14258981792E+03  0.00000000000E+00 0. -1.
          6    1    1    2  501    0 -0.98504133297E+02 -0.56843512237E+02 -0.37387438054E+02  0.20956161310E+03  0.17200000000E+03 0. -1.
         -6    1    1    2    0  502  0.98504133297E+02  0.56843512237E+02  0.53696107289E+03  0.57519165759E+03  0.17200000000E+03 0. -1.
</event>
<event>
 4    1  0.1235203E+000  0.1836650E+03  0.7818608E-02  0.1164302E+00
         21   -1    0    0  501  502  0.00000000000E+00  0.00000000000E+00  0.86256571886E+02  0.86256571886E+02  0.00000000000E+00 0.  1.
         21   -1    0    0  502  503 -0.00000000000E+00 -0.00000000000E+00 -0.67942637408E+03  0.67942637408E+03  0.00000000000E+00 0.  1.
          6    1    1    2  501    0  0.61119026813E+02  0.20329606858E+02 -0.47178011868E+02  0.18962751160E+03  0.17200000000E+03 0. -1.
         -6    1    1    2    0  503 -0.61119026813E+02 -0.20329606858E+02 -0.54599179032E+03  0.57605543436E+03  0.17200000000E+03 0. -1.
</event>
<event>
 4    1  0.1235203E+000  0.2021857E+03  0.7818608E-02  0.1147908E+00
         21   -1    0    0  503  502  0.00000000000E+00  0.00000000000E+00  0.13904086198E+03  0.13904086198E+03  0.00000000000E+00 0.  1.
         21   -1    0    0  501  503 -0.00000000000E+00 -0.00000000000E+00 -0.29400973687E+03  0.29400973687E+03  0.00000000000E+00 0.  1.
          6    1    1    2  501    0 -0.10618182237E+03  0.45249138093E+01 -0.76885299149E+02  0.21631089541E+03  0.17200000000E+03 0.  1.
         -6    1    1    2    0  502  0.10618182237E+03 -0.45249138093E+01 -0.78083575743E+02  0.21673970344E+03  0.17200000000E+03 0.  1.
</event>
<event>
 4    1  0.1235203E+000  0.2390602E+03  0.7818608E-02  0.1120421E+00
         21   -1    0    0  503  502  0.00000000000E+00  0.00000000000E+00  0.47533119253E+03  0.47533119253E+03  0.00000000000E+00 0. -1.
         21   -1    0    0  501  503 -0.00000000000E+00 -0.00000000000E+00 -0.24838442285E+03  0.24838442285E+03  0.00000000000E+00 0.  1.
          6    1    1    2  501    0 -0.12653601006E+03 -0.10749137016E+03 -0.14644686719E+03  0.28035056877E+03  0.17200000000E+03 0. -1.
         -6    1    1    2    0  502  0.12653601006E+03  0.10749137016E+03  0.37339363687E+03  0.44336504661E+03  0.17200000000E+03 0. -1.
</event>
<event>
 4    1  0.1235203E+000  0.3119865E+03  0.7818608E-02  0.1079398E+00
         21   -1    0    0  501  502  0.00000000000E+00  0.00000000000E+00  0.18739024131E+04  0.18739024131E+04  0.00000000000E+00 0. -1.
         21   -1    0    0  502  503 -0.00000000000E+00 -0.00000000000E+00 -0.59602219262E+02  0.59602219262E+02  0.00000000000E+00 0.  1.
          6    1    1    2  501    0 -0.27963654763E+02 -0.25878489610E+03  0.12537146924E+04  0.12919505093E+04  0.17200000000E+03 0. -1.
         -6    1    1    2    0  503  0.27963654763E+02  0.25878489610E+03  0.56058550137E+03  0.64155412304E+03  0.17200000000E+03 0.  1.
</event>
<event>
 4    1  0.1235203E+000  0.1956643E+03  0.7818608E-02  0.1153449E+00
         21   -1    0    0  501  502  0.00000000000E+00  0.00000000000E+00  0.68872545972E+03  0.68872545972E+03  0.00000000000E+00 0. -1.
         21   -1    0    0  502  503 -0.00000000000E+00 -0.00000000000E+00 -0.10933363719E+03  0.10933363719E+03  0.00000000000E+00 0. -1.
          6    1    1    2  501    0  0.78527011126E+02  0.50339293284E+02  0.56946629052E+03  0.60214316567E+03  0.17200000000E+03 0. -1.
         -6    1    1    2    0  503 -0.78527011126E+02 -0.50339293284E+02  0.99255320071E+01  0.19591593123E+03  0.17200000000E+03 0. -1.
</event>
<event>
 4    1  0.1235203E+000  0.3202437E+03  0.7818608E-02  0.1075537E+00
         21   -1    0    0  501  502  0.00000000000E+00  0.00000000000E+00  0.72583286230E+03  0.72583286230E+03  0.00000000000E+00 0.  1.
         21   -1    0    0  502  503 -0.00000000000E+00 -0.00000000000E+00 -0.15125287199E+03  0.15125287199E+03  0.00000000000E+00 0. -1.
          6    1    1    2  501    0  0.20241084301E+03 -0.17889061388E+03  0.39981787207E+03  0.51226002375E+03  0.17200000000E+03 0.  1.
         -6    1    1    2    0  503 -0.20241084301E+03  0.17889061388E+03  0.17476211823E+03  0.36482571054E+03  0.17200000000E+03 0.  1.
</event>
<event>
 4    1  0.1235203E+000  0.2202721E+03  0.7818608E-02  0.1133680E+00
         21   -1    0    0  503  502  0.00000000000E+00  0.00000000000E+00  0.58491380117E+02  0.58491380117E+02  0.00000000000E+00 0. -1.
         21   -1    0    0  501  503 -0.00000000000E+00 -0.00000000000E+00 -0.88813457463E+03  0.88813457463E+03  0.00000000000E+00 0. -1.
          6    1    1    2  501    0 -0.10876454829E+03 -0.84297431787E+02 -0.53641525538E+03  0.57988025504E+03  0.17200000000E+03 0. -1.
         -6    1    1    2    0  502  0.10876454829E+03  0.84297431787E+02 -0.29322793913E+03  0.36674569971E+03  0.17200000000E+03 0. -1.
</event>
<event>
 4    1  0.1235203E+000  0.1821735E+03  0.7818608E-02  0.1165716E+00
         21   -1    0    0  503  502  0.00000000000E+00  0.00000000000E+00  0.34540790447E+03  0.34540790447E+03  0.00000000000E+00 0.  1.
         21   -1    0    0  501  503 -0.00000000000E+00 -0.00000000000E+00 -0.15922116114E+03  0.15922116114E+03  0.00000000000E+00 0.  1.
          6    1    1    2  501    0  0.57906876868E+02 -0.15810606465E+02 -0.65795788412E+02  0.19369116510E+03  0.17200000000E+03 0.  1.
         -6    1    1    2    0  502 -0.57906876868E+02  0.15810606465E+02  0.25198253175E+03  0.31093790051E+03  0.17200000000E+03 0.  1.
</event>
<event>
 4    1  0.1235203E+000  0.3769801E+03  0.7818608E-02  0.1052056E+00
         21   -1    0    0  501  502  0.00000000000E+00  0.00000000000E+00  0.13438488370E+03  0.13438488370E+03  0.00000000000E+00 0. -1.
         21   -1    0    0  502  503 -0.00000000000E+00 -0.00000000000E+00 -0.13413938936E+04  0.13413938936E+04  0.00000000000E+00 0. -1.
          6    1    1    2  501    0  0.33420389069E+03 -0.28943392071E+02 -0.94295781789E+03  0.10155212488E+04  0.17200000000E+03 0. -1.
         -6    1    1    2    0  503 -0.33420389069E+03  0.28943392071E+02 -0.26405119197E+03  0.46025752843E+03  0.17200000000E+03 0. -1.
</event>
<event>
 4    1  0.1235203E+000  0.3356237E+03  0.7818608E-02  0.1068675E+00
         21   -1    0    0  503  502  0.00000000000E+00  0.00000000000E+00  0.27266865410E+03  0.27266865410E+03  0.00000000000E+00 0. -1.
         21   -1    0    0  501  503 -0.00000000000E+00 -0.00000000000E+00 -0.41784537664E+03  0.41784537664E+03  0.00000000000E+00 0.  1.
          6    1    1    2  501    0  0.22788892535E+03  0.17642530489E+03 -0.10932728499E+03  0.35298116911E+03  0.17200000000E+03 0. -1.
         -6    1    1    2    0  502 -0.22788892535E+03 -0.17642530489E+03 -0.35849437554E+02  0.33753286163E+03  0.17200000000E+03 0.  1.
</event>
<event>
 4    1  0.1235203E+000  0.1796728E+03  0.7818608E-02  0.1168120E+00
         21   -1    0    0  503  502  0.00000000000E+00  0.00000000000E+00  0.92027070779E+02  0.92027070779E+02  0.00000000000E+00 0. -1.
         21   -1    0    0  501  503 -0.00000000000E+00 -0.00000000000E+00 -0.59627919905E+03  0.59627919905E+03  0.00000000000E+00 0. -1.
          6    1    1    2  501    0 -0.46085274394E+02  0.23968091349E+02 -0.47294773600E+03  0.50592675646E+03  0.17200000000E+03 0. -1.
         -6    1    1    2    0  502  0.46085274394E+02 -0.23968091349E+02 -0.31304392269E+02  0.18237951336E+03  0.17200000000E+03 0. -1.
</event>
<event>
 4    1  0.1235203E+000  0.1900800E+03  0.7818608E-02  0.1158389E+00
         21   -1    0    0  501  502  0.00000000000E+00  0.00000000000E+00  0.23656483307E+03  0.23656483307E+03  0.00000000000E+00 0. -1.
         21   -1    0    0  502  503 -0.00000000000E+00 -0.00000000000E+00 -0.15733798545E+03  0.15733798545E+03  0.00000000000E+00 0. -1.
          6    1    1    2  501    0 -0.60762301987E+02 -0.53425953255E+02  0.73321125990E+02  0.20373113984E+03  0.17200000000E+03 0. -1.
         -6    1    1    2    0  503  0.60762301987E+02  0.53425953255E+02  0.59057216311E+01  0.19017167868E+03  0.17200000000E+03 0. -1.
</event>
<event>
 4    1  0.1235203E+000  0.2409369E+03  0.7818608E-02  0.1119170E+00
         21   -1    0    0  503  502  0.00000000000E+00  0.00000000000E+00  0.16622945606E+03  0.16622945606E+03  0.00000000000E+00 0.  1.
         21   -1    0    0  501  503 -0.00000000000E+00 -0.00000000000E+00 -0.64207096086E+03  0.64207096086E+03  0.00000000000E+00 0.  1.
          6    1    1    2  501    0  0.81365803992E+02  0.14780461408E+03 -0.51086557105E+03  0.56483115148E+03  0.17200000000E+03 0.  1.
         -6    1    1    2    0  502 -0.81365803992E+02 -0.14780461408E+03  0.35024066247E+02  0.24346926545E+03  0.17200000000E+03 0.  1.
</event>
<event>
 4    1  0.1235203E+000  0.1879868E+03  0.7818608E-02  0.1160290E+00
         21   -1    0    0  503  502  0.00000000000E+00  0.00000000000E+00  0.12330859123E+03  0.12330859123E+03  0.00000000000E+00 0.  1.
         21   -1    0    0  501  503 -0.00000000000E+00 -0.00000000000E+00 -0.28726270740E+03  0.28726270740E+03  0.00000000000E+00 0. -1.
          6    1    1    2  501    0  0.54890708389E+02 -0.52364495613E+02 -0.72044141012E+02  0.20131912110E+03  0.17200000000E+03 0.  1.
         -6    1    1    2    0  502 -0.54890708389E+02  0.52364495613E+02 -0.91909975153E+02  0.20925217753E+03  0.17200000000E+03 0.  1.
</event>
<event>
 4    1  0.1235203E+000  0.1937853E+03  0.7818608E-02  0.1155091E+00
         21   -1    0    0  503  502  0.00000000000E+00  0.00000000000E+00  0.29344149783E+02  0.29344149783E+02  0.00000000000E+00 0. -1.
         21   -1    0    0  501  503 -0.00000000000E+00 -0.00000000000E+00 -0.12870332583E+04  0.12870332583E+04  0.00000000000E+00 0.  1.
          6    1    1    2  501    0  0.68648134017E+02 -0.57062900122E+02 -0.57928130966E+03  0.61083514683E+03  0.17200000000E+03 0.  1.
         -6    1    1    2    0  502 -0.68648134017E+02  0.57062900122E+02 -0.67840779888E+03  0.70554226128E+03  0.17200000000E+03 0.  1.
</event>
<event>
 4    1  0.1235203E+000  0.1958433E+03  0.7818608E-02  0.1153294E+00
         21   -1    0    0  501  502  0.00000000000E+00  0.00000000000E+00  0.63340718515E+03  0.63340718515E+03  0.00000000000E+00 0.  1.
         21   -1    0    0  502  503 -0.00000000000E+00 -0.00000000000E+00 -0.11592520216E+03  0.11592520216E+03  0.00000000000E+00 0.  1.
          6    1    1    2  501    0  0.10393860465E+02 -0.93072973486E+02  0.51768273065E+03  0.55348895232E+03  0.17200000000E+03 0.  1.
         -6    1    1    2    0  503 -0.10393860465E+02  0.93072973486E+02 -0.20074765995E+00  0.19584343499E+03  0.17200000000E+03 0.  1.
</event>
<event>
 4    1  0.1235203E+000  0.2133647E+03  0.7818608E-02  0.1138929E+00
         21   -1    0    0  501  502  0.00000000000E+00  0.00000000000E+00  0.50945536594E+02  0.50945536594E+02  0.00000000000E+00 0. -1.
         21   -1    0    0  502  503 -0.00000000000E+00 -0.00000000000E+00 -0.15269700163E+04  0.15269700163E+04  0.00000000000E+00 0.  1.
          6    1    1    2  501    0 -0.10478412479E+03  0.70432770255E+02 -0.22988761583E+03  0.31364439075E+03  0.17200000000E+03 0. -1.
         -6    1    1    2    0  503  0.10478412479E+03 -0.70432770255E+02 -0.12461368638E+04  0.12642711621E+04  0.17200000000E+03 0.  1.
</event>
<event>
 4    1  0.1235203E+000  0.1972135E+03  0.7818608E-02  0.1152112E+00
         21   -1    0    0  501  502  0.00000000000E+00  0.00000000000E+00  0.15923013533E+03  0.15923013533E+03  0.00000000000E+00 0.  1.
         21   -1    0    0  502  503 -0.00000000000E+00 -0.00000000000E+00 -0.32064412734E+03  0.32064412734E+03  0.00000000000E+00 0. -1.
          6    1    1    2  501    0 -0.80137031750E+01  0.96150619362E+02  0.36403109684E+02  0.20054512569E+03  0.17200000000E+03 0.  1.
         -6    1    1    2    0  503  0.80137031750E+01 -0.96150619362E+02 -0.19781710169E+03  0.27932913698E+03  0.17200000000E+03 0. -1.
</event>
<event>
 4    1  0.1235203E+000  0.1869517E+03  0.7818608E-02  0.1161240E+00
         21   -1    0    0  503  502  0.00000000000E+00  0.00000000000E+00  0.29438117340E+03  0.29438117340E+03  0.00000000000E+00 0.  1.
         21   -1    0    0  501  503 -0.00000000000E+00 -0.00000000000E+00 -0.25903031991E+03  0.25903031991E+03  0.00000000000E+00 0.  1.
          6    1    1    2  501    0  0.21801009377E+02  0.69940389233E+02 -0.18597115390E+03  0.26369719782E+03  0.17200000000E+03 0.  1.
         -6    1    1    2    0  502 -0.21801009377E+02 -0.69940389233E+02  0.22132200739E+03  0.28971429549E+03  0.17200000000E+03 0.  1.
</event>
<event>
 4    1  0.1235203E+000  0.1744980E+03  0.7818608E-02  0.1173237E+00
         21   -1    0    0  503  502  0.00000000000E+00  0.00000000000E+00  0.53333048392E+03  0.53333048392E+03  0.00000000000E+00 0. -1.
         21   -1    0    0  501  503 -0.00000000000E+00 -0.00000000000E+00 -0.77833210235E+02  0.77833210235E+02  0.00000000000E+00 0. -1.
          6    1    1    2  501    0 -0.81944651198E+01 -0.28255851874E+02  0.70005819281E+02  0.18801690657E+03  0.17200000000E+03 0. -1.
         -6    1    1    2    0  502  0.81944651198E+01  0.28255851874E+02  0.38549145440E+03  0.42314678758E+03  0.17200000000E+03 0. -1.
</event>
<event>
 4    1  0.1235203E+000  0.1944145E+03  0.7818608E-02  0.1154539E+00
         21   -1    0    0  503  502  0.00000000000E+00  0.00000000000E+00  0.18015128096E+03  0.18015128096E+03  0.00000000000E+00 0.  1.
         21   -1    0    0  501  503 -0.00000000000E+00 -0.00000000000E+00 -0.20982905311E+03  0.20982905311E+03  0.00000000000E+00 0.  1.
          6    1    1    2  501    0 -0.30727902284E+02  0.85257129910E+02 -0.16842324783E+02  0.19514263010E+03  0.17200000000E+03 0.  1.
         -6    1    1    2    0  502  0.30727902284E+02 -0.85257129910E+02 -0.12835447364E+02  0.19483770397E+03  0.17200000000E+03 0.  1.
</event>
<event>
 4    1  0.1235203E+000  0.1858199E+03  0.7818608E-02  0.1162286E+00
         21   -1    0    0  503  502  0.00000000000E+00  0.00000000000E+00  0.81552121719E+03  0.81552121719E+03  0.00000000000E+00 0.  1.
         21   -1    0    0  501  503 -0.00000000000E+00 -0.00000000000E+00 -0.50590009194E+02  0.50590009194E+02  0.00000000000E+00 0.  1.
          6    1    1    2  501    0 -0.70173971510E+02  0.45458630864E+01  0.20758473950E+03  0.27860451400E+03  0.17200000000E+03 0.  1.
         -6    1    1    2    0  502  0.70173971510E+02 -0.45458630864E+01  0.55734646850E+03  0.58750671239E+03  0.17200000000E+03 0.  1.
</event>
<event>
 4    1  0.1235203E+000  0.2637473E+03  0.7818608E-02  0.1104912E+00
         21   -1    0    0  503  502  0.00000000000E+00  0.00000000000E+00  0.42640070005E+02  0.42640070005E+02  0.00000000000E+00 0.  1.
         21   -1    0    0  501  503 -0.00000000000E+00 -0.00000000000E+00 -0.18404270830E+04  0.18404270830E+04  0.00000000000E+00 0.  1.
          6    1    1    2  501    0 -0.62195017990E+02 -0.19002736963E+03 -0.12162060608E+04  0.12444757145E+04  0.17200000000E+03 0.  1.
         -6    1    1    2    0  502  0.62195017990E+02  0.19002736963E+03 -0.58158095219E+03  0.63859143858E+03  0.17200000000E+03 0.  1.
</event>
<event>
 4    1  0.1235203E+000  0.3250019E+03  0.7818608E-02  0.1073370E+00
         21   -1    0    0  501  502  0.00000000000E+00  0.00000000000E+00  0.79028394452E+03  0.79028394452E+03  0.00000000000E+00 0.  1.
         21   -1    0    0  502  503 -0.00000000000E+00 -0.00000000000E+00 -0.17898904889E+03  0.17898904889E+03  0.00000000000E+00 0. -1.
          6    1    1    2  501    0  0.17586898441E+03 -0.21239660412E+03  0.54954654448E+03  0.63845721992E+03  0.17200000000E+03 0.  1.
         -6    1    1    2    0  503 -0.17586898441E+03  0.21239660412E+03  0.61748351149E+02  0.33081577349E+03  0.17200000000E+03 0. -1.
</event>
<event>
 4    1  0.1235203E+000  0.1992990E+03  0.7818608E-02  0.1150332E+00
         21   -1    0    0  503  502  0.00000000000E+00  0.00000000000E+00  0.26366072028E+02  0.26366072028E+02  0.00000000000E+00 0.  1.
         21   -1    0    0  501  503 -0.00000000000E+00 -0.00000000000E+00 -0.20508919679E+04  0.20508919679E+04  0.00000000000E+00 0.  1.
          6    1    1    2  501    0  0.55569978002E+02  0.83952823850E+02 -0.15473824655E+04  0.15601642842E+04  0.17200000000E+03 0. -1.
         -6    1    1    2    0  502 -0.55569978002E+02 -0.83952823850E+02 -0.47714343035E+03  0.51709375573E+03  0.17200000000E+03 0. -1.
</event>
<event>
 4    1  0.1235203E+000  0.1847679E+03  0.7818608E-02  0.1163267E+00
         21   -1    0    0  501  502  0.00000000000E+00  0.00000000000E+00  0.77638684916E+02  0.77638684916E+02  0.00000000000E+00 0. -1.
         21   -1    0    0  502  503 -0.00000000000E+00 -0.00000000000E+00 -0.63506657545E+03  0.63506657545E+03  0.00000000000E+00 0. -1.
          6    1    1    2  501    0 -0.67437115921E+02  0.27202954739E+01 -0.81073906618E+02  0.20177250295E+03  0.17200000000E+03 0. -1.
         -6    1    1    2    0  503  0.67437115921E+02 -0.27202954739E+01 -0.47635398392E+03  0.51093275742E+03  0.17200000000E+03 0. -1.
</event>
<event>
 4    1  0.1235203E+000  0.2061280E+03  0.7818608E-02  0.1144669E+00
         21   -1    0    0  501  502  0.00000000000E+00  0.00000000000E+00  0.63538815960E+03  0.63538815960E+03  0.00000000000E+00 0.  1.
         21   -1    0    0  502  503 -0.00000000000E+00 -0.00000000000E+00 -0.87707357593E+02  0.87707357593E+02  0.00000000000E+00 0.  1.
          6    1    1    2  501    0  0.11356707157E+03 -0.26979276790E+01  0.45006364991E+03  0.49502125967E+03  0.17200000000E+03 0.  1.
         -6    1    1    2    0  503 -0.11356707157E+03  0.26979276790E+01  0.97617152101E+02  0.22807425752E+03  0.17200000000E+03 0.  1.
</event>
<event>
 4    1  0.1235203E+000  0.1750389E+03  0.7818608E-02  0.1172693E+00
         21   -1    0    0  503  502  0.00000000000E+00  0.00000000000E+00  0.29446997362E+03  0.29446997362E+03  0.00000000000E+00 0. -1.
         21   -1    0    0  501  503 -0.00000000000E+00 -0.00000000000E+00 -0.14121089693E+03  0.14121089693E+03  0.00000000000E+00 0. -1.
          6    1    1    2  501    0 -0.29165358497E+02  0.14282683209E+02 -0.35125491987E+02  0.17852846653E+03  0.17200000000E+03 0.  1.
         -6    1    1    2    0  502  0.29165358497E+02 -0.14282683209E+02  0.18838456867E+03  0.25715240401E+03  0.17200000000E+03 0.  1.
</event>
<event>
 4    1  0.1235203E+000  0.2036409E+03  0.7818608E-02  0.1146703E+00
         21   -1    0    0  501  502  0.00000000000E+00  0.00000000000E+00  0.62920938937E+02  0.62920938937E+02  0.00000000000E+00 0. -1.
         21   -1    0    0  502  503 -0.00000000000E+00 -0.00000000000E+00 -0.96736547548E+03  0.96736547548E+03  0.00000000000E+00 0.  1.
          6    1    1    2  501    0  0.98250750813E+02 -0.47248427305E+02 -0.16141003518E+03  0.25985154103E+03  0.17200000000E+03 0. -1.
         -6    1    1    2    0  503 -0.98250750813E+02  0.47248427305E+02 -0.74303450136E+03  0.77043487339E+03  0.17200000000E+03 0.  1.
</event>
<event>
 4    1  0.1235203E+000  0.2220400E+03  0.7818608E-02  0.1132371E+00
         21   -1    0    0  503  502  0.00000000000E+00  0.00000000000E+00  0.67274255426E+03  0.67274255426E+03  0.00000000000E+00 0.  1.
         21   -1    0    0  501  503 -0.00000000000E+00 -0.00000000000E+00 -0.10149142537E+03  0.10149142537E+03  0.00000000000E+00 0.  1.
          6    1    1    2  501    0 -0.55447225894E+02 -0.12900913141E+03  0.48970710517E+03  0.53769396472E+03  0.17200000000E+03 0.  1.
         -6    1    1    2    0  502  0.55447225894E+02  0.12900913141E+03  0.81544023720E+02  0.23654001491E+03  0.17200000000E+03 0.  1.
</event>
<event>
 4    1  0.1235203E+000  0.2546016E+03  0.7818608E-02  0.1110431E+00
         21   -1    0    0  501  502  0.00000000000E+00  0.00000000000E+00  0.11786055954E+03  0.11786055954E+03  0.00000000000E+00 0. -1.
         21   -1    0    0  502  503 -0.00000000000E+00 -0.00000000000E+00 -0.80843209749E+03  0.80843209749E+03  0.00000000000E+00 0. -1.
          6    1    1    2  501    0 -0.17187907397E+03  0.75469089909E+02 -0.60715170214E+03  0.65837313813E+03  0.17200000000E+03 0. -1.
         -6    1    1    2    0  503  0.17187907397E+03 -0.75469089909E+02 -0.83419835810E+02  0.26791951890E+03  0.17200000000E+03 0. -1.
</event>
<event>
 4    1  0.1235203E+000  0.2020340E+03  0.7818608E-02  0.1148034E+00
         21   -1    0    0  501  502  0.00000000000E+00  0.00000000000E+00  0.68775321086E+02  0.68775321086E+02  0.00000000000E+00 0. -1.
         21   -1    0    0  502  503 -0.00000000000E+00 -0.00000000000E+00 -0.59630305950E+03  0.59630305950E+03  0.00000000000E+00 0. -1.
          6    1    1    2  501    0  0.10337997708E+03  0.23373164596E+02 -0.28658870639E+03  0.35064342446E+03  0.17200000000E+03 0. -1.
         -6    1    1    2    0  503 -0.10337997708E+03 -0.23373164596E+02 -0.24093903203E+03  0.31443495613E+03  0.17200000000E+03 0. -1.
</event>
<event>
 4    1  0.1235203E+000  0.2645419E+03  0.7818608E-02  0.1104445E+00
         21   -1    0    0  501  502  0.00000000000E+00  0.00000000000E+00  0.14100269601E+03  0.14100269601E+03  0.00000000000E+00 0.  1.
         21   -1    0    0  502  503 -0.00000000000E+00 -0.00000000000E+00 -0.49895198626E+03  0.49895198626E+03  0.00000000000E+00 0. -1.
          6    1    1    2  501    0 -0.81300427128E+02  0.18381694759E+03 -0.15573399460E+03  0.30697802323E+03  0.17200000000E+03 0.  1.
         -6    1    1    2    0  503  0.81300427128E+02 -0.18381694759E+03 -0.20221529565E+03  0.33297665904E+03  0.17200000000E+03 0.  1.
</event>
<event>
 4    1  0.1235203E+000  0.1730625E+03  0.7818608E-02  0.1174691E+00
         21   -1    0    0  503  502  0.00000000000E+00  0.00000000000E+00  0.19562061178E+02  0.19562061178E+02  0.00000000000E+00 0.  1.
         21   -1    0    0  501  503 -0.00000000000E+00 -0.00000000000E+00 -0.15372868400E+04  0.15372868400E+04  0.00000000000E+00 0.  1.
          6    1    1    2  501    0 -0.18314959450E+02  0.55846745747E+01 -0.70930764396E+03  0.73011503211E+03  0.17200000000E+03 0. -1.
         -6    1    1    2    0  502  0.18314959450E+02 -0.55846745747E+01 -0.80841713484E+03  0.82673386905E+03  0.17200000000E+03 0. -1.
</event>
<event>
 4    1  0.1235203E+000  0.2669925E+03  0.7818608E-02  0.1103013E+00
         21   -1    0    0  503  502  0.00000000000E+00  0.00000000000E+00  0.65056885960E+02  0.65056885960E+02  0.00000000000E+00 0. -1.
         21   -1    0    0  501  503 -0.00000000000E+00 -0.00000000000E+00 -0.12758191228E+04  0.12758191228E+04  0.00000000000E+00 0.  1.
          6    1    1    2  501    0  0.15461818045E+02  0.20362205562E+03 -0.85726686457E+03  0.89788166617E+03  0.17200000000E+03 0.  1.
         -6    1    1    2    0  502 -0.15461818045E+02 -0.20362205562E+03 -0.35349537227E+03  0.44299434259E+03  0.17200000000E+03 0. -1.
</event>
<event>
 4    1  0.1235203E+000  0.2106411E+03  0.7818608E-02  0.1141059E+00
         21   -1    0    0  503  502  0.00000000000E+00  0.00000000000E+00  0.70507887576E+02  0.70507887576E+02  0.00000000000E+00 0.  1.
         21   -1    0    0  501  503 -0.00000000000E+00 -0.00000000000E+00 -0.15314979873E+04  0.15314979873E+04  0.00000000000E+00 0.  1.
          6    1    1    2  501    0 -0.11005011035E+03  0.51716874040E+02 -0.13452896857E+04  0.13616805794E+04  0.17200000000E+03 0.  1.
         -6    1    1    2    0  502  0.11005011035E+03 -0.51716874040E+02 -0.11570041405E+03  0.24032529550E+03  0.17200000000E+03 0.  1.
</event>
<event>
 4    1  0.1235203E+000  0.2477825E+03  0.7818608E-02  0.1114714E+00
         21   -1    0    0  503  502  0.00000000000E+00  0.00000000000E+00  0.22089870695E+03  0.22089870695E+03  0.00000000000E+00 0.  1.
         21   -1    0    0  501  503 -0.00000000000E+00 -0.00000000000E+00 -0.38383167416E+03  0.38383167416E+03  0.00000000000E+00 0. -1.
          6    1    1    2  501    0  0.16476406451E+03  0.68300458343E+02 -0.24028325077E+03  0.34515531311E+03  0.17200000000E+03 0. -1.
         -6    1    1    2    0  502 -0.16476406451E+03 -0.68300458343E+02  0.77350283558E+02  0.25957506801E+03  0.17200000000E+03 0.  1.
</event>
<event>
 4    1  0.1235203E+000  0.1756391E+03  0.7818608E-02  0.1172092E+00
         21   -1    0    0  501  502  0.00000000000E+00  0.00000000000E+00  0.82264665302E+02  0.82264665302E+02  0.00000000000E+00 0. -1.
         21   -1    0    0  502  503 -0.00000000000E+00 -0.00000000000E+00 -0.46921212846E+03  0.46921212846E+03  0.00000000000E+00 0. -1.
          6    1    1    2  501    0 -0.31433881441E+02 -0.16643318711E+02 -0.31703163686E+03  0.36243364597E+03  0.17200000000E+03 0. -1.
         -6    1    1    2    0  503  0.31433881441E+02  0.16643318711E+02 -0.69915826298E+02  0.18904314779E+03  0.17200000000E+03 0. -1.
</event>
<event>
 4    1  0.1235203E+000  0.1825517E+03  0.7818608E-02  0.1165356E+00
         21   -1    0    0  503  502  0.00000000000E+00  0.00000000000E+00  0.38257672505E+02  0.38257672505E+02  0.00000000000E+00 0.  1.
         21   -1    0    0  501  503 -0.00000000000E+00 -0.00000000000E+00 -0.17408873302E+04  0.17408873302E+04  0.00000000000E+00 0.  1.
          6    1    1    2  501    0  0.33070483672E+02  0.51453527833E+02 -0.14801111171E+04  0.14913262692E+04  0.17200000000E+03 0.  1.
         -6    1    1    2    0  502 -0.33070483672E+02 -0.51453527833E+02 -0.22251854061E+03  0.28781873346E+03  0.17200000000E+03 0.  1.
</event>
<event>
 4    1  0.1235203E+000  0.1948189E+03  0.7818608E-02  0.1154185E+00
         21   -1    0    0  503  502  0.00000000000E+00  0.00000000000E+00  0.16445247201E+04  0.16445247201E+04  0.00000000000E+00 0.  1.
         21   -1    0    0  501  503 -0.00000000000E+00 -0.00000000000E+00 -0.31560375922E+02  0.31560375922E+02  0.00000000000E+00 0.  1.
          6    1    1    2  501    0 -0.67348066708E+02 -0.61924536135E+02  0.37205044350E+03  0.41997135947E+03  0.17200000000E+03 0.  1.
         -6    1    1    2    0  502  0.67348066708E+02  0.61924536135E+02  0.12409139007E+04  0.12561137366E+04  0.17200000000E+03 0.  1.
</event>
<event>
 4    1  0.1235203E+000  0.2351012E+03  0.7818608E-02  0.1123100E+00
         21   -1    0    0  501  502  0.00000000000E+00  0.00000000000E+00  0.78252119651E+02  0.78252119651E+02  0.00000000000E+00 0. -1.
         21   -1    0    0  502  503 -0.00000000000E+00 -0.00000000000E+00 -0.75497935211E+03  0.75497935211E+03  0.00000000000E+00 0.  1.
          6    1    1    2  501    0 -0.13468575134E+03 -0.86881205335E+02 -0.23261799141E+03  0.33073210515E+03  0.17200000000E+03 0. -1.
         -6    1    1    2    0  503  0.13468575134E+03  0.86881205335E+02 -0.44410924106E+03  0.50249936661E+03  0.17200000000E+03 0.  1.
</event>
<event>
 4    1  0.1235203E+000  0.1773216E+03  0.7818608E-02  0.1170421E+00
         21   -1    0    0  501  502  0.00000000000E+00  0.00000000000E+00  0.42292071501E+03  0.42292071501E+03  0.00000000000E+00 0.  1.
         21   -1    0    0  502  503 -0.00000000000E+00 -0.00000000000E+00 -0.90172811013E+02  0.90172811013E+02  0.00000000000E+00 0.  1.
          6    1    1    2  501    0 -0.40986233847E+02  0.13382549977E+02  0.58898518691E+02  0.18684753012E+03  0.17200000000E+03 0.  1.
         -6    1    1    2    0  503  0.40986233847E+02 -0.13382549977E+02  0.27384938530E+03  0.32624599590E+03  0.17200000000E+03 0.  1.
</event>
<event>
 4    1  0.1235203E+000  0.1949857E+03  0.7818608E-02  0.1154040E+00
         21   -1    0    0  503  502  0.00000000000E+00  0.00000000000E+00  0.65727882752E+03  0.65727882752E+03  0.00000000000E+00 0.  1.
         21   -1    0    0  501  503 -0.00000000000E+00 -0.00000000000E+00 -0.69691513996E+02  0.69691513996E+02  0.00000000000E+00 0.  1.
          6    1    1    2  501    0  0.91829306350E+02 -0.16785769215E+01  0.14392325663E+03  0.24234962951E+03  0.17200000000E+03 0.  1.
         -6    1    1    2    0  502 -0.91829306350E+02  0.16785769215E+01  0.44366405689E+03  0.48462071200E+03  0.17200000000E+03 0.  1.
</event>
<event>
 4    1  0.1235203E+000  0.2195315E+03  0.7818608E-02  0.1134233E+00
         21   -1    0    0  501  502  0.00000000000E+00  0.00000000000E+00  0.54432393278E+03  0.54432393278E+03  0.00000000000E+00 0. -1.
         21   -1    0    0  502  503 -0.00000000000E+00 -0.00000000000E+00 -0.94258611980E+02  0.94258611980E+02  0.00000000000E+00 0.  1.
          6    1    1    2  501    0  0.31639558027E+02 -0.13269902009E+03  0.14638311476E+03  0.26386001564E+03  0.17200000000E+03 0. -1.
         -6    1    1    2    0  503 -0.31639558027E+02  0.13269902009E+03  0.30368220605E+03  0.37472252913E+03  0.17200000000E+03 0. -1.
</event>
<event>
 4    1  0.1235203E+000  0.1795759E+03  0.7818608E-02  0.1168214E+00
         21   -1    0    0  503  502  0.00000000000E+00  0.00000000000E+00  0.13892507492E+03  0.13892507492E+03  0.00000000000E+00 0. -1.
         21   -1    0    0  501  503 -0.00000000000E+00 -0.00000000000E+00 -0.32155653912E+03  0.32155653912E+03  0.00000000000E+00 0. -1.
          6    1    1    2  501    0  0.40712740208E+02 -0.31717329907E+02 -0.21274045934E+03  0.27839902887E+03  0.17200000000E+03 0.  1.
         -6    1    1    2    0  502 -0.40712740208E+02  0.31717329907E+02  0.30108995144E+02  0.18208258516E+03  0.17200000000E+03 0.  1.
</event>
<event>
 4    1  0.1235203E+000  0.2167714E+03  0.7818608E-02  0.1136313E+00
         21   -1    0    0  501  502  0.00000000000E+00  0.00000000000E+00  0.76948315542E+02  0.76948315542E+02  0.00000000000E+00 0. -1.
         21   -1    0    0  502  503 -0.00000000000E+00 -0.00000000000E+00 -0.62809595965E+03  0.62809595965E+03  0.00000000000E+00 0.  1.
          6    1    1    2  501    0  0.86642425011E+02 -0.99493401912E+02 -0.33429585186E+03  0.39842635882E+03  0.17200000000E+03 0. -1.
         -6    1    1    2    0  503 -0.86642425011E+02  0.99493401912E+02 -0.21685179225E+03  0.30661791637E+03  0.17200000000E+03 0.  1.
</event>
<event>
 4    1  0.1235203E+000  0.1866456E+03  0.7818608E-02  0.1161522E+00
         21   -1    0    0  501  502  0.00000000000E+00  0.00000000000E+00  0.55143181426E+03  0.55143181426E+03  0.00000000000E+00 0.  1.
         21   -1    0    0  502  503 -0.00000000000E+00 -0.00000000000E+00 -0.67637073705E+02  0.67637073705E+02  0.00000000000E+00 0.  1.
          6    1    1    2  501    0 -0.17565120477E+02 -0.70313874785E+02  0.32140273929E+03  0.37166691441E+03  0.17200000000E+03 0.  1.
         -6    1    1    2    0  503  0.17565120477E+02  0.70313874785E+02  0.16239200127E+03  0.24740197356E+03  0.17200000000E+03 0.  1.
</event>
<event>
 4    1  0.1235203E+000  0.1814971E+03  0.7818608E-02  0.1166362E+00
         21   -1    0    0  501  502  0.00000000000E+00  0.00000000000E+00  0.14437681429E+04  0.14437681429E+04  0.00000000000E+00 0. -1.
         21   -1    0    0  502  503 -0.00000000000E+00 -0.00000000000E+00 -0.22885023012E+02  0.22885023012E+02  0.00000000000E+00 0. -1.
          6    1    1    2  501    0  0.45863324773E+02 -0.35408505629E+02  0.75067600399E+03  0.77230542521E+03  0.17200000000E+03 0.  1.
         -6    1    1    2    0  503 -0.45863324773E+02  0.35408505629E+02  0.67020711594E+03  0.69434774075E+03  0.17200000000E+03 0.  1.
</event>
<event>
 4    1  0.1235203E+000  0.2255772E+03  0.7818608E-02  0.1129792E+00
         21   -1    0    0  501  502  0.00000000000E+00  0.00000000000E+00  0.17065469541E+03  0.17065469541E+03  0.00000000000E+00 0.  1.
         21   -1    0    0  502  503 -0.00000000000E+00 -0.00000000000E+00 -0.31714271561E+03  0.31714271561E+03  0.00000000000E+00 0. -1.
          6    1    1    2  501    0  0.69119755631E+02 -0.12854385214E+03 -0.13289024244E+03  0.26181076960E+03  0.17200000000E+03 0. -1.
         -6    1    1    2    0  503 -0.69119755631E+02  0.12854385214E+03 -0.13597777757E+02  0.22598664142E+03  0.17200000000E+03 0. -1.
</event>
<event>
 4    1  0.1235203E+000  0.2063954E+03  0.7818608E-02  0.1144453E+00
         21   -1    0    0  501  502  0.00000000000E+00  0.00000000000E+00  0.12367503044E+04  0.12367503044E+04  0.00000000000E+00 0.  1.
         21   -1    0    0  502  503 -0.00000000000E+00 -0.00000000000E+00 -0.36085824358E+02  0.36085824358E+02  0.00000000000E+00 0. -1.
          6    1    1    2  501    0 -0.63441219133E+02  0.94817113082E+02  0.73606661818E+03  0.76445610705E+03  0.17200000000E+03 0.  1.
         -6    1    1    2    0  503  0.63441219133E+02 -0.94817113082E+02  0.46459786188E+03  0.50838002172E+03  0.17200000000E+03 0. -1.
</event>
<event>
 4    1  0.1235203E+000  0.2834507E+03  0.7818608E-02  0.1093819E+00
         21   -1    0    0  503  502  0.00000000000E+00  0.00000000000E+00  0.42002779185E+03  0.42002779185E+03  0.00000000000E+00 0. -1.
         21   -1    0    0  501  503 -0.00000000000E+00 -0.00000000000E+00 -0.24887397765E+03  0.24887397765E+03  0.00000000000E+00 0.  1.
          6    1    1    2  501    0  0.12631215719E+03 -0.18656241468E+03 -0.75309279278E+02  0.29328447482E+03  0.17200000000E+03 0.  1.
         -6    1    1    2    0  502 -0.12631215719E+03  0.18656241468E+03  0.24646309347E+03  0.37561729469E+03  0.17200000000E+03 0. -1.
</event>
<event>
 4    1  0.1235203E+000  0.2045622E+03  0.7818608E-02  0.1145946E+00
         21   -1    0    0  503  502  0.00000000000E+00  0.00000000000E+00  0.49428306958E+03  0.49428306958E+03  0.00000000000E+00 0. -1.
         21   -1    0    0  501  503 -0.00000000000E+00 -0.00000000000E+00 -0.85006520447E+02  0.85006520447E+02  0.00000000000E+00 0. -1.
          6    1    1    2  501    0  0.38171465198E+02 -0.10394526076E+03  0.22314876021E+03  0.30272272325E+03  0.17200000000E+03 0. -1.
         -6    1    1    2    0  502 -0.38171465198E+02  0.10394526076E+03  0.18612778892E+03  0.27656686678E+03  0.17200000000E+03 0. -1.
</event>
<event>
 4    1  0.1235203E+000  0.2189130E+03  0.7818608E-02  0.1134696E+00
         21   -1    0    0  501  502  0.00000000000E+00  0.00000000000E+00  0.22456297938E+03  0.22456297938E+03  0.00000000000E+00 0.  1.
         21   -1    0    0  502  503 -0.00000000000E+00 -0.00000000000E+00 -0.21581760692E+03  0.21581760692E+03  0.00000000000E+00 0.  1.
          6    1    1    2  501    0  0.13541582429E+03  0.12119250496E+01  0.27652383540E+02  0.22065259696E+03  0.17200000000E+03 0. -1.
         -6    1    1    2    0  503 -0.13541582429E+03 -0.12119250496E+01 -0.18907011080E+02  0.21972798934E+03  0.17200000000E+03 0. -1.
</event>
<event>
 4    1  0.1235203E+000  0.1773990E+03  0.7818608E-02  0.1170344E+00
         21   -1    0    0  503  502  0.00000000000E+00  0.00000000000E+00  0.26857425735E+03  0.26857425735E+03  0.00000000000E+00 0. -1.
         21   -1    0    0  501  503 -0.00000000000E+00 -0.00000000000E+00 -0.12021647019E+03  0.12021647019E+03  0.00000000000E+00 0. -1.
          6    1    1    2  501    0 -0.33935792199E+02  0.27106879886E+02  0.43262848534E+02  0.18259817905E+03  0.17200000000E+03 0. -1.
         -6    1    1    2    0  502  0.33935792199E+02 -0.27106879886E+02  0.10509493862E+03  0.20619254849E+03  0.17200000000E+03 0. -1.
</event>
<event>
 4    1  0.1235203E+000  0.2271643E+03  0.7818608E-02  0.1128652E+00
         21   -1    0    0  501  502  0.00000000000E+00  0.00000000000E+00  0.70466671148E+02  0.70466671148E+02  0.00000000000E+00 0.  1.
         21   -1    0    0  502  503 -0.00000000000E+00 -0.00000000000E+00 -0.81308945463E+03  0.81308945463E+03  0.00000000000E+00 0.  1.
          6    1    1    2  501    0  0.14643777566E+03  0.23991802093E+02 -0.23206673304E+03  0.32474389492E+03  0.17200000000E+03 0. -1.
         -6    1    1    2    0  503 -0.14643777566E+03 -0.23991802093E+02 -0.51055605045E+03  0.55881223086E+03  0.17200000000E+03 0. -1.
</event>
<event>
 4    1  0.1235203E+000  0.2025394E+03  0.7818608E-02  0.1147614E+00
         21   -1    0    0  501  502  0.00000000000E+00  0.00000000000E+00  0.17073762878E+03  0.17073762878E+03  0.00000000000E+00 0. -1.
         21   -1    0    0  502  503 -0.00000000000E+00 -0.00000000000E+00 -0.35799442658E+03  0.35799442658E+03  0.00000000000E+00 0. -1.
          6    1    1    2  501    0  0.10378541013E+03  0.25822038844E+02  0.57975709470E+02  0.21067361471E+03  0.17200000000E+03 0. -1.
         -6    1    1    2    0  503 -0.10378541013E+03 -0.25822038844E+02 -0.24523250727E+03  0.31805844065E+03  0.17200000000E+03 0. -1.
</event>
<event>
 4    1  0.1235203E+000  0.1785874E+03  0.7818608E-02  0.1169177E+00
         21   -1    0    0  503  502  0.00000000000E+00  0.00000000000E+00  0.53854640652E+02  0.53854640652E+02  0.00000000000E+00 0. -1.
         21   -1    0    0  501  503 -0.00000000000E+00 -0.00000000000E+00 -0.69122081423E+03  0.69122081423E+03  0.00000000000E+00 0. -1.
          6    1    1    2  501    0 -0.45132382854E+02 -0.16508389152E+02 -0.45967523923E+03  0.49314783225E+03  0.17200000000E+03 0.  1.
         -6    1    1    2    0  502  0.45132382854E+02  0.16508389152E+02 -0.17769093435E+03  0.25192762263E+03  0.17200000000E+03 0.  1.
</event>
<event>
 4    1  0.1235203E+000  0.2053527E+03  0.7818608E-02  0.1145300E+00
         21   -1    0    0  501  502  0.00000000000E+00  0.00000000000E+00  0.32717133557E+02  0.32717133557E+02  0.00000000000E+00 0.  1.
         21   -1    0    0  502  503 -0.00000000000E+00 -0.00000000000E+00 -0.13708570666E+04  0.13708570666E+04  0.00000000000E+00 0.  1.
          6    1    1    2  501    0  0.26204039554E+01  0.11215547112E+03 -0.49749509743E+03  0.53821100712E+03  0.17200000000E+03 0.  1.
         -6    1    1    2    0  503 -0.26204039554E+01 -0.11215547112E+03 -0.84064483560E+03  0.86536319303E+03  0.17200000000E+03 0.  1.
</event>
<event>
 4    1  0.1235203E+000  0.1958104E+03  0.7818608E-02  0.1153323E+00
         21   -1    0    0  503  502  0.00000000000E+00  0.00000000000E+00  0.12971991030E+04  0.12971991030E+04  0.00000000000E+00 0. -1.
         21   -1    0    0  501  503 -0.00000000000E+00 -0.00000000000E+00 -0.58599794833E+02  0.58599794833E+02  0.00000000000E+00 0. -1.
          6    1    1    2  501    0 -0.30145002311E+02  0.88594463203E+02  0.14206254020E+03  0.24191623633E+03  0.17200000000E+03 0. -1.
         -6    1    1    2    0  502  0.30145002311E+02 -0.88594463203E+02  0.10965367679E+04  0.11138826615E+04  0.17200000000E+03 0. -1.
</event>
<event>
 4    1  0.1235203E+000  0.1783279E+03  0.7818608E-02  0.1169431E+00
         21   -1    0    0  501  502  0.00000000000E+00  0.00000000000E+00  0.70337615998E+02  0.70337615998E+02  0.00000000000E+00 0. -1.
         21   -1    0    0  502  503 -0.00000000000E+00 -0.00000000000E+00 -0.49468680791E+03  0.49468680791E+03  0.00000000000E+00 0. -1.
          6    1    1    2  501    0 -0.89606782989E+00  0.47074764516E+02 -0.12929977888E+03  0.22027089960E+03  0.17200000000E+03 0.  1.
         -6    1    1    2    0  503  0.89606782989E+00 -0.47074764516E+02 -0.29504941304E+03  0.34475352431E+03  0.17200000000E+03 0.  1.
</event>
<event>
 4    1  0.1235203E+000  0.1793755E+03  0.7818608E-02  0.1168409E+00
         21   -1    0    0  501  502  0.00000000000E+00  0.00000000000E+00  0.45683438276E+02  0.45683438276E+02  0.00000000000E+00 0. -1.
         21   -1    0    0  502  503 -0.00000000000E+00 -0.00000000000E+00 -0.11103704204E+04  0.11103704204E+04  0.00000000000E+00 0. -1.
          6    1    1    2  501    0  0.34931265587E+02 -0.37032026719E+02 -0.18279583513E+03  0.25610521599E+03  0.17200000000E+03 0. -1.
         -6    1    1    2    0  503 -0.34931265587E+02  0.37032026719E+02 -0.88189114702E+03  0.89994864271E+03  0.17200000000E+03 0. -1.
</event>
<event>
 4    1  0.1235203E+000  0.2320728E+03  0.7818608E-02  0.1125189E+00
         21   -1    0    0  501  502  0.00000000000E+00  0.00000000000E+00  0.22772121589E+03  0.22772121589E+03  0.00000000000E+00 0.  1.
         21   -1    0    0  502  503 -0.00000000000E+00 -0.00000000000E+00 -0.28246047431E+03  0.28246047431E+03  0.00000000000E+00 0.  1.
          6    1    1    2  501    0  0.10714473808E+03  0.11310969494E+03  0.75520183455E+02  0.24405142101E+03  0.17200000000E+03 0. -1.
         -6    1    1    2    0  503 -0.10714473808E+03 -0.11310969494E+03 -0.13025944187E+03  0.26613026919E+03  0.17200000000E+03 0. -1.
</event>
<event>
 4    1  0.1235203E+000  0.2406015E+03  0.7818608E-02  0.1119393E+00
         21   -1    0    0  501  502  0.00000000000E+00  0.00000000000E+00  0.46334975043E+02  0.46334975043E+02  0.00000000000E+00 0.  1.
         21   -1    0    0  502  503 -0.00000000000E+00 -0.00000000000E+00 -0.12587635008E+04  0.12587635008E+04  0.00000000000E+00 0.  1.
          6    1    1    2  501    0 -0.16183404278E+03  0.45987174898E+02 -0.66261430146E+03  0.70494452985E+03  0.17200000000E+03 0.  1.
         -6    1    1    2    0  503  0.16183404278E+03 -0.45987174898E+02 -0.54981422428E+03  0.60015394599E+03  0.17200000000E+03 0.  1.
</event>
<event>
 4    1  0.1235203E+000  0.2334734E+03  0.7818608E-02  0.1124219E+00
         21   -1    0    0  503  502  0.00000000000E+00  0.00000000000E+00  0.79983262514E+02  0.79983262514E+02  0.00000000000E+00 0.  1.
         21   -1    0    0  501  503 -0.00000000000E+00 -0.00000000000E+00 -0.70928005886E+03  0.70928005886E+03  0.00000000000E+00 0.  1.
          6    1    1    2  501    0 -0.15181692702E+03 -0.43329285328E+02 -0.39272682675E+03  0.45688528839E+03  0.17200000000E+03 0.  1.
         -6    1    1    2    0  502  0.15181692702E+03  0.43329285328E+02 -0.23656996959E+03  0.33237803298E+03  0.17200000000E+03 0.  1.
</event>
<event>
 4    1  0.1235203E+000  0.1913208E+03  0.7818608E-02  0.1157275E+00
         21   -1    0    0  503  502  0.00000000000E+00  0.00000000000E+00  0.13616918746E+03  0.13616918746E+03  0.00000000000E+00 0.  1.
         21   -1    0    0  501  503 -0.00000000000E+00 -0.00000000000E+00 -0.35446636299E+03  0.35446636299E+03  0.00000000000E+00 0.  1.
          6    1    1    2  501    0 -0.20013249333E+02 -0.81357978302E+02 -0.22974131134E+03  0.29897277622E+03  0.17200000000E+03 0. -1.
         -6    1    1    2    0  502  0.20013249333E+02  0.81357978302E+02  0.11444135805E+02  0.19166277423E+03  0.17200000000E+03 0. -1.
</event>
<event>
 4    1  0.1235203E+000  0.1781348E+03  0.7818608E-02  0.1169621E+00
         21   -1    0    0  501  502  0.00000000000E+00  0.00000000000E+00  0.65536121468E+03  0.65536121468E+03  0.00000000000E+00 0.  1.
         21   -1    0    0  502  503 -0.00000000000E+00 -0.00000000000E+00 -0.57646955206E+02  0.57646955206E+02  0.00000000000E+00 0.  1.
          6    1    1    2  501    0  0.38111781564E+02 -0.26372149227E+02  0.44149235182E+03  0.47607509373E+03  0.17200000000E+03 0.  1.
         -6    1    1    2    0  503 -0.38111781564E+02  0.26372149227E+02  0.15622190766E+03  0.23693307616E+03  0.17200000000E+03 0.  1.
</event>
<event>
 4    1  0.1235203E+000  0.3504409E+03  0.7818608E-02  0.1062434E+00
         21   -1    0    0  501  502  0.00000000000E+00  0.00000000000E+00  0.99457123604E+03  0.99457123604E+03  0.00000000000E+00 0.  1.
         21   -1    0    0  502  503 -0.00000000000E+00 -0.00000000000E+00 -0.33050317352E+03  0.33050317352E+03  0.00000000000E+00 0. -1.
          6    1    1    2  501    0 -0.20963529346E+03  0.22198617213E+03  0.85639797384E+03  0.92532497345E+03  0.17200000000E+03 0.  1.
         -6    1    1    2    0  503  0.20963529346E+03 -0.22198617213E+03 -0.19232991132E+03  0.39974943611E+03  0.17200000000E+03 0. -1.
</event>
<event>
 4    1  0.1235203E+000  0.3008506E+03  0.7818608E-02  0.1084816E+00
         21   -1    0    0  503  502  0.00000000000E+00  0.00000000000E+00  0.14653170888E+04  0.14653170888E+04  0.00000000000E+00 0. -1.
         21   -1    0    0  501  503 -0.00000000000E+00 -0.00000000000E+00 -0.14733043773E+03  0.14733043773E+03  0.00000000000E+00 0. -1.
          6    1    1    2  501    0 -0.12135501746E+02 -0.24653565300E+03  0.44520923334E+02  0.30412696562E+03  0.17200000000E+03 0. -1.
         -6    1    1    2    0  502  0.12135501746E+02  0.24653565300E+03  0.12734657278E+04  0.13085205609E+04  0.17200000000E+03 0. -1.
</event>
<event>
 4    1  0.1235203E+000  0.1901087E+03  0.7818608E-02  0.1158363E+00
         21   -1    0    0  503  502  0.00000000000E+00  0.00000000000E+00  0.52116866811E+03  0.52116866811E+03  0.00000000000E+00 0. -1.
         21   -1    0    0  501  503 -0.00000000000E+00 -0.00000000000E+00 -0.15542081570E+03  0.15542081570E+03  0.00000000000E+00 0. -1.
          6    1    1    2  501    0 -0.77049819829E+02  0.24912783828E+02 -0.68880415033E+02  0.20220245574E+03  0.17200000000E+03 0. -1.
         -6    1    1    2    0  502  0.77049819829E+02 -0.24912783828E+02  0.43462826745E+03  0.47438702807E+03  0.17200000000E+03 0. -1.
</event>
<event>
 4    1  0.1235203E+000  0.1773171E+03  0.7818608E-02  0.1170425E+00
         21   -1    0    0  501  502  0.00000000000E+00  0.00000000000E+00  0.26519544231E+03  0.26519544231E+03  0.00000000000E+00 0.  1.
         21   -1    0    0  502  503 -0.00000000000E+00 -0.00000000000E+00 -0.12216878787E+03  0.12216878787E+03  0.00000000000E+00 0.  1.
          6    1    1    2  501    0 -0.33876032816E+02  0.26641441773E+02  0.10480532747E+03  0.20597453407E+03  0.17200000000E+03 0.  1.
         -6    1    1    2    0  503  0.33876032816E+02 -0.26641441773E+02  0.38221326975E+02  0.18138969611E+03  0.17200000000E+03 0.  1.
</event>
<event>
 4    1  0.1235203E+000  0.2320858E+03  0.7818608E-02  0.1125180E+00
         21   -1    0    0  501  502  0.00000000000E+00  0.00000000000E+00  0.10103056462E+03  0.10103056462E+03  0.00000000000E+00 0.  1.
         21   -1    0    0  502  503 -0.00000000000E+00 -0.00000000000E+00 -0.53731381941E+03  0.53731381941E+03  0.00000000000E+00 0. -1.
          6    1    1    2  501    0  0.12900967125E+03  0.87386023547E+02 -0.24625957127E+03  0.33838969965E+03  0.17200000000E+03 0. -1.
         -6    1    1    2    0  503 -0.12900967125E+03 -0.87386023547E+02 -0.19002368352E+03  0.29995468438E+03  0.17200000000E+03 0. -1.
</event>
<event>
 4    1  0.1235203E+000  0.2498968E+03  0.7818608E-02  0.1113370E+00
         21   -1    0    0  501  502  0.00000000000E+00  0.00000000000E+00  0.25297681339E+03  0.25297681339E+03  0.00000000000E+00 0.  1.
         21   -1    0    0  502  503 -0.00000000000E+00 -0.00000000000E+00 -0.10702736573E+04  0.10702736573E+04  0.00000000000E+00 0. -1.
          6    1    1    2  501    0  0.15314341062E+03  0.97013039182E+02  0.17168176113E+03  0.30318816120E+03  0.17200000000E+03 0. -1.
         -6    1    1    2    0  503 -0.15314341062E+03 -0.97013039182E+02 -0.98897860500E+03  0.10200623094E+04  0.17200000000E+03 0. -1.
</event>
<event>
 4    1  0.1235203E+000  0.1875388E+03  0.7818608E-02  0.1160700E+00
         21   -1    0    0  503  502  0.00000000000E+00  0.00000000000E+00  0.21627340873E+02  0.21627340873E+02  0.00000000000E+00 0.  1.
         21   -1    0    0  501  503 -0.00000000000E+00 -0.00000000000E+00 -0.28370178980E+04  0.28370178980E+04  0.00000000000E+00 0.  1.
          6    1    1    2  501    0  0.33245007469E+02 -0.66944496092E+02 -0.23414551559E+04  0.23489536060E+04  0.17200000000E+03 0.  1.
         -6    1    1    2    0  502 -0.33245007469E+02  0.66944496092E+02 -0.47393540123E+03  0.50969163287E+03  0.17200000000E+03 0.  1.
</event>
<event>
 4    1  0.1235203E+000  0.2147089E+03  0.7818608E-02  0.1137890E+00
         21   -1    0    0  503  502  0.00000000000E+00  0.00000000000E+00  0.11643370367E+03  0.11643370367E+03  0.00000000000E+00 0.  1.
         21   -1    0    0  501  503 -0.00000000000E+00 -0.00000000000E+00 -0.48688655544E+03  0.48688655544E+03  0.00000000000E+00 0. -1.
          6    1    1    2  501    0  0.10606771764E+03  0.72564056629E+02 -0.31560755414E+03  0.38171721374E+03  0.17200000000E+03 0. -1.
         -6    1    1    2    0  502 -0.10606771764E+03 -0.72564056629E+02 -0.54845297637E+02  0.22160304536E+03  0.17200000000E+03 0.  1.
</event>
<event>
 4    1  0.1235203E+000  0.1849984E+03  0.7818608E-02  0.1163051E+00
         21   -1    0    0  503  502  0.00000000000E+00  0.00000000000E+00  0.14725201143E+03  0.14725201143E+03  0.00000000000E+00 0. -1.
         21   -1    0    0  501  503 -0.00000000000E+00 -0.00000000000E+00 -0.29271729768E+03  0.29271729768E+03  0.00000000000E+00 0. -1.
          6    1    1    2  501    0  0.53253381914E+02  0.42479066440E+02 -0.17257507027E+03  0.25299515539E+03  0.17200000000E+03 0. -1.
         -6    1    1    2    0  502 -0.53253381914E+02 -0.42479066440E+02  0.27109784024E+02  0.18697415372E+03  0.17200000000E+03 0. -1.
</event>
<event>
 4    1  0.1235203E+000  0.2242749E+03  0.7818608E-02  0.1130735E+00
         21   -1    0    0  503  502  0.00000000000E+00  0.00000000000E+00  0.26915745423E+03  0.26915745423E+03  0.00000000000E+00 0.  1.
         21   -1    0    0  501  503 -0.00000000000E+00 -0.00000000000E+00 -0.21851293006E+03  0.21851293006E+03  0.00000000000E+00 0. -1.
          6    1    1    2  501    0  0.26890758062E+02 -0.14139349477E+03 -0.67456971455E+02  0.23420007735E+03  0.17200000000E+03 0.  1.
         -6    1    1    2    0  502 -0.26890758062E+02  0.14139349477E+03  0.11810149563E+03  0.25347030694E+03  0.17200000000E+03 0. -1.
</event>
<event>
 4    1  0.1235203E+000  0.1869578E+03  0.7818608E-02  0.1161234E+00
         21   -1    0    0  501  502  0.00000000000E+00  0.00000000000E+00  0.23635701721E+03  0.23635701721E+03  0.00000000000E+00 0. -1.
         21   -1    0    0  502  503 -0.00000000000E+00 -0.00000000000E+00 -0.22584306090E+03  0.22584306090E+03  0.00000000000E+00 0. -1.
          6    1    1    2  501    0 -0.55065450433E+02  0.48342562725E+02  0.14103593376E+03  0.23418868848E+03  0.17200000000E+03 0. -1.
         -6    1    1    2    0  503  0.55065450433E+02 -0.48342562725E+02 -0.13052197744E+03  0.22801138962E+03  0.17200000000E+03 0. -1.
</event>
<event>
 4    1  0.1235203E+000  0.1850619E+03  0.7818608E-02  0.1162992E+00
         21   -1    0    0  501  502  0.00000000000E+00  0.00000000000E+00  0.92784168201E+02  0.92784168201E+02  0.00000000000E+00 0.  1.
         21   -1    0    0  502  503 -0.00000000000E+00 -0.00000000000E+00 -0.44871585574E+03  0.44871585574E+03  0.00000000000E+00 0.  1.
          6    1    1    2  501    0 -0.57259604769E+02  0.37218642311E+02 -0.63928860774E+02  0.19579271926E+03  0.17200000000E+03 0.  1.
         -6    1    1    2    0  503  0.57259604769E+02 -0.37218642311E+02 -0.29200282677E+03  0.34570730469E+03  0.17200000000E+03 0.  1.
</event>
<event>
 4    1  0.1235203E+000  0.1760073E+03  0.7818608E-02  0.1171724E+00
         21   -1    0    0  503  502  0.00000000000E+00  0.00000000000E+00  0.25301322497E+02  0.25301322497E+02  0.00000000000E+00 0. -1.
         21   -1    0    0  501  503 -0.00000000000E+00 -0.00000000000E+00 -0.17048643026E+04  0.17048643026E+04  0.00000000000E+00 0. -1.
          6    1    1    2  501    0  0.37326706094E+02  0.11340291099E+01 -0.12990323219E+04  0.13109018050E+04  0.17200000000E+03 0. -1.
         -6    1    1    2    0  502 -0.37326706094E+02 -0.11340291099E+01 -0.38053065820E+03  0.41926382009E+03  0.17200000000E+03 0. -1.
</event>
<event>
 4    1  0.1235203E+000  0.1859886E+03  0.7818608E-02  0.1162130E+00
         21   -1    0    0  503  502  0.00000000000E+00  0.00000000000E+00  0.99969040246E+02  0.99969040246E+02  0.00000000000E+00 0.  1.
         21   -1    0    0  501  503 -0.00000000000E+00 -0.00000000000E+00 -0.35251652598E+03  0.35251652598E+03  0.00000000000E+00 0. -1.
          6    1    1    2  501    0  0.50668389249E+02  0.49401186883E+02 -0.95571754940E+02  0.20910696611E+03  0.17200000000E+03 0.  1.
         -6    1    1    2    0  502 -0.50668389249E+02 -0.49401186883E+02 -0.15697573079E+03  0.24337860011E+03  0.17200000000E+03 0. -1.
</event>
<event>
 4    1  0.1235203E+000  0.1775573E+03  0.7818608E-02  0.1170188E+00
         21   -1    0    0  501  502  0.00000000000E+00  0.00000000000E+00  0.22936158078E+03  0.22936158078E+03  0.00000000000E+00 0. -1.
         21   -1    0    0  502  503 -0.00000000000E+00 -0.00000000000E+00 -0.15227440975E+03  0.15227440975E+03  0.00000000000E+00 0. -1.
          6    1    1    2  501    0  0.30954729052E+02  0.31375183878E+02  0.98074204688E+02  0.20284266573E+03  0.17200000000E+03 0. -1.
         -6    1    1    2    0  503 -0.30954729052E+02 -0.31375183878E+02 -0.20987033659E+02  0.17879332481E+03  0.17200000000E+03 0. -1.
</event>
<event>
 4    1  0.1235203E+000  0.1745710E+03  0.7818608E-02  0.1173163E+00
         21   -1    0    0  503  502  0.00000000000E+00  0.00000000000E+00  0.13857988447E+03  0.13857988447E+03  0.00000000000E+00 0. -1.
         21   -1    0    0  501  503 -0.00000000000E+00 -0.00000000000E+00 -0.44597632759E+03  0.44597632759E+03  0.00000000000E+00 0. -1.
          6    1    1    2  501    0 -0.28639208541E+02  0.84151891538E+01 -0.36179190323E+03  0.40170685944E+03  0.17200000000E+03 0. -1.
         -6    1    1    2    0  502  0.28639208541E+02 -0.84151891538E+01  0.54395460119E+02  0.18284935263E+03  0.17200000000E+03 0. -1.
</event>
<event>
 4    1  0.1235203E+000  0.2400807E+03  0.7818608E-02  0.1119739E+00
         21   -1    0    0  503  502  0.00000000000E+00  0.00000000000E+00  0.33860177502E+03  0.33860177502E+03  0.00000000000E+00 0.  1.
         21   -1    0    0  501  503 -0.00000000000E+00 -0.00000000000E+00 -0.24274040514E+03  0.24274040514E+03  0.00000000000E+00 0. -1.
          6    1    1    2  501    0  0.15810144854E+03  0.55305412982E+02  0.20680129303E+03  0.31686831892E+03  0.17200000000E+03 0.  1.
         -6    1    1    2    0  502 -0.15810144854E+03 -0.55305412982E+02 -0.11093992315E+03  0.26447386125E+03  0.17200000000E+03 0. -1.
</event>
<event>
 4    1  0.1235203E+000  0.2622564E+03  0.7818608E-02  0.1105795E+00
         21   -1    0    0  501  502  0.00000000000E+00  0.00000000000E+00  0.92839586165E+03  0.92839586165E+03  0.00000000000E+00 0. -1.
         21   -1    0    0  502  503 -0.00000000000E+00 -0.00000000000E+00 -0.12375945585E+03  0.12375945585E+03  0.00000000000E+00 0.  1.
          6    1    1    2  501    0  0.96290417565E+02  0.17298141508E+03  0.73561847201E+03  0.78096923809E+03  0.17200000000E+03 0. -1.
         -6    1    1    2    0  503 -0.96290417565E+02 -0.17298141508E+03  0.69017933794E+02  0.27118607941E+03  0.17200000000E+03 0.  1.
</event>
<event>
 4    1  0.1235203E+000  0.3093153E+03  0.7818608E-02  0.1080675E+00
         21   -1    0    0  503  502  0.00000000000E+00  0.00000000000E+00  0.17682721914E+04  0.17682721914E+04  0.00000000000E+00 0. -1.
         21   -1    0    0  501  503 -0.00000000000E+00 -0.00000000000E+00 -0.62363102268E+02  0.62363102268E+02  0.00000000000E+00 0.  1.
          6    1    1    2  501    0 -0.15248770719E+03 -0.20697695661E+03  0.11859932041E+04  0.12256654689E+04  0.17200000000E+03 0. -1.
         -6    1    1    2    0  502  0.15248770719E+03  0.20697695661E+03  0.51991588507E+03  0.60496982483E+03  0.17200000000E+03 0.  1.
</event>
<event>
 4    1  0.1235203E+000  0.1825835E+03  0.7818608E-02  0.1165326E+00
         21   -1    0    0  503  502  0.00000000000E+00  0.00000000000E+00  0.63777903774E+03  0.63777903774E+03  0.00000000000E+00 0.  1.
         21   -1    0    0  501  503 -0.00000000000E+00 -0.00000000000E+00 -0.52764085983E+02  0.52764085983E+02  0.00000000000E+00 0.  1.
          6    1    1    2  501    0  0.10152229359E+02 -0.60412507002E+02  0.32591722799E+03  0.37357566605E+03  0.17200000000E+03 0.  1.
         -6    1    1    2    0  502 -0.10152229359E+02  0.60412507002E+02  0.25909772377E+03  0.31696745767E+03  0.17200000000E+03 0.  1.
</event>
<event>
 4    1  0.1235203E+000  0.1796263E+03  0.7818608E-02  0.1168165E+00
         21   -1    0    0  501  502  0.00000000000E+00  0.00000000000E+00  0.30745106039E+02  0.30745106039E+02  0.00000000000E+00 0. -1.
         21   -1    0    0  502  503 -0.00000000000E+00 -0.00000000000E+00 -0.12110474128E+04  0.12110474128E+04  0.00000000000E+00 0. -1.
          6    1    1    2  501    0  0.41593792773E+01 -0.51616951691E+02 -0.36334818208E+03  0.40532395877E+03  0.17200000000E+03 0.  1.
         -6    1    1    2    0  503 -0.41593792773E+01  0.51616951691E+02 -0.81695412464E+03  0.83646856002E+03  0.17200000000E+03 0.  1.
</event>
<event>
 4    1  0.1235203E+000  0.2008512E+03  0.7818608E-02  0.1149023E+00
         21   -1    0    0  501  502  0.00000000000E+00  0.00000000000E+00  0.32793405541E+02  0.32793405541E+02  0.00000000000E+00 0.  1.
         21   -1    0    0  502  503 -0.00000000000E+00 -0.00000000000E+00 -0.21739930757E+04  0.21739930757E+04  0.00000000000E+00 0.  1.
          6    1    1    2  501    0 -0.90656189843E+01 -0.10331994986E+03 -0.34357641015E+03  0.39797731983E+03  0.17200000000E+03 0.  1.
         -6    1    1    2    0  503  0.90656189843E+01  0.10331994986E+03 -0.17976232600E+04  0.18088091614E+04  0.17200000000E+03 0.  1.
</event>
<event>
 4    1  0.1235203E+000  0.4257208E+03  0.7818608E-02  0.1035220E+00
         21   -1    0    0  503  502  0.00000000000E+00  0.00000000000E+00  0.32767734488E+03  0.32767734488E+03  0.00000000000E+00 0. -1.
         21   -1    0    0  501  503 -0.00000000000E+00 -0.00000000000E+00 -0.65436621222E+03  0.65436621222E+03  0.00000000000E+00 0.  1.
          6    1    1    2  501    0  0.33484078470E+03 -0.19883613484E+03  0.29818495030E+02  0.42676375463E+03  0.17200000000E+03 0. -1.
         -6    1    1    2    0  502 -0.33484078470E+03  0.19883613484E+03 -0.35650736237E+03  0.55527980248E+03  0.17200000000E+03 0.  1.
</event>
<event>
 4    1  0.1235203E+000  0.1983362E+03  0.7818608E-02  0.1151150E+00
         21   -1    0    0  501  502  0.00000000000E+00  0.00000000000E+00  0.26044329107E+03  0.26044329107E+03  0.00000000000E+00 0.  1.
         21   -1    0    0  502  503 -0.00000000000E+00 -0.00000000000E+00 -0.16007572396E+03  0.16007572396E+03  0.00000000000E+00 0.  1.
          6    1    1    2  501    0  0.92128169064E+02 -0.35576153787E+02  0.10013923770E+03  0.22218264824E+03  0.17200000000E+03 0. -1.
         -6    1    1    2    0  503 -0.92128169064E+02  0.35576153787E+02  0.22832940958E+00  0.19833636678E+03  0.17200000000E+03 0. -1.
</event>
<event>
 4    1  0.1235203E+000  0.2137521E+03  0.7818608E-02  0.1138629E+00
         21   -1    0    0  501  502  0.00000000000E+00  0.00000000000E+00  0.51492927614E+03  0.51492927614E+03  0.00000000000E+00 0.  1.
         21   -1    0    0  502  503 -0.00000000000E+00 -0.00000000000E+00 -0.29915838611E+03  0.29915838611E+03  0.00000000000E+00 0.  1.
          6    1    1    2  501    0 -0.10302148370E+03 -0.74111725234E+02  0.44926864809E+03  0.49752617226E+03  0.17200000000E+03 0.  1.
         -6    1    1    2    0  503  0.10302148370E+03  0.74111725234E+02 -0.23349775806E+03  0.31656148999E+03  0.17200000000E+03 0.  1.
</event>
<event>
 4    1  0.1235203E+000  0.1802182E+03  0.7818608E-02  0.1167592E+00
         21   -1    0    0  501  502  0.00000000000E+00  0.00000000000E+00  0.59809950008E+03  0.59809950008E+03  0.00000000000E+00 0.  1.
         21   -1    0    0  502  503 -0.00000000000E+00 -0.00000000000E+00 -0.92799278452E+02  0.92799278452E+02  0.00000000000E+00 0.  1.
          6    1    1    2  501    0 -0.53613880768E+02  0.44870951486E+01  0.47514582186E+03  0.50817529876E+03  0.17200000000E+03 0.  1.
         -6    1    1    2    0  503  0.53613880768E+02 -0.44870951486E+01  0.30154399759E+02  0.18272347977E+03  0.17200000000E+03 0.  1.
</event>
<event>
 4    1  0.1235203E+000  0.2057778E+03  0.7818608E-02  0.1144954E+00
         21   -1    0    0  503  502  0.00000000000E+00  0.00000000000E+00  0.37670265097E+03  0.37670265097E+03  0.00000000000E+00 0.  1.
         21   -1    0    0  501  503 -0.00000000000E+00 -0.00000000000E+00 -0.11692853580E+03  0.11692853580E+03  0.00000000000E+00 0.  1.
          6    1    1    2  501    0  0.76538310663E+02  0.83080571632E+02  0.17841525803E+03  0.27235362799E+03  0.17200000000E+03 0. -1.
         -6    1    1    2    0  502 -0.76538310663E+02 -0.83080571632E+02  0.81358857143E+02  0.22127755878E+03  0.17200000000E+03 0. -1.
</event>
<event>
 4    1  0.1235203E+000  0.2595278E+03  0.7818608E-02  0.1107427E+00
         21   -1    0    0  503  502  0.00000000000E+00  0.00000000000E+00  0.88573582343E+02  0.88573582343E+02  0.00000000000E+00 0.  1.
         21   -1    0    0  501  503 -0.00000000000E+00 -0.00000000000E+00 -0.92772206803E+03  0.92772206803E+03  0.00000000000E+00 0. -1.
          6    1    1    2  501    0 -0.17904872950E+03  0.75579304220E+02 -0.63535315055E+03  0.68631501854E+03  0.17200000000E+03 0. -1.
         -6    1    1    2    0  502  0.17904872950E+03 -0.75579304220E+02 -0.20379533514E+03  0.32998063184E+03  0.17200000000E+03 0.  1.
</event>
<event>
 4    1  0.1235203E+000  0.1839743E+03  0.7818608E-02  0.1164011E+00
         21   -1    0    0  501  502  0.00000000000E+00  0.00000000000E+00  0.50147286910E+03  0.50147286910E+03  0.00000000000E+00 0. -1.
         21   -1    0    0  502  503 -0.00000000000E+00 -0.00000000000E+00 -0.16627429551E+03  0.16627429551E+03  0.00000000000E+00 0. -1.
          6    1    1    2  501    0  0.57231692564E+02  0.31418024858E+02  0.42493733676E+03  0.46305323570E+03  0.17200000000E+03 0. -1.
         -6    1    1    2    0  503 -0.57231692564E+02 -0.31418024858E+02 -0.89738763168E+02  0.20469392891E+03  0.17200000000E+03 0. -1.
</event>
<event>
 4    1  0.1235203E+000  0.1776746E+03  0.7818608E-02  0.1170073E+00
         21   -1    0    0  501  502  0.00000000000E+00  0.00000000000E+00  0.12719829035E+03  0.12719829035E+03  0.00000000000E+00 0. -1.
         21   -1    0    0  502  503 -0.00000000000E+00 -0.00000000000E+00 -0.29059977369E+03  0.29059977369E+03  0.00000000000E+00 0. -1.
          6    1    1    2  501    0  0.44165026348E+02 -0.58057516190E+01 -0.18892301467E+01  0.17768462369E+03  0.17200000000E+03 0. -1.
         -6    1    1    2    0  503 -0.44165026348E+02  0.58057516190E+01 -0.16151225319E+03  0.24011344035E+03  0.17200000000E+03 0. -1.
</event>
<event>
 4    1  0.1235203E+000  0.2028592E+03  0.7818608E-02  0.1147349E+00
         21   -1    0    0  501  502  0.00000000000E+00  0.00000000000E+00  0.74553227754E+02  0.74553227754E+02  0.00000000000E+00 0. -1.
         21   -1    0    0  502  503 -0.00000000000E+00 -0.00000000000E+00 -0.62409154631E+03  0.62409154631E+03  0.00000000000E+00 0. -1.
          6    1    1    2  501    0  0.54027873350E+02  0.92999182166E+02 -0.15602672368E+03  0.25592224891E+03  0.17200000000E+03 0. -1.
         -6    1    1    2    0  503 -0.54027873350E+02 -0.92999182166E+02 -0.39351159487E+03  0.44272252515E+03  0.17200000000E+03 0. -1.
</event>
<event>
 4    1  0.1235203E+000  0.2834486E+03  0.7818608E-02  0.1093820E+00
         21   -1    0    0  501  502  0.00000000000E+00  0.00000000000E+00  0.29383111733E+03  0.29383111733E+03  0.00000000000E+00 0. -1.
         21   -1    0    0  502  503 -0.00000000000E+00 -0.00000000000E+00 -0.33158511921E+03  0.33158511921E+03  0.00000000000E+00 0.  1.
          6    1    1    2  501    0  0.20918389608E+03 -0.83673351573E+02 -0.14983267142E+03  0.32061341452E+03  0.17200000000E+03 0.  1.
         -6    1    1    2    0  503 -0.20918389608E+03  0.83673351573E+02  0.11207866955E+03  0.30480282202E+03  0.17200000000E+03 0. -1.
</event>
<event>
 4    1  0.1235203E+000  0.2290169E+03  0.7818608E-02  0.1127334E+00
         21   -1    0    0  503  502  0.00000000000E+00  0.00000000000E+00  0.47380264045E+03  0.47380264045E+03  0.00000000000E+00 0.  1.
         21   -1    0    0  501  503 -0.00000000000E+00 -0.00000000000E+00 -0.11164029817E+03  0.11164029817E+03  0.00000000000E+00 0. -1.
          6    1    1    2  501    0  0.84570660112E+02 -0.12534965587E+03  0.20798229766E+03  0.30936284347E+03  0.17200000000E+03 0. -1.
         -6    1    1    2    0  502 -0.84570660112E+02  0.12534965587E+03  0.15418004461E+03  0.27608009514E+03  0.17200000000E+03 0.  1.
</event>
<event>
 4    1  0.1235203E+000  0.1955616E+03  0.7818608E-02  0.1153539E+00
         21   -1    0    0  501  502  0.00000000000E+00  0.00000000000E+00  0.87655685586E+02  0.87655685586E+02  0.00000000000E+00 0. -1.
         21   -1    0    0  502  503 -0.00000000000E+00 -0.00000000000E+00 -0.22554944481E+04  0.22554944481E+04  0.00000000000E+00 0. -1.
          6    1    1    2  501    0  0.82647803358E+02 -0.42774866114E+02 -0.31742961052E+02  0.19812108456E+03  0.17200000000E+03 0. -1.
         -6    1    1    2    0  503 -0.82647803358E+02  0.42774866114E+02 -0.21360958014E+04  0.21450290491E+04  0.17200000000E+03 0. -1.
</event>
<event>
 4    1  0.1235203E+000  0.1939477E+03  0.7818608E-02  0.1154948E+00
         21   -1    0    0  503  502  0.00000000000E+00  0.00000000000E+00  0.22633755401E+03  0.22633755401E+03  0.00000000000E+00 0.  1.
         21   -1    0    0  501  503 -0.00000000000E+00 -0.00000000000E+00 -0.17315345020E+03  0.17315345020E+03  0.00000000000E+00 0.  1.
          6    1    1    2  501    0  0.75725444266E+02  0.47930804424E+02 -0.13456035457E+02  0.19441391363E+03  0.17200000000E+03 0. -1.
         -6    1    1    2    0  502 -0.75725444266E+02 -0.47930804424E+02  0.66640139267E+02  0.20507709059E+03  0.17200000000E+03 0. -1.
</event>
<event>
 4    1  0.1235203E+000  0.1942131E+03  0.7818608E-02  0.1154715E+00
         21   -1    0    0  503  502  0.00000000000E+00  0.00000000000E+00  0.63433397818E+03  0.63433397818E+03  0.00000000000E+00 0.  1.
         21   -1    0    0  501  503 -0.00000000000E+00 -0.00000000000E+00 -0.70035483323E+02  0.70035483323E+02  0.00000000000E+00 0.  1.
          6    1    1    2  501    0  0.12450358823E+02 -0.89329314702E+02  0.14530660790E+03  0.24255462931E+03  0.17200000000E+03 0.  1.
         -6    1    1    2    0  502 -0.12450358823E+02  0.89329314702E+02  0.41899188695E+03  0.46181483219E+03  0.17200000000E+03 0.  1.
</event>
<event>
 4    1  0.1235203E+000  0.1987770E+03  0.7818608E-02  0.1150775E+00
         21   -1    0    0  503  502  0.00000000000E+00  0.00000000000E+00  0.24154648666E+02  0.24154648666E+02  0.00000000000E+00 0.  1.
         21   -1    0    0  501  503 -0.00000000000E+00 -0.00000000000E+00 -0.16953574312E+04  0.16953574312E+04  0.00000000000E+00 0. -1.
          6    1    1    2  501    0 -0.41245257077E+02  0.90703473037E+02 -0.99673826060E+03  0.10163658059E+04  0.17200000000E+03 0.  1.
         -6    1    1    2    0  502  0.41245257077E+02 -0.90703473037E+02 -0.67446452197E+03  0.70314627401E+03  0.17200000000E+03 0.  1.
</event>
<event>
 4    1  0.1235203E+000  0.1759095E+03  0.7818608E-02  0.1171822E+00
         21   -1    0    0  501  502  0.00000000000E+00  0.00000000000E+00  0.46282213392E+02  0.46282213392E+02  0.00000000000E+00 0.  1.
         21   -1    0    0  502  503 -0.00000000000E+00 -0.00000000000E+00 -0.66859927153E+03  0.66859927153E+03  0.00000000000E+00 0.  1.
          6    1    1    2  501    0  0.29955687660E+02 -0.21512861496E+02 -0.31182544936E+03  0.35802130844E+03  0.17200000000E+03 0.  1.
         -6    1    1    2    0  503 -0.29955687660E+02  0.21512861496E+02 -0.31049160878E+03  0.35686017648E+03  0.17200000000E+03 0.  1.
</event>
<event>
 4    1  0.1235203E+000  0.3444812E+03  0.7818608E-02  0.1064903E+00
         21   -1    0    0  501  502  0.00000000000E+00  0.00000000000E+00  0.28566130853E+03  0.28566130853E+03  0.00000000000E+00 0.  1.
         21   -1    0    0  502  503 -0.00000000000E+00 -0.00000000000E+00 -0.55929858290E+03  0.55929858290E+03  0.00000000000E+00 0.  1.
          6    1    1    2  501    0  0.79462709334E+02 -0.28769596870E+03  0.77467244712E+02  0.35308422024E+03  0.17200000000E+03 0.  1.
         -6    1    1    2    0  503 -0.79462709334E+02  0.28769596870E+03 -0.35110451909E+03  0.49187567119E+03  0.17200000000E+03 0.  1.
</event>
<event>
 4    1  0.1235203E+000  0.2036104E+03  0.7818608E-02  0.1146728E+00
         21   -1    0    0  503  502  0.00000000000E+00  0.00000000000E+00  0.24037974939E+03  0.24037974939E+03  0.00000000000E+00 0. -1.
         21   -1    0    0  501  503 -0.00000000000E+00 -0.00000000000E+00 -0.21798119176E+03  0.21798119176E+03  0.00000000000E+00 0.  1.
          6    1    1    2  501    0  0.36736495660E+02 -0.10258473452E+03 -0.93525386920E+02  0.22406292837E+03  0.17200000000E+03 0.  1.
         -6    1    1    2    0  502 -0.36736495660E+02  0.10258473452E+03  0.11592394456E+03  0.23429801278E+03  0.17200000000E+03 0. -1.
</event>
<event>
 4    1  0.1235203E+000  0.2112176E+03  0.7818608E-02  0.1140605E+00
         21   -1    0    0  501  502  0.00000000000E+00  0.00000000000E+00  0.93598457661E+02  0.93598457661E+02  0.00000000000E+00 0.  1.
         21   -1    0    0  502  503 -0.00000000000E+00 -0.00000000000E+00 -0.49855225952E+03  0.49855225952E+03  0.00000000000E+00 0.  1.
          6    1    1    2  501    0  0.34830539243E+02  0.11754017972E+03 -0.14040703348E+03  0.25362767074E+03  0.17200000000E+03 0. -1.
         -6    1    1    2    0  503 -0.34830539243E+02 -0.11754017972E+03 -0.26454676838E+03  0.33852304644E+03  0.17200000000E+03 0. -1.
</event>
<event>
 4    1  0.1235203E+000  0.1835780E+03  0.7818608E-02  0.1164384E+00
         21   -1    0    0  503  502  0.00000000000E+00  0.00000000000E+00  0.43293478462E+03  0.43293478462E+03  0.00000000000E+00 0. -1.
         21   -1    0    0  501  503 -0.00000000000E+00 -0.00000000000E+00 -0.10235998465E+03  0.10235998465E+03  0.00000000000E+00 0. -1.
          6    1    1    2  501    0  0.42108085031E+02 -0.48412768867E+02  0.34299083813E+02  0.18675468981E+03  0.17200000000E+03 0. -1.
         -6    1    1    2    0  502 -0.42108085031E+02  0.48412768867E+02  0.29627571615E+03  0.34854007947E+03  0.17200000000E+03 0. -1.
</event>
<event>
 4    1  0.1235203E+000  0.1831328E+03  0.7818608E-02  0.1164805E+00
         21   -1    0    0  501  502  0.00000000000E+00  0.00000000000E+00  0.15134795762E+03  0.15134795762E+03  0.00000000000E+00 0.  1.
         21   -1    0    0  502  503 -0.00000000000E+00 -0.00000000000E+00 -0.22208608619E+03  0.22208608619E+03  0.00000000000E+00 0.  1.
          6    1    1    2  501    0 -0.99123876380E+01 -0.62091731596E+02 -0.26570495386E+02  0.18505034392E+03  0.17200000000E+03 0. -1.
         -6    1    1    2    0  503  0.99123876380E+01  0.62091731596E+02 -0.44167633190E+02  0.18838369989E+03  0.17200000000E+03 0. -1.
</event>
<event>
 4    1  0.1235203E+000  0.1855686E+03  0.7818608E-02  0.1162520E+00
         21   -1    0    0  503  502  0.00000000000E+00  0.00000000000E+00  0.18145765397E+03  0.18145765397E+03  0.00000000000E+00 0. -1.
         21   -1    0    0  501  503 -0.00000000000E+00 -0.00000000000E+00 -0.21877198855E+03  0.21877198855E+03  0.00000000000E+00 0. -1.
          6    1    1    2  501    0  0.67580388425E+02 -0.16870387512E+02 -0.91515068990E+02  0.20690753183E+03  0.17200000000E+03 0. -1.
         -6    1    1    2    0  502 -0.67580388425E+02  0.16870387512E+02  0.54200734408E+02  0.19332211070E+03  0.17200000000E+03 0. -1.
</event>
<event>
 4    1  0.1235203E+000  0.2143827E+03  0.7818608E-02  0.1138142E+00
         21   -1    0    0  501  502  0.00000000000E+00  0.00000000000E+00  0.44099072592E+03  0.44099072592E+03  0.00000000000E+00 0.  1.
         21   -1    0    0  502  503 -0.00000000000E+00 -0.00000000000E+00 -0.13623031471E+03  0.13623031471E+03  0.00000000000E+00 0.  1.
          6    1    1    2  501    0 -0.62066797126E+02  0.11190912733E+03  0.29228158409E+03  0.36247546742E+03  0.17200000000E+03 0. -1.
         -6    1    1    2    0  503  0.62066797126E+02 -0.11190912733E+03  0.12478827116E+02  0.21474557321E+03  0.17200000000E+03 0. -1.
</event>
<event>
 4    1  0.1235203E+000  0.1802259E+03  0.7818608E-02  0.1167585E+00
         21   -1    0    0  503  502  0.00000000000E+00  0.00000000000E+00  0.73560793303E+03  0.73560793303E+03  0.00000000000E+00 0.  1.
         21   -1    0    0  501  503 -0.00000000000E+00 -0.00000000000E+00 -0.86633236935E+02  0.86633236935E+02  0.00000000000E+00 0.  1.
          6    1    1    2  501    0 -0.43590947460E+02 -0.31578425943E+02  0.36610971343E+02  0.18390685389E+03  0.17200000000E+03 0.  1.
         -6    1    1    2    0  502  0.43590947460E+02  0.31578425943E+02  0.61236372476E+03  0.63833431608E+03  0.17200000000E+03 0.  1.
</event>
<event>
 4    1  0.1235203E+000  0.1902768E+03  0.7818608E-02  0.1158212E+00
         21   -1    0    0  503  502  0.00000000000E+00  0.00000000000E+00  0.21158334062E+03  0.21158334062E+03  0.00000000000E+00 0.  1.
         21   -1    0    0  501  503 -0.00000000000E+00 -0.00000000000E+00 -0.36150772200E+03  0.36150772200E+03  0.00000000000E+00 0.  1.
          6    1    1    2  501    0 -0.81352950684E+02  0.17239183258E+01 -0.28291222284E+03  0.34094662384E+03  0.17200000000E+03 0.  1.
         -6    1    1    2    0  502  0.81352950684E+02 -0.17239183258E+01  0.13298784146E+03  0.23214443878E+03  0.17200000000E+03 0.  1.
</event>
<event>
 4    1  0.1235203E+000  0.2529545E+03  0.7818608E-02  0.1111452E+00
         21   -1    0    0  501  502  0.00000000000E+00  0.00000000000E+00  0.32531651128E+02  0.32531651128E+02  0.00000000000E+00 0. -1.
         21   -1    0    0  502  503 -0.00000000000E+00 -0.00000000000E+00 -0.20404087372E+04  0.20404087372E+04  0.00000000000E+00 0. -1.
          6    1    1    2  501    0 -0.18019358113E+03 -0.43957338802E+02 -0.80718803674E+03  0.84589508864E+03  0.17200000000E+03 0.  1.
         -6    1    1    2    0  503  0.18019358113E+03  0.43957338802E+02 -0.12006890493E+04  0.12270452997E+04  0.17200000000E+03 0.  1.
</event>
<event>
 4    1  0.1235203E+000  0.1890959E+03  0.7818608E-02  0.1159279E+00
         21   -1    0    0  503  502  0.00000000000E+00  0.00000000000E+00  0.10343298300E+04  0.10343298300E+04  0.00000000000E+00 0.  1.
         21   -1    0    0  501  503 -0.00000000000E+00 -0.00000000000E+00 -0.71026167517E+02  0.71026167517E+02  0.00000000000E+00 0.  1.
          6    1    1    2  501    0  0.78148028651E+02 -0.81323427920E+01  0.85696858995E+02  0.20760828746E+03  0.17200000000E+03 0.  1.
         -6    1    1    2    0  502 -0.78148028651E+02  0.81323427920E+01  0.87760680348E+03  0.89774771004E+03  0.17200000000E+03 0.  1.
</event>
<event>
 4    1  0.1235203E+000  0.2150998E+03  0.7818608E-02  0.1137590E+00
         21   -1    0    0  503  502  0.00000000000E+00  0.00000000000E+00  0.10989211337E+04  0.10989211337E+04  0.00000000000E+00 0.  1.
         21   -1    0    0  501  503 -0.00000000000E+00 -0.00000000000E+00 -0.45252017716E+02  0.45252017716E+02  0.00000000000E+00 0. -1.
          6    1    1    2  501    0 -0.56124452584E+02 -0.11633565832E+03  0.37592165400E+03  0.43311087440E+03  0.17200000000E+03 0. -1.
         -6    1    1    2    0  502  0.56124452584E+02  0.11633565832E+03  0.67774746197E+03  0.71106227701E+03  0.17200000000E+03 0. -1.
</event>
<event>
 4    1  0.1235203E+000  0.1739416E+03  0.7818608E-02  0.1173799E+00
         21   -1    0    0  501  502  0.00000000000E+00  0.00000000000E+00  0.36766977540E+03  0.36766977540E+03  0.00000000000E+00 0.  1.
         21   -1    0    0  502  503 -0.00000000000E+00 -0.00000000000E+00 -0.13058859202E+03  0.13058859202E+03  0.00000000000E+00 0.  1.
          6    1    1    2  501    0 -0.17318688981E+02 -0.19280410318E+02  0.27004933196E+03  0.32122003814E+03  0.17200000000E+03 0. -1.
         -6    1    1    2    0  503  0.17318688981E+02  0.19280410318E+02 -0.32968148589E+02  0.17703832927E+03  0.17200000000E+03 0. -1.
</event>
<event>
 4    1  0.1235203E+000  0.3602388E+03  0.7818608E-02  0.1058489E+00
         21   -1    0    0  501  502  0.00000000000E+00  0.00000000000E+00  0.63804754736E+03  0.63804754736E+03  0.00000000000E+00 0.  1.
         21   -1    0    0  502  503 -0.00000000000E+00 -0.00000000000E+00 -0.25109989702E+03  0.25109989702E+03  0.00000000000E+00 0. -1.
          6    1    1    2  501    0  0.83999837102E+02 -0.30517544060E+03  0.38726237061E+03  0.52890846644E+03  0.17200000000E+03 0. -1.
         -6    1    1    2    0  503 -0.83999837102E+02  0.30517544060E+03 -0.31472026399E+00  0.36023897794E+03  0.17200000000E+03 0. -1.
</event>
<event>
 4    1  0.1235203E+000  0.2293685E+03  0.7818608E-02  0.1127085E+00
         21   -1    0    0  503  502  0.00000000000E+00  0.00000000000E+00  0.17514393568E+03  0.17514393568E+03  0.00000000000E+00 0.  1.
         21   -1    0    0  501  503 -0.00000000000E+00 -0.00000000000E+00 -0.30501624161E+03  0.30501624161E+03  0.00000000000E+00 0. -1.
          6    1    1    2  501    0  0.93758103767E+02  0.11931186691E+03 -0.94532131518E+02  0.24808512148E+03  0.17200000000E+03 0. -1.
         -6    1    1    2    0  502 -0.93758103767E+02 -0.11931186691E+03 -0.35340174412E+02  0.23207505582E+03  0.17200000000E+03 0.  1.
</event>
<event>
 4    1  0.1235203E+000  0.1896189E+03  0.7818608E-02  0.1158806E+00
         21   -1    0    0  501  502  0.00000000000E+00  0.00000000000E+00  0.13717511573E+03  0.13717511573E+03  0.00000000000E+00 0. -1.
         21   -1    0    0  502  503 -0.00000000000E+00 -0.00000000000E+00 -0.35925986021E+03  0.35925986021E+03  0.00000000000E+00 0. -1.
          6    1    1    2  501    0 -0.50654749053E+02  0.61688117041E+02  0.18032970716E+02  0.19047444820E+03  0.17200000000E+03 0.  1.
         -6    1    1    2    0  503  0.50654749053E+02 -0.61688117041E+02 -0.24011771519E+03  0.30596052774E+03  0.17200000000E+03 0.  1.
</event>
<event>
 4    1  0.1235203E+000  0.2597515E+03  0.7818608E-02  0.1107293E+00
         21   -1    0    0  501  502  0.00000000000E+00  0.00000000000E+00  0.97272973241E+02  0.97272973241E+02  0.00000000000E+00 0.  1.
         21   -1    0    0  502  503 -0.00000000000E+00 -0.00000000000E+00 -0.69369314234E+03  0.69369314234E+03  0.00000000000E+00 0. -1.
          6    1    1    2  501    0  0.21691417189E+02  0.19343293493E+03 -0.30217335126E+03  0.39847151982E+03  0.17200000000E+03 0. -1.
         -6    1    1    2    0  503 -0.21691417189E+02 -0.19343293493E+03 -0.29424681784E+03  0.39249459577E+03  0.17200000000E+03 0. -1.
</event>
<event>
 4    1  0.1235203E+000  0.1864948E+03  0.7818608E-02  0.1161661E+00
         21   -1    0    0  501  502  0.00000000000E+00  0.00000000000E+00  0.47332543849E+03  0.47332543849E+03  0.00000000000E+00 0. -1.
         21   -1    0    0  502  503 -0.00000000000E+00 -0.00000000000E+00 -0.85416131058E+02  0.85416131058E+02  0.00000000000E+00 0. -1.
          6    1    1    2  501    0 -0.11971593241E+02  0.71084365999E+02  0.29838561225E+03  0.35187253336E+03  0.17200000000E+03 0. -1.
         -6    1    1    2    0  503  0.11971593241E+02 -0.71084365999E+02  0.89523695177E+02  0.20686903619E+03  0.17200000000E+03 0. -1.
</event>
<event>
 4    1  0.1235203E+000  0.1908880E+03  0.7818608E-02  0.1157663E+00
         21   -1    0    0  501  502  0.00000000000E+00  0.00000000000E+00  0.75174586540E+02  0.75174586540E+02  0.00000000000E+00 0.  1.
         21   -1    0    0  502  503 -0.00000000000E+00 -0.00000000000E+00 -0.92526199920E+03  0.92526199920E+03  0.00000000000E+00 0.  1.
          6    1    1    2  501    0  0.27277043543E+02 -0.78167729552E+02 -0.79881327967E+02  0.20692814600E+03  0.17200000000E+03 0.  1.
         -6    1    1    2    0  503 -0.27277043543E+02  0.78167729552E+02 -0.77020608470E+03  0.79350843975E+03  0.17200000000E+03 0.  1.
</event>
<event>
 4    1  0.1235203E+000  0.2046386E+03  0.7818608E-02  0.1145883E+00
         21   -1    0    0  503  502  0.00000000000E+00  0.00000000000E+00  0.21772250294E+04  0.21772250294E+04  0.00000000000E+00 0. -1.
         21   -1    0    0  501  503 -0.00000000000E+00 -0.00000000000E+00 -0.19337326798E+02  0.19337326798E+02  0.00000000000E+00 0.  1.
          6    1    1    2  501    0  0.52156902644E+02  0.97839756730E+02  0.99869942421E+03  0.10194496066E+04  0.17200000000E+03 0. -1.
         -6    1    1    2    0  502 -0.52156902644E+02 -0.97839756730E+02  0.11591882784E+04  0.11771127496E+04  0.17200000000E+03 0. -1.
</event>
<event>
 4    1  0.1235203E+000  0.1732673E+03  0.7818608E-02  0.1174483E+00
         21   -1    0    0  503  502  0.00000000000E+00  0.00000000000E+00  0.59432330574E+03  0.59432330574E+03  0.00000000000E+00 0. -1.
         21   -1    0    0  501  503 -0.00000000000E+00 -0.00000000000E+00 -0.10856942541E+03  0.10856942541E+03  0.00000000000E+00 0. -1.
          6    1    1    2  501    0  0.62881509297E+01 -0.19950634788E+02 -0.14119547889E+02  0.17384168172E+03  0.17200000000E+03 0. -1.
         -6    1    1    2    0  502 -0.62881509297E+01  0.19950634788E+02  0.49987342822E+03  0.52905104944E+03  0.17200000000E+03 0. -1.
</event>
<event>
 4    1  0.1235203E+000  0.1909551E+03  0.7818608E-02  0.1157603E+00
         21   -1    0    0  503  502  0.00000000000E+00  0.00000000000E+00  0.19971111471E+03  0.19971111471E+03  0.00000000000E+00 0.  1.
         21   -1    0    0  501  503 -0.00000000000E+00 -0.00000000000E+00 -0.33151766163E+03  0.33151766163E+03  0.00000000000E+00 0.  1.
          6    1    1    2  501    0  0.16991926927E+02  0.81185740150E+02 -0.24393450076E+03  0.30978684711E+03  0.17200000000E+03 0.  1.
         -6    1    1    2    0  502 -0.16991926927E+02 -0.81185740150E+02  0.11212795384E+03  0.22144192922E+03  0.17200000000E+03 0.  1.
</event>
<event>
 4    1  0.1235203E+000  0.1966499E+03  0.7818608E-02  0.1152597E+00
         21   -1    0    0  503  502  0.00000000000E+00  0.00000000000E+00  0.13991265105E+03  0.13991265105E+03  0.00000000000E+00 0.  1.
         21   -1    0    0  501  503 -0.00000000000E+00 -0.00000000000E+00 -0.33345206046E+03  0.33345206046E+03  0.00000000000E+00 0.  1.
          6    1    1    2  501    0  0.23030783213E+02  0.92502820594E+02 -0.19467428670E+03  0.27671152252E+03  0.17200000000E+03 0.  1.
         -6    1    1    2    0  502 -0.23030783213E+02 -0.92502820594E+02  0.11348772860E+01  0.19665318899E+03  0.17200000000E+03 0.  1.
</event>
<event>
 4    1  0.1235203E+000  0.2140851E+03  0.7818608E-02  0.1138371E+00
         21   -1    0    0  503  502  0.00000000000E+00  0.00000000000E+00  0.88373130317E+02  0.88373130317E+02  0.00000000000E+00 0. -1.
         21   -1    0    0  501  503 -0.00000000000E+00 -0.00000000000E+00 -0.58028735021E+03  0.58028735021E+03  0.00000000000E+00 0.  1.
          6    1    1    2  501    0 -0.26557237991E+02  0.12467213152E+03 -0.35494233614E+03  0.41450752617E+03  0.17200000000E+03 0.  1.
         -6    1    1    2    0  502  0.26557237991E+02 -0.12467213152E+03 -0.13697188375E+03  0.25415295435E+03  0.17200000000E+03 0. -1.
</event>
<event>
 4    1  0.1235203E+000  0.1835675E+03  0.7818608E-02  0.1164394E+00
         21   -1    0    0  503  502  0.00000000000E+00  0.00000000000E+00  0.42435622987E+02  0.42435622987E+02  0.00000000000E+00 0. -1.
         21   -1    0    0  501  503 -0.00000000000E+00 -0.00000000000E+00 -0.12095604248E+04  0.12095604248E+04  0.00000000000E+00 0. -1.
          6    1    1    2  501    0  0.62590789822E+02  0.13979365614E+02 -0.95045380659E+03  0.96801832012E+03  0.17200000000E+03 0. -1.
         -6    1    1    2    0  502 -0.62590789822E+02 -0.13979365614E+02 -0.21667099519E+03  0.28397772763E+03  0.17200000000E+03 0. -1.
</event>
<event>
 4    1  0.1235203E+000  0.1733436E+03  0.7818608E-02  0.1174405E+00
         21   -1    0    0  503  502  0.00000000000E+00  0.00000000000E+00  0.26667819958E+02  0.26667819958E+02  0.00000000000E+00 0. -1.
         21   -1    0    0  501  503 -0.00000000000E+00 -0.00000000000E+00 -0.14949383763E+04  0.14949383763E+04  0.00000000000E+00 0. -1.
          6    1    1    2  501    0  0.17980105879E+01 -0.21465973012E+02 -0.11117026477E+04  0.11251359019E+04  0.17200000000E+03 0. -1.
         -6    1    1    2    0  502 -0.17980105879E+01  0.21465973012E+02 -0.35656790869E+03  0.39647029441E+03  0.17200000000E+03 0. -1.
</event>
<event>
 4    1  0.1235203E+000  0.1800878E+03  0.7818608E-02  0.1167718E+00
         21   -1    0    0  501  502  0.00000000000E+00  0.00000000000E+00  0.15558058028E+03  0.15558058028E+03  0.00000000000E+00 0.  1.
         21   -1    0    0  502  503 -0.00000000000E+00 -0.00000000000E+00 -0.22055298610E+03  0.22055298610E+03  0.00000000000E+00 0.  1.
          6    1    1    2  501    0  0.51422038176E+02 -0.14261922700E+02 -0.76531860567E+02  0.19567512395E+03  0.17200000000E+03 0. -1.
         -6    1    1    2    0  503 -0.51422038176E+02  0.14261922700E+02  0.11559454750E+02  0.18045844243E+03  0.17200000000E+03 0. -1.
</event>
<event>
 4    1  0.1235203E+000  0.2600418E+03  0.7818608E-02  0.1107118E+00
         21   -1    0    0  501  502  0.00000000000E+00  0.00000000000E+00  0.14166917367E+03  0.14166917367E+03  0.00000000000E+00 0. -1.
         21   -1    0    0  502  503 -0.00000000000E+00 -0.00000000000E+00 -0.55768079741E+03  0.55768079741E+03  0.00000000000E+00 0.  1.
          6    1    1    2  501    0 -0.15823336739E+03  0.11401736834E+03 -0.75269583363E+02  0.27071621491E+03  0.17200000000E+03 0.  1.
         -6    1    1    2    0  503  0.15823336739E+03 -0.11401736834E+03 -0.34074204038E+03  0.42863375616E+03  0.17200000000E+03 0.  1.
</event>
<event>
 4    1  0.1235203E+000  0.1959371E+03  0.7818608E-02  0.1153213E+00
         21   -1    0    0  501  502  0.00000000000E+00  0.00000000000E+00  0.90823592466E+03  0.90823592466E+03  0.00000000000E+00 0. -1.
         21   -1    0    0  502  503 -0.00000000000E+00 -0.00000000000E+00 -0.53333970323E+02  0.53333970323E+02  0.00000000000E+00 0. -1.
          6    1    1    2  501    0 -0.70687582249E+02  0.61730204566E+02  0.20847339623E+03  0.28609877555E+03  0.17200000000E+03 0. -1.
         -6    1    1    2    0  503  0.70687582249E+02 -0.61730204566E+02  0.64642855811E+03  0.67547111943E+03  0.17200000000E+03 0. -1.
</event>
<event>
 4    1  0.1235203E+000  0.1917232E+03  0.7818608E-02  0.1156916E+00
         21   -1    0    0  501  502  0.00000000000E+00  0.00000000000E+00  0.35366851514E+03  0.35366851514E+03  0.00000000000E+00 0. -1.
         21   -1    0    0  502  503 -0.00000000000E+00 -0.00000000000E+00 -0.14871299754E+03  0.14871299754E+03  0.00000000000E+00 0. -1.
          6    1    1    2  501    0 -0.49432559049E+02  0.68776568259E+02  0.24031663063E+03  0.30742458781E+03  0.17200000000E+03 0. -1.
         -6    1    1    2    0  503  0.49432559049E+02 -0.68776568259E+02 -0.35361113030E+02  0.19495692486E+03  0.17200000000E+03 0. -1.
</event>
<event>
 4    1  0.1235203E+000  0.3385703E+03  0.7818608E-02  0.1067406E+00
         21   -1    0    0  501  502  0.00000000000E+00  0.00000000000E+00  0.23346878279E+04  0.23346878279E+04  0.00000000000E+00 0.  1.
         21   -1    0    0  502  503 -0.00000000000E+00 -0.00000000000E+00 -0.49715506722E+02  0.49715506722E+02  0.00000000000E+00 0. -1.
          6    1    1    2  501    0 -0.22379004097E+03  0.18698622355E+03  0.10096780403E+04  0.10649317233E+04  0.17200000000E+03 0.  1.
         -6    1    1    2    0  503  0.22379004097E+03 -0.18698622355E+03  0.12752942809E+04  0.13194716113E+04  0.17200000000E+03 0.  1.
</event>
<event>
 4    1  0.1235203E+000  0.2473812E+03  0.7818608E-02  0.1114971E+00
         21   -1    0    0  501  502  0.00000000000E+00  0.00000000000E+00  0.25763146211E+03  0.25763146211E+03  0.00000000000E+00 0. -1.
         21   -1    0    0  502  503 -0.00000000000E+00 -0.00000000000E+00 -0.36333630685E+03  0.36333630685E+03  0.00000000000E+00 0.  1.
          6    1    1    2  501    0  0.15829077968E+03 -0.80978209406E+02  0.12984013810E+03  0.27938486500E+03  0.17200000000E+03 0.  1.
         -6    1    1    2    0  503 -0.15829077968E+03  0.80978209406E+02 -0.23554498284E+03  0.34158290395E+03  0.17200000000E+03 0.  1.
</event>
<event>
 4    1  0.1235203E+000  0.1997813E+03  0.7818608E-02  0.1149924E+00
         21   -1    0    0  503  502  0.00000000000E+00  0.00000000000E+00  0.41518646351E+02  0.41518646351E+02  0.00000000000E+00 0. -1.
         21   -1    0    0  501  503 -0.00000000000E+00 -0.00000000000E+00 -0.10889586791E+04  0.10889586791E+04  0.00000000000E+00 0. -1.
          6    1    1    2  501    0  0.10141788019E+03  0.65572291574E+01 -0.71723842605E+03  0.74454250616E+03  0.17200000000E+03 0. -1.
         -6    1    1    2    0  502 -0.10141788019E+03 -0.65572291574E+01 -0.33020160672E+03  0.38593481931E+03  0.17200000000E+03 0. -1.
</event>
<event>
 4    1  0.1235203E+000  0.2476932E+03  0.7818608E-02  0.1114771E+00
         21   -1    0    0  501  502  0.00000000000E+00  0.00000000000E+00  0.15852822799E+03  0.15852822799E+03  0.00000000000E+00 0. -1.
         21   -1    0    0  502  503 -0.00000000000E+00 -0.00000000000E+00 -0.42751699612E+03  0.42751699612E+03  0.00000000000E+00 0. -1.
          6    1    1    2  501    0 -0.12189877287E+03 -0.13003305960E+03 -0.44297213435E+02  0.25162303260E+03  0.17200000000E+03 0. -1.
         -6    1    1    2    0  503  0.12189877287E+03  0.13003305960E+03 -0.22469155470E+03  0.33442219150E+03  0.17200000000E+03 0. -1.
</event>
<event>
 4    1  0.1235203E+000  0.1730029E+03  0.7818608E-02  0.1174752E+00
         21   -1    0    0  501  502  0.00000000000E+00  0.00000000000E+00  0.92289794830E+03  0.92289794830E+03  0.00000000000E+00 0.  1.
         21   -1    0    0  502  503 -0.00000000000E+00 -0.00000000000E+00 -0.98970161866E+02  0.98970161866E+02  0.00000000000E+00 0.  1.
          6    1    1    2  501    0 -0.83905729827E+01  0.16601222678E+02  0.83090516335E+03  0.84872456828E+03  0.17200000000E+03 0.  1.
         -6    1    1    2    0  503  0.83905729827E+01 -0.16601222678E+02 -0.69773769185E+01  0.17314354189E+03  0.17200000000E+03 0.  1.
</event>
<event>
 4    1  0.1235203E+000  0.2398593E+03  0.7818608E-02  0.1119887E+00
         21   -1    0    0  501  502  0.00000000000E+00  0.00000000000E+00  0.50907075204E+02  0.50907075204E+02  0.00000000000E+00 0.  1.
         21   -1    0    0  502  503 -0.00000000000E+00 -0.00000000000E+00 -0.11314761405E+04  0.11314761405E+04  0.00000000000E+00 0. -1.
          6    1    1    2  501    0  0.14172840717E+03 -0.88665263457E+02 -0.52002093239E+03  0.57267289133E+03  0.17200000000E+03 0. -1.
         -6    1    1    2    0  503 -0.14172840717E+03  0.88665263457E+02 -0.56054813291E+03  0.60971032437E+03  0.17200000000E+03 0.  1.
</event>
<event>
 4    1  0.1235203E+000  0.1899343E+03  0.7818608E-02  0.1158521E+00
         21   -1    0    0  503  502  0.00000000000E+00  0.00000000000E+00  0.90553740446E+03  0.90553740446E+03  0.00000000000E+00 0.  1.
         21   -1    0    0  501  503 -0.00000000000E+00 -0.00000000000E+00 -0.40183956456E+02  0.40183956456E+02  0.00000000000E+00 0.  1.
          6    1    1    2  501    0 -0.27946895232E+02  0.75564672925E+02  0.47653428504E+03  0.51299120224E+03  0.17200000000E+03 0. -1.
         -6    1    1    2    0  502  0.27946895232E+02 -0.75564672925E+02  0.38881916296E+03  0.43273015868E+03  0.17200000000E+03 0. -1.
</event>
<event>
 4    1  0.1235203E+000  0.1787726E+03  0.7818608E-02  0.1168996E+00
         21   -1    0    0  503  502  0.00000000000E+00  0.00000000000E+00  0.13495744292E+03  0.13495744292E+03  0.00000000000E+00 0.  1.
         21   -1    0    0  501  503 -0.00000000000E+00 -0.00000000000E+00 -0.29878573222E+03  0.29878573222E+03  0.00000000000E+00 0.  1.
          6    1    1    2  501    0  0.60937924968E+01 -0.48358097393E+02 -0.18068390831E+03  0.25417772250E+03  0.17200000000E+03 0. -1.
         -6    1    1    2    0  502 -0.60937924968E+01  0.48358097393E+02  0.16855619005E+02  0.17956545264E+03  0.17200000000E+03 0. -1.
</event>
<event>
 4    1  0.1235203E+000  0.1937633E+03  0.7818608E-02  0.1155110E+00
         21   -1    0    0  501  502  0.00000000000E+00  0.00000000000E+00  0.58996818817E+03  0.58996818817E+03  0.00000000000E+00 0.  1.
         21   -1    0    0  502  503 -0.00000000000E+00 -0.00000000000E+00 -0.66459534497E+02  0.66459534497E+02  0.00000000000E+00 0.  1.
          6    1    1    2  501    0 -0.79091142433E+02 -0.41289099122E+02  0.32938545865E+03  0.38215046629E+03  0.17200000000E+03 0. -1.
         -6    1    1    2    0  503  0.79091142433E+02  0.41289099122E+02  0.19412319502E+03  0.27427725637E+03  0.17200000000E+03 0. -1.
</event>
<event>
 4    1  0.1235203E+000  0.2196025E+03  0.7818608E-02  0.1134180E+00
         21   -1    0    0  503  502  0.00000000000E+00  0.00000000000E+00  0.16014775372E+04  0.16014775372E+04  0.00000000000E+00 0. -1.
         21   -1    0    0  501  503 -0.00000000000E+00 -0.00000000000E+00 -0.34387441132E+02  0.34387441132E+02  0.00000000000E+00 0. -1.
          6    1    1    2  501    0 -0.13644368359E+03 -0.49389497823E+01  0.10719202207E+04  0.10941838198E+04  0.17200000000E+03 0. -1.
         -6    1    1    2    0  502  0.13644368359E+03  0.49389497823E+01  0.49516987541E+03  0.54168115855E+03  0.17200000000E+03 0. -1.
</event>
<event>
 4    1  0.1235203E+000  0.1735710E+03  0.7818608E-02  0.1174174E+00
         21   -1    0    0  503  502  0.00000000000E+00  0.00000000000E+00  0.20689953849E+04  0.20689953849E+04  0.00000000000E+00 0. -1.
         21   -1    0    0  501  503 -0.00000000000E+00 -0.00000000000E+00 -0.14652027447E+02  0.14652027447E+02  0.00000000000E+00 0. -1.
          6    1    1    2  501    0  0.44536116280E+01  0.22870084975E+02  0.11092374399E+04  0.11227353088E+04  0.17200000000E+03 0. -1.
         -6    1    1    2    0  502 -0.44536116280E+01 -0.22870084975E+02  0.94510591757E+03  0.96091210362E+03  0.17200000000E+03 0. -1.
</event>
<event>
 4    1  0.1235203E+000  0.1722697E+03  0.7818608E-02  0.1175501E+00
         21   -1    0    0  503  502  0.00000000000E+00  0.00000000000E+00  0.14375647805E+03  0.14375647805E+03  0.00000000000E+00 0.  1.
         21   -1    0    0  501  503 -0.00000000000E+00 -0.00000000000E+00 -0.93047070454E+03  0.93047070454E+03  0.00000000000E+00 0.  1.
          6    1    1    2  501    0  0.76944482485E+01 -0.57995433579E+01 -0.86715574214E+03  0.88410175905E+03  0.17200000000E+03 0.  1.
         -6    1    1    2    0  502 -0.76944482485E+01  0.57995433579E+01  0.80441515650E+02  0.19012542354E+03  0.17200000000E+03 0.  1.
</event>
<event>
 4    1  0.1235203E+000  0.1896306E+03  0.7818608E-02  0.1158795E+00
         21   -1    0    0  501  502  0.00000000000E+00  0.00000000000E+00  0.58812285264E+02  0.58812285264E+02  0.00000000000E+00 0.  1.
         21   -1    0    0  502  503 -0.00000000000E+00 -0.00000000000E+00 -0.69178637987E+03  0.69178637987E+03  0.00000000000E+00 0.  1.
          6    1    1    2  501    0  0.78588782508E+02 -0.14127259103E+02 -0.18858023624E+03  0.26743650029E+03  0.17200000000E+03 0.  1.
         -6    1    1    2    0  503 -0.78588782508E+02  0.14127259103E+02 -0.44439385837E+03  0.48316216485E+03  0.17200000000E+03 0.  1.
</event>
<event>
 4    1  0.1235203E+000  0.2516372E+03  0.7818608E-02  0.1112275E+00
         21   -1    0    0  501  502  0.00000000000E+00  0.00000000000E+00  0.32719360181E+03  0.32719360181E+03  0.00000000000E+00 0.  1.
         21   -1    0    0  502  503 -0.00000000000E+00 -0.00000000000E+00 -0.20174816385E+03  0.20174816385E+03  0.00000000000E+00 0.  1.
          6    1    1    2  501    0  0.17182107002E+02 -0.18287166211E+03  0.11610553748E+03  0.27713131443E+03  0.17200000000E+03 0.  1.
         -6    1    1    2    0  503 -0.17182107002E+02  0.18287166211E+03  0.93399004882E+01  0.25181045123E+03  0.17200000000E+03 0.  1.
</event>
<event>
 4    1  0.1235203E+000  0.2145348E+03  0.7818608E-02  0.1138024E+00
         21   -1    0    0  501  502  0.00000000000E+00  0.00000000000E+00  0.14878079539E+03  0.14878079539E+03  0.00000000000E+00 0.  1.
         21   -1    0    0  502  503 -0.00000000000E+00 -0.00000000000E+00 -0.37691832307E+03  0.37691832307E+03  0.00000000000E+00 0.  1.
          6    1    1    2  501    0 -0.12765916797E+03 -0.12012723469E+02 -0.27780627772E+01  0.21455275883E+03  0.17200000000E+03 0.  1.
         -6    1    1    2    0  503  0.12765916797E+03  0.12012723469E+02 -0.22535946490E+03  0.31114635963E+03  0.17200000000E+03 0.  1.
</event>
<event>
 4    1  0.1235203E+000  0.1912922E+03  0.7818608E-02  0.1157301E+00
         21   -1    0    0  503  502  0.00000000000E+00  0.00000000000E+00  0.13327377159E+03  0.13327377159E+03  0.00000000000E+00 0.  1.
         21   -1    0    0  501  503 -0.00000000000E+00 -0.00000000000E+00 -0.34787409691E+03  0.34787409691E+03  0.00000000000E+00 0.  1.
          6    1    1    2  501    0  0.20698499340E+02 -0.81118800510E+02 -0.21773551829E+03  0.28983002535E+03  0.17200000000E+03 0.  1.
         -6    1    1    2    0  502 -0.20698499340E+02  0.81118800510E+02  0.31351929646E+01  0.19131784315E+03  0.17200000000E+03 0.  1.
</event>
<event>
 4    1  0.1235203E+000  0.2096261E+03  0.7818608E-02  0.1141862E+00
         21   -1    0    0  503  502  0.00000000000E+00  0.00000000000E+00  0.95188001539E+02  0.95188001539E+02  0.00000000000E+00 0. -1.
         21   -1    0    0  501  503 -0.00000000000E+00 -0.00000000000E+00 -0.46192971847E+03  0.46192971847E+03  0.00000000000E+00 0. -1.
          6    1    1    2  501    0  0.49233331575E+02 -0.10924818127E+03 -0.17645783717E+03  0.27400812825E+03  0.17200000000E+03 0.  1.
         -6    1    1    2    0  502 -0.49233331575E+02  0.10924818127E+03 -0.19028387977E+03  0.28310959176E+03  0.17200000000E+03 0.  1.
</event>
<event>
 4    1  0.1235203E+000  0.2025725E+03  0.7818608E-02  0.1147587E+00
         21   -1    0    0  503  502  0.00000000000E+00  0.00000000000E+00  0.17657309385E+03  0.17657309385E+03  0.00000000000E+00 0. -1.
         21   -1    0    0  501  503 -0.00000000000E+00 -0.00000000000E+00 -0.90987386980E+03  0.90987386980E+03  0.00000000000E+00 0. -1.
          6    1    1    2  501    0  0.99469970426E+02 -0.39462994919E+02 -0.83539272821E+03  0.85960259034E+03  0.17200000000E+03 0. -1.
         -6    1    1    2    0  502 -0.99469970426E+02  0.39462994919E+02  0.10209195226E+03  0.22684437331E+03  0.17200000000E+03 0. -1.
</event>
<event>
 4    1  0.1235203E+000  0.2328779E+03  0.7818608E-02  0.1124630E+00
         21   -1    0    0  501  502  0.00000000000E+00  0.00000000000E+00  0.96377902070E+02  0.96377902070E+02  0.00000000000E+00 0.  1.
         21   -1    0    0  502  503 -0.00000000000E+00 -0.00000000000E+00 -0.73765056596E+03  0.73765056596E+03  0.00000000000E+00 0.  1.
          6    1    1    2  501    0 -0.73688971031E+02  0.13862914466E+03 -0.11755037990E+03  0.26086432492E+03  0.17200000000E+03 0.  1.
         -6    1    1    2    0  503  0.73688971031E+02 -0.13862914466E+03 -0.52372228399E+03  0.57316414311E+03  0.17200000000E+03 0.  1.
</event>
<event>
 4    1  0.1235203E+000  0.2002133E+03  0.7818608E-02  0.1149559E+00
         21   -1    0    0  503  502  0.00000000000E+00  0.00000000000E+00  0.70831536488E+02  0.70831536488E+02  0.00000000000E+00 0.  1.
         21   -1    0    0  501  503 -0.00000000000E+00 -0.00000000000E+00 -0.56599678417E+03  0.56599678417E+03  0.00000000000E+00 0.  1.
          6    1    1    2  501    0 -0.63499093552E+02  0.80431415001E+02 -0.24400027932E+03  0.31562871180E+03  0.17200000000E+03 0.  1.
         -6    1    1    2    0  502  0.63499093552E+02 -0.80431415001E+02 -0.25116496836E+03  0.32119960886E+03  0.17200000000E+03 0.  1.
</event>
<event>
 4    1  0.1235203E+000  0.2820559E+03  0.7818608E-02  0.1094571E+00
         21   -1    0    0  503  502  0.00000000000E+00  0.00000000000E+00  0.65585083152E+03  0.65585083152E+03  0.00000000000E+00 0.  1.
         21   -1    0    0  501  503 -0.00000000000E+00 -0.00000000000E+00 -0.12923185964E+03  0.12923185964E+03  0.00000000000E+00 0.  1.
          6    1    1    2  501    0 -0.12756513371E+03  0.18357198837E+03  0.16606760030E+03  0.32731328436E+03  0.17200000000E+03 0.  1.
         -6    1    1    2    0  502  0.12756513371E+03 -0.18357198837E+03  0.36055137158E+03  0.45776940680E+03  0.17200000000E+03 0.  1.
</event>
<event>
 4    1  0.1235203E+000  0.1910305E+03  0.7818608E-02  0.1157535E+00
         21   -1    0    0  503  502  0.00000000000E+00  0.00000000000E+00  0.91519128809E+02  0.91519128809E+02  0.00000000000E+00 0. -1.
         21   -1    0    0  501  503 -0.00000000000E+00 -0.00000000000E+00 -0.57530555268E+03  0.57530555268E+03  0.00000000000E+00 0. -1.
          6    1    1    2  501    0  0.12930876573E+02 -0.82106231823E+02 -0.42659933766E+03  0.46741805246E+03  0.17200000000E+03 0. -1.
         -6    1    1    2    0  502 -0.12930876573E+02  0.82106231823E+02 -0.57187086216E+02  0.19940662903E+03  0.17200000000E+03 0. -1.
</event>
<event>
 4    1  0.1235203E+000  0.2192379E+03  0.7818608E-02  0.1134453E+00
         21   -1    0    0  503  502  0.00000000000E+00  0.00000000000E+00  0.19899690243E+03  0.19899690243E+03  0.00000000000E+00 0. -1.
         21   -1    0    0  501  503 -0.00000000000E+00 -0.00000000000E+00 -0.51938238980E+03  0.51938238980E+03  0.00000000000E+00 0.  1.
          6    1    1    2  501    0 -0.47705616065E+02  0.12730052866E+03 -0.42290556248E+03  0.47635529301E+03  0.17200000000E+03 0.  1.
         -6    1    1    2    0  502  0.47705616065E+02 -0.12730052866E+03  0.10252007510E+03  0.24202399923E+03  0.17200000000E+03 0. -1.
</event>
<event>
 4    1  0.1235203E+000  0.1735136E+03  0.7818608E-02  0.1174232E+00
         21   -1    0    0  503  502  0.00000000000E+00  0.00000000000E+00  0.25380861918E+03  0.25380861918E+03  0.00000000000E+00 0.  1.
         21   -1    0    0  501  503 -0.00000000000E+00 -0.00000000000E+00 -0.31399438904E+03  0.31399438904E+03  0.00000000000E+00 0.  1.
          6    1    1    2  501    0  0.10128875650E+02  0.20503054200E+02  0.19385126917E+03  0.26016395583E+03  0.17200000000E+03 0.  1.
         -6    1    1    2    0  502 -0.10128875650E+02 -0.20503054200E+02 -0.25403703903E+03  0.30763905238E+03  0.17200000000E+03 0.  1.
</event>
<event>
 4    1  0.1235203E+000  0.2677213E+03  0.7818608E-02  0.1102591E+00
         21   -1    0    0  501  502  0.00000000000E+00  0.00000000000E+00  0.15792458540E+03  0.15792458540E+03  0.00000000000E+00 0.  1.
         21   -1    0    0  502  503 -0.00000000000E+00 -0.00000000000E+00 -0.67521837905E+03  0.67521837905E+03  0.00000000000E+00 0. -1.
          6    1    1    2  501    0  0.16402945567E+03 -0.12322763052E+03 -0.20128854246E+02  0.26847696740E+03  0.17200000000E+03 0.  1.
         -6    1    1    2    0  503 -0.16402945567E+03  0.12322763052E+03 -0.49716493940E+03  0.56466599705E+03  0.17200000000E+03 0.  1.
</event>
<event>
 4    1  0.1235203E+000  0.1798988E+03  0.7818608E-02  0.1167901E+00
         21   -1    0    0  501  502  0.00000000000E+00  0.00000000000E+00  0.29353768197E+03  0.29353768197E+03  0.00000000000E+00 0.  1.
         21   -1    0    0  502  503 -0.00000000000E+00 -0.00000000000E+00 -0.11097367978E+03  0.11097367978E+03  0.00000000000E+00 0.  1.
          6    1    1    2  501    0  0.41300539859E+02  0.32769804393E+02  0.74990079554E+02  0.19490281348E+03  0.17200000000E+03 0. -1.
         -6    1    1    2    0  503 -0.41300539859E+02 -0.32769804393E+02  0.10757392264E+03  0.20960854826E+03  0.17200000000E+03 0. -1.
</event>
<event>
 4    1  0.1235203E+000  0.2115620E+03  0.7818608E-02  0.1140335E+00
         21   -1    0    0  501  502  0.00000000000E+00  0.00000000000E+00  0.19185465457E+03  0.19185465457E+03  0.00000000000E+00 0.  1.
         21   -1    0    0  502  503 -0.00000000000E+00 -0.00000000000E+00 -0.38799068074E+03  0.38799068074E+03  0.00000000000E+00 0. -1.
          6    1    1    2  501    0  0.12235070146E+03  0.14311034350E+02  0.84999935418E+02  0.22799887910E+03  0.17200000000E+03 0.  1.
         -6    1    1    2    0  503 -0.12235070146E+03 -0.14311034350E+02 -0.28113596159E+03  0.35184645621E+03  0.17200000000E+03 0. -1.
</event>
<event>
 4    1  0.1235203E+000  0.1885040E+03  0.7818608E-02  0.1159818E+00
         21   -1    0    0  503  502  0.00000000000E+00  0.00000000000E+00  0.26603144399E+03  0.26603144399E+03  0.00000000000E+00 0.  1.
         21   -1    0    0  501  503 -0.00000000000E+00 -0.00000000000E+00 -0.18967871458E+03  0.18967871458E+03  0.00000000000E+00 0.  1.
          6    1    1    2  501    0 -0.72095834396E+02  0.27421475893E+02 -0.85750551037E+02  0.20709153455E+03  0.17200000000E+03 0.  1.
         -6    1    1    2    0  502  0.72095834396E+02 -0.27421475893E+02  0.16210328045E+03  0.24861862402E+03  0.17200000000E+03 0.  1.
</event>
<event>
 4    1  0.1235203E+000  0.2668972E+03  0.7818608E-02  0.1103069E+00
         21   -1    0    0  503  502  0.00000000000E+00  0.00000000000E+00  0.66526242390E+03  0.66526242390E+03  0.00000000000E+00 0.  1.
         21   -1    0    0  501  503 -0.00000000000E+00 -0.00000000000E+00 -0.15259714081E+03  0.15259714081E+03  0.00000000000E+00 0. -1.
          6    1    1    2  501    0 -0.95930888489E+02 -0.18013158184E+03  0.32986399454E+02  0.26892791728E+03  0.17200000000E+03 0. -1.
         -6    1    1    2    0  502  0.95930888489E+02  0.18013158184E+03  0.47967888364E+03  0.54893164743E+03  0.17200000000E+03 0.  1.
</event>
<event>
 4    1  0.1235203E+000  0.1908698E+03  0.7818608E-02  0.1157679E+00
         21   -1    0    0  501  502  0.00000000000E+00  0.00000000000E+00  0.57361009527E+03  0.57361009527E+03  0.00000000000E+00 0.  1.
         21   -1    0    0  502  503 -0.00000000000E+00 -0.00000000000E+00 -0.81464882977E+02  0.81464882977E+02  0.00000000000E+00 0. -1.
          6    1    1    2  501    0 -0.74111904833E+02 -0.36806399754E+02  0.39983123544E+03  0.44305338543E+03  0.17200000000E+03 0.  1.
         -6    1    1    2    0  503  0.74111904833E+02  0.36806399754E+02  0.92313976851E+02  0.21202159282E+03  0.17200000000E+03 0. -1.
</event>
<event>
 4    1  0.1235203E+000  0.2008297E+03  0.7818608E-02  0.1149041E+00
         21   -1    0    0  501  502  0.00000000000E+00  0.00000000000E+00  0.42250066521E+03  0.42250066521E+03  0.00000000000E+00 0.  1.
         21   -1    0    0  502  503 -0.00000000000E+00 -0.00000000000E+00 -0.10261423397E+03  0.10261423397E+03  0.00000000000E+00 0.  1.
          6    1    1    2  501    0 -0.34104354797E+02  0.97905403601E+02  0.22926258110E+03  0.30478501631E+03  0.17200000000E+03 0.  1.
         -6    1    1    2    0  503  0.34104354797E+02 -0.97905403601E+02  0.90623850139E+02  0.22032988287E+03  0.17200000000E+03 0.  1.
</event>
<event>
 4    1  0.1235203E+000  0.1722755E+03  0.7818608E-02  0.1175495E+00
         21   -1    0    0  503  502  0.00000000000E+00  0.00000000000E+00  0.71851009324E+03  0.71851009324E+03  0.00000000000E+00 0.  1.
         21   -1    0    0  501  503 -0.00000000000E+00 -0.00000000000E+00 -0.67360371483E+02  0.67360371483E+02  0.00000000000E+00 0.  1.
          6    1    1    2  501    0  0.50835534805E+01  0.83079666232E+01  0.56995056549E+03  0.59541793047E+03  0.17200000000E+03 0.  1.
         -6    1    1    2    0  502 -0.50835534805E+01 -0.83079666232E+01  0.81199156273E+02  0.19045253426E+03  0.17200000000E+03 0.  1.
</event>
<event>
 4    1  0.1235203E+000  0.1831550E+03  0.7818608E-02  0.1164784E+00
         21   -1    0    0  501  502  0.00000000000E+00  0.00000000000E+00  0.22841288881E+02  0.22841288881E+02  0.00000000000E+00 0. -1.
         21   -1    0    0  502  503 -0.00000000000E+00 -0.00000000000E+00 -0.22162799451E+04  0.22162799451E+04  0.00000000000E+00 0. -1.
          6    1    1    2  501    0 -0.25542291310E+01  0.62890558433E+02 -0.44646975030E+03  0.48257743872E+03  0.17200000000E+03 0. -1.
         -6    1    1    2    0  503  0.25542291310E+01 -0.62890558433E+02 -0.17469689059E+04  0.17565437952E+04  0.17200000000E+03 0. -1.
</event>
<event>
 4    1  0.1235203E+000  0.1862895E+03  0.7818608E-02  0.1161851E+00
         21   -1    0    0  503  502  0.00000000000E+00  0.00000000000E+00  0.71328039001E+03  0.71328039001E+03  0.00000000000E+00 0. -1.
         21   -1    0    0  501  503 -0.00000000000E+00 -0.00000000000E+00 -0.64030426930E+02  0.64030426930E+02  0.00000000000E+00 0. -1.
          6    1    1    2  501    0 -0.17178523359E+02  0.69459780062E+02  0.13416540148E+03  0.22957377390E+03  0.17200000000E+03 0.  1.
         -6    1    1    2    0  502  0.17178523359E+02 -0.69459780062E+02  0.51508456160E+03  0.54773704303E+03  0.17200000000E+03 0.  1.
</event>
<event>
 4    1  0.1235203E+000  0.2037907E+03  0.7818608E-02  0.1146580E+00
         21   -1    0    0  501  502  0.00000000000E+00  0.00000000000E+00  0.13746476615E+03  0.13746476615E+03  0.00000000000E+00 0.  1.
         21   -1    0    0  502  503 -0.00000000000E+00 -0.00000000000E+00 -0.49832562026E+03  0.49832562026E+03  0.00000000000E+00 0.  1.
          6    1    1    2  501    0 -0.10499581016E+03 -0.30372843248E+02  0.19042926676E+02  0.20467843759E+03  0.17200000000E+03 0. -1.
         -6    1    1    2    0  503  0.10499581016E+03  0.30372843248E+02 -0.37990378079E+03  0.43111194882E+03  0.17200000000E+03 0. -1.
</event>
<event>
 4    1  0.1235203E+000  0.1985189E+03  0.7818608E-02  0.1150995E+00
         21   -1    0    0  503  502  0.00000000000E+00  0.00000000000E+00  0.16314962081E+03  0.16314962081E+03  0.00000000000E+00 0. -1.
         21   -1    0    0  501  503 -0.00000000000E+00 -0.00000000000E+00 -0.33643678010E+03  0.33643678010E+03  0.00000000000E+00 0. -1.
          6    1    1    2  501    0  0.39075254030E+02 -0.91098127838E+02 -0.21929697135E+03  0.29580552060E+03  0.17200000000E+03 0.  1.
         -6    1    1    2    0  502 -0.39075254030E+02  0.91098127838E+02  0.46009812069E+02  0.20378088031E+03  0.17200000000E+03 0.  1.
</event>
<event>
 4    1  0.1235203E+000  0.1776745E+03  0.7818608E-02  0.1170073E+00
         21   -1    0    0  503  502  0.00000000000E+00  0.00000000000E+00  0.95125476000E+02  0.95125476000E+02  0.00000000000E+00 0.  1.
         21   -1    0    0  501  503 -0.00000000000E+00 -0.00000000000E+00 -0.33539836422E+03  0.33539836422E+03  0.00000000000E+00 0.  1.
          6    1    1    2  501    0  0.44521813426E+02  0.14320165103E+01 -0.14224962266E+03  0.22760315835E+03  0.17200000000E+03 0. -1.
         -6    1    1    2    0  502 -0.44521813426E+02 -0.14320165103E+01 -0.98023265562E+02  0.20292068188E+03  0.17200000000E+03 0. -1.
</event>
<event>
 4    1  0.1235203E+000  0.2101433E+03  0.7818608E-02  0.1141453E+00
         21   -1    0    0  501  502  0.00000000000E+00  0.00000000000E+00  0.81551777398E+02  0.81551777398E+02  0.00000000000E+00 0.  1.
         21   -1    0    0  502  503 -0.00000000000E+00 -0.00000000000E+00 -0.54555210984E+03  0.54555210984E+03  0.00000000000E+00 0. -1.
          6    1    1    2  501    0 -0.92285729488E+02  0.77843175695E+02 -0.25902599499E+03  0.33354862007E+03  0.17200000000E+03 0.  1.
         -6    1    1    2    0  503  0.92285729488E+02 -0.77843175695E+02 -0.20497433746E+03  0.29355526717E+03  0.17200000000E+03 0. -1.
</event>
<event>
 4    1  0.1235203E+000  0.1783644E+03  0.7818608E-02  0.1169395E+00
         21   -1    0    0  503  502  0.00000000000E+00  0.00000000000E+00  0.13061928472E+04  0.13061928472E+04  0.00000000000E+00 0.  1.
         21   -1    0    0  501  503 -0.00000000000E+00 -0.00000000000E+00 -0.26102751407E+02  0.26102751407E+02  0.00000000000E+00 0.  1.
          6    1    1    2  501    0  0.51953258865E+01 -0.46934746637E+02  0.46773078698E+03  0.50058560801E+03  0.17200000000E+03 0. -1.
         -6    1    1    2    0  502 -0.51953258865E+01  0.46934746637E+02  0.81235930880E+03  0.83170999059E+03  0.17200000000E+03 0. -1.
</event>
<event>
 4    1  0.1235203E+000  0.1785559E+03  0.7818608E-02  0.1169208E+00
         21   -1    0    0  501  502  0.00000000000E+00  0.00000000000E+00  0.35231520793E+03  0.35231520793E+03  0.00000000000E+00 0. -1.
         21   -1    0    0  502  503 -0.00000000000E+00 -0.00000000000E+00 -0.90611564189E+02  0.90611564189E+02  0.00000000000E+00 0. -1.
          6    1    1    2  501    0 -0.30883215165E+02 -0.36666634813E+02  0.12285569337E+03  0.21673886703E+03  0.17200000000E+03 0. -1.
         -6    1    1    2    0  503  0.30883215165E+02  0.36666634813E+02  0.13884795038E+03  0.22618790510E+03  0.17200000000E+03 0. -1.
</event>
<event>
 4    1  0.1235203E+000  0.1831493E+03  0.7818608E-02  0.1164790E+00
         21   -1    0    0  503  502  0.00000000000E+00  0.00000000000E+00  0.12767791060E+03  0.12767791060E+03  0.00000000000E+00 0. -1.
         21   -1    0    0  501  503 -0.00000000000E+00 -0.00000000000E+00 -0.26472979236E+03  0.26472979236E+03  0.00000000000E+00 0.  1.
          6    1    1    2  501    0  0.51772386406E+02 -0.35766866645E+02 -0.51434044866E+02  0.19023435472E+03  0.17200000000E+03 0. -1.
         -6    1    1    2    0  502 -0.51772386406E+02  0.35766866645E+02 -0.85617836892E+02  0.20217334824E+03  0.17200000000E+03 0.  1.
</event>
<event>
 4    1  0.1235203E+000  0.2808816E+03  0.7818608E-02  0.1095208E+00
         21   -1    0    0  503  502  0.00000000000E+00  0.00000000000E+00  0.47368632224E+03  0.47368632224E+03  0.00000000000E+00 0.  1.
         21   -1    0    0  501  503 -0.00000000000E+00 -0.00000000000E+00 -0.28695155169E+03  0.28695155169E+03  0.00000000000E+00 0.  1.
          6    1    1    2  501    0  0.20258804179E+03  0.90931725359E+02 -0.15298226506E+03  0.31984068968E+03  0.17200000000E+03 0.  1.
         -6    1    1    2    0  502 -0.20258804179E+03 -0.90931725359E+02  0.33971703562E+03  0.44079718425E+03  0.17200000000E+03 0.  1.
</event>
<event>
 4    1  0.1235203E+000  0.1800703E+03  0.7818608E-02  0.1167735E+00
         21   -1    0    0  503  502  0.00000000000E+00  0.00000000000E+00  0.11384889248E+03  0.11384889248E+03  0.00000000000E+00 0.  1.
         21   -1    0    0  501  503 -0.00000000000E+00 -0.00000000000E+00 -0.55696626434E+03  0.55696626434E+03  0.00000000000E+00 0.  1.
          6    1    1    2  501    0  0.17887167027E+02  0.50213067261E+02 -0.45601805651E+03  0.49028335760E+03  0.17200000000E+03 0.  1.
         -6    1    1    2    0  502 -0.17887167027E+02 -0.50213067261E+02  0.12900684659E+02  0.18053179923E+03  0.17200000000E+03 0.  1.
</event>
<event>
 4    1  0.1235203E+000  0.2024184E+03  0.7818608E-02  0.1147714E+00
         21   -1    0    0  503  502  0.00000000000E+00  0.00000000000E+00  0.14172464397E+03  0.14172464397E+03  0.00000000000E+00 0.  1.
         21   -1    0    0  501  503 -0.00000000000E+00 -0.00000000000E+00 -0.42190640712E+03  0.42190640712E+03  0.00000000000E+00 0.  1.
          6    1    1    2  501    0 -0.10140888420E+03 -0.33248325228E+02 -0.29820084373E+03  0.36041220308E+03  0.17200000000E+03 0.  1.
         -6    1    1    2    0  502  0.10140888420E+03  0.33248325228E+02  0.18019080576E+02  0.20321884802E+03  0.17200000000E+03 0.  1.
</event>
<event>
 4    1  0.1235203E+000  0.2749697E+03  0.7818608E-02  0.1098469E+00
         21   -1    0    0  503  502  0.00000000000E+00  0.00000000000E+00  0.75606262073E+03  0.75606262073E+03  0.00000000000E+00 0.  1.
         21   -1    0    0  501  503 -0.00000000000E+00 -0.00000000000E+00 -0.10163807209E+03  0.10163807209E+03  0.00000000000E+00 0.  1.
          6    1    1    2  501    0 -0.99406309420E+02 -0.19011241157E+03  0.27281478798E+03  0.38734513283E+03  0.17200000000E+03 0.  1.
         -6    1    1    2    0  502  0.99406309420E+02  0.19011241157E+03  0.38160976066E+03  0.47035555999E+03  0.17200000000E+03 0.  1.
</event>
<event>
 4    1  0.1235203E+000  0.1869903E+03  0.7818608E-02  0.1161204E+00
         21   -1    0    0  501  502  0.00000000000E+00  0.00000000000E+00  0.44356922413E+02  0.44356922413E+02  0.00000000000E+00 0. -1.
         21   -1    0    0  502  503 -0.00000000000E+00 -0.00000000000E+00 -0.13417502993E+04  0.13417502993E+04  0.00000000000E+00 0. -1.
          6    1    1    2  501    0 -0.12463448632E+02 -0.72291258170E+02 -0.20357280912E+03  0.27641861763E+03  0.17200000000E+03 0. -1.
         -6    1    1    2    0  503  0.12463448632E+02  0.72291258170E+02 -0.10938205677E+04  0.11096886041E+04  0.17200000000E+03 0. -1.
</event>
<event>
 4    1  0.1235203E+000  0.2134264E+03  0.7818608E-02  0.1138881E+00
         21   -1    0    0  501  502  0.00000000000E+00  0.00000000000E+00  0.14954309516E+03  0.14954309516E+03  0.00000000000E+00 0. -1.
         21   -1    0    0  502  503 -0.00000000000E+00 -0.00000000000E+00 -0.44504598008E+03  0.44504598008E+03  0.00000000000E+00 0. -1.
          6    1    1    2  501    0 -0.12635582641E+03 -0.10220844722E+01  0.19257225933E+02  0.21429344431E+03  0.17200000000E+03 0. -1.
         -6    1    1    2    0  503  0.12635582641E+03  0.10220844722E+01 -0.31476011085E+03  0.38029563093E+03  0.17200000000E+03 0. -1.
</event>
<event>
 4    1  0.1235203E+000  0.2074707E+03  0.7818608E-02  0.1143585E+00
         21   -1    0    0  503  502  0.00000000000E+00  0.00000000000E+00  0.46627947786E+03  0.46627947786E+03  0.00000000000E+00 0. -1.
         21   -1    0    0  501  503 -0.00000000000E+00 -0.00000000000E+00 -0.17334087914E+03  0.17334087914E+03  0.00000000000E+00 0. -1.
          6    1    1    2  501    0 -0.92739270552E+02  0.69710352265E+02 -0.72184206366E+02  0.21966944522E+03  0.17200000000E+03 0. -1.
         -6    1    1    2    0  502  0.92739270552E+02 -0.69710352265E+02  0.36512280508E+03  0.41995091178E+03  0.17200000000E+03 0. -1.
</event>
<event>
 4    1  0.1235203E+000  0.2083631E+03  0.7818608E-02  0.1142869E+00
         21   -1    0    0  501  502  0.00000000000E+00  0.00000000000E+00  0.15077441369E+03  0.15077441369E+03  0.00000000000E+00 0. -1.
         21   -1    0    0  502  503 -0.00000000000E+00 -0.00000000000E+00 -0.34344782037E+03  0.34344782037E+03  0.00000000000E+00 0. -1.
          6    1    1    2  501    0 -0.10175102278E+03  0.58973693363E+02  0.29996713088E+01  0.20838465676E+03  0.17200000000E+03 0. -1.
         -6    1    1    2    0  503  0.10175102278E+03 -0.58973693363E+02 -0.19567307799E+03  0.28583757730E+03  0.17200000000E+03 0. -1.
</event>
<event>
 4    1  0.1235203E+000  0.2557759E+03  0.7818608E-02  0.1109708E+00
         21   -1    0    0  503  502  0.00000000000E+00  0.00000000000E+00  0.76251274314E+03  0.76251274314E+03  0.00000000000E+00 0.  1.
         21   -1    0    0  501  503 -0.00000000000E+00 -0.00000000000E+00 -0.10546441197E+03  0.10546441197E+03  0.00000000000E+00 0. -1.
          6    1    1    2  501    0 -0.42319491485E+01 -0.18926012401E+03  0.14111148769E+03  0.29211942060E+03  0.17200000000E+03 0. -1.
         -6    1    1    2    0  502  0.42319491485E+01  0.18926012401E+03  0.51593684348E+03  0.57585773451E+03  0.17200000000E+03 0.  1.
</event>
<event>
 4    1  0.1235203E+000  0.2482585E+03  0.7818608E-02  0.1114410E+00
         21   -1    0    0  501  502  0.00000000000E+00  0.00000000000E+00  0.64640853357E+03  0.64640853357E+03  0.00000000000E+00 0. -1.
         21   -1    0    0  502  503 -0.00000000000E+00 -0.00000000000E+00 -0.27020508969E+03  0.27020508969E+03  0.00000000000E+00 0.  1.
          6    1    1    2  501    0 -0.11365047089E+03  0.13831794134E+03  0.55678548581E+03  0.60962476955E+03  0.17200000000E+03 0. -1.
         -6    1    1    2    0  503  0.11365047089E+03 -0.13831794134E+03 -0.18058204194E+03  0.30698885371E+03  0.17200000000E+03 0.  1.
</event>
<event>
 4    1  0.1235203E+000  0.1746976E+03  0.7818608E-02  0.1173036E+00
         21   -1    0    0  501  502  0.00000000000E+00  0.00000000000E+00  0.28953971132E+03  0.28953971132E+03  0.00000000000E+00 0.  1.
         21   -1    0    0  502  503 -0.00000000000E+00 -0.00000000000E+00 -0.12218765153E+03  0.12218765153E+03  0.00000000000E+00 0.  1.
          6    1    1    2  501    0 -0.30067888735E+02 -0.55821494757E+01  0.15996868550E+03  0.23687384547E+03  0.17200000000E+03 0.  1.
         -6    1    1    2    0  503  0.30067888735E+02  0.55821494757E+01  0.73833742931E+01  0.17485351738E+03  0.17200000000E+03 0.  1.
</event>
<event>
 4    1  0.1235203E+000  0.1877685E+03  0.7818608E-02  0.1160490E+00
         21   -1    0    0  501  502  0.00000000000E+00  0.00000000000E+00  0.35274899963E+02  0.35274899963E+02  0.00000000000E+00 0.  1.
         21   -1    0    0  502  503 -0.00000000000E+00 -0.00000000000E+00 -0.16081498072E+04  0.16081498072E+04  0.00000000000E+00 0.  1.
          6    1    1    2  501    0  0.34406024524E+01 -0.75240635223E+02 -0.28091196713E+03  0.33788833098E+03  0.17200000000E+03 0.  1.
         -6    1    1    2    0  503 -0.34406024524E+01  0.75240635223E+02 -0.12919629401E+04  0.13055363762E+04  0.17200000000E+03 0.  1.
</event>
<event>
 4    1  0.1235203E+000  0.2465594E+03  0.7818608E-02  0.1115499E+00
         21   -1    0    0  503  502  0.00000000000E+00  0.00000000000E+00  0.55352345068E+02  0.55352345068E+02  0.00000000000E+00 0.  1.
         21   -1    0    0  501  503 -0.00000000000E+00 -0.00000000000E+00 -0.12533832975E+04  0.12533832975E+04  0.00000000000E+00 0.  1.
          6    1    1    2  501    0  0.59388952843E+02 -0.16637457807E+03 -0.36881226408E+03  0.44363727761E+03  0.17200000000E+03 0. -1.
         -6    1    1    2    0  502 -0.59388952843E+02  0.16637457807E+03 -0.82921868834E+03  0.86509836495E+03  0.17200000000E+03 0. -1.
</event>
<event>
 4    1  0.1235203E+000  0.2324626E+03  0.7818608E-02  0.1124918E+00
         21   -1    0    0  503  502  0.00000000000E+00  0.00000000000E+00  0.10422846506E+04  0.10422846506E+04  0.00000000000E+00 0.  1.
         21   -1    0    0  501  503 -0.00000000000E+00 -0.00000000000E+00 -0.93957593833E+02  0.93957593833E+02  0.00000000000E+00 0. -1.
          6    1    1    2  501    0  0.14201391754E+03  0.65474647787E+02  0.93822740093E+02  0.25068224675E+03  0.17200000000E+03 0. -1.
         -6    1    1    2    0  502 -0.14201391754E+03 -0.65474647787E+02  0.85450431669E+03  0.88555999770E+03  0.17200000000E+03 0.  1.
</event>
<event>
 4    1  0.1235203E+000  0.1909045E+03  0.7818608E-02  0.1157648E+00
         21   -1    0    0  503  502  0.00000000000E+00  0.00000000000E+00  0.27665502397E+04  0.27665502397E+04  0.00000000000E+00 0.  1.
         21   -1    0    0  501  503 -0.00000000000E+00 -0.00000000000E+00 -0.17201272102E+02  0.17201272102E+02  0.00000000000E+00 0.  1.
          6    1    1    2  501    0  0.60524858425E+02  0.56544294846E+02  0.70113201725E+03  0.72665715532E+03  0.17200000000E+03 0. -1.
         -6    1    1    2    0  502 -0.60524858425E+02 -0.56544294846E+02  0.20482169504E+04  0.20570943565E+04  0.17200000000E+03 0. -1.
</event>
<event>
 4    1  0.1235203E+000  0.1929322E+03  0.7818608E-02  0.1155843E+00
         21   -1    0    0  503  502  0.00000000000E+00  0.00000000000E+00  0.59991729210E+03  0.59991729210E+03  0.00000000000E+00 0. -1.
         21   -1    0    0  501  503 -0.00000000000E+00 -0.00000000000E+00 -0.62052817388E+02  0.62052817388E+02  0.00000000000E+00 0. -1.
          6    1    1    2  501    0 -0.75031774901E+02 -0.44822520683E+02  0.26561798250E+03  0.32829215378E+03  0.17200000000E+03 0. -1.
         -6    1    1    2    0  502  0.75031774901E+02  0.44822520683E+02  0.27224649222E+03  0.33367795571E+03  0.17200000000E+03 0. -1.
</event>
<event>
 4    1  0.1235203E+000  0.2101532E+03  0.7818608E-02  0.1141445E+00
         21   -1    0    0  501  502  0.00000000000E+00  0.00000000000E+00  0.13395744823E+04  0.13395744823E+04  0.00000000000E+00 0. -1.
         21   -1    0    0  502  503 -0.00000000000E+00 -0.00000000000E+00 -0.34969622711E+02  0.34969622711E+02  0.00000000000E+00 0.  1.
          6    1    1    2  501    0  0.98563943160E+02 -0.69753213426E+02  0.81669093015E+03  0.84329617398E+03  0.17200000000E+03 0. -1.
         -6    1    1    2    0  503 -0.98563943160E+02  0.69753213426E+02  0.48791392943E+03  0.53124793102E+03  0.17200000000E+03 0.  1.
</event>
<event>
 4    1  0.1235203E+000  0.2093072E+03  0.7818608E-02  0.1142116E+00
         21   -1    0    0  503  502  0.00000000000E+00  0.00000000000E+00  0.36679867250E+03  0.36679867250E+03  0.00000000000E+00 0.  1.
         21   -1    0    0  501  503 -0.00000000000E+00 -0.00000000000E+00 -0.21004982963E+03  0.21004982963E+03  0.00000000000E+00 0.  1.
          6    1    1    2  501    0 -0.92457896766E+01 -0.11891184730E+03 -0.11106235006E+03  0.23694800623E+03  0.17200000000E+03 0. -1.
         -6    1    1    2    0  502  0.92457896766E+01  0.11891184730E+03  0.26781119293E+03  0.33990049590E+03  0.17200000000E+03 0. -1.
</event>
<event>
 4    1  0.1235203E+000  0.1935610E+03  0.7818608E-02  0.1155288E+00
         21   -1    0    0  501  502  0.00000000000E+00  0.00000000000E+00  0.14609458634E+04  0.14609458634E+04  0.00000000000E+00 0. -1.
         21   -1    0    0  502  503 -0.00000000000E+00 -0.00000000000E+00 -0.53289623539E+02  0.53289623539E+02  0.00000000000E+00 0. -1.
          6    1    1    2  501    0  0.81547319736E+02  0.35098265821E+02  0.12491438084E+04  0.12640514656E+04  0.17200000000E+03 0. -1.
         -6    1    1    2    0  503 -0.81547319736E+02 -0.35098265821E+02  0.15851243154E+03  0.25018402141E+03  0.17200000000E+03 0. -1.
</event>
<event>
 4    1  0.1235203E+000  0.2200085E+03  0.7818608E-02  0.1133877E+00
         21   -1    0    0  503  502  0.00000000000E+00  0.00000000000E+00  0.59822161863E+02  0.59822161863E+02  0.00000000000E+00 0.  1.
         21   -1    0    0  501  503 -0.00000000000E+00 -0.00000000000E+00 -0.83937483004E+03  0.83937483004E+03  0.00000000000E+00 0. -1.
          6    1    1    2  501    0 -0.13463767114E+03  0.26314595603E+02 -0.47512365682E+03  0.52358977234E+03  0.17200000000E+03 0. -1.
         -6    1    1    2    0  502  0.13463767114E+03 -0.26314595603E+02 -0.30442901135E+03  0.37560721956E+03  0.17200000000E+03 0. -1.
</event>
<event>
 4    1  0.1235203E+000  0.1732916E+03  0.7818608E-02  0.1174458E+00
         21   -1    0    0  501  502  0.00000000000E+00  0.00000000000E+00  0.17796582663E+03  0.17796582663E+03  0.00000000000E+00 0. -1.
         21   -1    0    0  502  503 -0.00000000000E+00 -0.00000000000E+00 -0.20781430358E+03  0.20781430358E+03  0.00000000000E+00 0. -1.
          6    1    1    2  501    0 -0.19022207091E+02 -0.91715875663E+01  0.68716429034E+02  0.18641864177E+03  0.17200000000E+03 0. -1.
         -6    1    1    2    0  503  0.19022207091E+02  0.91715875663E+01 -0.98564905982E+02  0.19936148844E+03  0.17200000000E+03 0. -1.
</event>
<event>
 4    1  0.1235203E+000  0.1734129E+03  0.7818608E-02  0.1174335E+00
         21   -1    0    0  503  502  0.00000000000E+00  0.00000000000E+00  0.21478032378E+03  0.21478032378E+03  0.00000000000E+00 0. -1.
         21   -1    0    0  501  503 -0.00000000000E+00 -0.00000000000E+00 -0.19445237247E+03  0.19445237247E+03  0.00000000000E+00 0. -1.
          6    1    1    2  501    0  0.19938353933E+02 -0.95126709476E+01 -0.98101607947E+02  0.19923843592E+03  0.17200000000E+03 0. -1.
         -6    1    1    2    0  502 -0.19938353933E+02  0.95126709476E+01  0.11842955926E+03  0.20999426033E+03  0.17200000000E+03 0. -1.
</event>
<event>
 4    1  0.1235203E+000  0.2208015E+03  0.7818608E-02  0.1133287E+00
         21   -1    0    0  503  502  0.00000000000E+00  0.00000000000E+00  0.47613557644E+03  0.47613557644E+03  0.00000000000E+00 0. -1.
         21   -1    0    0  501  503 -0.00000000000E+00 -0.00000000000E+00 -0.11411387702E+03  0.11411387702E+03  0.00000000000E+00 0. -1.
          6    1    1    2  501    0  0.10721308825E+03  0.87605171543E+02  0.86430193121E+02  0.23711493132E+03  0.17200000000E+03 0. -1.
         -6    1    1    2    0  502 -0.10721308825E+03 -0.87605171543E+02  0.27559150631E+03  0.35313452213E+03  0.17200000000E+03 0. -1.
</event>
<event>
 4    1  0.1235203E+000  0.2726908E+03  0.7818608E-02  0.1099749E+00
         21   -1    0    0  501  502  0.00000000000E+00  0.00000000000E+00  0.61475219526E+03  0.61475219526E+03  0.00000000000E+00 0. -1.
         21   -1    0    0  502  503 -0.00000000000E+00 -0.00000000000E+00 -0.24920262694E+03  0.24920262694E+03  0.00000000000E+00 0.  1.
          6    1    1    2  501    0  0.21112545656E+03 -0.14224019016E+02  0.49266033728E+03  0.56309367697E+03  0.17200000000E+03 0. -1.
         -6    1    1    2    0  503 -0.21112545656E+03  0.14224019016E+02 -0.12711076895E+03  0.30086114523E+03  0.17200000000E+03 0.  1.
</event>
<event>
 4    1  0.1235203E+000  0.3546437E+03  0.7818608E-02  0.1060725E+00
         21   -1    0    0  503  502  0.00000000000E+00  0.00000000000E+00  0.27828627776E+03  0.27828627776E+03  0.00000000000E+00 0. -1.
         21   -1    0    0  501  503 -0.00000000000E+00 -0.00000000000E+00 -0.72739580276E+03  0.72739580276E+03  0.00000000000E+00 0.  1.
          6    1    1    2  501    0 -0.25099822749E+03  0.18217580726E+03 -0.53398414742E+03  0.64102356014E+03  0.17200000000E+03 0.  1.
         -6    1    1    2    0  502  0.25099822749E+03 -0.18217580726E+03  0.84874622427E+02  0.36465852038E+03  0.17200000000E+03 0. -1.
</event>
<event>
 4    1  0.1235203E+000  0.1841611E+03  0.7818608E-02  0.1163836E+00
         21   -1    0    0  503  502  0.00000000000E+00  0.00000000000E+00  0.81062150807E+02  0.81062150807E+02  0.00000000000E+00 0.  1.
         21   -1    0    0  501  503 -0.00000000000E+00 -0.00000000000E+00 -0.46687379490E+03  0.46687379490E+03  0.00000000000E+00 0.  1.
          6    1    1    2  501    0 -0.35604472735E+02  0.55350212304E+02 -0.28119616435E+03  0.33613480529E+03  0.17200000000E+03 0.  1.
         -6    1    1    2    0  502  0.35604472735E+02 -0.55350212304E+02 -0.10461547974E+03  0.21180114042E+03  0.17200000000E+03 0.  1.
</event>
<event>
 4    1  0.1235203E+000  0.1893489E+03  0.7818608E-02  0.1159050E+00
         21   -1    0    0  503  502  0.00000000000E+00  0.00000000000E+00  0.22210694971E+03  0.22210694971E+03  0.00000000000E+00 0. -1.
         21   -1    0    0  501  503 -0.00000000000E+00 -0.00000000000E+00 -0.18322878682E+03  0.18322878682E+03  0.00000000000E+00 0. -1.
          6    1    1    2  501    0  0.57310038227E+02 -0.54631341806E+02 -0.50477547453E+02  0.19596174827E+03  0.17200000000E+03 0. -1.
         -6    1    1    2    0  502 -0.57310038227E+02  0.54631341806E+02  0.89355710342E+02  0.20937398826E+03  0.17200000000E+03 0. -1.
</event>
<event>
 4    1  0.1235203E+000  0.2091639E+03  0.7818608E-02  0.1142230E+00
         21   -1    0    0  503  502  0.00000000000E+00  0.00000000000E+00  0.16288006482E+03  0.16288006482E+03  0.00000000000E+00 0. -1.
         21   -1    0    0  501  503 -0.00000000000E+00 -0.00000000000E+00 -0.26924252362E+03  0.26924252362E+03  0.00000000000E+00 0. -1.
          6    1    1    2  501    0 -0.11507044015E+03  0.30402794929E+02 -0.63738506212E+02  0.21865985757E+03  0.17200000000E+03 0.  1.
         -6    1    1    2    0  502  0.11507044015E+03 -0.30402794929E+02 -0.42623952596E+02  0.21346273087E+03  0.17200000000E+03 0.  1.
</event>
<event>
 4    1  0.1235203E+000  0.2618126E+03  0.7818608E-02  0.1106059E+00
         21   -1    0    0  501  502  0.00000000000E+00  0.00000000000E+00  0.63011040900E+03  0.63011040900E+03  0.00000000000E+00 0. -1.
         21   -1    0    0  502  503 -0.00000000000E+00 -0.00000000000E+00 -0.15150210970E+03  0.15150210970E+03  0.00000000000E+00 0.  1.
          6    1    1    2  501    0 -0.15658909689E+03  0.12017364941E+03  0.44682360793E+03  0.51787758002E+03  0.17200000000E+03 0. -1.
         -6    1    1    2    0  503  0.15658909689E+03 -0.12017364941E+03  0.31784691367E+02  0.26373493868E+03  0.17200000000E+03 0.  1.
</event>
<event>
 4    1  0.1235203E+000  0.2445014E+03  0.7818608E-02  0.1116830E+00
         21   -1    0    0  501  502  0.00000000000E+00  0.00000000000E+00  0.35845553323E+03  0.35845553323E+03  0.00000000000E+00 0. -1.
         21   -1    0    0  502  503 -0.00000000000E+00 -0.00000000000E+00 -0.23491718026E+03  0.23491718026E+03  0.00000000000E+00 0.  1.
          6    1    1    2  501    0 -0.15162937991E+03  0.84885125798E+02  0.22156019315E+03  0.32995434931E+03  0.17200000000E+03 0. -1.
         -6    1    1    2    0  503  0.15162937991E+03 -0.84885125798E+02 -0.98021840183E+02  0.26341836418E+03  0.17200000000E+03 0.  1.
</event>
<event>
 4    1  0.1235203E+000  0.3279680E+03  0.7818608E-02  0.1072040E+00
         21   -1    0    0  503  502  0.00000000000E+00  0.00000000000E+00  0.22608081942E+03  0.22608081942E+03  0.00000000000E+00 0.  1.
         21   -1    0    0  501  503 -0.00000000000E+00 -0.00000000000E+00 -0.83068993717E+03  0.83068993717E+03  0.00000000000E+00 0.  1.
          6    1    1    2  501    0 -0.27780501687E+03  0.28344169589E+02 -0.64768284624E+03  0.72598628683E+03  0.17200000000E+03 0.  1.
         -6    1    1    2    0  502  0.27780501687E+03 -0.28344169589E+02  0.43073728499E+02  0.33078446976E+03  0.17200000000E+03 0.  1.
</event>
<event>
 4    1  0.1235203E+000  0.2500914E+03  0.7818608E-02  0.1113247E+00
         21   -1    0    0  501  502  0.00000000000E+00  0.00000000000E+00  0.31484262085E+03  0.31484262085E+03  0.00000000000E+00 0.  1.
         21   -1    0    0  502  503 -0.00000000000E+00 -0.00000000000E+00 -0.33944427265E+03  0.33944427265E+03  0.00000000000E+00 0.  1.
          6    1    1    2  501    0  0.17435195965E+03 -0.50626989752E+02  0.19838515770E+03  0.31922150416E+03  0.17200000000E+03 0.  1.
         -6    1    1    2    0  503 -0.17435195965E+03  0.50626989752E+02 -0.22298680949E+03  0.33506538934E+03  0.17200000000E+03 0.  1.
</event>
<event>
 4    1  0.1235203E+000  0.2578014E+03  0.7818608E-02  0.1108471E+00
         21   -1    0    0  501  502  0.00000000000E+00  0.00000000000E+00  0.91880394210E+02  0.91880394210E+02  0.00000000000E+00 0.  1.
         21   -1    0    0  502  503 -0.00000000000E+00 -0.00000000000E+00 -0.90641268247E+03  0.90641268247E+03  0.00000000000E+00 0.  1.
          6    1    1    2  501    0 -0.54215060290E+02 -0.18422345564E+03 -0.18294683933E+03  0.31611880740E+03  0.17200000000E+03 0. -1.
         -6    1    1    2    0  503  0.54215060290E+02  0.18422345564E+03 -0.63158544892E+03  0.68217426928E+03  0.17200000000E+03 0. -1.
</event>
<event>
 4    1  0.1235203E+000  0.1831868E+03  0.7818608E-02  0.1164754E+00
         21   -1    0    0  503  502  0.00000000000E+00  0.00000000000E+00  0.13716930217E+02  0.13716930217E+02  0.00000000000E+00 0. -1.
         21   -1    0    0  501  503 -0.00000000000E+00 -0.00000000000E+00 -0.28399124289E+04  0.28399124289E+04  0.00000000000E+00 0. -1.
          6    1    1    2  501    0 -0.33340899040E+02 -0.53495656735E+02 -0.19442048915E+04  0.19528159312E+04  0.17200000000E+03 0.  1.
         -6    1    1    2    0  502  0.33340899040E+02  0.53495656735E+02 -0.88199060717E+03  0.90081342795E+03  0.17200000000E+03 0.  1.
</event>
<event>
 4    1  0.1235203E+000  0.2334693E+03  0.7818608E-02  0.1124221E+00
         21   -1    0    0  503  502  0.00000000000E+00  0.00000000000E+00  0.76826872314E+02  0.76826872314E+02  0.00000000000E+00 0. -1.
         21   -1    0    0  501  503 -0.00000000000E+00 -0.00000000000E+00 -0.70990578323E+03  0.70990578323E+03  0.00000000000E+00 0. -1.
          6    1    1    2  501    0  0.14549837504E+03  0.61271127981E+02 -0.32605474544E+03  0.40102322288E+03  0.17200000000E+03 0.  1.
         -6    1    1    2    0  502 -0.14549837504E+03 -0.61271127981E+02 -0.30702416548E+03  0.38570943267E+03  0.17200000000E+03 0.  1.
</event>
<event>
 4    1  0.1235203E+000  0.2338781E+03  0.7818608E-02  0.1123940E+00
         21   -1    0    0  503  502  0.00000000000E+00  0.00000000000E+00  0.72803450581E+03  0.72803450581E+03  0.00000000000E+00 0.  1.
         21   -1    0    0  501  503 -0.00000000000E+00 -0.00000000000E+00 -0.12890186120E+03  0.12890186120E+03  0.00000000000E+00 0.  1.
          6    1    1    2  501    0 -0.10559227412E+03 -0.11817461349E+03  0.22835907831E+02  0.23499031110E+03  0.17200000000E+03 0. -1.
         -6    1    1    2    0  502  0.10559227412E+03  0.11817461349E+03  0.57629673678E+03  0.62194605590E+03  0.17200000000E+03 0. -1.
</event>
<event>
 4    1  0.1235203E+000  0.1963578E+03  0.7818608E-02  0.1152849E+00
         21   -1    0    0  501  502  0.00000000000E+00  0.00000000000E+00  0.12031172695E+03  0.12031172695E+03  0.00000000000E+00 0. -1.
         21   -1    0    0  502  503 -0.00000000000E+00 -0.00000000000E+00 -0.44134233423E+03  0.44134233423E+03  0.00000000000E+00 0.  1.
          6    1    1    2  501    0 -0.82690423750E+02  0.46202694890E+02 -0.13550569207E+02  0.19682482852E+03  0.17200000000E+03 0. -1.
         -6    1    1    2    0  503  0.82690423750E+02 -0.46202694890E+02 -0.30748003807E+03  0.36482923266E+03  0.17200000000E+03 0.  1.
</event>
<event>
 4    1  0.1235203E+000  0.2078179E+03  0.7818608E-02  0.1143306E+00
         21   -1    0    0  501  502  0.00000000000E+00  0.00000000000E+00  0.42137784567E+03  0.42137784567E+03  0.00000000000E+00 0. -1.
         21   -1    0    0  502  503 -0.00000000000E+00 -0.00000000000E+00 -0.17698300501E+03  0.17698300501E+03  0.00000000000E+00 0. -1.
          6    1    1    2  501    0 -0.10449638846E+03 -0.51814902929E+02  0.31629333560E+03  0.37845706958E+03  0.17200000000E+03 0. -1.
         -6    1    1    2    0  503  0.10449638846E+03  0.51814902929E+02 -0.71898494938E+02  0.21990378110E+03  0.17200000000E+03 0. -1.
</event>
<event>
 4    1  0.1235203E+000  0.2022550E+03  0.7818608E-02  0.1147850E+00
         21   -1    0    0  503  502  0.00000000000E+00  0.00000000000E+00  0.67262646134E+02  0.67262646134E+02  0.00000000000E+00 0. -1.
         21   -1    0    0  501  503 -0.00000000000E+00 -0.00000000000E+00 -0.84426941254E+03  0.84426941254E+03  0.00000000000E+00 0. -1.
          6    1    1    2  501    0  0.84265051746E+02  0.64980791070E+02 -0.62952121169E+03  0.66121407889E+03  0.17200000000E+03 0. -1.
         -6    1    1    2    0  502 -0.84265051746E+02 -0.64980791070E+02 -0.14748555472E+03  0.25031797978E+03  0.17200000000E+03 0. -1.
</event>
<event>
 4    1  0.1235203E+000  0.2335857E+03  0.7818608E-02  0.1124141E+00
         21   -1    0    0  503  502  0.00000000000E+00  0.00000000000E+00  0.68146359239E+03  0.68146359239E+03  0.00000000000E+00 0. -1.
         21   -1    0    0  501  503 -0.00000000000E+00 -0.00000000000E+00 -0.81884414101E+02  0.81884414101E+02  0.00000000000E+00 0. -1.
          6    1    1    2  501    0 -0.14742550509E+03 -0.56956214630E+02  0.24291755592E+03  0.33700330697E+03  0.17200000000E+03 0.  1.
         -6    1    1    2    0  502  0.14742550509E+03  0.56956214630E+02  0.35666162236E+03  0.42634469951E+03  0.17200000000E+03 0.  1.
</event>
<event>
 4    1  0.1235203E+000  0.2957591E+03  0.7818608E-02  0.1087380E+00
         21   -1    0    0  503  502  0.00000000000E+00  0.00000000000E+00  0.51762347325E+03  0.51762347325E+03  0.00000000000E+00 0. -1.
         21   -1    0    0  501  503 -0.00000000000E+00 -0.00000000000E+00 -0.19570597154E+03  0.19570597154E+03  0.00000000000E+00 0.  1.
          6    1    1    2  501    0 -0.24059710193E+03 -0.15836428323E+01  0.29181887861E+02  0.29719531618E+03  0.17200000000E+03 0. -1.
         -6    1    1    2    0  502  0.24059710193E+03  0.15836428323E+01  0.29273561384E+03  0.41613412861E+03  0.17200000000E+03 0. -1.
</event>
<event>
 4    1  0.1235203E+000  0.2016833E+03  0.7818608E-02  0.1148327E+00
         21   -1    0    0  501  502  0.00000000000E+00  0.00000000000E+00  0.39822571344E+02  0.39822571344E+02  0.00000000000E+00 0.  1.
         21   -1    0    0  502  503 -0.00000000000E+00 -0.00000000000E+00 -0.23870823985E+04  0.23870823985E+04  0.00000000000E+00 0.  1.
          6    1    1    2  501    0  0.82694415380E+02 -0.65221028674E+02 -0.25580796766E+03  0.32575123213E+03  0.17200000000E+03 0.  1.
         -6    1    1    2    0  503 -0.82694415380E+02  0.65221028674E+02 -0.20914518595E+04  0.21011537377E+04  0.17200000000E+03 0.  1.
</event>
<event>
 4    1  0.1235203E+000  0.1831008E+03  0.7818608E-02  0.1164835E+00
         21   -1    0    0  503  502  0.00000000000E+00  0.00000000000E+00  0.50326707343E+02  0.50326707343E+02  0.00000000000E+00 0.  1.
         21   -1    0    0  501  503 -0.00000000000E+00 -0.00000000000E+00 -0.73609208638E+03  0.73609208638E+03  0.00000000000E+00 0.  1.
          6    1    1    2  501    0 -0.70451055620E+01 -0.62388150210E+02 -0.46407611520E+03  0.49889132634E+03  0.17200000000E+03 0. -1.
         -6    1    1    2    0  502  0.70451055620E+01  0.62388150210E+02 -0.22168926384E+03  0.28752746739E+03  0.17200000000E+03 0. -1.
</event>
<event>
 4    1  0.1235203E+000  0.1903693E+03  0.7818608E-02  0.1158129E+00
         21   -1    0    0  503  502  0.00000000000E+00  0.00000000000E+00  0.23434236079E+03  0.23434236079E+03  0.00000000000E+00 0.  1.
         21   -1    0    0  501  503 -0.00000000000E+00 -0.00000000000E+00 -0.23308006279E+03  0.23308006279E+03  0.00000000000E+00 0.  1.
          6    1    1    2  501    0  0.77383223683E+02 -0.25851316330E+02 -0.13494249280E+03  0.23334508828E+03  0.17200000000E+03 0.  1.
         -6    1    1    2    0  502 -0.77383223683E+02  0.25851316330E+02  0.13620479080E+03  0.23407733530E+03  0.17200000000E+03 0.  1.
</event>
<event>
 4    1  0.1235203E+000  0.1807780E+03  0.7818608E-02  0.1167052E+00
         21   -1    0    0  501  502  0.00000000000E+00  0.00000000000E+00  0.19089797361E+03  0.19089797361E+03  0.00000000000E+00 0. -1.
         21   -1    0    0  502  503 -0.00000000000E+00 -0.00000000000E+00 -0.27626079001E+03  0.27626079001E+03  0.00000000000E+00 0. -1.
          6    1    1    2  501    0 -0.26586792665E+02  0.48885973695E+02  0.10136632876E+03  0.20725787940E+03  0.17200000000E+03 0. -1.
         -6    1    1    2    0  503  0.26586792665E+02 -0.48885973695E+02 -0.18672914515E+03  0.25990088422E+03  0.17200000000E+03 0. -1.
</event>
<event>
 4    1  0.1235203E+000  0.1870917E+03  0.7818608E-02  0.1161111E+00
         21   -1    0    0  501  502  0.00000000000E+00  0.00000000000E+00  0.65065485175E+02  0.65065485175E+02  0.00000000000E+00 0.  1.
         21   -1    0    0  502  503 -0.00000000000E+00 -0.00000000000E+00 -0.54507669957E+03  0.54507669957E+03  0.00000000000E+00 0.  1.
          6    1    1    2  501    0  0.25520946263E+02 -0.69050470803E+02 -0.27483956855E+03  0.33247567528E+03  0.17200000000E+03 0.  1.
         -6    1    1    2    0  503 -0.25520946263E+02  0.69050470803E+02 -0.20517164585E+03  0.27766650946E+03  0.17200000000E+03 0.  1.
</event>
<event>
 4    1  0.1235203E+000  0.2040079E+03  0.7818608E-02  0.1146401E+00
         21   -1    0    0  501  502  0.00000000000E+00  0.00000000000E+00  0.64868694726E+02  0.64868694726E+02  0.00000000000E+00 0.  1.
         21   -1    0    0  502  503 -0.00000000000E+00 -0.00000000000E+00 -0.90280758452E+03  0.90280758452E+03  0.00000000000E+00 0.  1.
          6    1    1    2  501    0 -0.34824545499E+02  0.10403114585E+03 -0.15871261479E+03  0.25847421993E+03  0.17200000000E+03 0.  1.
         -6    1    1    2    0  503  0.34824545499E+02 -0.10403114585E+03 -0.67922627501E+03  0.70920205932E+03  0.17200000000E+03 0.  1.
</event>
<event>
 4    1  0.1235203E+000  0.1897402E+03  0.7818608E-02  0.1158696E+00
         21   -1    0    0  503  502  0.00000000000E+00  0.00000000000E+00  0.15613484300E+03  0.15613484300E+03  0.00000000000E+00 0.  1.
         21   -1    0    0  501  503 -0.00000000000E+00 -0.00000000000E+00 -0.30823027142E+03  0.30823027142E+03  0.00000000000E+00 0.  1.
          6    1    1    2  501    0  0.79216664133E+02 -0.11919735898E+02 -0.19258562657E+03  0.27035270212E+03  0.17200000000E+03 0.  1.
         -6    1    1    2    0  502 -0.79216664133E+02  0.11919735898E+02  0.40490198147E+02  0.19401241230E+03  0.17200000000E+03 0.  1.
</event>
<event>
 4    1  0.1235203E+000  0.1874547E+03  0.7818608E-02  0.1160777E+00
         21   -1    0    0  503  502  0.00000000000E+00  0.00000000000E+00  0.16331645637E+02  0.16331645637E+02  0.00000000000E+00 0.  1.
         21   -1    0    0  501  503 -0.00000000000E+00 -0.00000000000E+00 -0.21584063878E+04  0.21584063878E+04  0.00000000000E+00 0. -1.
          6    1    1    2  501    0  0.57862477138E+02  0.46980648001E+02 -0.10099973446E+04  0.10272457757E+04  0.17200000000E+03 0. -1.
         -6    1    1    2    0  502 -0.57862477138E+02 -0.46980648001E+02 -0.11320773976E+04  0.11474922578E+04  0.17200000000E+03 0. -1.
</event>
<event>
 4    1  0.1235203E+000  0.1845937E+03  0.7818608E-02  0.1163430E+00
         21   -1    0    0  501  502  0.00000000000E+00  0.00000000000E+00  0.19280137207E+04  0.19280137207E+04  0.00000000000E+00 0. -1.
         21   -1    0    0  502  503 -0.00000000000E+00 -0.00000000000E+00 -0.20888945552E+02  0.20888945552E+02  0.00000000000E+00 0. -1.
          6    1    1    2  501    0 -0.43570681467E+02 -0.50915920921E+02  0.13358757742E+04  0.13485692119E+04  0.17200000000E+03 0.  1.
         -6    1    1    2    0  503  0.43570681467E+02  0.50915920921E+02  0.57124900094E+03  0.60033345430E+03  0.17200000000E+03 0.  1.
</event>
<event>
 4    1  0.1235203E+000  0.2006130E+03  0.7818608E-02  0.1149223E+00
         21   -1    0    0  503  502  0.00000000000E+00  0.00000000000E+00  0.74273635766E+02  0.74273635766E+02  0.00000000000E+00 0.  1.
         21   -1    0    0  501  503 -0.00000000000E+00 -0.00000000000E+00 -0.59872167439E+03  0.59872167439E+03  0.00000000000E+00 0.  1.
          6    1    1    2  501    0  0.46952296019E+02 -0.91962366674E+02 -0.36592806212E+03  0.41731156422E+03  0.17200000000E+03 0.  1.
         -6    1    1    2    0  502 -0.46952296019E+02  0.91962366674E+02 -0.15851997651E+03  0.25568374594E+03  0.17200000000E+03 0.  1.
</event>
<event>
 4    1  0.1235203E+000  0.1819141E+03  0.7818608E-02  0.1165963E+00
         21   -1    0    0  503  502  0.00000000000E+00  0.00000000000E+00  0.50223653182E+03  0.50223653182E+03  0.00000000000E+00 0. -1.
         21   -1    0    0  501  503 -0.00000000000E+00 -0.00000000000E+00 -0.73557788114E+02  0.73557788114E+02  0.00000000000E+00 0. -1.
          6    1    1    2  501    0  0.58282267882E+02 -0.10579373446E+02  0.12139210409E+03  0.21869793969E+03  0.17200000000E+03 0. -1.
         -6    1    1    2    0  502 -0.58282267882E+02  0.10579373446E+02  0.30728663962E+03  0.35709638024E+03  0.17200000000E+03 0. -1.
</event>
<event>
 4    1  0.1235203E+000  0.1905257E+03  0.7818608E-02  0.1157988E+00
         21   -1    0    0  501  502  0.00000000000E+00  0.00000000000E+00  0.59705866571E+03  0.59705866571E+03  0.00000000000E+00 0.  1.
         21   -1    0    0  502  503 -0.00000000000E+00 -0.00000000000E+00 -0.16621451511E+03  0.16621451511E+03  0.00000000000E+00 0.  1.
          6    1    1    2  501    0  0.59336730522E+02  0.56525924836E+02  0.51934934693E+03  0.55319415392E+03  0.17200000000E+03 0.  1.
         -6    1    1    2    0  503 -0.59336730522E+02 -0.56525924836E+02 -0.88505196327E+02  0.21007902690E+03  0.17200000000E+03 0.  1.
</event>
<event>
 4    1  0.1235203E+000  0.2055697E+03  0.7818608E-02  0.1145123E+00
         21   -1    0    0  501  502  0.00000000000E+00  0.00000000000E+00  0.12608273665E+03  0.12608273665E+03  0.00000000000E+00 0. -1.
         21   -1    0    0  502  503 -0.00000000000E+00 -0.00000000000E+00 -0.33804061105E+03  0.33804061105E+03  0.00000000000E+00 0. -1.
          6    1    1    2  501    0 -0.81222840006E+02 -0.77959829480E+02 -0.84586230135E+02  0.22229195910E+03  0.17200000000E+03 0.  1.
         -6    1    1    2    0  503  0.81222840006E+02  0.77959829480E+02 -0.12737164427E+03  0.24183138861E+03  0.17200000000E+03 0.  1.
</event>
<event>
 4    1  0.1235203E+000  0.2212548E+03  0.7818608E-02  0.1132951E+00
         21   -1    0    0  501  502  0.00000000000E+00  0.00000000000E+00  0.37858212331E+02  0.37858212331E+02  0.00000000000E+00 0. -1.
         21   -1    0    0  502  503 -0.00000000000E+00 -0.00000000000E+00 -0.13267397397E+04  0.13267397397E+04  0.00000000000E+00 0. -1.
          6    1    1    2  501    0  0.52149121919E+02 -0.12903541601E+03 -0.53576268615E+03  0.57965103759E+03  0.17200000000E+03 0.  1.
         -6    1    1    2    0  503 -0.52149121919E+02  0.12903541601E+03 -0.75311884122E+03  0.78494691445E+03  0.17200000000E+03 0.  1.
</event>
<event>
 4    1  0.1235203E+000  0.1721803E+03  0.7818608E-02  0.1175593E+00
         21   -1    0    0  501  502  0.00000000000E+00  0.00000000000E+00  0.12635395047E+04  0.12635395047E+04  0.00000000000E+00 0. -1.
         21   -1    0    0  502  503 -0.00000000000E+00 -0.00000000000E+00 -0.26105016660E+02  0.26105016660E+02  0.00000000000E+00 0. -1.
          6    1    1    2  501    0  0.59687074041E+01 -0.51412993321E+01  0.82386643558E+03  0.84166618211E+03  0.17200000000E+03 0. -1.
         -6    1    1    2    0  503 -0.59687074041E+01  0.51412993321E+01  0.41356805250E+03  0.44797833930E+03  0.17200000000E+03 0. -1.
</event>
<event>
 4    1  0.1235203E+000  0.1946081E+03  0.7818608E-02  0.1154370E+00
         21   -1    0    0  503  502  0.00000000000E+00  0.00000000000E+00  0.42205424118E+03  0.42205424118E+03  0.00000000000E+00 0. -1.
         21   -1    0    0  501  503 -0.00000000000E+00 -0.00000000000E+00 -0.50230788038E+03  0.50230788038E+03  0.00000000000E+00 0. -1.
          6    1    1    2  501    0 -0.91036401545E+02 -0.83143161032E+00 -0.45899597904E+03  0.49854751675E+03  0.17200000000E+03 0. -1.
         -6    1    1    2    0  502  0.91036401545E+02  0.83143161032E+00  0.37874233984E+03  0.42581460481E+03  0.17200000000E+03 0. -1.
</event>
<event>
 4    1  0.1235203E+000  0.1865533E+03  0.7818608E-02  0.1161607E+00
         21   -1    0    0  503  502  0.00000000000E+00  0.00000000000E+00  0.10027461274E+03  0.10027461274E+03  0.00000000000E+00 0.  1.
         21   -1    0    0  501  503 -0.00000000000E+00 -0.00000000000E+00 -0.39806788379E+03  0.39806788379E+03  0.00000000000E+00 0.  1.
          6    1    1    2  501    0 -0.65050288334E+02 -0.31409976864E+02 -0.23808397603E+03  0.30246670279E+03  0.17200000000E+03 0.  1.
         -6    1    1    2    0  502  0.65050288334E+02  0.31409976864E+02 -0.59709295019E+02  0.19587579373E+03  0.17200000000E+03 0.  1.
</event>
<event>
 4    1  0.1235203E+000  0.1949461E+03  0.7818608E-02  0.1154074E+00
         21   -1    0    0  501  502  0.00000000000E+00  0.00000000000E+00  0.35718354529E+02  0.35718354529E+02  0.00000000000E+00 0.  1.
         21   -1    0    0  502  503 -0.00000000000E+00 -0.00000000000E+00 -0.10667882759E+04  0.10667882759E+04  0.00000000000E+00 0. -1.
          6    1    1    2  501    0 -0.28116696868E+02  0.87346519822E+02 -0.48730068661E+03  0.52484847560E+03  0.17200000000E+03 0.  1.
         -6    1    1    2    0  503  0.28116696868E+02 -0.87346519822E+02 -0.54376923474E+03  0.57765815481E+03  0.17200000000E+03 0.  1.
</event>
<event>
 4    1  0.1235203E+000  0.2705787E+03  0.7818608E-02  0.1100949E+00
         21   -1    0    0  503  502  0.00000000000E+00  0.00000000000E+00  0.63952931014E+03  0.63952931014E+03  0.00000000000E+00 0. -1.
         21   -1    0    0  501  503 -0.00000000000E+00 -0.00000000000E+00 -0.11628362938E+03  0.11628362938E+03  0.00000000000E+00 0. -1.
          6    1    1    2  501    0 -0.14386748482E+03 -0.15142980029E+03  0.21454802537E+03  0.34531680063E+03  0.17200000000E+03 0.  1.
         -6    1    1    2    0  502  0.14386748482E+03  0.15142980029E+03  0.30869765539E+03  0.41049613890E+03  0.17200000000E+03 0.  1.
</event>
<event>
 4    1  0.1235203E+000  0.2104314E+03  0.7818608E-02  0.1141225E+00
         21   -1    0    0  501  502  0.00000000000E+00  0.00000000000E+00  0.35516552952E+03  0.35516552952E+03  0.00000000000E+00 0.  1.
         21   -1    0    0  502  503 -0.00000000000E+00 -0.00000000000E+00 -0.12680625086E+03  0.12680625086E+03  0.00000000000E+00 0.  1.
          6    1    1    2  501    0  0.69291473613E+02 -0.99478955800E+02  0.14539873496E+03  0.25577756565E+03  0.17200000000E+03 0. -1.
         -6    1    1    2    0  503 -0.69291473613E+02  0.99478955800E+02  0.82960543704E+02  0.22619421472E+03  0.17200000000E+03 0. -1.
</event>
<event>
 4    1  0.1235203E+000  0.2416418E+03  0.7818608E-02  0.1118704E+00
         21   -1    0    0  501  502  0.00000000000E+00  0.00000000000E+00  0.81309282417E+02  0.81309282417E+02  0.00000000000E+00 0. -1.
         21   -1    0    0  502  503 -0.00000000000E+00 -0.00000000000E+00 -0.72768813706E+03  0.72768813706E+03  0.00000000000E+00 0.  1.
          6    1    1    2  501    0  0.95616205955E+02  0.14022949965E+03 -0.27683481038E+03  0.36746194857E+03  0.17200000000E+03 0. -1.
         -6    1    1    2    0  503 -0.95616205955E+02 -0.14022949965E+03 -0.36954404426E+03  0.44153547090E+03  0.17200000000E+03 0. -1.
</event>
<event>
 4    1  0.1235203E+000  0.2270657E+03  0.7818608E-02  0.1128722E+00
         21   -1    0    0  501  502  0.00000000000E+00  0.00000000000E+00  0.47771850333E+03  0.47771850333E+03  0.00000000000E+00 0. -1.
         21   -1    0    0  502  503 -0.00000000000E+00 -0.00000000000E+00 -0.14733893994E+03  0.14733893994E+03  0.00000000000E+00 0. -1.
          6    1    1    2  501    0  0.47866470633E+02 -0.14029842438E+03  0.32682785471E+03  0.39796393493E+03  0.17200000000E+03 0. -1.
         -6    1    1    2    0  503 -0.47866470633E+02  0.14029842438E+03  0.35517086788E+01  0.22709350834E+03  0.17200000000E+03 0. -1.
</event>
<event>
 4    1  0.1235203E+000  0.1735813E+03  0.7818608E-02  0.1174164E+00
         21   -1    0    0  503  502  0.00000000000E+00  0.00000000000E+00  0.87164257967E+03  0.87164257967E+03  0.00000000000E+00 0.  1.
         21   -1    0    0  501  503 -0.00000000000E+00 -0.00000000000E+00 -0.96906939421E+02  0.96906939421E+02  0.00000000000E+00 0.  1.
          6    1    1    2  501    0 -0.14886946783E+02  0.18023185579E+02 -0.10472174441E+01  0.17358442634E+03  0.17200000000E+03 0.  1.
         -6    1    1    2    0  502  0.14886946783E+02 -0.18023185579E+02  0.77578285769E+03  0.79496509275E+03  0.17200000000E+03 0.  1.
</event>
<event>
 4    1  0.1235203E+000  0.2413866E+03  0.7818608E-02  0.1118873E+00
         21   -1    0    0  501  502  0.00000000000E+00  0.00000000000E+00  0.42134722712E+03  0.42134722712E+03  0.00000000000E+00 0.  1.
         21   -1    0    0  502  503 -0.00000000000E+00 -0.00000000000E+00 -0.17408148439E+03  0.17408148439E+03  0.00000000000E+00 0.  1.
          6    1    1    2  501    0 -0.16796820601E+03 -0.21683401590E+02  0.25862929625E+03  0.35377478855E+03  0.17200000000E+03 0.  1.
         -6    1    1    2    0  503  0.16796820601E+03  0.21683401590E+02 -0.11363553511E+02  0.24165392296E+03  0.17200000000E+03 0.  1.
</event>
<event>
 4    1  0.1235203E+000  0.1842290E+03  0.7818608E-02  0.1163772E+00
         21   -1    0    0  503  502  0.00000000000E+00  0.00000000000E+00  0.12882850626E+04  0.12882850626E+04  0.00000000000E+00 0. -1.
         21   -1    0    0  501  503 -0.00000000000E+00 -0.00000000000E+00 -0.32636065806E+02  0.32636065806E+02  0.00000000000E+00 0. -1.
          6    1    1    2  501    0  0.63906276164E+02  0.16501857002E+02  0.33785791208E+03  0.38482241641E+03  0.17200000000E+03 0. -1.
         -6    1    1    2    0  502 -0.63906276164E+02 -0.16501857002E+02  0.91779108467E+03  0.93609871195E+03  0.17200000000E+03 0. -1.
</event>
<event>
 4    1  0.1235203E+000  0.2061610E+03  0.7818608E-02  0.1144643E+00
         21   -1    0    0  501  502  0.00000000000E+00  0.00000000000E+00  0.51878716290E+03  0.51878716290E+03  0.00000000000E+00 0. -1.
         21   -1    0    0  502  503 -0.00000000000E+00 -0.00000000000E+00 -0.82698902345E+02  0.82698902345E+02  0.00000000000E+00 0. -1.
          6    1    1    2  501    0 -0.70846630831E+02  0.88876874995E+02  0.24711156957E+03  0.32181745109E+03  0.17200000000E+03 0. -1.
         -6    1    1    2    0  503  0.70846630831E+02 -0.88876874995E+02  0.18897669098E+03  0.27966861415E+03  0.17200000000E+03 0. -1.
</event>
<event>
 4    1  0.1235203E+000  0.1951929E+03  0.7818608E-02  0.1153859E+00
         21   -1    0    0  501  502  0.00000000000E+00  0.00000000000E+00  0.53080055607E+03  0.53080055607E+03  0.00000000000E+00 0.  1.
         21   -1    0    0  502  503 -0.00000000000E+00 -0.00000000000E+00 -0.79126498518E+02  0.79126498518E+02  0.00000000000E+00 0.  1.
          6    1    1    2  501    0  0.74013482955E+02 -0.55120394428E+02  0.31876813614E+03  0.37378252789E+03  0.17200000000E+03 0.  1.
         -6    1    1    2    0  503 -0.74013482955E+02  0.55120394428E+02  0.13290592141E+03  0.23614452669E+03  0.17200000000E+03 0.  1.
</event>
<event>
 4    1  0.1235203E+000  0.1953762E+03  0.7818608E-02  0.1153700E+00
         21   -1    0    0  501  502  0.00000000000E+00  0.00000000000E+00  0.25331273485E+03  0.25331273485E+03  0.00000000000E+00 0.  1.
         21   -1    0    0  502  503 -0.00000000000E+00 -0.00000000000E+00 -0.16765197796E+03  0.16765197796E+03  0.00000000000E+00 0. -1.
          6    1    1    2  501    0 -0.77544358055E+02 -0.50741992216E+02  0.10977881579E+03  0.22410547882E+03  0.17200000000E+03 0.  1.
         -6    1    1    2    0  503  0.77544358055E+02  0.50741992216E+02 -0.24118058907E+02  0.19685923399E+03  0.17200000000E+03 0. -1.
</event>
<event>
 4    1  0.1235203E+000  0.2063681E+03  0.7818608E-02  0.1144475E+00
         21   -1    0    0  501  502  0.00000000000E+00  0.00000000000E+00  0.42191795675E+03  0.42191795675E+03  0.00000000000E+00 0.  1.
         21   -1    0    0  502  503 -0.00000000000E+00 -0.00000000000E+00 -0.12405286324E+03  0.12405286324E+03  0.00000000000E+00 0.  1.
          6    1    1    2  501    0 -0.37486415258E+02 -0.10769652990E+03  0.26676823000E+03  0.33727297908E+03  0.17200000000E+03 0.  1.
         -6    1    1    2    0  503  0.37486415258E+02  0.10769652990E+03  0.31096863512E+02  0.20869784091E+03  0.17200000000E+03 0.  1.
</event>
<event>
 4    1  0.1235203E+000  0.2490468E+03  0.7818608E-02  0.1113909E+00
         21   -1    0    0  503  502  0.00000000000E+00  0.00000000000E+00  0.33925036571E+02  0.33925036571E+02  0.00000000000E+00 0. -1.
         21   -1    0    0  501  503 -0.00000000000E+00 -0.00000000000E+00 -0.19693140879E+04  0.19693140879E+04  0.00000000000E+00 0.  1.
          6    1    1    2  501    0  0.17870844256E+03 -0.22441503097E+02 -0.12357431515E+04  0.12605893324E+04  0.17200000000E+03 0.  1.
         -6    1    1    2    0  502 -0.17870844256E+03  0.22441503097E+02 -0.69964589984E+03  0.74264979208E+03  0.17200000000E+03 0. -1.
</event>
<event>
 4    1  0.1235203E+000  0.2087080E+03  0.7818608E-02  0.1142593E+00
         21   -1    0    0  501  502  0.00000000000E+00  0.00000000000E+00  0.34303165411E+03  0.34303165411E+03  0.00000000000E+00 0. -1.
         21   -1    0    0  502  503 -0.00000000000E+00 -0.00000000000E+00 -0.22270437991E+03  0.22270437991E+03  0.00000000000E+00 0.  1.
          6    1    1    2  501    0 -0.11423105175E+03 -0.30435247000E+02  0.24561282732E+03  0.32231149280E+03  0.17200000000E+03 0. -1.
         -6    1    1    2    0  503  0.11423105175E+03  0.30435247000E+02 -0.12528555313E+03  0.24342454122E+03  0.17200000000E+03 0.  1.
</event>
<event>
 4    1  0.1235203E+000  0.1925728E+03  0.7818608E-02  0.1156161E+00
         21   -1    0    0  503  502  0.00000000000E+00  0.00000000000E+00  0.71381934283E+03  0.71381934283E+03  0.00000000000E+00 0.  1.
         21   -1    0    0  501  503 -0.00000000000E+00 -0.00000000000E+00 -0.60883895759E+02  0.60883895759E+02  0.00000000000E+00 0. -1.
          6    1    1    2  501    0 -0.79015809548E+02 -0.35451402844E+02  0.17810410222E+03  0.26230777981E+03  0.17200000000E+03 0. -1.
         -6    1    1    2    0  502  0.79015809548E+02  0.35451402844E+02  0.47483134485E+03  0.51239545878E+03  0.17200000000E+03 0.  1.
</event>
<event>
 4    1  0.1235203E+000  0.2349122E+03  0.7818608E-02  0.1123229E+00
         21   -1    0    0  501  502  0.00000000000E+00  0.00000000000E+00  0.18576003803E+03  0.18576003803E+03  0.00000000000E+00 0.  1.
         21   -1    0    0  502  503 -0.00000000000E+00 -0.00000000000E+00 -0.54561408153E+03  0.54561408153E+03  0.00000000000E+00 0. -1.
          6    1    1    2  501    0 -0.80434571316E+02 -0.13831133041E+03  0.66886230054E+02  0.24424887339E+03  0.17200000000E+03 0.  1.
         -6    1    1    2    0  503  0.80434571316E+02  0.13831133041E+03 -0.42674027355E+03  0.48712524617E+03  0.17200000000E+03 0. -1.
</event>
<event>
 4    1  0.1235203E+000  0.1792197E+03  0.7818608E-02  0.1168560E+00
         21   -1    0    0  501  502  0.00000000000E+00  0.00000000000E+00  0.70374203266E+03  0.70374203266E+03  0.00000000000E+00 0.  1.
         21   -1    0    0  502  503 -0.00000000000E+00 -0.00000000000E+00 -0.46634873806E+02  0.46634873806E+02  0.00000000000E+00 0.  1.
          6    1    1    2  501    0 -0.43639897043E+02 -0.25124934411E+02  0.38331738217E+03  0.42314526869E+03  0.17200000000E+03 0. -1.
         -6    1    1    2    0  503  0.43639897043E+02  0.25124934411E+02  0.27378977668E+03  0.32723163777E+03  0.17200000000E+03 0. -1.
</event>
<event>
 4    1  0.1235203E+000  0.1862449E+03  0.7818608E-02  0.1161892E+00
         21   -1    0    0  503  502  0.00000000000E+00  0.00000000000E+00  0.10985368724E+04  0.10985368724E+04  0.00000000000E+00 0. -1.
         21   -1    0    0  501  503 -0.00000000000E+00 -0.00000000000E+00 -0.53471251622E+02  0.53471251622E+02  0.00000000000E+00 0. -1.
          6    1    1    2  501    0  0.58889023454E+01  0.71193294188E+02  0.15394372419E+03  0.24163160912E+03  0.17200000000E+03 0.  1.
         -6    1    1    2    0  502 -0.58889023454E+01 -0.71193294188E+02  0.89112189656E+03  0.91037651488E+03  0.17200000000E+03 0.  1.
</event>
<event>
 4    1  0.1235203E+000  0.1721122E+03  0.7818608E-02  0.1175663E+00
         21   -1    0    0  503  502  0.00000000000E+00  0.00000000000E+00  0.19953127358E+03  0.19953127358E+03  0.00000000000E+00 0. -1.
         21   -1    0    0  501  503 -0.00000000000E+00 -0.00000000000E+00 -0.35233585097E+03  0.35233585097E+03  0.00000000000E+00 0. -1.
          6    1    1    2  501    0  0.34824526843E+01 -0.51447273820E+01 -0.28630015665E+03  0.33405145620E+03  0.17200000000E+03 0. -1.
         -6    1    1    2    0  502 -0.34824526843E+01  0.51447273820E+01  0.13349557926E+03  0.21781566835E+03  0.17200000000E+03 0. -1.
</event>
<event>
 4    1  0.1235203E+000  0.1805095E+03  0.7818608E-02  0.1167311E+00
         21   -1    0    0  501  502  0.00000000000E+00  0.00000000000E+00  0.22629519010E+03  0.22629519010E+03  0.00000000000E+00 0. -1.
         21   -1    0    0  502  503 -0.00000000000E+00 -0.00000000000E+00 -0.15109153706E+03  0.15109153706E+03  0.00000000000E+00 0. -1.
          6    1    1    2  501    0 -0.34360215745E+02 -0.42650465680E+02  0.78517347914E+02  0.19684679467E+03  0.17200000000E+03 0. -1.
         -6    1    1    2    0  503  0.34360215745E+02  0.42650465680E+02 -0.33136948790E+01  0.18053993249E+03  0.17200000000E+03 0. -1.
</event>
<event>
 4    1  0.1235203E+000  0.1800701E+03  0.7818608E-02  0.1167735E+00
         21   -1    0    0  503  502  0.00000000000E+00  0.00000000000E+00  0.62360726211E+02  0.62360726211E+02  0.00000000000E+00 0. -1.
         21   -1    0    0  501  503 -0.00000000000E+00 -0.00000000000E+00 -0.54466149637E+03  0.54466149637E+03  0.00000000000E+00 0. -1.
          6    1    1    2  501    0  0.29196980513E+02  0.44595668294E+02 -0.30578291627E+03  0.35486395870E+03  0.17200000000E+03 0. -1.
         -6    1    1    2    0  502 -0.29196980513E+02 -0.44595668294E+02 -0.17651785389E+03  0.25215826388E+03  0.17200000000E+03 0. -1.
</event>
<event>
 4    1  0.1235203E+000  0.1843300E+03  0.7818608E-02  0.1163677E+00
         21   -1    0    0  503  502  0.00000000000E+00  0.00000000000E+00  0.51376032362E+02  0.51376032362E+02  0.00000000000E+00 0.  1.
         21   -1    0    0  501  503 -0.00000000000E+00 -0.00000000000E+00 -0.66166593570E+03  0.66166593570E+03  0.00000000000E+00 0.  1.
          6    1    1    2  501    0  0.16559492336E+02 -0.64182134194E+02 -0.29736025032E+03  0.34985808781E+03  0.17200000000E+03 0. -1.
         -6    1    1    2    0  502 -0.16559492336E+02  0.64182134194E+02 -0.31292965302E+03  0.36318388025E+03  0.17200000000E+03 0. -1.
</event>
<event>
 4    1  0.1235203E+000  0.2744545E+03  0.7818608E-02  0.1098757E+00
         21   -1    0    0  501  502  0.00000000000E+00  0.00000000000E+00  0.11461848100E+03  0.11461848100E+03  0.00000000000E+00 0.  1.
         21   -1    0    0  502  503 -0.00000000000E+00 -0.00000000000E+00 -0.70423854940E+03  0.70423854940E+03  0.00000000000E+00 0. -1.
          6    1    1    2  501    0 -0.10505608750E+03  0.18629138053E+03 -0.18897586202E+03  0.33322235280E+03  0.17200000000E+03 0.  1.
         -6    1    1    2    0  503  0.10505608750E+03 -0.18629138053E+03 -0.40064420638E+03  0.48563467760E+03  0.17200000000E+03 0. -1.
</event>
<event>
 4    1  0.1235203E+000  0.1935615E+03  0.7818608E-02  0.1155288E+00
         21   -1    0    0  503  502  0.00000000000E+00  0.00000000000E+00  0.67867240149E+02  0.67867240149E+02  0.00000000000E+00 0. -1.
         21   -1    0    0  501  503 -0.00000000000E+00 -0.00000000000E+00 -0.67251037628E+03  0.67251037628E+03  0.00000000000E+00 0.  1.
          6    1    1    2  501    0 -0.57588077798E+02  0.67569734312E+02 -0.45899571474E+03  0.49813966098E+03  0.17200000000E+03 0.  1.
         -6    1    1    2    0  502  0.57588077798E+02 -0.67569734312E+02 -0.14564742140E+03  0.24223795545E+03  0.17200000000E+03 0. -1.
</event>
<event>
 4    1  0.1235203E+000  0.2710696E+03  0.7818608E-02  0.1100669E+00
         21   -1    0    0  501  502  0.00000000000E+00  0.00000000000E+00  0.54430189028E+03  0.54430189028E+03  0.00000000000E+00 0.  1.
         21   -1    0    0  502  503 -0.00000000000E+00 -0.00000000000E+00 -0.14069918872E+03  0.14069918872E+03  0.00000000000E+00 0. -1.
          6    1    1    2  501    0  0.18943477279E+03 -0.89494076186E+02  0.27075610314E+03  0.38312868622E+03  0.17200000000E+03 0. -1.
         -6    1    1    2    0  503 -0.18943477279E+03  0.89494076186E+02  0.13284659841E+03  0.30187239278E+03  0.17200000000E+03 0. -1.
</event>
<event>
 4    1  0.1235203E+000  0.2063891E+03  0.7818608E-02  0.1144458E+00
         21   -1    0    0  503  502  0.00000000000E+00  0.00000000000E+00  0.27043241054E+03  0.27043241054E+03  0.00000000000E+00 0.  1.
         21   -1    0    0  501  503 -0.00000000000E+00 -0.00000000000E+00 -0.16432296739E+03  0.16432296739E+03  0.00000000000E+00 0.  1.
          6    1    1    2  501    0 -0.10927398924E+03  0.32736428064E+02  0.88004627007E+01  0.20657668453E+03  0.17200000000E+03 0.  1.
         -6    1    1    2    0  502  0.10927398924E+03 -0.32736428064E+02  0.97308980444E+02  0.22817869340E+03  0.17200000000E+03 0.  1.
</event>
<event>
 4    1  0.1235203E+000  0.2496784E+03  0.7818608E-02  0.1113508E+00
         21   -1    0    0  501  502  0.00000000000E+00  0.00000000000E+00  0.73804247017E+02  0.73804247017E+02  0.00000000000E+00 0.  1.
         21   -1    0    0  502  503 -0.00000000000E+00 -0.00000000000E+00 -0.95813165105E+03  0.95813165105E+03  0.00000000000E+00 0. -1.
          6    1    1    2  501    0  0.12409191965E+03  0.13174398251E+03 -0.26459788545E+03  0.36380121280E+03  0.17200000000E+03 0. -1.
         -6    1    1    2    0  503 -0.12409191965E+03 -0.13174398251E+03 -0.61972951858E+03  0.66813468527E+03  0.17200000000E+03 0. -1.
</event>
<event>
 4    1  0.1235203E+000  0.1941849E+03  0.7818608E-02  0.1154740E+00
         21   -1    0    0  501  502  0.00000000000E+00  0.00000000000E+00  0.12524292058E+04  0.12524292058E+04  0.00000000000E+00 0. -1.
         21   -1    0    0  502  503 -0.00000000000E+00 -0.00000000000E+00 -0.35174577657E+02  0.35174577657E+02  0.00000000000E+00 0. -1.
          6    1    1    2  501    0  0.85333916575E+02 -0.29015385558E+02  0.36427988824E+03  0.41280456258E+03  0.17200000000E+03 0.  1.
         -6    1    1    2    0  503 -0.85333916575E+02  0.29015385558E+02  0.85297473987E+03  0.87479922084E+03  0.17200000000E+03 0.  1.
</event>
<event>
 4    1  0.1235203E+000  0.2348757E+03  0.7818608E-02  0.1123254E+00
         21   -1    0    0  501  502  0.00000000000E+00  0.00000000000E+00  0.22993211698E+04  0.22993211698E+04  0.00000000000E+00 0. -1.
         21   -1    0    0  502  503 -0.00000000000E+00 -0.00000000000E+00 -0.26251508390E+02  0.26251508390E+02  0.00000000000E+00 0. -1.
          6    1    1    2  501    0  0.14250080906E+03  0.72636963958E+02  0.79543962923E+03  0.82939183313E+03  0.17200000000E+03 0. -1.
         -6    1    1    2    0  503 -0.14250080906E+03 -0.72636963958E+02  0.14776300322E+04  0.14961808451E+04  0.17200000000E+03 0. -1.
</event>
<event>
 4    1  0.1235203E+000  0.2200344E+03  0.7818608E-02  0.1133857E+00
         21   -1    0    0  501  502  0.00000000000E+00  0.00000000000E+00  0.31471620865E+02  0.31471620865E+02  0.00000000000E+00 0. -1.
         21   -1    0    0  502  503 -0.00000000000E+00 -0.00000000000E+00 -0.18855686612E+04  0.18855686612E+04  0.00000000000E+00 0. -1.
          6    1    1    2  501    0  0.45380066030E+01 -0.13715153450E+03 -0.51574131701E+03  0.56071761430E+03  0.17200000000E+03 0.  1.
         -6    1    1    2    0  503 -0.45380066030E+01  0.13715153450E+03 -0.13383557233E+04  0.13563226677E+04  0.17200000000E+03 0.  1.
</event>
<event>
 4    1  0.1235203E+000  0.1916767E+03  0.7818608E-02  0.1156958E+00
         21   -1    0    0  501  502  0.00000000000E+00  0.00000000000E+00  0.33363311508E+02  0.33363311508E+02  0.00000000000E+00 0. -1.
         21   -1    0    0  502  503 -0.00000000000E+00 -0.00000000000E+00 -0.11202160515E+04  0.11202160515E+04  0.00000000000E+00 0. -1.
          6    1    1    2  501    0 -0.83165578751E+02  0.15473827900E+02 -0.61855974306E+03  0.64757710627E+03  0.17200000000E+03 0. -1.
         -6    1    1    2    0  503  0.83165578751E+02 -0.15473827900E+02 -0.46829299690E+03  0.50600225670E+03  0.17200000000E+03 0. -1.
</event>
<event>
 4    1  0.1235203E+000  0.1746431E+03  0.7818608E-02  0.1173091E+00
         21   -1    0    0  503  502  0.00000000000E+00  0.00000000000E+00  0.16695697519E+03  0.16695697519E+03  0.00000000000E+00 0.  1.
         21   -1    0    0  501  503 -0.00000000000E+00 -0.00000000000E+00 -0.20051386390E+03  0.20051386390E+03  0.00000000000E+00 0.  1.
          6    1    1    2  501    0  0.18009179489E+01 -0.30215162617E+02  0.38012274941E+02  0.17873201281E+03  0.17200000000E+03 0.  1.
         -6    1    1    2    0  502 -0.18009179489E+01  0.30215162617E+02 -0.71569163658E+02  0.18873882628E+03  0.17200000000E+03 0.  1.
</event>
<event>
 4    1  0.1235203E+000  0.1878565E+03  0.7818608E-02  0.1160409E+00
         21   -1    0    0  503  502  0.00000000000E+00  0.00000000000E+00  0.25971750523E+03  0.25971750523E+03  0.00000000000E+00 0.  1.
         21   -1    0    0  501  503 -0.00000000000E+00 -0.00000000000E+00 -0.13690828421E+03  0.13690828421E+03  0.00000000000E+00 0.  1.
          6    1    1    2  501    0 -0.72561026806E+02  0.20999486370E+02  0.44207173461E+02  0.19298796653E+03  0.17200000000E+03 0.  1.
         -6    1    1    2    0  502  0.72561026806E+02 -0.20999486370E+02  0.78602047564E+02  0.20363782291E+03  0.17200000000E+03 0.  1.
</event>
<event>
 4    1  0.1235203E+000  0.1878752E+03  0.7818608E-02  0.1160392E+00
         21   -1    0    0  503  502  0.00000000000E+00  0.00000000000E+00  0.55647002030E+02  0.55647002030E+02  0.00000000000E+00 0. -1.
         21   -1    0    0  501  503 -0.00000000000E+00 -0.00000000000E+00 -0.65389236447E+03  0.65389236447E+03  0.00000000000E+00 0. -1.
          6    1    1    2  501    0  0.61685753667E+02  0.43680311032E+02 -0.36052648620E+03  0.40654206305E+03  0.17200000000E+03 0. -1.
         -6    1    1    2    0  502 -0.61685753667E+02 -0.43680311032E+02 -0.23771887624E+03  0.30299730345E+03  0.17200000000E+03 0. -1.
</event>
<event>
 4    1  0.1235203E+000  0.1892772E+03  0.7818608E-02  0.1159115E+00
         21   -1    0    0  503  502  0.00000000000E+00  0.00000000000E+00  0.35499371322E+02  0.35499371322E+02  0.00000000000E+00 0.  1.
         21   -1    0    0  501  503 -0.00000000000E+00 -0.00000000000E+00 -0.11065571737E+04  0.11065571737E+04  0.00000000000E+00 0. -1.
          6    1    1    2  501    0  0.35362517870E+02  0.70649623727E+02 -0.70490815839E+03  0.72987765329E+03  0.17200000000E+03 0.  1.
         -6    1    1    2    0  502 -0.35362517870E+02 -0.70649623727E+02 -0.36614964402E+03  0.41217889177E+03  0.17200000000E+03 0. -1.
</event>
<event>
 4    1  0.1235203E+000  0.1776743E+03  0.7818608E-02  0.1170073E+00
         21   -1    0    0  501  502  0.00000000000E+00  0.00000000000E+00  0.31441088089E+02  0.31441088089E+02  0.00000000000E+00 0.  1.
         21   -1    0    0  502  503 -0.00000000000E+00 -0.00000000000E+00 -0.11550609541E+04  0.11550609541E+04  0.00000000000E+00 0.  1.
          6    1    1    2  501    0  0.18522997972E+02  0.40509951847E+02 -0.34729749821E+03  0.39010730564E+03  0.17200000000E+03 0.  1.
         -6    1    1    2    0  503 -0.18522997972E+02 -0.40509951847E+02 -0.77632236785E+03  0.79639473659E+03  0.17200000000E+03 0.  1.
</event>
<event>
 4    1  0.1235203E+000  0.2486173E+03  0.7818608E-02  0.1114182E+00
         21   -1    0    0  503  502  0.00000000000E+00  0.00000000000E+00  0.72442144756E+02  0.72442144756E+02  0.00000000000E+00 0. -1.
         21   -1    0    0  501  503 -0.00000000000E+00 -0.00000000000E+00 -0.10456545255E+04  0.10456545255E+04  0.00000000000E+00 0. -1.
          6    1    1    2  501    0  0.17646595681E+03  0.32959508830E+02 -0.24679262509E+03  0.35031009540E+03  0.17200000000E+03 0. -1.
         -6    1    1    2    0  502 -0.17646595681E+03 -0.32959508830E+02 -0.72641975567E+03  0.76778657488E+03  0.17200000000E+03 0. -1.
</event>
<event>
 4    1  0.1235203E+000  0.2512882E+03  0.7818608E-02  0.1112493E+00
         21   -1    0    0  501  502  0.00000000000E+00  0.00000000000E+00  0.61158280024E+03  0.61158280024E+03  0.00000000000E+00 0. -1.
         21   -1    0    0  502  503 -0.00000000000E+00 -0.00000000000E+00 -0.10618692926E+03  0.10618692926E+03  0.00000000000E+00 0.  1.
          6    1    1    2  501    0 -0.17743436270E+03  0.45593728919E+02  0.31238613389E+03  0.40091250645E+03  0.17200000000E+03 0. -1.
         -6    1    1    2    0  503  0.17743436270E+03 -0.45593728919E+02  0.19300973709E+03  0.31685722305E+03  0.17200000000E+03 0. -1.
</event>
<event>
 4    1  0.1235203E+000  0.2195048E+03  0.7818608E-02  0.1134253E+00
         21   -1    0    0  501  502  0.00000000000E+00  0.00000000000E+00  0.36421182528E+03  0.36421182528E+03  0.00000000000E+00 0. -1.
         21   -1    0    0  502  503 -0.00000000000E+00 -0.00000000000E+00 -0.24161734185E+03  0.24161734185E+03  0.00000000000E+00 0. -1.
          6    1    1    2  501    0  0.89667541467E+02  0.10275264814E+03  0.26505596231E+03  0.34414682600E+03  0.17200000000E+03 0. -1.
         -6    1    1    2    0  503 -0.89667541467E+02 -0.10275264814E+03 -0.14246147888E+03  0.26168234113E+03  0.17200000000E+03 0. -1.
</event>
<event>
 4    1  0.1235203E+000  0.2224829E+03  0.7818608E-02  0.1132045E+00
         21   -1    0    0  501  502  0.00000000000E+00  0.00000000000E+00  0.22984161368E+03  0.22984161368E+03  0.00000000000E+00 0. -1.
         21   -1    0    0  502  503 -0.00000000000E+00 -0.00000000000E+00 -0.90909966439E+03  0.90909966439E+03  0.00000000000E+00 0. -1.
          6    1    1    2  501    0  0.85124149711E+02 -0.11255444742E+03  0.15783758995E+03  0.27278440076E+03  0.17200000000E+03 0. -1.
         -6    1    1    2    0  503 -0.85124149711E+02  0.11255444742E+03 -0.83709564066E+03  0.86615687731E+03  0.17200000000E+03 0. -1.
</event>
<event>
 4    1  0.1235203E+000  0.2058807E+03  0.7818608E-02  0.1144870E+00
         21   -1    0    0  501  502  0.00000000000E+00  0.00000000000E+00  0.16590503731E+04  0.16590503731E+04  0.00000000000E+00 0.  1.
         21   -1    0    0  502  503 -0.00000000000E+00 -0.00000000000E+00 -0.28910815957E+02  0.28910815957E+02  0.00000000000E+00 0.  1.
          6    1    1    2  501    0 -0.80979186010E+02  0.79026858477E+02  0.11028740513E+04  0.11219260430E+04  0.17200000000E+03 0.  1.
         -6    1    1    2    0  503  0.80979186010E+02 -0.79026858477E+02  0.52726550592E+03  0.56603514613E+03  0.17200000000E+03 0.  1.
</event>
<event>
 4    1  0.1235203E+000  0.1811587E+03  0.7818608E-02  0.1166686E+00
         21   -1    0    0  501  502  0.00000000000E+00  0.00000000000E+00  0.34689144176E+03  0.34689144176E+03  0.00000000000E+00 0.  1.
         21   -1    0    0  502  503 -0.00000000000E+00 -0.00000000000E+00 -0.12737533265E+03  0.12737533265E+03  0.00000000000E+00 0. -1.
          6    1    1    2  501    0 -0.55990988691E+02  0.99739890688E+01  0.23003296972E+03  0.29280307107E+03  0.17200000000E+03 0.  1.
         -6    1    1    2    0  503  0.55990988691E+02 -0.99739890688E+01 -0.10516860608E+02  0.18146370334E+03  0.17200000000E+03 0. -1.
</event>
<event>
 4    1  0.1235203E+000  0.1737618E+03  0.7818608E-02  0.1173981E+00
         21   -1    0    0  503  502  0.00000000000E+00  0.00000000000E+00  0.17536304029E+03  0.17536304029E+03  0.00000000000E+00 0. -1.
         21   -1    0    0  501  503 -0.00000000000E+00 -0.00000000000E+00 -0.20864348225E+03  0.20864348225E+03  0.00000000000E+00 0. -1.
          6    1    1    2  501    0  0.24625255534E+02 -0.16607731768E+01 -0.96912209771E+02  0.19896014119E+03  0.17200000000E+03 0. -1.
         -6    1    1    2    0  502 -0.24625255534E+02  0.16607731768E+01  0.63631767804E+02  0.18504638135E+03  0.17200000000E+03 0. -1.
</event>
<event>
 4    1  0.1235203E+000  0.1741045E+03  0.7818608E-02  0.1173634E+00
         21   -1    0    0  503  502  0.00000000000E+00  0.00000000000E+00  0.29106371816E+03  0.29106371816E+03  0.00000000000E+00 0.  1.
         21   -1    0    0  501  503 -0.00000000000E+00 -0.00000000000E+00 -0.11283304916E+03  0.11283304916E+03  0.00000000000E+00 0.  1.
          6    1    1    2  501    0 -0.21242164570E+02 -0.16647524861E+02  0.33072129785E+02  0.17721776268E+03  0.17200000000E+03 0.  1.
         -6    1    1    2    0  502  0.21242164570E+02  0.16647524861E+02  0.14515853921E+03  0.22667900464E+03  0.17200000000E+03 0.  1.
</event>
<event>
 4    1  0.1235203E+000  0.1736717E+03  0.7818608E-02  0.1174072E+00
         21   -1    0    0  503  502  0.00000000000E+00  0.00000000000E+00  0.60218626971E+03  0.60218626971E+03  0.00000000000E+00 0.  1.
         21   -1    0    0  501  503 -0.00000000000E+00 -0.00000000000E+00 -0.63729491034E+02  0.63729491034E+02  0.00000000000E+00 0.  1.
          6    1    1    2  501    0  0.24032214994E+02  0.56187231651E+00  0.11517839057E+03  0.20839367723E+03  0.17200000000E+03 0.  1.
         -6    1    1    2    0  502 -0.24032214994E+02 -0.56187231651E+00  0.42327838811E+03  0.45752208351E+03  0.17200000000E+03 0.  1.
</event>
<event>
 4    1  0.1235203E+000  0.1778515E+03  0.7818608E-02  0.1169899E+00
         21   -1    0    0  503  502  0.00000000000E+00  0.00000000000E+00  0.76135044428E+03  0.76135044428E+03  0.00000000000E+00 0. -1.
         21   -1    0    0  501  503 -0.00000000000E+00 -0.00000000000E+00 -0.47632870124E+02  0.47632870124E+02  0.00000000000E+00 0. -1.
          6    1    1    2  501    0 -0.15656601759E+01  0.45218404113E+02  0.21226520967E+03  0.27692539536E+03  0.17200000000E+03 0.  1.
         -6    1    1    2    0  502  0.15656601759E+01 -0.45218404113E+02  0.50145236450E+03  0.53205791905E+03  0.17200000000E+03 0.  1.
</event>
<event>
 4    1  0.1235203E+000  0.1752511E+03  0.7818608E-02  0.1172480E+00
         21   -1    0    0  501  502  0.00000000000E+00  0.00000000000E+00  0.83993391410E+02  0.83993391410E+02  0.00000000000E+00 0. -1.
         21   -1    0    0  502  503 -0.00000000000E+00 -0.00000000000E+00 -0.71440692948E+03  0.71440692948E+03  0.00000000000E+00 0. -1.
          6    1    1    2  501    0  0.98250209782E+01  0.32131005201E+02 -0.36290563283E+02  0.17896909654E+03  0.17200000000E+03 0. -1.
         -6    1    1    2    0  503 -0.98250209782E+01 -0.32131005201E+02 -0.59412297479E+03  0.61943122435E+03  0.17200000000E+03 0. -1.
</event>
<event>
 4    1  0.1235203E+000  0.2717568E+03  0.7818608E-02  0.1100278E+00
         21   -1    0    0  503  502  0.00000000000E+00  0.00000000000E+00  0.56343628032E+02  0.56343628032E+02  0.00000000000E+00 0.  1.
         21   -1    0    0  501  503 -0.00000000000E+00 -0.00000000000E+00 -0.14647944756E+04  0.14647944756E+04  0.00000000000E+00 0. -1.
          6    1    1    2  501    0  0.19448806243E+03  0.80262898372E+02 -0.45757029070E+03  0.53218634914E+03  0.17200000000E+03 0.  1.
         -6    1    1    2    0  502 -0.19448806243E+03 -0.80262898372E+02 -0.95088055691E+03  0.98895175453E+03  0.17200000000E+03 0.  1.
</event>
<event>
 4    1  0.1235203E+000  0.1788885E+03  0.7818608E-02  0.1168883E+00
         21   -1    0    0  501  502  0.00000000000E+00  0.00000000000E+00  0.14257784878E+03  0.14257784878E+03  0.00000000000E+00 0.  1.
         21   -1    0    0  502  503 -0.00000000000E+00 -0.00000000000E+00 -0.30935227824E+03  0.30935227824E+03  0.00000000000E+00 0.  1.
          6    1    1    2  501    0  0.46894268890E+02 -0.14766110109E+02  0.34994072764E+02  0.18227916938E+03  0.17200000000E+03 0. -1.
         -6    1    1    2    0  503 -0.46894268890E+02  0.14766110109E+02 -0.20176850223E+03  0.26965095764E+03  0.17200000000E+03 0. -1.
</event>
<event>
 4    1  0.1235203E+000  0.2370113E+03  0.7818608E-02  0.1121800E+00
         21   -1    0    0  501  502  0.00000000000E+00  0.00000000000E+00  0.49871507993E+03  0.49871507993E+03  0.00000000000E+00 0.  1.
         21   -1    0    0  502  503 -0.00000000000E+00 -0.00000000000E+00 -0.11441949310E+03  0.11441949310E+03  0.00000000000E+00 0. -1.
          6    1    1    2  501    0  0.22135555643E+02  0.16155610968E+03  0.23039905996E+03  0.33054210961E+03  0.17200000000E+03 0. -1.
         -6    1    1    2    0  503 -0.22135555643E+02 -0.16155610968E+03  0.15389652687E+03  0.28259246342E+03  0.17200000000E+03 0. -1.
</event>
<event>
 4    1  0.1235203E+000  0.2087098E+03  0.7818608E-02  0.1142592E+00
         21   -1    0    0  501  502  0.00000000000E+00  0.00000000000E+00  0.24127803942E+03  0.24127803942E+03  0.00000000000E+00 0.  1.
         21   -1    0    0  502  503 -0.00000000000E+00 -0.00000000000E+00 -0.21846630359E+03  0.21846630359E+03  0.00000000000E+00 0.  1.
          6    1    1    2  501    0 -0.78242056570E+02  0.88622551212E+02  0.10718651007E+03  0.23462464479E+03  0.17200000000E+03 0.  1.
         -6    1    1    2    0  503  0.78242056570E+02 -0.88622551212E+02 -0.84374774246E+02  0.22511969822E+03  0.17200000000E+03 0.  1.
</event>
<event>
 4    1  0.1235203E+000  0.1942753E+03  0.7818608E-02  0.1154661E+00
         21   -1    0    0  501  502  0.00000000000E+00  0.00000000000E+00  0.79815132882E+02  0.79815132882E+02  0.00000000000E+00 0. -1.
         21   -1    0    0  502  503 -0.00000000000E+00 -0.00000000000E+00 -0.47360391189E+03  0.47360391189E+03  0.00000000000E+00 0. -1.
          6    1    1    2  501    0  0.87354236667E+02 -0.22980662085E+02 -0.20772266671E+03  0.28441445069E+03  0.17200000000E+03 0.  1.
         -6    1    1    2    0  503 -0.87354236667E+02  0.22980662085E+02 -0.18606611229E+03  0.26900459408E+03  0.17200000000E+03 0.  1.
</event>
<event>
 4    1  0.1235203E+000  0.1873514E+03  0.7818608E-02  0.1160872E+00
         21   -1    0    0  501  502  0.00000000000E+00  0.00000000000E+00  0.20391063135E+03  0.20391063135E+03  0.00000000000E+00 0. -1.
         21   -1    0    0  502  503 -0.00000000000E+00 -0.00000000000E+00 -0.17794194738E+03  0.17794194738E+03  0.00000000000E+00 0.  1.
          6    1    1    2  501    0 -0.28975988011E+02  0.68388232390E+02  0.47469072160E+02  0.19327149563E+03  0.17200000000E+03 0.  1.
         -6    1    1    2    0  503  0.28975988011E+02 -0.68388232390E+02 -0.21500388187E+02  0.18858108310E+03  0.17200000000E+03 0.  1.
</event>
<event>
 4    1  0.1235203E+000  0.2074994E+03  0.7818608E-02  0.1143562E+00
         21   -1    0    0  503  502  0.00000000000E+00  0.00000000000E+00  0.42922067956E+02  0.42922067956E+02  0.00000000000E+00 0.  1.
         21   -1    0    0  501  503 -0.00000000000E+00 -0.00000000000E+00 -0.11602559625E+04  0.11602559625E+04  0.00000000000E+00 0.  1.
          6    1    1    2  501    0 -0.30620538129E+01 -0.11602853293E+03 -0.33727572005E+03  0.39599357061E+03  0.17200000000E+03 0. -1.
         -6    1    1    2    0  502  0.30620538129E+01  0.11602853293E+03 -0.78005817448E+03  0.80718445984E+03  0.17200000000E+03 0. -1.
</event>
<event>
 4    1  0.1235203E+000  0.1733592E+03  0.7818608E-02  0.1174389E+00
         21   -1    0    0  503  502  0.00000000000E+00  0.00000000000E+00  0.44218971577E+03  0.44218971577E+03  0.00000000000E+00 0. -1.
         21   -1    0    0  501  503 -0.00000000000E+00 -0.00000000000E+00 -0.14458391799E+03  0.14458391799E+03  0.00000000000E+00 0. -1.
          6    1    1    2  501    0 -0.21108150684E+02  0.48852733590E+01 -0.64771225373E+02  0.18506412823E+03  0.17200000000E+03 0. -1.
         -6    1    1    2    0  502  0.21108150684E+02 -0.48852733590E+01  0.36237702315E+03  0.40170950553E+03  0.17200000000E+03 0. -1.
</event>
<event>
 4    1  0.1235203E+000  0.1747864E+03  0.7818608E-02  0.1172946E+00
         21   -1    0    0  503  502  0.00000000000E+00  0.00000000000E+00  0.58611535399E+02  0.58611535399E+02  0.00000000000E+00 0. -1.
         21   -1    0    0  501  503 -0.00000000000E+00 -0.00000000000E+00 -0.92416014152E+03  0.92416014152E+03  0.00000000000E+00 0. -1.
          6    1    1    2  501    0 -0.25150764407E+02  0.18268400885E+02 -0.75723493830E+03  0.77714544791E+03  0.17200000000E+03 0. -1.
         -6    1    1    2    0  502  0.25150764407E+02 -0.18268400885E+02 -0.10831366782E+03  0.20562622901E+03  0.17200000000E+03 0. -1.
</event>
<event>
 4    1  0.1235203E+000  0.1762277E+03  0.7818608E-02  0.1171505E+00
         21   -1    0    0  503  502  0.00000000000E+00  0.00000000000E+00  0.18816227783E+03  0.18816227783E+03  0.00000000000E+00 0.  1.
         21   -1    0    0  501  503 -0.00000000000E+00 -0.00000000000E+00 -0.16722860406E+03  0.16722860406E+03  0.00000000000E+00 0.  1.
          6    1    1    2  501    0 -0.37789749829E+02  0.66430299171E+01 -0.98148599709E+01  0.17650078333E+03  0.17200000000E+03 0. -1.
         -6    1    1    2    0  502  0.37789749829E+02 -0.66430299171E+01  0.30748533740E+02  0.17889009857E+03  0.17200000000E+03 0. -1.
</event>
<event>
 4    1  0.1235203E+000  0.1770451E+03  0.7818608E-02  0.1170694E+00
         21   -1    0    0  501  502  0.00000000000E+00  0.00000000000E+00  0.14017884799E+03  0.14017884799E+03  0.00000000000E+00 0.  1.
         21   -1    0    0  502  503 -0.00000000000E+00 -0.00000000000E+00 -0.25889800636E+03  0.25889800636E+03  0.00000000000E+00 0.  1.
          6    1    1    2  501    0 -0.18326412871E+02 -0.37750481016E+02  0.14311136781E+02  0.17762253478E+03  0.17200000000E+03 0. -1.
         -6    1    1    2    0  503  0.18326412871E+02  0.37750481016E+02 -0.13303029515E+03  0.22145431956E+03  0.17200000000E+03 0. -1.
</event>
<event>
 4    1  0.1235203E+000  0.2010942E+03  0.7818608E-02  0.1148819E+00
         21   -1    0    0  501  502  0.00000000000E+00  0.00000000000E+00  0.61405541691E+03  0.61405541691E+03  0.00000000000E+00 0.  1.
         21   -1    0    0  502  503 -0.00000000000E+00 -0.00000000000E+00 -0.71083814123E+02  0.71083814123E+02  0.00000000000E+00 0. -1.
          6    1    1    2  501    0 -0.29969827753E+02  0.99783232837E+02  0.36439253286E+03  0.41619803235E+03  0.17200000000E+03 0.  1.
         -6    1    1    2    0  503  0.29969827753E+02 -0.99783232837E+02  0.17857906993E+03  0.26894119868E+03  0.17200000000E+03 0. -1.
</event>
<event>
 4    1  0.1235203E+000  0.1732010E+03  0.7818608E-02  0.1174550E+00
         21   -1    0    0  501  502  0.00000000000E+00  0.00000000000E+00  0.50697853020E+02  0.50697853020E+02  0.00000000000E+00 0. -1.
         21   -1    0    0  502  503 -0.00000000000E+00 -0.00000000000E+00 -0.59190963014E+03  0.59190963014E+03  0.00000000000E+00 0. -1.
          6    1    1    2  501    0  0.60042252616E+01  0.19455699238E+02 -0.26474862461E+03  0.31637068320E+03  0.17200000000E+03 0. -1.
         -6    1    1    2    0  503 -0.60042252616E+01 -0.19455699238E+02 -0.27646315251E+03  0.32623679996E+03  0.17200000000E+03 0. -1.
</event>
<event>
 4    1  0.1235203E+000  0.1957333E+03  0.7818608E-02  0.1153390E+00
         21   -1    0    0  503  502  0.00000000000E+00  0.00000000000E+00  0.11403761203E+03  0.11403761203E+03  0.00000000000E+00 0. -1.
         21   -1    0    0  501  503 -0.00000000000E+00 -0.00000000000E+00 -0.74969696722E+03  0.74969696722E+03  0.00000000000E+00 0. -1.
          6    1    1    2  501    0  0.59572565290E+02  0.71962838001E+02 -0.63865752855E+03  0.66797827761E+03  0.17200000000E+03 0. -1.
         -6    1    1    2    0  502 -0.59572565290E+02 -0.71962838001E+02  0.29981733626E+01  0.19575630164E+03  0.17200000000E+03 0. -1.
</event>
<event>
 4    1  0.1235203E+000  0.2682961E+03  0.7818608E-02  0.1102259E+00
         21   -1    0    0  503  502  0.00000000000E+00  0.00000000000E+00  0.23369263937E+03  0.23369263937E+03  0.00000000000E+00 0.  1.
         21   -1    0    0  501  503 -0.00000000000E+00 -0.00000000000E+00 -0.38039162790E+03  0.38039162790E+03  0.00000000000E+00 0.  1.
          6    1    1    2  501    0 -0.10969539001E+03 -0.17425755677E+03 -0.20727300068E+03  0.33903520686E+03  0.17200000000E+03 0.  1.
         -6    1    1    2    0  502  0.10969539001E+03  0.17425755677E+03  0.60574012150E+02  0.27504906040E+03  0.17200000000E+03 0.  1.
</event>
<event>
 4    1  0.1235203E+000  0.1743298E+03  0.7818608E-02  0.1173406E+00
         21   -1    0    0  501  502  0.00000000000E+00  0.00000000000E+00  0.41281936421E+02  0.41281936421E+02  0.00000000000E+00 0. -1.
         21   -1    0    0  502  503 -0.00000000000E+00 -0.00000000000E+00 -0.10682002479E+04  0.10682002479E+04  0.00000000000E+00 0. -1.
          6    1    1    2  501    0  0.15936167100E+02 -0.23514374619E+02 -0.20418255984E+03  0.26847980367E+03  0.17200000000E+03 0. -1.
         -6    1    1    2    0  503 -0.15936167100E+02  0.23514374619E+02 -0.82273575161E+03  0.84100238063E+03  0.17200000000E+03 0. -1.
</event>
<event>
 4    1  0.1235203E+000  0.1855829E+03  0.7818608E-02  0.1162507E+00
         21   -1    0    0  501  502  0.00000000000E+00  0.00000000000E+00  0.78472153862E+02  0.78472153862E+02  0.00000000000E+00 0. -1.
         21   -1    0    0  502  503 -0.00000000000E+00 -0.00000000000E+00 -0.44262210957E+03  0.44262210957E+03  0.00000000000E+00 0. -1.
          6    1    1    2  501    0  0.59008020110E+02 -0.37081708632E+02 -0.15816479702E+03  0.24383827133E+03  0.17200000000E+03 0. -1.
         -6    1    1    2    0  503 -0.59008020110E+02  0.37081708632E+02 -0.20598515869E+03  0.27725599210E+03  0.17200000000E+03 0. -1.
</event>
<event>
 4    1  0.1235203E+000  0.2008279E+03  0.7818608E-02  0.1149042E+00
         21   -1    0    0  503  502  0.00000000000E+00  0.00000000000E+00  0.13727895449E+03  0.13727895449E+03  0.00000000000E+00 0.  1.
         21   -1    0    0  501  503 -0.00000000000E+00 -0.00000000000E+00 -0.34896479985E+03  0.34896479985E+03  0.00000000000E+00 0.  1.
          6    1    1    2  501    0  0.10349103734E+03 -0.61197343184E+01 -0.20251134604E+03  0.28520640110E+03  0.17200000000E+03 0.  1.
         -6    1    1    2    0  502 -0.10349103734E+03  0.61197343184E+01 -0.91744993227E+01  0.20103735323E+03  0.17200000000E+03 0.  1.
</event>
<event>
 4    1  0.1235203E+000  0.3610416E+03  0.7818608E-02  0.1058172E+00
         21   -1    0    0  503  502  0.00000000000E+00  0.00000000000E+00  0.20870606738E+04  0.20870606738E+04  0.00000000000E+00 0. -1.
         21   -1    0    0  501  503 -0.00000000000E+00 -0.00000000000E+00 -0.75220437821E+02  0.75220437821E+02  0.00000000000E+00 0. -1.
          6    1    1    2  501    0  0.18399722555E+03  0.25867359849E+03  0.56056909196E+03  0.66677486187E+03  0.17200000000E+03 0. -1.
         -6    1    1    2    0  502 -0.18399722555E+03 -0.25867359849E+03  0.14512711440E+04  0.14955062498E+04  0.17200000000E+03 0. -1.
</event>
<event>
 4    1  0.1235203E+000  0.1968826E+03  0.7818608E-02  0.1152396E+00
         21   -1    0    0  503  502  0.00000000000E+00  0.00000000000E+00  0.24911312816E+03  0.24911312816E+03  0.00000000000E+00 0. -1.
         21   -1    0    0  501  503 -0.00000000000E+00 -0.00000000000E+00 -0.19041487210E+03  0.19041487210E+03  0.00000000000E+00 0. -1.
          6    1    1    2  501    0 -0.92949038536E+02 -0.23221474112E+02 -0.64616613291E+02  0.20721502681E+03  0.17200000000E+03 0. -1.
         -6    1    1    2    0  502  0.92949038536E+02  0.23221474112E+02  0.12331486935E+03  0.23231297344E+03  0.17200000000E+03 0. -1.
</event>
<event>
 4    1  0.1235203E+000  0.3240554E+03  0.7818608E-02  0.1073798E+00
         21   -1    0    0  501  502  0.00000000000E+00  0.00000000000E+00  0.25284732036E+03  0.25284732036E+03  0.00000000000E+00 0. -1.
         21   -1    0    0  502  503 -0.00000000000E+00 -0.00000000000E+00 -0.58577767530E+03  0.58577767530E+03  0.00000000000E+00 0. -1.
          6    1    1    2  501    0  0.13636249424E+03 -0.23839714496E+03  0.59729721060E+02  0.32951413952E+03  0.17200000000E+03 0. -1.
         -6    1    1    2    0  503 -0.13636249424E+03  0.23839714496E+03 -0.39266007600E+03  0.50911085615E+03  0.17200000000E+03 0. -1.
</event>
<event>
 4    1  0.1235203E+000  0.2013934E+03  0.7818608E-02  0.1148569E+00
         21   -1    0    0  503  502  0.00000000000E+00  0.00000000000E+00  0.28906409793E+03  0.28906409793E+03  0.00000000000E+00 0.  1.
         21   -1    0    0  501  503 -0.00000000000E+00 -0.00000000000E+00 -0.17626215974E+03  0.17626215974E+03  0.00000000000E+00 0. -1.
          6    1    1    2  501    0 -0.59611524055E+02 -0.86149571897E+02 -0.48673186335E+02  0.20719160602E+03  0.17200000000E+03 0. -1.
         -6    1    1    2    0  502  0.59611524055E+02  0.86149571897E+02  0.16147512453E+03  0.25813465164E+03  0.17200000000E+03 0.  1.
</event>
<event>
 4    1  0.1235203E+000  0.2985966E+03  0.7818608E-02  0.1085944E+00
         21   -1    0    0  501  502  0.00000000000E+00  0.00000000000E+00  0.42535562745E+03  0.42535562745E+03  0.00000000000E+00 0.  1.
         21   -1    0    0  502  503 -0.00000000000E+00 -0.00000000000E+00 -0.22210849825E+03  0.22210849825E+03  0.00000000000E+00 0. -1.
          6    1    1    2  501    0  0.23736614195E+03  0.56861392862E+02  0.24836743393E+02  0.29962771428E+03  0.17200000000E+03 0. -1.
         -6    1    1    2    0  503 -0.23736614195E+03 -0.56861392862E+02  0.17841038581E+03  0.34783641142E+03  0.17200000000E+03 0. -1.
</event>
<event>
 4    1  0.1235203E+000  0.3813234E+03  0.7818608E-02  0.1050446E+00
         21   -1    0    0  503  502  0.00000000000E+00  0.00000000000E+00  0.20049482565E+03  0.20049482565E+03  0.00000000000E+00 0. -1.
         21   -1    0    0  501  503 -0.00000000000E+00 -0.00000000000E+00 -0.73910800745E+03  0.73910800745E+03  0.00000000000E+00 0.  1.
          6    1    1    2  501    0 -0.23949229929E+03 -0.24179939747E+03 -0.20496123560E+03  0.43291641010E+03  0.17200000000E+03 0.  1.
         -6    1    1    2    0  502  0.23949229929E+03  0.24179939747E+03 -0.33365194621E+03  0.50668642300E+03  0.17200000000E+03 0.  1.
</event>
<event>
 4    1  0.1235203E+000  0.1849557E+03  0.7818608E-02  0.1163091E+00
         21   -1    0    0  501  502  0.00000000000E+00  0.00000000000E+00  0.30460917315E+03  0.30460917315E+03  0.00000000000E+00 0. -1.
         21   -1    0    0  502  503 -0.00000000000E+00 -0.00000000000E+00 -0.11259630399E+03  0.11259630399E+03  0.00000000000E+00 0. -1.
          6    1    1    2  501    0  0.32988370228E+02 -0.59467475326E+02  0.85365005172E+02  0.20370517249E+03  0.17200000000E+03 0.  1.
         -6    1    1    2    0  503 -0.32988370228E+02  0.59467475326E+02  0.10664786399E+03  0.21350030465E+03  0.17200000000E+03 0.  1.
</event>
<event>
 4    1  0.1235203E+000  0.2236178E+03  0.7818608E-02  0.1131214E+00
         21   -1    0    0  503  502  0.00000000000E+00  0.00000000000E+00  0.93264153280E+03  0.93264153280E+03  0.00000000000E+00 0.  1.
         21   -1    0    0  501  503 -0.00000000000E+00 -0.00000000000E+00 -0.56607554424E+02  0.56607554424E+02  0.00000000000E+00 0. -1.
          6    1    1    2  501    0 -0.10789316867E+03  0.93701644545E+02  0.55171524242E+03  0.59531054313E+03  0.17200000000E+03 0. -1.
         -6    1    1    2    0  502  0.10789316867E+03 -0.93701644545E+02  0.32431873595E+03  0.39393854410E+03  0.17200000000E+03 0. -1.
</event>
<event>
 4    1  0.1235203E+000  0.2124439E+03  0.7818608E-02  0.1139645E+00
         21   -1    0    0  503  502  0.00000000000E+00  0.00000000000E+00  0.17315226053E+03  0.17315226053E+03  0.00000000000E+00 0.  1.
         21   -1    0    0  501  503 -0.00000000000E+00 -0.00000000000E+00 -0.36614256695E+03  0.36614256695E+03  0.00000000000E+00 0.  1.
          6    1    1    2  501    0 -0.12423071592E+03  0.10730995491E+02 -0.24123184792E+03  0.32144242018E+03  0.17200000000E+03 0.  1.
         -6    1    1    2    0  502  0.12423071592E+03 -0.10730995491E+02  0.48241541497E+02  0.21785240730E+03  0.17200000000E+03 0.  1.
</event>
<event>
 4    1  0.1235203E+000  0.1844336E+03  0.7818608E-02  0.1163580E+00
         21   -1    0    0  503  502  0.00000000000E+00  0.00000000000E+00  0.33376343678E+03  0.33376343678E+03  0.00000000000E+00 0. -1.
         21   -1    0    0  501  503 -0.00000000000E+00 -0.00000000000E+00 -0.10747289429E+03  0.10747289429E+03  0.00000000000E+00 0.  1.
          6    1    1    2  501    0  0.20280675916E+02 -0.63407138569E+02  0.62978599940E+02  0.19488990504E+03  0.17200000000E+03 0.  1.
         -6    1    1    2    0  502 -0.20280675916E+02  0.63407138569E+02  0.16331194256E+03  0.24634642603E+03  0.17200000000E+03 0. -1.
</event>
<event>
 4    1  0.1235203E+000  0.2745087E+03  0.7818608E-02  0.1098727E+00
         21   -1    0    0  501  502  0.00000000000E+00  0.00000000000E+00  0.10758056244E+03  0.10758056244E+03  0.00000000000E+00 0. -1.
         21   -1    0    0  502  503 -0.00000000000E+00 -0.00000000000E+00 -0.11605656298E+04  0.11605656298E+04  0.00000000000E+00 0. -1.
          6    1    1    2  501    0 -0.21354102735E+03  0.13087166039E+02 -0.12724989505E+03  0.30256830645E+03  0.17200000000E+03 0. -1.
         -6    1    1    2    0  503  0.21354102735E+03 -0.13087166039E+02 -0.92573517228E+03  0.96557788577E+03  0.17200000000E+03 0. -1.
</event>
<event>
 4    1  0.1235203E+000  0.2118627E+03  0.7818608E-02  0.1140099E+00
         21   -1    0    0  501  502  0.00000000000E+00  0.00000000000E+00  0.25399484777E+03  0.25399484777E+03  0.00000000000E+00 0. -1.
         21   -1    0    0  502  503 -0.00000000000E+00 -0.00000000000E+00 -0.52141548178E+03  0.52141548178E+03  0.00000000000E+00 0. -1.
          6    1    1    2  501    0  0.47376298446E+02 -0.11426848761E+03  0.18151989855E+03  0.27898973903E+03  0.17200000000E+03 0. -1.
         -6    1    1    2    0  503 -0.47376298446E+02  0.11426848761E+03 -0.44894053256E+03  0.49642059051E+03  0.17200000000E+03 0. -1.
</event>
<event>
 4    1  0.1235203E+000  0.1736834E+03  0.7818608E-02  0.1174060E+00
         21   -1    0    0  501  502  0.00000000000E+00  0.00000000000E+00  0.35622983816E+03  0.35622983816E+03  0.00000000000E+00 0.  1.
         21   -1    0    0  502  503 -0.00000000000E+00 -0.00000000000E+00 -0.11889179850E+03  0.11889179850E+03  0.00000000000E+00 0.  1.
          6    1    1    2  501    0 -0.24014164198E+02 -0.22864903564E+01 -0.87635102881E+01  0.17390430481E+03  0.17200000000E+03 0.  1.
         -6    1    1    2    0  503  0.24014164198E+02  0.22864903564E+01  0.24610154995E+03  0.30121733185E+03  0.17200000000E+03 0.  1.
</event>
<event>
 4    1  0.1235203E+000  0.1749749E+03  0.7818608E-02  0.1172757E+00
         21   -1    0    0  501  502  0.00000000000E+00  0.00000000000E+00  0.19689513144E+03  0.19689513144E+03  0.00000000000E+00 0. -1.
         21   -1    0    0  502  503 -0.00000000000E+00 -0.00000000000E+00 -0.42827646831E+03  0.42827646831E+03  0.00000000000E+00 0. -1.
          6    1    1    2  501    0 -0.18886477868E+02 -0.25990658358E+02  0.13377716207E+03  0.22025562980E+03  0.17200000000E+03 0. -1.
         -6    1    1    2    0  503  0.18886477868E+02  0.25990658358E+02 -0.36515849894E+03  0.40491596995E+03  0.17200000000E+03 0. -1.
</event>
<event>
 4    1  0.1235203E+000  0.1817097E+03  0.7818608E-02  0.1166159E+00
         21   -1    0    0  503  502  0.00000000000E+00  0.00000000000E+00  0.98660089920E+03  0.98660089920E+03  0.00000000000E+00 0. -1.
         21   -1    0    0  501  503 -0.00000000000E+00 -0.00000000000E+00 -0.35792215734E+02  0.35792215734E+02  0.00000000000E+00 0. -1.
          6    1    1    2  501    0  0.41130691523E+02 -0.41745417369E+02  0.60570309799E+03  0.63237224526E+03  0.17200000000E+03 0. -1.
         -6    1    1    2    0  502 -0.41130691523E+02  0.41745417369E+02  0.34510558548E+03  0.39002086968E+03  0.17200000000E+03 0. -1.
</event>
<event>
 4    1  0.1235203E+000  0.2104358E+03  0.7818608E-02  0.1141221E+00
         21   -1    0    0  503  502  0.00000000000E+00  0.00000000000E+00  0.10276020233E+03  0.10276020233E+03  0.00000000000E+00 0.  1.
         21   -1    0    0  501  503 -0.00000000000E+00 -0.00000000000E+00 -0.56434150148E+03  0.56434150148E+03  0.00000000000E+00 0.  1.
          6    1    1    2  501    0 -0.67021086097E+02  0.10103159433E+03 -0.39296259846E+03  0.44576093685E+03  0.17200000000E+03 0.  1.
         -6    1    1    2    0  502  0.67021086097E+02 -0.10103159433E+03 -0.68618700679E+02  0.22134076696E+03  0.17200000000E+03 0.  1.
</event>
<event>
 4    1  0.1235203E+000  0.2491211E+03  0.7818608E-02  0.1113862E+00
         21   -1    0    0  503  502  0.00000000000E+00  0.00000000000E+00  0.23247178976E+04  0.23247178976E+04  0.00000000000E+00 0.  1.
         21   -1    0    0  501  503 -0.00000000000E+00 -0.00000000000E+00 -0.26701866146E+02  0.26701866146E+02  0.00000000000E+00 0. -1.
          6    1    1    2  501    0  0.86057625055E+02  0.15833952519E+03  0.11660132630E+04  0.11923289184E+04  0.17200000000E+03 0.  1.
         -6    1    1    2    0  502 -0.86057625055E+02 -0.15833952519E+03  0.11320027684E+04  0.11590908454E+04  0.17200000000E+03 0. -1.
</event>
<event>
 4    1  0.1235203E+000  0.1945869E+03  0.7818608E-02  0.1154388E+00
         21   -1    0    0  501  502  0.00000000000E+00  0.00000000000E+00  0.31272108886E+03  0.31272108886E+03  0.00000000000E+00 0.  1.
         21   -1    0    0  502  503 -0.00000000000E+00 -0.00000000000E+00 -0.23958170560E+03  0.23958170560E+03  0.00000000000E+00 0.  1.
          6    1    1    2  501    0 -0.81273183030E+02  0.40923270774E+02  0.23078525914E+03  0.30187063488E+03  0.17200000000E+03 0.  1.
         -6    1    1    2    0  503  0.81273183030E+02 -0.40923270774E+02 -0.15764587588E+03  0.25043215958E+03  0.17200000000E+03 0.  1.
</event>
<event>
 4    1  0.1235203E+000  0.2100315E+03  0.7818608E-02  0.1141541E+00
         21   -1    0    0  501  502  0.00000000000E+00  0.00000000000E+00  0.93652640681E+03  0.93652640681E+03  0.00000000000E+00 0.  1.
         21   -1    0    0  502  503 -0.00000000000E+00 -0.00000000000E+00 -0.54385600856E+02  0.54385600856E+02  0.00000000000E+00 0. -1.
          6    1    1    2  501    0  0.11070467831E+03 -0.47683365872E+02  0.62237364125E+03  0.65685780691E+03  0.17200000000E+03 0.  1.
         -6    1    1    2    0  503 -0.11070467831E+03  0.47683365872E+02  0.25976716471E+03  0.33405420076E+03  0.17200000000E+03 0. -1.
</event>
<event>
 4    1  0.1235203E+000  0.2369079E+03  0.7818608E-02  0.1121870E+00
         21   -1    0    0  503  502  0.00000000000E+00  0.00000000000E+00  0.25449248539E+03  0.25449248539E+03  0.00000000000E+00 0.  1.
         21   -1    0    0  501  503 -0.00000000000E+00 -0.00000000000E+00 -0.83454348928E+03  0.83454348928E+03  0.00000000000E+00 0. -1.
          6    1    1    2  501    0  0.15129570696E+03 -0.60423293576E+02 -0.75708663616E+03  0.79328780402E+03  0.17200000000E+03 0. -1.
         -6    1    1    2    0  502 -0.15129570696E+03  0.60423293576E+02  0.17703563227E+03  0.29574817065E+03  0.17200000000E+03 0.  1.
</event>
<event>
 4    1  0.1235203E+000  0.2024972E+03  0.7818608E-02  0.1147649E+00
         21   -1    0    0  501  502  0.00000000000E+00  0.00000000000E+00  0.87683549520E+02  0.87683549520E+02  0.00000000000E+00 0.  1.
         21   -1    0    0  502  503 -0.00000000000E+00 -0.00000000000E+00 -0.49058233695E+03  0.49058233695E+03  0.00000000000E+00 0.  1.
          6    1    1    2  501    0  0.30997395884E+02  0.10227551858E+03 -0.13893562512E+03  0.24557733645E+03  0.17200000000E+03 0. -1.
         -6    1    1    2    0  503 -0.30997395884E+02 -0.10227551858E+03 -0.26396316231E+03  0.33268855001E+03  0.17200000000E+03 0. -1.
</event>
<event>
 4    1  0.1235203E+000  0.1866702E+03  0.7818608E-02  0.1161499E+00
         21   -1    0    0  503  502  0.00000000000E+00  0.00000000000E+00  0.16523201750E+04  0.16523201750E+04  0.00000000000E+00 0. -1.
         21   -1    0    0  501  503 -0.00000000000E+00 -0.00000000000E+00 -0.53835692989E+02  0.53835692989E+02  0.00000000000E+00 0. -1.
          6    1    1    2  501    0  0.46750731204E+02  0.55462872350E+02  0.13391185969E+03  0.22973494998E+03  0.17200000000E+03 0. -1.
         -6    1    1    2    0  502 -0.46750731204E+02 -0.55462872350E+02  0.14645726223E+04  0.14764209180E+04  0.17200000000E+03 0. -1.
</event>
<event>
 4    1  0.1235203E+000  0.2519179E+03  0.7818608E-02  0.1112099E+00
         21   -1    0    0  503  502  0.00000000000E+00  0.00000000000E+00  0.87362851974E+03  0.87362851974E+03  0.00000000000E+00 0. -1.
         21   -1    0    0  501  503 -0.00000000000E+00 -0.00000000000E+00 -0.86620409728E+02  0.86620409728E+02  0.00000000000E+00 0. -1.
          6    1    1    2  501    0  0.51539556198E+02  0.17669827017E+03  0.20063434015E+03  0.32205083912E+03  0.17200000000E+03 0. -1.
         -6    1    1    2    0  502 -0.51539556198E+02 -0.17669827017E+03  0.58637376986E+03  0.63819809034E+03  0.17200000000E+03 0. -1.
</event>
<event>
 4    1  0.1235203E+000  0.1933339E+03  0.7818608E-02  0.1155488E+00
         21   -1    0    0  501  502  0.00000000000E+00  0.00000000000E+00  0.93929897935E+02  0.93929897935E+02  0.00000000000E+00 0. -1.
         21   -1    0    0  502  503 -0.00000000000E+00 -0.00000000000E+00 -0.10792091063E+04  0.10792091063E+04  0.00000000000E+00 0. -1.
          6    1    1    2  501    0  0.72652930158E+02 -0.50155289192E+02 -0.26594881618E+02  0.19515452601E+03  0.17200000000E+03 0. -1.
         -6    1    1    2    0  503 -0.72652930158E+02  0.50155289192E+02 -0.95868432673E+03  0.97798447821E+03  0.17200000000E+03 0. -1.
</event>
<event>
 4    1  0.1235203E+000  0.1790228E+03  0.7818608E-02  0.1168752E+00
         21   -1    0    0  501  502  0.00000000000E+00  0.00000000000E+00  0.13386790735E+04  0.13386790735E+04  0.00000000000E+00 0. -1.
         21   -1    0    0  502  503 -0.00000000000E+00 -0.00000000000E+00 -0.39904710354E+02  0.39904710354E+02  0.00000000000E+00 0.  1.
          6    1    1    2  501    0  0.19649519361E+02 -0.45596761942E+02  0.21341427014E+03  0.27855846605E+03  0.17200000000E+03 0.  1.
         -6    1    1    2    0  503 -0.19649519361E+02  0.45596761942E+02  0.10853600930E+04  0.11000253178E+04  0.17200000000E+03 0. -1.
</event>
<event>
 4    1  0.1235203E+000  0.1899459E+03  0.7818608E-02  0.1158510E+00
         21   -1    0    0  501  502  0.00000000000E+00  0.00000000000E+00  0.15748614650E+03  0.15748614650E+03  0.00000000000E+00 0.  1.
         21   -1    0    0  502  503 -0.00000000000E+00 -0.00000000000E+00 -0.29478767590E+03  0.29478767590E+03  0.00000000000E+00 0.  1.
          6    1    1    2  501    0  0.63094636088E+02  0.50144761427E+02  0.38100321141E+02  0.19372935935E+03  0.17200000000E+03 0.  1.
         -6    1    1    2    0  503 -0.63094636088E+02 -0.50144761427E+02 -0.17540185054E+03  0.25854446305E+03  0.17200000000E+03 0.  1.
</event>
<event>
 4    1  0.1235203E+000  0.2178784E+03  0.7818608E-02  0.1135475E+00
         21   -1    0    0  501  502  0.00000000000E+00  0.00000000000E+00  0.69423501652E+03  0.69423501652E+03  0.00000000000E+00 0.  1.
         21   -1    0    0  502  503 -0.00000000000E+00 -0.00000000000E+00 -0.10741737664E+03  0.10741737664E+03  0.00000000000E+00 0. -1.
          6    1    1    2  501    0 -0.55993570234E+02 -0.12145672567E+03  0.53504688162E+03  0.57770769569E+03  0.17200000000E+03 0.  1.
         -6    1    1    2    0  503  0.55993570234E+02  0.12145672567E+03  0.51770758247E+02  0.22394469748E+03  0.17200000000E+03 0. -1.
</event>
<event>
 4    1  0.1235203E+000  0.1859100E+03  0.7818608E-02  0.1162203E+00
         21   -1    0    0  503  502  0.00000000000E+00  0.00000000000E+00  0.24678474511E+03  0.24678474511E+03  0.00000000000E+00 0. -1.
         21   -1    0    0  501  503 -0.00000000000E+00 -0.00000000000E+00 -0.12489816083E+04  0.12489816083E+04  0.00000000000E+00 0. -1.
          6    1    1    2  501    0 -0.29209399653E+02  0.64228818237E+02 -0.12058042619E+04  0.12200518219E+04  0.17200000000E+03 0. -1.
         -6    1    1    2    0  502  0.29209399653E+02 -0.64228818237E+02  0.20360739866E+03  0.27571453156E+03  0.17200000000E+03 0. -1.
</event>
<event>
 4    1  0.1235203E+000  0.1898484E+03  0.7818608E-02  0.1158598E+00
         21   -1    0    0  503  502  0.00000000000E+00  0.00000000000E+00  0.21679095084E+03  0.21679095084E+03  0.00000000000E+00 0. -1.
         21   -1    0    0  501  503 -0.00000000000E+00 -0.00000000000E+00 -0.18981232563E+03  0.18981232563E+03  0.00000000000E+00 0. -1.
          6    1    1    2  501    0  0.28426612490E+02 -0.75168674513E+02 -0.58133144720E+02  0.19854940050E+03  0.17200000000E+03 0. -1.
         -6    1    1    2    0  502 -0.28426612490E+02  0.75168674513E+02  0.85111769924E+02  0.20805387597E+03  0.17200000000E+03 0. -1.
</event>
<event>
 4    1  0.1235203E+000  0.2698778E+03  0.7818608E-02  0.1101350E+00
         21   -1    0    0  501  502  0.00000000000E+00  0.00000000000E+00  0.88071009067E+03  0.88071009067E+03  0.00000000000E+00 0. -1.
         21   -1    0    0  502  503 -0.00000000000E+00 -0.00000000000E+00 -0.86326836312E+02  0.86326836312E+02  0.00000000000E+00 0.  1.
          6    1    1    2  501    0  0.12624828498E+03 -0.16526153867E+03  0.49630973271E+03  0.56494013524E+03  0.17200000000E+03 0. -1.
         -6    1    1    2    0  503 -0.12624828498E+03  0.16526153867E+03  0.29807352165E+03  0.40209679175E+03  0.17200000000E+03 0.  1.
</event>
<event>
 4    1  0.1235203E+000  0.2280834E+03  0.7818608E-02  0.1127996E+00
         21   -1    0    0  501  502  0.00000000000E+00  0.00000000000E+00  0.65017253534E+03  0.65017253534E+03  0.00000000000E+00 0.  1.
         21   -1    0    0  502  503 -0.00000000000E+00 -0.00000000000E+00 -0.80477758392E+02  0.80477758392E+02  0.00000000000E+00 0.  1.
          6    1    1    2  501    0 -0.65058683974E+02 -0.13492746534E+03  0.31261894532E+03  0.38697888604E+03  0.17200000000E+03 0.  1.
         -6    1    1    2    0  503  0.65058683974E+02  0.13492746534E+03  0.25707583163E+03  0.34367140770E+03  0.17200000000E+03 0.  1.
</event>
<event>
 4    1  0.1235203E+000  0.2130448E+03  0.7818608E-02  0.1139177E+00
         21   -1    0    0  501  502  0.00000000000E+00  0.00000000000E+00  0.18009492048E+03  0.18009492048E+03  0.00000000000E+00 0. -1.
         21   -1    0    0  502  503 -0.00000000000E+00 -0.00000000000E+00 -0.25343065449E+03  0.25343065449E+03  0.00000000000E+00 0.  1.
          6    1    1    2  501    0 -0.71636850090E+02 -0.10330652595E+03 -0.20513467792E+02  0.21403008890E+03  0.17200000000E+03 0. -1.
         -6    1    1    2    0  503  0.71636850090E+02  0.10330652595E+03 -0.52822266221E+02  0.21949548607E+03  0.17200000000E+03 0. -1.
</event>
<event>
 4    1  0.1235203E+000  0.2071436E+03  0.7818608E-02  0.1143848E+00
         21   -1    0    0  501  502  0.00000000000E+00  0.00000000000E+00  0.79806322207E+03  0.79806322207E+03  0.00000000000E+00 0.  1.
         21   -1    0    0  502  503 -0.00000000000E+00 -0.00000000000E+00 -0.85441255428E+02  0.85441255428E+02  0.00000000000E+00 0.  1.
          6    1    1    2  501    0  0.57932662827E+02  0.99841286143E+02  0.62528272504E+03  0.65870096559E+03  0.17200000000E+03 0.  1.
         -6    1    1    2    0  503 -0.57932662827E+02 -0.99841286143E+02  0.87339241602E+02  0.22480351190E+03  0.17200000000E+03 0.  1.
</event>
<event>
 4    1  0.1235203E+000  0.2417671E+03  0.7818608E-02  0.1118621E+00
         21   -1    0    0  501  502  0.00000000000E+00  0.00000000000E+00  0.11445813763E+03  0.11445813763E+03  0.00000000000E+00 0. -1.
         21   -1    0    0  502  503 -0.00000000000E+00 -0.00000000000E+00 -0.62310069135E+03  0.62310069135E+03  0.00000000000E+00 0. -1.
          6    1    1    2  501    0  0.13795812604E+03 -0.99170997962E+02 -0.97677474379E+02  0.26075317904E+03  0.17200000000E+03 0.  1.
         -6    1    1    2    0  503 -0.13795812604E+03  0.99170997962E+02 -0.41096507934E+03  0.47680564994E+03  0.17200000000E+03 0.  1.
</event>
<event>
 4    1  0.1235203E+000  0.1959559E+03  0.7818608E-02  0.1153197E+00
         21   -1    0    0  501  502  0.00000000000E+00  0.00000000000E+00  0.15371618892E+03  0.15371618892E+03  0.00000000000E+00 0.  1.
         21   -1    0    0  502  503 -0.00000000000E+00 -0.00000000000E+00 -0.29381013188E+03  0.29381013188E+03  0.00000000000E+00 0.  1.
          6    1    1    2  501    0  0.90539899333E+02  0.24844622636E+02  0.16553031545E+02  0.19665383672E+03  0.17200000000E+03 0.  1.
         -6    1    1    2    0  503 -0.90539899333E+02 -0.24844622636E+02 -0.15664697450E+03  0.25087248407E+03  0.17200000000E+03 0.  1.
</event>
<event>
 4    1  0.1235203E+000  0.2023652E+03  0.7818608E-02  0.1147759E+00
         21   -1    0    0  501  502  0.00000000000E+00  0.00000000000E+00  0.16871703934E+04  0.16871703934E+04  0.00000000000E+00 0. -1.
         21   -1    0    0  502  503 -0.00000000000E+00 -0.00000000000E+00 -0.28556184756E+02  0.28556184756E+02  0.00000000000E+00 0.  1.
          6    1    1    2  501    0  0.92785261038E+02 -0.52522276139E+02  0.11615695262E+04  0.11790655022E+04  0.17200000000E+03 0. -1.
         -6    1    1    2    0  503 -0.92785261038E+02  0.52522276139E+02  0.49704468245E+03  0.53666107601E+03  0.17200000000E+03 0.  1.
</event>
<event>
 4    1  0.1235203E+000  0.2617026E+03  0.7818608E-02  0.1106125E+00
         21   -1    0    0  501  502  0.00000000000E+00  0.00000000000E+00  0.33697000659E+03  0.33697000659E+03  0.00000000000E+00 0. -1.
         21   -1    0    0  502  503 -0.00000000000E+00 -0.00000000000E+00 -0.23620261629E+03  0.23620261629E+03  0.00000000000E+00 0. -1.
          6    1    1    2  501    0 -0.16539896067E+03 -0.10745899037E+03 -0.56663600592E+02  0.26776671644E+03  0.17200000000E+03 0. -1.
         -6    1    1    2    0  503  0.16539896067E+03  0.10745899037E+03  0.15743099089E+03  0.30540590645E+03  0.17200000000E+03 0. -1.
</event>
<event>
 4    1  0.1235203E+000  0.2662208E+03  0.7818608E-02  0.1103462E+00
         21   -1    0    0  503  502  0.00000000000E+00  0.00000000000E+00  0.55842849252E+03  0.55842849252E+03  0.00000000000E+00 0. -1.
         21   -1    0    0  501  503 -0.00000000000E+00 -0.00000000000E+00 -0.16649372958E+03  0.16649372958E+03  0.00000000000E+00 0.  1.
          6    1    1    2  501    0 -0.19853387483E+03  0.43287809381E+02  0.19246574713E+02  0.26691565060E+03  0.17200000000E+03 0.  1.
         -6    1    1    2    0  502  0.19853387483E+03 -0.43287809381E+02  0.37268818823E+03  0.45800657151E+03  0.17200000000E+03 0.  1.
</event>
<event>
 4    1  0.1235203E+000  0.2550407E+03  0.7818608E-02  0.1110160E+00
         21   -1    0    0  503  502  0.00000000000E+00  0.00000000000E+00  0.52863482723E+02  0.52863482723E+02  0.00000000000E+00 0. -1.
         21   -1    0    0  501  503 -0.00000000000E+00 -0.00000000000E+00 -0.15225470478E+04  0.15225470478E+04  0.00000000000E+00 0.  1.
          6    1    1    2  501    0  0.71779427251E+02  0.17409618467E+03 -0.10798611247E+04  0.11095701042E+04  0.17200000000E+03 0. -1.
         -6    1    1    2    0  502 -0.71779427251E+02 -0.17409618467E+03 -0.38982244038E+03  0.46584042623E+03  0.17200000000E+03 0. -1.
</event>
<event>
 4    1  0.1235203E+000  0.1979714E+03  0.7818608E-02  0.1151462E+00
         21   -1    0    0  503  502  0.00000000000E+00  0.00000000000E+00  0.18053782440E+03  0.18053782440E+03  0.00000000000E+00 0. -1.
         21   -1    0    0  501  503 -0.00000000000E+00 -0.00000000000E+00 -0.26962133087E+03  0.26962133087E+03  0.00000000000E+00 0. -1.
          6    1    1    2  501    0  0.83554516090E+02  0.51257386055E+02 -0.14389328541E+03  0.24474058587E+03  0.17200000000E+03 0. -1.
         -6    1    1    2    0  502 -0.83554516090E+02 -0.51257386055E+02  0.54809778946E+02  0.20541856940E+03  0.17200000000E+03 0. -1.
</event>
<event>
 4    1  0.1235203E+000  0.2681820E+03  0.7818608E-02  0.1102325E+00
         21   -1    0    0  503  502  0.00000000000E+00  0.00000000000E+00  0.13678922192E+03  0.13678922192E+03  0.00000000000E+00 0.  1.
         21   -1    0    0  501  503 -0.00000000000E+00 -0.00000000000E+00 -0.11518572422E+04  0.11518572422E+04  0.00000000000E+00 0. -1.
          6    1    1    2  501    0  0.23240192549E+02  0.20444432932E+03 -0.98255961344E+03  0.10185013423E+04  0.17200000000E+03 0. -1.
         -6    1    1    2    0  502 -0.23240192549E+02 -0.20444432932E+03 -0.32508406878E+02  0.27014512185E+03  0.17200000000E+03 0.  1.
</event>
<event>
 4    1  0.1235203E+000  0.1753016E+03  0.7818608E-02  0.1172429E+00
         21   -1    0    0  501  502  0.00000000000E+00  0.00000000000E+00  0.33182866810E+02  0.33182866810E+02  0.00000000000E+00 0.  1.
         21   -1    0    0  502  503 -0.00000000000E+00 -0.00000000000E+00 -0.13169795935E+04  0.13169795935E+04  0.00000000000E+00 0.  1.
          6    1    1    2  501    0  0.23698212443E+02 -0.24187707031E+02 -0.27411841179E+03  0.32537909295E+03  0.17200000000E+03 0.  1.
         -6    1    1    2    0  503 -0.23698212443E+02  0.24187707031E+02 -0.10096783149E+04  0.10247833673E+04  0.17200000000E+03 0.  1.
</event>
<event>
 4    1  0.1235203E+000  0.1967495E+03  0.7818608E-02  0.1152511E+00
         21   -1    0    0  503  502  0.00000000000E+00  0.00000000000E+00  0.43232906017E+02  0.43232906017E+02  0.00000000000E+00 0. -1.
         21   -1    0    0  501  503 -0.00000000000E+00 -0.00000000000E+00 -0.94110302346E+03  0.94110302346E+03  0.00000000000E+00 0. -1.
          6    1    1    2  501    0  0.15069054005E+02 -0.94336011499E+02 -0.55740502019E+03  0.59110973261E+03  0.17200000000E+03 0.  1.
         -6    1    1    2    0  502 -0.15069054005E+02  0.94336011499E+02 -0.34046509726E+03  0.39322619687E+03  0.17200000000E+03 0.  1.
</event>
<event>
 4    1  0.1235203E+000  0.1924714E+03  0.7818608E-02  0.1156251E+00
         21   -1    0    0  503  502  0.00000000000E+00  0.00000000000E+00  0.63278730985E+03  0.63278730985E+03  0.00000000000E+00 0. -1.
         21   -1    0    0  501  503 -0.00000000000E+00 -0.00000000000E+00 -0.72647021158E+02  0.72647021158E+02  0.00000000000E+00 0. -1.
          6    1    1    2  501    0 -0.13629973696E+02  0.85296241304E+02  0.12465612224E+03  0.22931282951E+03  0.17200000000E+03 0. -1.
         -6    1    1    2    0  502  0.13629973696E+02 -0.85296241304E+02  0.43548416645E+03  0.47612150151E+03  0.17200000000E+03 0. -1.
</event>
<event>
 4    1  0.1235203E+000  0.2002190E+03  0.7818608E-02  0.1149554E+00
         21   -1    0    0  503  502  0.00000000000E+00  0.00000000000E+00  0.15507721387E+03  0.15507721387E+03  0.00000000000E+00 0. -1.
         21   -1    0    0  501  503 -0.00000000000E+00 -0.00000000000E+00 -0.52826090833E+03  0.52826090833E+03  0.00000000000E+00 0. -1.
          6    1    1    2  501    0 -0.99385874821E+02 -0.25021734615E+02 -0.43074930431E+03  0.47500800255E+03  0.17200000000E+03 0.  1.
         -6    1    1    2    0  502  0.99385874821E+02  0.25021734615E+02  0.57565609855E+02  0.20833011965E+03  0.17200000000E+03 0.  1.
</event>
<event>
 4    1  0.1235203E+000  0.2430195E+03  0.7818608E-02  0.1117797E+00
         21   -1    0    0  503  502  0.00000000000E+00  0.00000000000E+00  0.98891304680E+02  0.98891304680E+02  0.00000000000E+00 0.  1.
         21   -1    0    0  501  503 -0.00000000000E+00 -0.00000000000E+00 -0.64086286018E+03  0.64086286018E+03  0.00000000000E+00 0. -1.
          6    1    1    2  501    0  0.12950052873E+03 -0.11271250943E+03 -0.36752422393E+03  0.44060475701E+03  0.17200000000E+03 0.  1.
         -6    1    1    2    0  502 -0.12950052873E+03  0.11271250943E+03 -0.17444733157E+03  0.29914940785E+03  0.17200000000E+03 0.  1.
</event>
<event>
 4    1  0.1235203E+000  0.2279481E+03  0.7818608E-02  0.1128092E+00
         21   -1    0    0  501  502  0.00000000000E+00  0.00000000000E+00  0.46838806399E+03  0.46838806399E+03  0.00000000000E+00 0. -1.
         21   -1    0    0  502  503 -0.00000000000E+00 -0.00000000000E+00 -0.11323348510E+03  0.11323348510E+03  0.00000000000E+00 0. -1.
          6    1    1    2  501    0  0.13084096087E+03 -0.72505003691E+02  0.13613880581E+03  0.26550726365E+03  0.17200000000E+03 0. -1.
         -6    1    1    2    0  503 -0.13084096087E+03  0.72505003691E+02  0.21901577309E+03  0.31611428545E+03  0.17200000000E+03 0. -1.
</event>
<event>
 4    1  0.1235203E+000  0.1737197E+03  0.7818608E-02  0.1174023E+00
         21   -1    0    0  503  502  0.00000000000E+00  0.00000000000E+00  0.14623793056E+03  0.14623793056E+03  0.00000000000E+00 0.  1.
         21   -1    0    0  501  503 -0.00000000000E+00 -0.00000000000E+00 -0.34366536360E+03  0.34366536360E+03  0.00000000000E+00 0.  1.
          6    1    1    2  501    0 -0.17917818844E+02 -0.16537839593E+02  0.56113254993E+02  0.18255751356E+03  0.17200000000E+03 0.  1.
         -6    1    1    2    0  502  0.17917818844E+02  0.16537839593E+02 -0.25354068802E+03  0.30734578060E+03  0.17200000000E+03 0.  1.
</event>
<event>
 4    1  0.1235203E+000  0.1737415E+03  0.7818608E-02  0.1174001E+00
         21   -1    0    0  503  502  0.00000000000E+00  0.00000000000E+00  0.25904861081E+03  0.25904861081E+03  0.00000000000E+00 0. -1.
         21   -1    0    0  501  503 -0.00000000000E+00 -0.00000000000E+00 -0.11899389341E+03  0.11899389341E+03  0.00000000000E+00 0. -1.
          6    1    1    2  501    0  0.23928411299E+02 -0.54353811014E+01  0.97244271489E+02  0.19910439617E+03  0.17200000000E+03 0. -1.
         -6    1    1    2    0  502 -0.23928411299E+02  0.54353811014E+01  0.42810445918E+02  0.17893810806E+03  0.17200000000E+03 0. -1.
</event>
<event>
 4    1  0.1235203E+000  0.1827096E+03  0.7818608E-02  0.1165206E+00
         21   -1    0    0  501  502  0.00000000000E+00  0.00000000000E+00  0.11493200621E+03  0.11493200621E+03  0.00000000000E+00 0.  1.
         21   -1    0    0  502  503 -0.00000000000E+00 -0.00000000000E+00 -0.30975853868E+03  0.30975853868E+03  0.00000000000E+00 0.  1.
          6    1    1    2  501    0 -0.44217336753E+02 -0.42937430102E+02 -0.44406917036E+02  0.18802864158E+03  0.17200000000E+03 0. -1.
         -6    1    1    2    0  503  0.44217336753E+02  0.42937430102E+02 -0.15041961543E+03  0.23666190331E+03  0.17200000000E+03 0. -1.
</event>
<event>
 4    1  0.1235203E+000  0.2478681E+03  0.7818608E-02  0.1114660E+00
         21   -1    0    0  503  502  0.00000000000E+00  0.00000000000E+00  0.11448100871E+03  0.11448100871E+03  0.00000000000E+00 0. -1.
         21   -1    0    0  501  503 -0.00000000000E+00 -0.00000000000E+00 -0.60706927369E+03  0.60706927369E+03  0.00000000000E+00 0. -1.
          6    1    1    2  501    0  0.17366613742E+02  0.17763162591E+03 -0.12343720227E+03  0.27690311789E+03  0.17200000000E+03 0. -1.
         -6    1    1    2    0  502 -0.17366613742E+02 -0.17763162591E+03 -0.36915106271E+03  0.44464716450E+03  0.17200000000E+03 0. -1.
</event>
<event>
 4    1  0.1235203E+000  0.1821298E+03  0.7818608E-02  0.1165758E+00
         21   -1    0    0  503  502  0.00000000000E+00  0.00000000000E+00  0.16511571569E+03  0.16511571569E+03  0.00000000000E+00 0.  1.
         21   -1    0    0  501  503 -0.00000000000E+00 -0.00000000000E+00 -0.36506937234E+03  0.36506937234E+03  0.00000000000E+00 0.  1.
          6    1    1    2  501    0  0.14282005086E+02  0.58166177647E+02 -0.27774730069E+03  0.33213678346E+03  0.17200000000E+03 0.  1.
         -6    1    1    2    0  502 -0.14282005086E+02 -0.58166177647E+02  0.77793644035E+02  0.19804830457E+03  0.17200000000E+03 0.  1.
</event>
<event>
 4    1  0.1235203E+000  0.2076557E+03  0.7818608E-02  0.1143436E+00
         21   -1    0    0  503  502  0.00000000000E+00  0.00000000000E+00  0.11502246860E+03  0.11502246860E+03  0.00000000000E+00 0.  1.
         21   -1    0    0  501  503 -0.00000000000E+00 -0.00000000000E+00 -0.43831798269E+03  0.43831798269E+03  0.00000000000E+00 0.  1.
          6    1    1    2  501    0  0.31179236736E+01 -0.11630631708E+03 -0.26689361851E+03  0.33816132901E+03  0.17200000000E+03 0.  1.
         -6    1    1    2    0  502 -0.31179236736E+01  0.11630631708E+03 -0.56401895576E+02  0.21517912228E+03  0.17200000000E+03 0.  1.
</event>
<event>
 4    1  0.1235203E+000  0.2345480E+03  0.7818608E-02  0.1123479E+00
         21   -1    0    0  501  502  0.00000000000E+00  0.00000000000E+00  0.79757338673E+03  0.79757338673E+03  0.00000000000E+00 0.  1.
         21   -1    0    0  502  503 -0.00000000000E+00 -0.00000000000E+00 -0.69550011728E+02  0.69550011728E+02  0.00000000000E+00 0. -1.
          6    1    1    2  501    0  0.10759448800E+03 -0.11769525714E+03  0.32459479464E+03  0.40046788648E+03  0.17200000000E+03 0.  1.
         -6    1    1    2    0  503 -0.10759448800E+03  0.11769525714E+03  0.40342858036E+03  0.46665551197E+03  0.17200000000E+03 0.  1.
</event>
<event>
 4    1  0.1235203E+000  0.2859221E+03  0.7818608E-02  0.1092498E+00
         21   -1    0    0  501  502  0.00000000000E+00  0.00000000000E+00  0.19593291783E+03  0.19593291783E+03  0.00000000000E+00 0.  1.
         21   -1    0    0  502  503 -0.00000000000E+00 -0.00000000000E+00 -0.43854402397E+03  0.43854402397E+03  0.00000000000E+00 0. -1.
          6    1    1    2  501    0 -0.22109039061E+03  0.57327654368E+02 -0.51387260501E+02  0.29050313478E+03  0.17200000000E+03 0.  1.
         -6    1    1    2    0  503  0.22109039061E+03 -0.57327654368E+02 -0.19122384564E+03  0.34397380702E+03  0.17200000000E+03 0. -1.
</event>
<event>
 4    1  0.1235203E+000  0.1845060E+03  0.7818608E-02  0.1163512E+00
         21   -1    0    0  501  502  0.00000000000E+00  0.00000000000E+00  0.36611078061E+02  0.36611078061E+02  0.00000000000E+00 0. -1.
         21   -1    0    0  502  503 -0.00000000000E+00 -0.00000000000E+00 -0.11272316987E+04  0.11272316987E+04  0.00000000000E+00 0. -1.
          6    1    1    2  501    0 -0.60413527003E+02  0.28436937080E+02 -0.30179745062E+03  0.35372892847E+03  0.17200000000E+03 0. -1.
         -6    1    1    2    0  503  0.60413527003E+02 -0.28436937080E+02 -0.78882317006E+03  0.81011384834E+03  0.17200000000E+03 0. -1.
</event>
<event>
 4    1  0.1235203E+000  0.2500963E+03  0.7818608E-02  0.1113244E+00
         21   -1    0    0  503  502  0.00000000000E+00  0.00000000000E+00  0.14846941011E+03  0.14846941011E+03  0.00000000000E+00 0. -1.
         21   -1    0    0  501  503 -0.00000000000E+00 -0.00000000000E+00 -0.48464729931E+03  0.48464729931E+03  0.00000000000E+00 0.  1.
          6    1    1    2  501    0  0.14977687254E+03  0.10262087364E+03 -0.28254829372E+03  0.37733498849E+03  0.17200000000E+03 0. -1.
         -6    1    1    2    0  502 -0.14977687254E+03 -0.10262087364E+03 -0.53629595480E+02  0.25578172094E+03  0.17200000000E+03 0. -1.
</event>
<event>
 4    1  0.1235203E+000  0.1800516E+03  0.7818608E-02  0.1167753E+00
         21   -1    0    0  503  502  0.00000000000E+00  0.00000000000E+00  0.10530016492E+04  0.10530016492E+04  0.00000000000E+00 0. -1.
         21   -1    0    0  501  503 -0.00000000000E+00 -0.00000000000E+00 -0.32455284807E+02  0.32455284807E+02  0.00000000000E+00 0. -1.
          6    1    1    2  501    0  0.31702055322E+02 -0.42773405744E+02  0.38721885446E+03  0.42703281583E+03  0.17200000000E+03 0.  1.
         -6    1    1    2    0  502 -0.31702055322E+02  0.42773405744E+02  0.63332750990E+03  0.65842411814E+03  0.17200000000E+03 0.  1.
</event>
<event>
 4    1  0.1235203E+000  0.1767210E+03  0.7818608E-02  0.1171015E+00
         21   -1    0    0  503  502  0.00000000000E+00  0.00000000000E+00  0.41275367283E+02  0.41275367283E+02  0.00000000000E+00 0. -1.
         21   -1    0    0  501  503 -0.00000000000E+00 -0.00000000000E+00 -0.75739285604E+03  0.75739285604E+03  0.00000000000E+00 0. -1.
          6    1    1    2  501    0 -0.31280566324E+02  0.25842440577E+02 -0.37070719633E+03  0.41067521349E+03  0.17200000000E+03 0. -1.
         -6    1    1    2    0  502  0.31280566324E+02 -0.25842440577E+02 -0.34541029243E+03  0.38799300984E+03  0.17200000000E+03 0. -1.
</event>
<event>
 4    1  0.1235203E+000  0.2010903E+03  0.7818608E-02  0.1148822E+00
         21   -1    0    0  503  502  0.00000000000E+00  0.00000000000E+00  0.31837604526E+03  0.31837604526E+03  0.00000000000E+00 0.  1.
         21   -1    0    0  501  503 -0.00000000000E+00 -0.00000000000E+00 -0.15351448480E+03  0.15351448480E+03  0.00000000000E+00 0.  1.
          6    1    1    2  501    0 -0.49605829435E+02 -0.91611032567E+02 -0.15605435799E+02  0.20169494101E+03  0.17200000000E+03 0.  1.
         -6    1    1    2    0  502  0.49605829435E+02  0.91611032567E+02  0.18046699626E+03  0.27019558905E+03  0.17200000000E+03 0.  1.
</event>
<event>
 4    1  0.1235203E+000  0.1845188E+03  0.7818608E-02  0.1163500E+00
         21   -1    0    0  501  502  0.00000000000E+00  0.00000000000E+00  0.14578934531E+03  0.14578934531E+03  0.00000000000E+00 0.  1.
         21   -1    0    0  502  503 -0.00000000000E+00 -0.00000000000E+00 -0.28504108302E+03  0.28504108302E+03  0.00000000000E+00 0.  1.
          6    1    1    2  501    0  0.41196296573E+02  0.52593245113E+02  0.21942211716E+02  0.18581884979E+03  0.17200000000E+03 0.  1.
         -6    1    1    2    0  503 -0.41196296573E+02 -0.52593245113E+02 -0.16119394943E+03  0.24501157853E+03  0.17200000000E+03 0.  1.
</event>
<event>
 4    1  0.1235203E+000  0.1841358E+03  0.7818608E-02  0.1163859E+00
         21   -1    0    0  501  502  0.00000000000E+00  0.00000000000E+00  0.48732487954E+03  0.48732487954E+03  0.00000000000E+00 0. -1.
         21   -1    0    0  502  503 -0.00000000000E+00 -0.00000000000E+00 -0.99273469764E+02  0.99273469764E+02  0.00000000000E+00 0. -1.
          6    1    1    2  501    0  0.31136313660E+02  0.57901058732E+02  0.35444465249E+03  0.39942084861E+03  0.17200000000E+03 0. -1.
         -6    1    1    2    0  503 -0.31136313660E+02 -0.57901058732E+02  0.33606757292E+02  0.18717750069E+03  0.17200000000E+03 0. -1.
</event>
<event>
 4    1  0.1235203E+000  0.1774637E+03  0.7818608E-02  0.1170280E+00
         21   -1    0    0  501  502  0.00000000000E+00  0.00000000000E+00  0.57299228907E+02  0.57299228907E+02  0.00000000000E+00 0.  1.
         21   -1    0    0  502  503 -0.00000000000E+00 -0.00000000000E+00 -0.71098033831E+03  0.71098033831E+03  0.00000000000E+00 0.  1.
          6    1    1    2  501    0  0.36598611211E+02  0.23872908786E+02 -0.14384292806E+03  0.22843853018E+03  0.17200000000E+03 0.  1.
         -6    1    1    2    0  503 -0.36598611211E+02 -0.23872908786E+02 -0.50983818134E+03  0.53984103704E+03  0.17200000000E+03 0.  1.
</event>
<event>
 4    1  0.1235203E+000  0.1756740E+03  0.7818608E-02  0.1172057E+00
         21   -1    0    0  503  502  0.00000000000E+00  0.00000000000E+00  0.54084675867E+03  0.54084675867E+03  0.00000000000E+00 0. -1.
         21   -1    0    0  501  503 -0.00000000000E+00 -0.00000000000E+00 -0.80319985059E+02  0.80319985059E+02  0.00000000000E+00 0. -1.
          6    1    1    2  501    0 -0.20961130321E+02 -0.28947995101E+02  0.63131209683E+02  0.18667325743E+03  0.17200000000E+03 0. -1.
         -6    1    1    2    0  502  0.20961130321E+02  0.28947995101E+02  0.39739556393E+03  0.43449348630E+03  0.17200000000E+03 0. -1.
</event>
<event>
 4    1  0.1235203E+000  0.2029706E+03  0.7818608E-02  0.1147257E+00
         21   -1    0    0  503  502  0.00000000000E+00  0.00000000000E+00  0.10357079053E+04  0.10357079053E+04  0.00000000000E+00 0.  1.
         21   -1    0    0  501  503 -0.00000000000E+00 -0.00000000000E+00 -0.45359732177E+02  0.45359732177E+02  0.00000000000E+00 0.  1.
          6    1    1    2  501    0 -0.10367954674E+03 -0.29387558716E+02  0.30553781660E+03  0.36681116994E+03  0.17200000000E+03 0.  1.
         -6    1    1    2    0  502  0.10367954674E+03  0.29387558716E+02  0.68481035655E+03  0.71425646756E+03  0.17200000000E+03 0.  1.
</event>
<event>
 4    1  0.1235203E+000  0.1838874E+03  0.7818608E-02  0.1164093E+00
         21   -1    0    0  501  502  0.00000000000E+00  0.00000000000E+00  0.21571925496E+03  0.21571925496E+03  0.00000000000E+00 0.  1.
         21   -1    0    0  502  503 -0.00000000000E+00 -0.00000000000E+00 -0.15918798123E+03  0.15918798123E+03  0.00000000000E+00 0.  1.
          6    1    1    2  501    0 -0.65005356139E+02 -0.22052535475E+01  0.50799513283E+01  0.18395750970E+03  0.17200000000E+03 0. -1.
         -6    1    1    2    0  503  0.65005356139E+02  0.22052535475E+01  0.51451322407E+02  0.19094972649E+03  0.17200000000E+03 0. -1.
</event>
<event>
 4    1  0.1235203E+000  0.2193708E+03  0.7818608E-02  0.1134353E+00
         21   -1    0    0  501  502  0.00000000000E+00  0.00000000000E+00  0.11399897805E+04  0.11399897805E+04  0.00000000000E+00 0.  1.
         21   -1    0    0  502  503 -0.00000000000E+00 -0.00000000000E+00 -0.57727491401E+02  0.57727491401E+02  0.00000000000E+00 0.  1.
          6    1    1    2  501    0 -0.13514014266E+03 -0.16634235111E+02  0.85157810570E+03  0.87937979624E+03  0.17200000000E+03 0.  1.
         -6    1    1    2    0  503  0.13514014266E+03  0.16634235111E+02  0.23068418340E+03  0.31833747565E+03  0.17200000000E+03 0.  1.
</event>
<event>
 4    1  0.1235203E+000  0.2328947E+03  0.7818608E-02  0.1124619E+00
         21   -1    0    0  503  502  0.00000000000E+00  0.00000000000E+00  0.47218084222E+03  0.47218084222E+03  0.00000000000E+00 0.  1.
         21   -1    0    0  501  503 -0.00000000000E+00 -0.00000000000E+00 -0.40458056339E+03  0.40458056339E+03  0.00000000000E+00 0.  1.
          6    1    1    2  501    0 -0.15468510283E+03 -0.26989659582E+02 -0.33716258963E+03  0.40977864099E+03  0.17200000000E+03 0.  1.
         -6    1    1    2    0  502  0.15468510283E+03  0.26989659582E+02  0.40476286847E+03  0.46698276462E+03  0.17200000000E+03 0.  1.
</event>
<event>
 4    1  0.1235203E+000  0.2031332E+03  0.7818608E-02  0.1147122E+00
         21   -1    0    0  501  502  0.00000000000E+00  0.00000000000E+00  0.16388585438E+03  0.16388585438E+03  0.00000000000E+00 0.  1.
         21   -1    0    0  502  503 -0.00000000000E+00 -0.00000000000E+00 -0.34827097726E+03  0.34827097726E+03  0.00000000000E+00 0.  1.
          6    1    1    2  501    0 -0.10626326861E+03  0.19677261333E+02  0.42597883376E+02  0.20755157561E+03  0.17200000000E+03 0.  1.
         -6    1    1    2    0  503  0.10626326861E+03 -0.19677261333E+02 -0.22698300626E+03  0.30460525603E+03  0.17200000000E+03 0.  1.
</event>
<event>
 4    1  0.1235203E+000  0.3034863E+03  0.7818608E-02  0.1083511E+00
         21   -1    0    0  501  502  0.00000000000E+00  0.00000000000E+00  0.17573675597E+04  0.17573675597E+04  0.00000000000E+00 0. -1.
         21   -1    0    0  502  503 -0.00000000000E+00 -0.00000000000E+00 -0.14828530671E+03  0.14828530671E+03  0.00000000000E+00 0.  1.
          6    1    1    2  501    0 -0.20144631136E+03  0.14811928412E+03  0.15706980440E+04  0.15997488190E+04  0.17200000000E+03 0. -1.
         -6    1    1    2    0  503  0.20144631136E+03 -0.14811928412E+03  0.38384209011E+02  0.30590404736E+03  0.17200000000E+03 0.  1.
</event>
<event>
 4    1  0.1235203E+000  0.2592757E+03  0.7818608E-02  0.1107579E+00
         21   -1    0    0  501  502  0.00000000000E+00  0.00000000000E+00  0.43740457152E+03  0.43740457152E+03  0.00000000000E+00 0.  1.
         21   -1    0    0  502  503 -0.00000000000E+00 -0.00000000000E+00 -0.48159993093E+03  0.48159993093E+03  0.00000000000E+00 0.  1.
          6    1    1    2  501    0 -0.11290199631E+03 -0.15777522580E+03  0.35706271857E+03  0.44126824907E+03  0.17200000000E+03 0.  1.
         -6    1    1    2    0  503  0.11290199631E+03  0.15777522580E+03 -0.40125807798E+03  0.47773625338E+03  0.17200000000E+03 0.  1.
</event>
<event>
 4    1  0.1235203E+000  0.1818259E+03  0.7818608E-02  0.1166048E+00
         21   -1    0    0  503  502  0.00000000000E+00  0.00000000000E+00  0.37444010887E+03  0.37444010887E+03  0.00000000000E+00 0.  1.
         21   -1    0    0  501  503 -0.00000000000E+00 -0.00000000000E+00 -0.90214978779E+02  0.90214978779E+02  0.00000000000E+00 0. -1.
          6    1    1    2  501    0 -0.25491825577E+02  0.53167800160E+02  0.10820684149E+03  0.21158773285E+03  0.17200000000E+03 0.  1.
         -6    1    1    2    0  502  0.25491825577E+02 -0.53167800160E+02  0.17601828859E+03  0.25306735480E+03  0.17200000000E+03 0.  1.
</event>
<event>
 4    1  0.1235203E+000  0.2572121E+03  0.7818608E-02  0.1108830E+00
         21   -1    0    0  503  502  0.00000000000E+00  0.00000000000E+00  0.11032772544E+04  0.11032772544E+04  0.00000000000E+00 0. -1.
         21   -1    0    0  501  503 -0.00000000000E+00 -0.00000000000E+00 -0.72932463733E+02  0.72932463733E+02  0.00000000000E+00 0. -1.
          6    1    1    2  501    0 -0.15013867949E+03  0.11845850177E+03  0.26718959754E+03  0.37087507433E+03  0.17200000000E+03 0. -1.
         -6    1    1    2    0  502  0.15013867949E+03 -0.11845850177E+03  0.76315519316E+03  0.80533464384E+03  0.17200000000E+03 0. -1.
</event>
<event>
 4    1  0.1235203E+000  0.2089201E+03  0.7818608E-02  0.1142424E+00
         21   -1    0    0  503  502  0.00000000000E+00  0.00000000000E+00  0.20953716377E+04  0.20953716377E+04  0.00000000000E+00 0.  1.
         21   -1    0    0  501  503 -0.00000000000E+00 -0.00000000000E+00 -0.23614142264E+02  0.23614142264E+02  0.00000000000E+00 0.  1.
          6    1    1    2  501    0  0.81012901519E+02 -0.86605573657E+02  0.67211489817E+03  0.70383666567E+03  0.17200000000E+03 0.  1.
         -6    1    1    2    0  502 -0.81012901519E+02  0.86605573657E+02  0.13996425973E+04  0.14151491143E+04  0.17200000000E+03 0.  1.
</event>
<event>
 4    1  0.1235203E+000  0.1931115E+03  0.7818608E-02  0.1155685E+00
         21   -1    0    0  503  502  0.00000000000E+00  0.00000000000E+00  0.15031567371E+03  0.15031567371E+03  0.00000000000E+00 0.  1.
         21   -1    0    0  501  503 -0.00000000000E+00 -0.00000000000E+00 -0.30583484108E+03  0.30583484108E+03  0.00000000000E+00 0.  1.
          6    1    1    2  501    0  0.37079319639E+02 -0.79581264020E+02 -0.17686224887E+03  0.26186314862E+03  0.17200000000E+03 0.  1.
         -6    1    1    2    0  502 -0.37079319639E+02  0.79581264020E+02  0.21343081504E+02  0.19428736618E+03  0.17200000000E+03 0.  1.
</event>
<event>
 4    1  0.1235203E+000  0.1723591E+03  0.7818608E-02  0.1175410E+00
         21   -1    0    0  501  502  0.00000000000E+00  0.00000000000E+00  0.31914666988E+02  0.31914666988E+02  0.00000000000E+00 0.  1.
         21   -1    0    0  502  503 -0.00000000000E+00 -0.00000000000E+00 -0.93089512873E+03  0.93089512873E+03  0.00000000000E+00 0.  1.
          6    1    1    2  501    0  0.10534163239E+02  0.35601947189E+01 -0.44599684827E+03  0.47814310854E+03  0.17200000000E+03 0. -1.
         -6    1    1    2    0  503 -0.10534163239E+02 -0.35601947189E+01 -0.45298361348E+03  0.48466668718E+03  0.17200000000E+03 0. -1.
</event>
<event>
 4    1  0.1235203E+000  0.1812504E+03  0.7818608E-02  0.1166598E+00
         21   -1    0    0  501  502  0.00000000000E+00  0.00000000000E+00  0.16607227823E+03  0.16607227823E+03  0.00000000000E+00 0.  1.
         21   -1    0    0  502  503 -0.00000000000E+00 -0.00000000000E+00 -0.20829427610E+03  0.20829427610E+03  0.00000000000E+00 0.  1.
          6    1    1    2  501    0  0.12307729766E+02  0.55823291653E+02 -0.63094388735E+02  0.19191826904E+03  0.17200000000E+03 0.  1.
         -6    1    1    2    0  503 -0.12307729766E+02 -0.55823291653E+02  0.20872390869E+02  0.18244828529E+03  0.17200000000E+03 0.  1.
</event>
<event>
 4    1  0.1235203E+000  0.1791436E+03  0.7818608E-02  0.1168634E+00
         21   -1    0    0  503  502  0.00000000000E+00  0.00000000000E+00  0.11199520517E+03  0.11199520517E+03  0.00000000000E+00 0. -1.
         21   -1    0    0  501  503 -0.00000000000E+00 -0.00000000000E+00 -0.37193862366E+03  0.37193862366E+03  0.00000000000E+00 0. -1.
          6    1    1    2  501    0  0.84655343435E+01 -0.49363589900E+02 -0.24590702211E+03  0.30424117539E+03  0.17200000000E+03 0. -1.
         -6    1    1    2    0  502 -0.84655343435E+01  0.49363589900E+02 -0.14036396385E+02  0.17969265345E+03  0.17200000000E+03 0. -1.
</event>
<event>
 4    1  0.1235203E+000  0.1922774E+03  0.7818608E-02  0.1156423E+00
         21   -1    0    0  501  502  0.00000000000E+00  0.00000000000E+00  0.19158558038E+03  0.19158558038E+03  0.00000000000E+00 0.  1.
         21   -1    0    0  502  503 -0.00000000000E+00 -0.00000000000E+00 -0.68631425449E+03  0.68631425449E+03  0.00000000000E+00 0. -1.
          6    1    1    2  501    0  0.29612981459E+02 -0.80682558000E+02  0.12479398182E+03  0.22922508967E+03  0.17200000000E+03 0.  1.
         -6    1    1    2    0  503 -0.29612981459E+02  0.80682558000E+02 -0.61952265594E+03  0.64867474520E+03  0.17200000000E+03 0. -1.
</event>
<event>
 4    1  0.1235203E+000  0.2215080E+03  0.7818608E-02  0.1132764E+00
         21   -1    0    0  503  502  0.00000000000E+00  0.00000000000E+00  0.52973839360E+02  0.52973839360E+02  0.00000000000E+00 0. -1.
         21   -1    0    0  501  503 -0.00000000000E+00 -0.00000000000E+00 -0.11137687689E+04  0.11137687689E+04  0.00000000000E+00 0. -1.
          6    1    1    2  501    0 -0.13794344472E+03 -0.21293205530E+02 -0.29101260760E+03  0.36572412052E+03  0.17200000000E+03 0. -1.
         -6    1    1    2    0  502  0.13794344472E+03  0.21293205530E+02 -0.76978232199E+03  0.80101848779E+03  0.17200000000E+03 0. -1.
</event>
<event>
 4    1  0.1235203E+000  0.1787104E+03  0.7818608E-02  0.1169057E+00
         21   -1    0    0  501  502  0.00000000000E+00  0.00000000000E+00  0.96754687752E+03  0.96754687752E+03  0.00000000000E+00 0.  1.
         21   -1    0    0  502  503 -0.00000000000E+00 -0.00000000000E+00 -0.36608263971E+02  0.36608263971E+02  0.00000000000E+00 0. -1.
          6    1    1    2  501    0 -0.40574569739E+02 -0.26591278053E+02  0.30803087945E+03  0.35611853991E+03  0.17200000000E+03 0. -1.
         -6    1    1    2    0  503  0.40574569739E+02  0.26591278053E+02  0.62290773410E+03  0.64803660157E+03  0.17200000000E+03 0.  1.
</event>
<event>
 4    1  0.1235203E+000  0.1943125E+03  0.7818608E-02  0.1154628E+00
         21   -1    0    0  501  502  0.00000000000E+00  0.00000000000E+00  0.45850990623E+02  0.45850990623E+02  0.00000000000E+00 0.  1.
         21   -1    0    0  502  503 -0.00000000000E+00 -0.00000000000E+00 -0.10328621378E+04  0.10328621378E+04  0.00000000000E+00 0.  1.
          6    1    1    2  501    0  0.20570777406E+02  0.88035187519E+02 -0.25066283791E+03  0.31715801966E+03  0.17200000000E+03 0.  1.
         -6    1    1    2    0  503 -0.20570777406E+02 -0.88035187519E+02 -0.73634830926E+03  0.76155510876E+03  0.17200000000E+03 0.  1.
</event>
<event>
 4    1  0.1235203E+000  0.2217710E+03  0.7818608E-02  0.1132570E+00
         21   -1    0    0  503  502  0.00000000000E+00  0.00000000000E+00  0.23292579754E+04  0.23292579754E+04  0.00000000000E+00 0.  1.
         21   -1    0    0  501  503 -0.00000000000E+00 -0.00000000000E+00 -0.35279902585E+02  0.35279902585E+02  0.00000000000E+00 0.  1.
          6    1    1    2  501    0 -0.13074234956E+03 -0.50047984843E+02  0.18961219125E+04  0.19090470580E+04  0.17200000000E+03 0. -1.
         -6    1    1    2    0  502  0.13074234956E+03  0.50047984843E+02  0.39785616034E+03  0.45549081997E+03  0.17200000000E+03 0. -1.
</event>
<event>
 4    1  0.1235203E+000  0.1864375E+03  0.7818608E-02  0.1161714E+00
         21   -1    0    0  501  502  0.00000000000E+00  0.00000000000E+00  0.80266423610E+02  0.80266423610E+02  0.00000000000E+00 0. -1.
         21   -1    0    0  502  503 -0.00000000000E+00 -0.00000000000E+00 -0.58140446251E+03  0.58140446251E+03  0.00000000000E+00 0. -1.
          6    1    1    2  501    0 -0.71596640847E+02  0.69911844440E+01 -0.83448106484E+02  0.20426096572E+03  0.17200000000E+03 0. -1.
         -6    1    1    2    0  503  0.71596640847E+02 -0.69911844440E+01 -0.41768993242E+03  0.45740992040E+03  0.17200000000E+03 0. -1.
</event>
<event>
 4    1  0.1235203E+000  0.1783616E+03  0.7818608E-02  0.1169398E+00
         21   -1    0    0  501  502  0.00000000000E+00  0.00000000000E+00  0.12871928347E+04  0.12871928347E+04  0.00000000000E+00 0.  1.
         21   -1    0    0  502  503 -0.00000000000E+00 -0.00000000000E+00 -0.24800915105E+02  0.24800915105E+02  0.00000000000E+00 0.  1.
          6    1    1    2  501    0  0.46433640346E+02 -0.85313148226E+01  0.59256744480E+03  0.61882876705E+03  0.17200000000E+03 0.  1.
         -6    1    1    2    0  503 -0.46433640346E+02  0.85313148226E+01  0.66982447480E+03  0.69316498276E+03  0.17200000000E+03 0.  1.
</event>
<event>
 4    1  0.1235203E+000  0.2058841E+03  0.7818608E-02  0.1144867E+00
         21   -1    0    0  501  502  0.00000000000E+00  0.00000000000E+00  0.50070216987E+03  0.50070216987E+03  0.00000000000E+00 0.  1.
         21   -1    0    0  502  503 -0.00000000000E+00 -0.00000000000E+00 -0.14587934409E+03  0.14587934409E+03  0.00000000000E+00 0. -1.
          6    1    1    2  501    0  0.94501556497E+02  0.62239270354E+02  0.38684630876E+03  0.43822179037E+03  0.17200000000E+03 0.  1.
         -6    1    1    2    0  503 -0.94501556497E+02 -0.62239270354E+02 -0.32023482970E+02  0.20835972359E+03  0.17200000000E+03 0.  1.
</event>
<event>
 4    1  0.1235203E+000  0.1870102E+03  0.7818608E-02  0.1161186E+00
         21   -1    0    0  503  502  0.00000000000E+00  0.00000000000E+00  0.14889729918E+03  0.14889729918E+03  0.00000000000E+00 0. -1.
         21   -1    0    0  501  503 -0.00000000000E+00 -0.00000000000E+00 -0.64160558188E+03  0.64160558188E+03  0.00000000000E+00 0.  1.
          6    1    1    2  501    0 -0.69842746541E+02  0.22601165068E+02 -0.56104981275E+03  0.59139641045E+03  0.17200000000E+03 0.  1.
         -6    1    1    2    0  502  0.69842746541E+02 -0.22601165068E+02  0.68341530056E+02  0.19910647061E+03  0.17200000000E+03 0. -1.
</event>
<event>
 4    1  0.1235203E+000  0.2239837E+03  0.7818608E-02  0.1130947E+00
         21   -1    0    0  501  502  0.00000000000E+00  0.00000000000E+00  0.10344405003E+04  0.10344405003E+04  0.00000000000E+00 0. -1.
         21   -1    0    0  502  503 -0.00000000000E+00 -0.00000000000E+00 -0.50593084914E+02  0.50593084914E+02  0.00000000000E+00 0. -1.
          6    1    1    2  501    0  0.18736227737E+01 -0.14346152587E+03  0.60231272925E+03  0.64261134731E+03  0.17200000000E+03 0. -1.
         -6    1    1    2    0  503 -0.18736227737E+01  0.14346152587E+03  0.38153468609E+03  0.44242223787E+03  0.17200000000E+03 0. -1.
</event>
<event>
 4    1  0.1235203E+000  0.1904497E+03  0.7818608E-02  0.1158056E+00
         21   -1    0    0  503  502  0.00000000000E+00  0.00000000000E+00  0.27521655051E+02  0.27521655051E+02  0.00000000000E+00 0. -1.
         21   -1    0    0  501  503 -0.00000000000E+00 -0.00000000000E+00 -0.14581473543E+04  0.14581473543E+04  0.00000000000E+00 0. -1.
          6    1    1    2  501    0  0.57736723487E+02 -0.57909822533E+02 -0.94568104498E+03  0.96466767107E+03  0.17200000000E+03 0. -1.
         -6    1    1    2    0  502 -0.57736723487E+02  0.57909822533E+02 -0.48494465432E+03  0.52100133833E+03  0.17200000000E+03 0. -1.
</event>
<event>
 4    1  0.1235203E+000  0.1940045E+03  0.7818608E-02  0.1154898E+00
         21   -1    0    0  501  502  0.00000000000E+00  0.00000000000E+00  0.24359372691E+02  0.24359372691E+02  0.00000000000E+00 0.  1.
         21   -1    0    0  502  503 -0.00000000000E+00 -0.00000000000E+00 -0.15451759560E+04  0.15451759560E+04  0.00000000000E+00 0.  1.
          6    1    1    2  501    0 -0.81286552165E+02  0.38029353210E+02 -0.76580760417E+03  0.78999938094E+03  0.17200000000E+03 0.  1.
         -6    1    1    2    0  503  0.81286552165E+02 -0.38029353210E+02 -0.75500897914E+03  0.77953594776E+03  0.17200000000E+03 0.  1.
</event>
<event>
 4    1  0.1235203E+000  0.2377322E+03  0.7818608E-02  0.1121313E+00
         21   -1    0    0  501  502  0.00000000000E+00  0.00000000000E+00  0.32250918654E+03  0.32250918654E+03  0.00000000000E+00 0.  1.
         21   -1    0    0  502  503 -0.00000000000E+00 -0.00000000000E+00 -0.17681419762E+03  0.17681419762E+03  0.00000000000E+00 0.  1.
          6    1    1    2  501    0 -0.15653581485E+03  0.49286402146E+02  0.49292673921E+02  0.24278875276E+03  0.17200000000E+03 0.  1.
         -6    1    1    2    0  503  0.15653581485E+03 -0.49286402146E+02  0.96402315006E+02  0.25653463139E+03  0.17200000000E+03 0.  1.
</event>
<event>
 4    1  0.1235203E+000  0.1883442E+03  0.7818608E-02  0.1159963E+00
         21   -1    0    0  501  502  0.00000000000E+00  0.00000000000E+00  0.12447237334E+04  0.12447237334E+04  0.00000000000E+00 0. -1.
         21   -1    0    0  502  503 -0.00000000000E+00 -0.00000000000E+00 -0.43781216655E+02  0.43781216655E+02  0.00000000000E+00 0. -1.
          6    1    1    2  501    0  0.44278462687E+02 -0.62681414090E+02  0.98110170925E+03  0.99901656934E+03  0.17200000000E+03 0. -1.
         -6    1    1    2    0  503 -0.44278462687E+02  0.62681414090E+02  0.21984080752E+03  0.28948838074E+03  0.17200000000E+03 0. -1.
</event>
<event>
 4    1  0.1235203E+000  0.1866832E+03  0.7818608E-02  0.1161487E+00
         21   -1    0    0  503  502  0.00000000000E+00  0.00000000000E+00  0.47796051896E+02  0.47796051896E+02  0.00000000000E+00 0.  1.
         21   -1    0    0  501  503 -0.00000000000E+00 -0.00000000000E+00 -0.10967332384E+04  0.10967332384E+04  0.00000000000E+00 0.  1.
          6    1    1    2  501    0 -0.20825872831E+01  0.72541597997E+02 -0.85576952988E+03  0.87589503303E+03  0.17200000000E+03 0.  1.
         -6    1    1    2    0  502  0.20825872831E+01 -0.72541597997E+02 -0.19316765660E+03  0.26863425725E+03  0.17200000000E+03 0.  1.
</event>
<event>
 4    1  0.1235203E+000  0.1826097E+03  0.7818608E-02  0.1165301E+00
         21   -1    0    0  503  502  0.00000000000E+00  0.00000000000E+00  0.18771886493E+03  0.18771886493E+03  0.00000000000E+00 0.  1.
         21   -1    0    0  501  503 -0.00000000000E+00 -0.00000000000E+00 -0.21074367591E+03  0.21074367591E+03  0.00000000000E+00 0.  1.
          6    1    1    2  501    0 -0.62231076438E+01  0.61021149320E+02 -0.90474895625E+02  0.20379404916E+03  0.17200000000E+03 0. -1.
         -6    1    1    2    0  502  0.62231076438E+01 -0.61021149320E+02  0.67450084643E+02  0.19466849168E+03  0.17200000000E+03 0. -1.
</event>
<event>
 4    1  0.1235203E+000  0.1945851E+03  0.7818608E-02  0.1154390E+00
         21   -1    0    0  503  502  0.00000000000E+00  0.00000000000E+00  0.42901234445E+03  0.42901234445E+03  0.00000000000E+00 0.  1.
         21   -1    0    0  501  503 -0.00000000000E+00 -0.00000000000E+00 -0.12327031148E+03  0.12327031148E+03  0.00000000000E+00 0.  1.
          6    1    1    2  501    0 -0.37168333577E+02  0.83053446891E+02  0.30004074947E+03  0.35761405370E+03  0.17200000000E+03 0.  1.
         -6    1    1    2    0  502  0.37168333577E+02 -0.83053446891E+02  0.57012835033E+01  0.19466860223E+03  0.17200000000E+03 0.  1.
</event>
<event>
 4    1  0.1235203E+000  0.1721688E+03  0.7818608E-02  0.1175605E+00
         21   -1    0    0  501  502  0.00000000000E+00  0.00000000000E+00  0.90842358665E+02  0.90842358665E+02  0.00000000000E+00 0. -1.
         21   -1    0    0  502  503 -0.00000000000E+00 -0.00000000000E+00 -0.42409856418E+03  0.42409856418E+03  0.00000000000E+00 0. -1.
          6    1    1    2  501    0 -0.33269110456E+01  0.68581724890E+01 -0.29026678094E+03  0.33748615821E+03  0.17200000000E+03 0.  1.
         -6    1    1    2    0  503  0.33269110456E+01 -0.68581724890E+01 -0.42989424580E+02  0.17745476464E+03  0.17200000000E+03 0.  1.
</event>
<event>
 4    1  0.1235203E+000  0.1803274E+03  0.7818608E-02  0.1167487E+00
         21   -1    0    0  503  502  0.00000000000E+00  0.00000000000E+00  0.10371914649E+04  0.10371914649E+04  0.00000000000E+00 0.  1.
         21   -1    0    0  501  503 -0.00000000000E+00 -0.00000000000E+00 -0.34838692028E+02  0.34838692028E+02  0.00000000000E+00 0.  1.
          6    1    1    2  501    0 -0.51514269886E+02 -0.16740767588E+02  0.33160362476E+03  0.37746382244E+03  0.17200000000E+03 0. -1.
         -6    1    1    2    0  502  0.51514269886E+02  0.16740767588E+02  0.67074914808E+03  0.69456633445E+03  0.17200000000E+03 0. -1.
</event>
<event>
 4    1  0.1235203E+000  0.2075608E+03  0.7818608E-02  0.1143512E+00
         21   -1    0    0  501  502  0.00000000000E+00  0.00000000000E+00  0.23483862340E+03  0.23483862340E+03  0.00000000000E+00 0.  1.
         21   -1    0    0  502  503 -0.00000000000E+00 -0.00000000000E+00 -0.18349644474E+03  0.18349644474E+03  0.00000000000E+00 0. -1.
          6    1    1    2  501    0  0.11560726901E+03  0.11509232667E+02  0.28943814322E+02  0.20956919495E+03  0.17200000000E+03 0. -1.
         -6    1    1    2    0  503 -0.11560726901E+03 -0.11509232667E+02  0.22398364340E+02  0.20876587319E+03  0.17200000000E+03 0.  1.
</event>
<event>
 4    1  0.1235203E+000  0.1921589E+03  0.7818608E-02  0.1156528E+00
         21   -1    0    0  501  502  0.00000000000E+00  0.00000000000E+00  0.49467450273E+03  0.49467450273E+03  0.00000000000E+00 0. -1.
         21   -1    0    0  502  503 -0.00000000000E+00 -0.00000000000E+00 -0.16278235720E+03  0.16278235720E+03  0.00000000000E+00 0.  1.
          6    1    1    2  501    0  0.84901169173E+02  0.11524801245E+02  0.40783353349E+03  0.45083613499E+03  0.17200000000E+03 0. -1.
         -6    1    1    2    0  503 -0.84901169173E+02 -0.11524801245E+02 -0.75941387955E+02  0.20662072494E+03  0.17200000000E+03 0.  1.
</event>
<event>
 4    1  0.1235203E+000  0.1965602E+03  0.7818608E-02  0.1152674E+00
         21   -1    0    0  503  502  0.00000000000E+00  0.00000000000E+00  0.26750549170E+02  0.26750549170E+02  0.00000000000E+00 0. -1.
         21   -1    0    0  501  503 -0.00000000000E+00 -0.00000000000E+00 -0.16760130994E+04  0.16760130994E+04  0.00000000000E+00 0. -1.
          6    1    1    2  501    0  0.94465380623E+02 -0.11323445986E+02 -0.11411920466E+04  0.11579962071E+04  0.17200000000E+03 0. -1.
         -6    1    1    2    0  502 -0.94465380623E+02  0.11323445986E+02 -0.50807050364E+03  0.54476744143E+03  0.17200000000E+03 0. -1.
</event>
<event>
 4    1  0.1235203E+000  0.1815754E+03  0.7818608E-02  0.1166287E+00
         21   -1    0    0  503  502  0.00000000000E+00  0.00000000000E+00  0.26115016929E+03  0.26115016929E+03  0.00000000000E+00 0. -1.
         21   -1    0    0  501  503 -0.00000000000E+00 -0.00000000000E+00 -0.17628460498E+03  0.17628460498E+03  0.00000000000E+00 0. -1.
          6    1    1    2  501    0  0.55200932408E+02 -0.18397474642E+02 -0.74092806440E+02  0.19611056570E+03  0.17200000000E+03 0. -1.
         -6    1    1    2    0  502 -0.55200932408E+02  0.18397474642E+02  0.15895837076E+03  0.24132420858E+03  0.17200000000E+03 0. -1.
</event>
<event>
 4    1  0.1235203E+000  0.1990764E+03  0.7818608E-02  0.1150521E+00
         21   -1    0    0  503  502  0.00000000000E+00  0.00000000000E+00  0.41538499303E+03  0.41538499303E+03  0.00000000000E+00 0.  1.
         21   -1    0    0  501  503 -0.00000000000E+00 -0.00000000000E+00 -0.13098670151E+03  0.13098670151E+03  0.00000000000E+00 0. -1.
          6    1    1    2  501    0  0.48737999381E+02  0.87590047012E+02 -0.17606747936E+00  0.19907646752E+03  0.17200000000E+03 0. -1.
         -6    1    1    2    0  502 -0.48737999381E+02 -0.87590047012E+02  0.28457435900E+03  0.34729522703E+03  0.17200000000E+03 0.  1.
</event>
<event>
 4    1  0.1235203E+000  0.1772461E+03  0.7818608E-02  0.1170495E+00
         21   -1    0    0  501  502  0.00000000000E+00  0.00000000000E+00  0.73880740082E+02  0.73880740082E+02  0.00000000000E+00 0.  1.
         21   -1    0    0  502  503 -0.00000000000E+00 -0.00000000000E+00 -0.57429837959E+03  0.57429837959E+03  0.00000000000E+00 0.  1.
          6    1    1    2  501    0  0.41487529832E+02  0.10534075116E+02 -0.85091937350E+02  0.19661337613E+03  0.17200000000E+03 0.  1.
         -6    1    1    2    0  503 -0.41487529832E+02 -0.10534075116E+02 -0.41532570216E+03  0.45156574354E+03  0.17200000000E+03 0.  1.
</event>
<event>
 4    1  0.1235203E+000  0.1939428E+03  0.7818608E-02  0.1154953E+00
         21   -1    0    0  501  502  0.00000000000E+00  0.00000000000E+00  0.30548946150E+03  0.30548946150E+03  0.00000000000E+00 0.  1.
         21   -1    0    0  502  503 -0.00000000000E+00 -0.00000000000E+00 -0.13848084604E+03  0.13848084604E+03  0.00000000000E+00 0.  1.
          6    1    1    2  501    0 -0.49923751600E+02  0.74413785293E+02  0.95867992677E+01  0.19417955386E+03  0.17200000000E+03 0.  1.
         -6    1    1    2    0  503  0.49923751600E+02 -0.74413785293E+02  0.15742181619E+03  0.24979075369E+03  0.17200000000E+03 0.  1.
</event>
<event>
 4    1  0.1235203E+000  0.1808006E+03  0.7818608E-02  0.1167030E+00
         21   -1    0    0  503  502  0.00000000000E+00  0.00000000000E+00  0.53464592374E+02  0.53464592374E+02  0.00000000000E+00 0.  1.
         21   -1    0    0  501  503 -0.00000000000E+00 -0.00000000000E+00 -0.73510261395E+03  0.73510261395E+03  0.00000000000E+00 0.  1.
          6    1    1    2  501    0  0.55656512689E+02 -0.26844425676E+01 -0.50255415864E+03  0.53408757334E+03  0.17200000000E+03 0.  1.
         -6    1    1    2    0  502 -0.55656512689E+02  0.26844425676E+01 -0.17908386294E+03  0.25447963298E+03  0.17200000000E+03 0.  1.
</event>
<event>
 4    1  0.1235203E+000  0.2719967E+03  0.7818608E-02  0.1100142E+00
         21   -1    0    0  503  502  0.00000000000E+00  0.00000000000E+00  0.51888187591E+03  0.51888187591E+03  0.00000000000E+00 0. -1.
         21   -1    0    0  501  503 -0.00000000000E+00 -0.00000000000E+00 -0.17478319782E+03  0.17478319782E+03  0.00000000000E+00 0. -1.
          6    1    1    2  501    0 -0.20429975378E+03 -0.51573520960E+02  0.23175297843E+02  0.27298225563E+03  0.17200000000E+03 0. -1.
         -6    1    1    2    0  502  0.20429975378E+03  0.51573520960E+02  0.32092338025E+03  0.42068281810E+03  0.17200000000E+03 0. -1.
</event>
<event>
 4    1  0.1235203E+000  0.2375477E+03  0.7818608E-02  0.1121437E+00
         21   -1    0    0  501  502  0.00000000000E+00  0.00000000000E+00  0.22452241093E+04  0.22452241093E+04  0.00000000000E+00 0. -1.
         21   -1    0    0  502  503 -0.00000000000E+00 -0.00000000000E+00 -0.43025887452E+02  0.43025887452E+02  0.00000000000E+00 0.  1.
          6    1    1    2  501    0 -0.76639742333E+01  0.16366476284E+03  0.18389193021E+04  0.18541987732E+04  0.17200000000E+03 0. -1.
         -6    1    1    2    0  503  0.76639742333E+01 -0.16366476284E+03  0.36327891981E+03  0.43405122356E+03  0.17200000000E+03 0.  1.
</event>
<event>
 4    1  0.1235203E+000  0.2587008E+03  0.7818608E-02  0.1107926E+00
         21   -1    0    0  501  502  0.00000000000E+00  0.00000000000E+00  0.64231922189E+03  0.64231922189E+03  0.00000000000E+00 0.  1.
         21   -1    0    0  502  503 -0.00000000000E+00 -0.00000000000E+00 -0.41843810340E+03  0.41843810340E+03  0.00000000000E+00 0.  1.
          6    1    1    2  501    0 -0.17489301000E+03  0.82186032181E+02  0.57156559583E+03  0.62738611650E+03  0.17200000000E+03 0.  1.
         -6    1    1    2    0  503  0.17489301000E+03 -0.82186032181E+02 -0.34768447734E+03  0.43337120880E+03  0.17200000000E+03 0.  1.
</event>
<event>
 4    1  0.1235203E+000  0.1743348E+03  0.7818608E-02  0.1173401E+00
         21   -1    0    0  501  502  0.00000000000E+00  0.00000000000E+00  0.22672754900E+02  0.22672754900E+02  0.00000000000E+00 0.  1.
         21   -1    0    0  502  503 -0.00000000000E+00 -0.00000000000E+00 -0.15185722455E+04  0.15185722455E+04  0.00000000000E+00 0.  1.
          6    1    1    2  501    0  0.27831226070E+02 -0.58339056480E+01 -0.48405319737E+03  0.51449014518E+03  0.17200000000E+03 0.  1.
         -6    1    1    2    0  503 -0.27831226070E+02  0.58339056480E+01 -0.10118462932E+04  0.10267548552E+04  0.17200000000E+03 0.  1.
</event>
<event>
 4    1  0.1235203E+000  0.1735808E+03  0.7818608E-02  0.1174164E+00
         21   -1    0    0  503  502  0.00000000000E+00  0.00000000000E+00  0.95979573326E+02  0.95979573326E+02  0.00000000000E+00 0. -1.
         21   -1    0    0  501  503 -0.00000000000E+00 -0.00000000000E+00 -0.45397034652E+03  0.45397034652E+03  0.00000000000E+00 0. -1.
          6    1    1    2  501    0 -0.13536834132E+02 -0.19054237645E+02 -0.33172209830E+03  0.37439265531E+03  0.17200000000E+03 0.  1.
         -6    1    1    2    0  502  0.13536834132E+02  0.19054237645E+02 -0.26268674897E+02  0.17555726454E+03  0.17200000000E+03 0.  1.
</event>
<event>
 4    1  0.1235203E+000  0.2528267E+03  0.7818608E-02  0.1111531E+00
         21   -1    0    0  503  502  0.00000000000E+00  0.00000000000E+00  0.44520702094E+03  0.44520702094E+03  0.00000000000E+00 0.  1.
         21   -1    0    0  501  503 -0.00000000000E+00 -0.00000000000E+00 -0.15490957861E+03  0.15490957861E+03  0.00000000000E+00 0. -1.
          6    1    1    2  501    0 -0.12829172678E+03  0.13371087403E+03  0.63989813892E+02  0.26079889048E+03  0.17200000000E+03 0. -1.
         -6    1    1    2    0  502  0.12829172678E+03 -0.13371087403E+03  0.22630762844E+03  0.33931770906E+03  0.17200000000E+03 0. -1.
</event>
<event>
 4    1  0.1235203E+000  0.1861076E+03  0.7818608E-02  0.1162020E+00
         21   -1    0    0  503  502  0.00000000000E+00  0.00000000000E+00  0.33487555240E+03  0.33487555240E+03  0.00000000000E+00 0.  1.
         21   -1    0    0  501  503 -0.00000000000E+00 -0.00000000000E+00 -0.10589038218E+03  0.10589038218E+03  0.00000000000E+00 0.  1.
          6    1    1    2  501    0  0.10788117306E+01 -0.71069390350E+02  0.80896223583E+02  0.20292910355E+03  0.17200000000E+03 0.  1.
         -6    1    1    2    0  502 -0.10788117306E+01  0.71069390350E+02  0.14808894663E+03  0.23783683103E+03  0.17200000000E+03 0.  1.
</event>
<event>
 4    1  0.1235203E+000  0.2044007E+03  0.7818608E-02  0.1146078E+00
         21   -1    0    0  501  502  0.00000000000E+00  0.00000000000E+00  0.61548970717E+03  0.61548970717E+03  0.00000000000E+00 0.  1.
         21   -1    0    0  502  503 -0.00000000000E+00 -0.00000000000E+00 -0.24905823144E+03  0.24905823144E+03  0.00000000000E+00 0. -1.
          6    1    1    2  501    0  0.11012523181E+03  0.82516127609E+01  0.55190562413E+03  0.58854012076E+03  0.17200000000E+03 0.  1.
         -6    1    1    2    0  503 -0.11012523181E+03 -0.82516127609E+01 -0.18547414840E+03  0.27600781786E+03  0.17200000000E+03 0. -1.
</event>
<event>
 4    1  0.1235203E+000  0.2228188E+03  0.7818608E-02  0.1131799E+00
         21   -1    0    0  501  502  0.00000000000E+00  0.00000000000E+00  0.61654765546E+02  0.61654765546E+02  0.00000000000E+00 0.  1.
         21   -1    0    0  502  503 -0.00000000000E+00 -0.00000000000E+00 -0.81464120584E+03  0.81464120584E+03  0.00000000000E+00 0. -1.
          6    1    1    2  501    0  0.14076757490E+03  0.15769756507E+02 -0.32947812097E+03  0.39774869901E+03  0.17200000000E+03 0. -1.
         -6    1    1    2    0  503 -0.14076757490E+03 -0.15769756507E+02 -0.42350831932E+03  0.47854727237E+03  0.17200000000E+03 0. -1.
</event>
<event>
 4    1  0.1235203E+000  0.2624414E+03  0.7818608E-02  0.1105685E+00
         21   -1    0    0  503  502  0.00000000000E+00  0.00000000000E+00  0.17358123125E+03  0.17358123125E+03  0.00000000000E+00 0.  1.
         21   -1    0    0  501  503 -0.00000000000E+00 -0.00000000000E+00 -0.42348900027E+03  0.42348900027E+03  0.00000000000E+00 0. -1.
          6    1    1    2  501    0 -0.24416304802E+02  0.19671131387E+03 -0.19991093264E+03  0.32990889338E+03  0.17200000000E+03 0.  1.
         -6    1    1    2    0  502  0.24416304802E+02 -0.19671131387E+03 -0.49996836389E+02  0.26716133813E+03  0.17200000000E+03 0.  1.
</event>
<event>
 4    1  0.1235203E+000  0.1934045E+03  0.7818608E-02  0.1155426E+00
         21   -1    0    0  501  502  0.00000000000E+00  0.00000000000E+00  0.18584145966E+02  0.18584145966E+02  0.00000000000E+00 0. -1.
         21   -1    0    0  502  503 -0.00000000000E+00 -0.00000000000E+00 -0.23745078144E+04  0.23745078144E+04  0.00000000000E+00 0.  1.
          6    1    1    2  501    0  0.69418081476E+02 -0.54794307610E+02 -0.71092616259E+03  0.73676406999E+03  0.17200000000E+03 0. -1.
         -6    1    1    2    0  503 -0.69418081476E+02  0.54794307610E+02 -0.16449975058E+04  0.16563278904E+04  0.17200000000E+03 0.  1.
</event>
<event>
 4    1  0.1235203E+000  0.1761268E+03  0.7818608E-02  0.1171605E+00
         21   -1    0    0  503  502  0.00000000000E+00  0.00000000000E+00  0.12633489598E+03  0.12633489598E+03  0.00000000000E+00 0.  1.
         21   -1    0    0  501  503 -0.00000000000E+00 -0.00000000000E+00 -0.29623163331E+03  0.29623163331E+03  0.00000000000E+00 0.  1.
          6    1    1    2  501    0 -0.18408872294E+02 -0.33132721092E+02 -0.17234690991E+03  0.24642264738E+03  0.17200000000E+03 0.  1.
         -6    1    1    2    0  502  0.18408872294E+02  0.33132721092E+02  0.24501725799E+01  0.17614388190E+03  0.17200000000E+03 0.  1.
</event>
<event>
 4    1  0.1235203E+000  0.2749218E+03  0.7818608E-02  0.1098495E+00
         21   -1    0    0  501  502  0.00000000000E+00  0.00000000000E+00  0.52874272611E+03  0.52874272611E+03  0.00000000000E+00 0. -1.
         21   -1    0    0  502  503 -0.00000000000E+00 -0.00000000000E+00 -0.19387591347E+03  0.19387591347E+03  0.00000000000E+00 0.  1.
          6    1    1    2  501    0 -0.21426982051E+03 -0.92985776267E+01  0.35261626636E+03  0.44712442433E+03  0.17200000000E+03 0. -1.
         -6    1    1    2    0  503  0.21426982051E+03  0.92985776267E+01 -0.17749453718E+02  0.27549421525E+03  0.17200000000E+03 0.  1.
</event>
<event>
 4    1  0.1235203E+000  0.1910304E+03  0.7818608E-02  0.1157535E+00
         21   -1    0    0  501  502  0.00000000000E+00  0.00000000000E+00  0.14085849525E+03  0.14085849525E+03  0.00000000000E+00 0. -1.
         21   -1    0    0  502  503 -0.00000000000E+00 -0.00000000000E+00 -0.32366190913E+03  0.32366190913E+03  0.00000000000E+00 0. -1.
          6    1    1    2  501    0  0.46823246648E+02 -0.68674623093E+02  0.12353112956E+02  0.19142941175E+03  0.17200000000E+03 0. -1.
         -6    1    1    2    0  503 -0.46823246648E+02  0.68674623093E+02 -0.19515652684E+03  0.27309099262E+03  0.17200000000E+03 0. -1.
</event>
<event>
 4    1  0.1235203E+000  0.2932694E+03  0.7818608E-02  0.1088654E+00
         21   -1    0    0  501  502  0.00000000000E+00  0.00000000000E+00  0.12671649369E+03  0.12671649369E+03  0.00000000000E+00 0.  1.
         21   -1    0    0  502  503 -0.00000000000E+00 -0.00000000000E+00 -0.68445418263E+03  0.68445418263E+03  0.00000000000E+00 0.  1.
          6    1    1    2  501    0  0.10769730646E+03 -0.21171731006E+03 -0.31594324064E+03  0.43107662950E+03  0.17200000000E+03 0. -1.
         -6    1    1    2    0  503 -0.10769730646E+03  0.21171731006E+03 -0.24179444830E+03  0.38009404682E+03  0.17200000000E+03 0. -1.
</event>
<event>
 4    1  0.1235203E+000  0.1796440E+03  0.7818608E-02  0.1168148E+00
         21   -1    0    0  503  502  0.00000000000E+00  0.00000000000E+00  0.66725693024E+02  0.66725693024E+02  0.00000000000E+00 0.  1.
         21   -1    0    0  501  503 -0.00000000000E+00 -0.00000000000E+00 -0.64699033588E+03  0.64699033588E+03  0.00000000000E+00 0.  1.
          6    1    1    2  501    0  0.46859090455E+02 -0.22185616289E+02 -0.46943690738E+03  0.50263603724E+03  0.17200000000E+03 0.  1.
         -6    1    1    2    0  502 -0.46859090455E+02  0.22185616289E+02 -0.11082773548E+03  0.21107999166E+03  0.17200000000E+03 0.  1.
</event>
<event>
 4    1  0.1235203E+000  0.1752831E+03  0.7818608E-02  0.1172448E+00
         21   -1    0    0  503  502  0.00000000000E+00  0.00000000000E+00  0.56236602541E+02  0.56236602541E+02  0.00000000000E+00 0. -1.
         21   -1    0    0  501  503 -0.00000000000E+00 -0.00000000000E+00 -0.59755382933E+03  0.59755382933E+03  0.00000000000E+00 0. -1.
          6    1    1    2  501    0  0.26919525492E+02  0.20383679923E+02 -0.36636149066E+03  0.40613408759E+03  0.17200000000E+03 0. -1.
         -6    1    1    2    0  502 -0.26919525492E+02 -0.20383679923E+02 -0.17495573613E+03  0.24765634428E+03  0.17200000000E+03 0. -1.
</event>
<event>
 4    1  0.1235203E+000  0.2251338E+03  0.7818608E-02  0.1130112E+00
         21   -1    0    0  501  502  0.00000000000E+00  0.00000000000E+00  0.10239545787E+04  0.10239545787E+04  0.00000000000E+00 0. -1.
         21   -1    0    0  502  503 -0.00000000000E+00 -0.00000000000E+00 -0.67202711501E+02  0.67202711501E+02  0.00000000000E+00 0. -1.
          6    1    1    2  501    0  0.13022719778E+03  0.64359346282E+02  0.75839647304E+03  0.79110710957E+03  0.17200000000E+03 0. -1.
         -6    1    1    2    0  503 -0.13022719778E+03 -0.64359346282E+02  0.19835539412E+03  0.30005018059E+03  0.17200000000E+03 0. -1.
</event>
