<event>
 4    1  0.3191769E-002  0.3037952E+03  0.7818608E-02  0.1083359E+00
          4   -1    0    0  502    0  0.00000000000E+00  0.00000000000E+00  0.55124787019E+02  0.55124787019E+02  0.00000000000E+00 0. -1.
         -4   -1    0    0    0  501 -0.00000000000E+00 -0.00000000000E+00 -0.16926262136E+04  0.16926262136E+04  0.00000000000E+00 0.  1.
          6    1    1    2  502    0  0.14676725894E+03 -0.20289633658E+03 -0.90985475385E+03  0.95923262288E+03  0.17200000000E+03 0.  1.
         -6    1    1    2    0  501 -0.14676725894E+03  0.20289633658E+03 -0.72764667275E+03  0.78851837776E+03  0.17200000000E+03 0. -1.
</event>
<event>
 4    1  0.3191769E-002  0.2374838E+03  0.7818608E-02  0.1121480E+00
         -2   -1    0    0    0  501 -0.00000000000E+00  0.00000000000E+00  0.15127953220E+03  0.15127953220E+03  0.00000000000E+00 0.  1.
          2   -1    0    0  502    0  0.00000000000E+00 -0.00000000000E+00 -0.10426355630E+04  0.10426355630E+04  0.00000000000E+00 0. -1.
          6    1    1    2  502    0  0.14505073013E+03 -0.75992331650E+02 -0.92415161814E+03  0.95417753175E+03  0.17200000000E+03 0. -1.
         -6    1    1    2    0  501 -0.14505073013E+03  0.75992331650E+02  0.32795587330E+02  0.23973756345E+03  0.17200000000E+03 0.  1.
</event>
<event>
 4    1  0.3191769E-002  0.5021293E+03  0.7818608E-02  0.1013225E+00
         -1   -1    0    0    0  501 -0.00000000000E+00  0.00000000000E+00  0.12588959438E+04  0.12588959438E+04  0.00000000000E+00 0.  1.
          1   -1    0    0  502    0  0.00000000000E+00 -0.00000000000E+00 -0.20028578064E+03  0.20028578064E+03  0.00000000000E+00 0. -1.
          6    1    1    2  502    0  0.11964315618E+03 -0.45632807375E+03  0.53260598099E+03  0.73198560553E+03  0.17200000000E+03 0. -1.
         -6    1    1    2    0  501 -0.11964315618E+03  0.45632807375E+03  0.52600418217E+03  0.72719611892E+03  0.17200000000E+03 0.  1.
</event>
<event>
 4    1  0.3191769E-002  0.2128349E+03  0.7818608E-02  0.1139341E+00
         -2   -1    0    0    0  501 -0.00000000000E+00  0.00000000000E+00  0.21215620703E+03  0.21215620703E+03  0.00000000000E+00 0.  1.
          2   -1    0    0  502    0  0.00000000000E+00 -0.00000000000E+00 -0.27151495270E+03  0.27151495270E+03  0.00000000000E+00 0. -1.
          6    1    1    2  502    0 -0.11523874421E+01 -0.12535297896E+03 -0.14145168428E+03  0.25555288360E+03  0.17200000000E+03 0. -1.
         -6    1    1    2    0  501  0.11523874421E+01  0.12535297896E+03  0.82092938612E+02  0.22811827612E+03  0.17200000000E+03 0. -1.
</event>
<event>
 4    1  0.3191769E-002  0.2700180E+03  0.7818608E-02  0.1101269E+00
          2   -1    0    0  502    0  0.00000000000E+00  0.00000000000E+00  0.19137255718E+04  0.19137255718E+04  0.00000000000E+00 0. -1.
         -2   -1    0    0    0  501 -0.00000000000E+00 -0.00000000000E+00 -0.38296191600E+02  0.38296191600E+02  0.00000000000E+00 0.  1.
          6    1    1    2  502    0  0.99439447140E+01 -0.20791064643E+03  0.10078722539E+04  0.10434156406E+04  0.17200000000E+03 0. -1.
         -6    1    1    2    0  501 -0.99439447140E+01  0.20791064643E+03  0.86755712631E+03  0.90860612278E+03  0.17200000000E+03 0.  1.
</event>
<event>
 4    1  0.3191769E-002  0.6109050E+03  0.7818608E-02  0.9883036E-01
          1   -1    0    0  502    0  0.00000000000E+00  0.00000000000E+00  0.25106395419E+04  0.25106395419E+04  0.00000000000E+00 0. -1.
         -1   -1    0    0    0  501 -0.00000000000E+00 -0.00000000000E+00 -0.16483752596E+03  0.16483752596E+03  0.00000000000E+00 0.  1.
          6    1    1    2  502    0 -0.29063819597E+03  0.50906810894E+03  0.15921213435E+04  0.17053021061E+04  0.17200000000E+03 0. -1.
         -6    1    1    2    0  501  0.29063819597E+03 -0.50906810894E+03  0.75368067241E+03  0.97017496178E+03  0.17200000000E+03 0.  1.
</event>
<event>
 4    1  0.3191769E-002  0.3301811E+03  0.7818608E-02  0.1071057E+00
          2   -1    0    0  502    0  0.00000000000E+00  0.00000000000E+00  0.70499121487E+03  0.70499121487E+03  0.00000000000E+00 0. -1.
         -2   -1    0    0    0  501 -0.00000000000E+00 -0.00000000000E+00 -0.15807148849E+03  0.15807148849E+03  0.00000000000E+00 0.  1.
          6    1    1    2  502    0  0.21959913312E+03 -0.17666852225E+03  0.20987505390E+03  0.39123788706E+03  0.17200000000E+03 0. -1.
         -6    1    1    2    0  501 -0.21959913312E+03  0.17666852225E+03  0.33704467248E+03  0.47182481629E+03  0.17200000000E+03 0.  1.
</event>
<event>
 4    1  0.3191769E-002  0.5036978E+03  0.7818608E-02  0.1012818E+00
         -1   -1    0    0    0  501 -0.00000000000E+00  0.00000000000E+00  0.34560557010E+03  0.34560557010E+03  0.00000000000E+00 0.  1.
          1   -1    0    0  502    0  0.00000000000E+00 -0.00000000000E+00 -0.76733415589E+03  0.76733415589E+03  0.00000000000E+00 0. -1.
          6    1    1    2  502    0  0.46688038178E+03  0.78422988745E+02 -0.32666099721E+03  0.60034895115E+03  0.17200000000E+03 0. -1.
         -6    1    1    2    0  501 -0.46688038178E+03 -0.78422988745E+02 -0.95067588590E+02  0.51259077484E+03  0.17200000000E+03 0.  1.
</event>
<event>
 4    1  0.3191769E-002  0.2007563E+03  0.7818608E-02  0.1149103E+00
          1   -1    0    0  502    0  0.00000000000E+00  0.00000000000E+00  0.81412320989E+03  0.81412320989E+03  0.00000000000E+00 0. -1.
         -1   -1    0    0    0  501 -0.00000000000E+00 -0.00000000000E+00 -0.13769448326E+03  0.13769448326E+03  0.00000000000E+00 0.  1.
          6    1    1    2  502    0 -0.46064799831E+02 -0.92720640585E+02  0.71908208522E+03  0.74658028922E+03  0.17200000000E+03 0. -1.
         -6    1    1    2    0  501  0.46064799831E+02  0.92720640585E+02 -0.42653358590E+02  0.20523740393E+03  0.17200000000E+03 0.  1.
</event>
<event>
 4    1  0.3191769E-002  0.1967407E+03  0.7818608E-02  0.1152518E+00
         -2   -1    0    0    0  501 -0.00000000000E+00  0.00000000000E+00  0.21211540940E+03  0.21211540940E+03  0.00000000000E+00 0.  1.
          2   -1    0    0  502    0  0.00000000000E+00 -0.00000000000E+00 -0.12166411913E+04  0.12166411913E+04  0.00000000000E+00 0. -1.
          6    1    1    2  502    0  0.91873510163E+02  0.26118296691E+02 -0.11608921616E+04  0.11774453356E+04  0.17200000000E+03 0. -1.
         -6    1    1    2    0  501 -0.91873510163E+02 -0.26118296691E+02  0.15636637971E+03  0.25131126516E+03  0.17200000000E+03 0.  1.
</event>
<event>
 4    1  0.3191769E-002  0.1952356E+03  0.7818608E-02  0.1153822E+00
         -1   -1    0    0    0  501 -0.00000000000E+00  0.00000000000E+00  0.30132086599E+02  0.30132086599E+02  0.00000000000E+00 0.  1.
          1   -1    0    0  502    0  0.00000000000E+00 -0.00000000000E+00 -0.18004953702E+04  0.18004953702E+04  0.00000000000E+00 0. -1.
          6    1    1    2  502    0  0.89991520396E+02  0.20844222946E+02 -0.13843575739E+04  0.13980568114E+04  0.17200000000E+03 0. -1.
         -6    1    1    2    0  501 -0.89991520396E+02 -0.20844222946E+02 -0.38600570969E+03  0.43257064543E+03  0.17200000000E+03 0.  1.
</event>
<event>
 4    1  0.3191769E-002  0.1876839E+03  0.7818608E-02  0.1160567E+00
         -2   -1    0    0    0  501 -0.00000000000E+00  0.00000000000E+00  0.33017244579E+02  0.33017244579E+02  0.00000000000E+00 0.  1.
          2   -1    0    0  502    0  0.00000000000E+00 -0.00000000000E+00 -0.11260162211E+04  0.11260162211E+04  0.00000000000E+00 0. -1.
          6    1    1    2  502    0  0.68562183281E+02 -0.30667040972E+02 -0.41368593162E+03  0.45427006329E+03  0.17200000000E+03 0.  1.
         -6    1    1    2    0  501 -0.68562183281E+02  0.30667040972E+02 -0.67931304487E+03  0.70476340236E+03  0.17200000000E+03 0. -1.
</event>
<event>
 4    1  0.3191769E-002  0.5000905E+03  0.7818608E-02  0.1013755E+00
          2   -1    0    0  502    0  0.00000000000E+00  0.00000000000E+00  0.62020312195E+03  0.62020312195E+03  0.00000000000E+00 0. -1.
         -2   -1    0    0    0  501 -0.00000000000E+00 -0.00000000000E+00 -0.51884110183E+03  0.51884110183E+03  0.00000000000E+00 0.  1.
          6    1    1    2  502    0  0.28265837814E+03 -0.37498104592E+03  0.31950924799E+03  0.59344477678E+03  0.17200000000E+03 0. -1.
         -6    1    1    2    0  501 -0.28265837814E+03  0.37498104592E+03 -0.21814722787E+03  0.54559944700E+03  0.17200000000E+03 0.  1.
</event>
<event>
 4    1  0.3191769E-002  0.1998964E+03  0.7818608E-02  0.1149826E+00
         -2   -1    0    0    0  501 -0.00000000000E+00  0.00000000000E+00  0.15428376748E+03  0.15428376748E+03  0.00000000000E+00 0.  1.
          2   -1    0    0  502    0  0.00000000000E+00 -0.00000000000E+00 -0.84449685461E+03  0.84449685461E+03  0.00000000000E+00 0. -1.
          6    1    1    2  502    0  0.20139703688E+02  0.99844766850E+02 -0.76092672746E+03  0.78674523811E+03  0.17200000000E+03 0. -1.
         -6    1    1    2    0  501 -0.20139703688E+02 -0.99844766850E+02  0.70713640325E+02  0.21203538398E+03  0.17200000000E+03 0.  1.
</event>
<event>
 4    1  0.3191769E-002  0.2219164E+03  0.7818608E-02  0.1132462E+00
          3   -1    0    0  502    0  0.00000000000E+00  0.00000000000E+00  0.11871235256E+03  0.11871235256E+03  0.00000000000E+00 0. -1.
         -3   -1    0    0    0  501 -0.00000000000E+00 -0.00000000000E+00 -0.53769203192E+03  0.53769203192E+03  0.00000000000E+00 0.  1.
          6    1    1    2  502    0 -0.45797583535E+02 -0.13253485361E+03 -0.52611937460E+02  0.22806780142E+03  0.17200000000E+03 0. -1.
         -6    1    1    2    0  501  0.45797583535E+02  0.13253485361E+03 -0.36636774190E+03  0.42833658306E+03  0.17200000000E+03 0.  1.
</event>
<event>
 4    1  0.3191769E-002  0.4016471E+03  0.7818608E-02  0.1043211E+00
          2   -1    0    0  502    0  0.00000000000E+00  0.00000000000E+00  0.17754071195E+04  0.17754071195E+04  0.00000000000E+00 0. -1.
         -2   -1    0    0    0  501 -0.00000000000E+00 -0.00000000000E+00 -0.12508775045E+03  0.12508775045E+03  0.00000000000E+00 0.  1.
          6    1    1    2  502    0 -0.36246454205E+03  0.18864195109E+02  0.13222024941E+04  0.13818610051E+04  0.17200000000E+03 0. -1.
         -6    1    1    2    0  501  0.36246454205E+03 -0.18864195109E+02  0.32811687492E+03  0.51863386479E+03  0.17200000000E+03 0.  1.
</event>
<event>
 4    1  0.3191769E-002  0.1852027E+03  0.7818608E-02  0.1162861E+00
          2   -1    0    0  502    0  0.00000000000E+00  0.00000000000E+00  0.13438759453E+04  0.13438759453E+04  0.00000000000E+00 0. -1.
         -2   -1    0    0    0  501 -0.00000000000E+00 -0.00000000000E+00 -0.44465360334E+02  0.44465360334E+02  0.00000000000E+00 0.  1.
          6    1    1    2  502    0 -0.37493932485E+02  0.57534848634E+02  0.11027799392E+04  0.11182234339E+04  0.17200000000E+03 0. -1.
         -6    1    1    2    0  501  0.37493932485E+02 -0.57534848634E+02  0.19663064573E+03  0.27011787172E+03  0.17200000000E+03 0.  1.
</event>
<event>
 4    1  0.3191769E-002  0.2964128E+03  0.7818608E-02  0.1087048E+00
          2   -1    0    0  502    0  0.00000000000E+00  0.00000000000E+00  0.21305339523E+04  0.21305339523E+04  0.00000000000E+00 0. -1.
         -2   -1    0    0    0  501 -0.00000000000E+00 -0.00000000000E+00 -0.79124578429E+02  0.79124578429E+02  0.00000000000E+00 0.  1.
          6    1    1    2  502    0 -0.25661957168E+02  0.24003748779E+03  0.17902054575E+04  0.18145787698E+04  0.17200000000E+03 0. -1.
         -6    1    1    2    0  501  0.25661957168E+02 -0.24003748779E+03  0.26120391632E+03  0.39507976092E+03  0.17200000000E+03 0.  1.
</event>
<event>
 4    1  0.3191769E-002  0.1914852E+03  0.7818608E-02  0.1157129E+00
         -1   -1    0    0    0  501 -0.00000000000E+00  0.00000000000E+00  0.52960290761E+02  0.52960290761E+02  0.00000000000E+00 0.  1.
          1   -1    0    0  502    0  0.00000000000E+00 -0.00000000000E+00 -0.84200466264E+03  0.84200466264E+03  0.00000000000E+00 0. -1.
          6    1    1    2  502    0  0.61896986884E+02 -0.57020529506E+02 -0.58318097776E+03  0.61381318867E+03  0.17200000000E+03 0. -1.
         -6    1    1    2    0  501 -0.61896986884E+02  0.57020529506E+02 -0.20586339412E+03  0.28115176473E+03  0.17200000000E+03 0.  1.
</event>
<event>
 4    1  0.3191769E-002  0.8810885E+03  0.7818608E-02  0.9449535E-01
         -2   -1    0    0    0  501 -0.00000000000E+00  0.00000000000E+00  0.10066500977E+04  0.10066500977E+04  0.00000000000E+00 0.  1.
          2   -1    0    0  502    0  0.00000000000E+00 -0.00000000000E+00 -0.78396271628E+03  0.78396271628E+03  0.00000000000E+00 0. -1.
          6    1    1    2  502    0  0.85845521525E+03 -0.98932682737E+02  0.22562895023E+03  0.90951935410E+03  0.17200000000E+03 0. -1.
         -6    1    1    2    0  501 -0.85845521525E+03  0.98932682737E+02 -0.29415687733E+01  0.88109345993E+03  0.17200000000E+03 0.  1.
</event>
<event>
 4    1  0.3191769E-002  0.6828174E+03  0.7818608E-02  0.9747076E-01
         -2   -1    0    0    0  501 -0.00000000000E+00  0.00000000000E+00  0.28673479073E+03  0.28673479073E+03  0.00000000000E+00 0.  1.
          2   -1    0    0  502    0  0.00000000000E+00 -0.00000000000E+00 -0.17279445445E+04  0.17279445445E+04  0.00000000000E+00 0. -1.
          6    1    1    2  502    0 -0.66077790538E+03 -0.53042269143E+01 -0.47596479731E+03  0.83233530704E+03  0.17200000000E+03 0. -1.
         -6    1    1    2    0  501  0.66077790538E+03  0.53042269143E+01 -0.96524495651E+03  0.11823440282E+04  0.17200000000E+03 0.  1.
</event>
<event>
 4    1  0.3191769E-002  0.5320096E+03  0.7818608E-02  0.1005746E+00
          1   -1    0    0  502    0  0.00000000000E+00  0.00000000000E+00  0.11039647527E+04  0.11039647527E+04  0.00000000000E+00 0. -1.
         -1   -1    0    0    0  501 -0.00000000000E+00 -0.00000000000E+00 -0.34941855379E+03  0.34941855379E+03  0.00000000000E+00 0.  1.
          6    1    1    2  502    0  0.28838507733E+03 -0.41265511030E+03  0.75225411468E+03  0.92136878932E+03  0.17200000000E+03 0. -1.
         -6    1    1    2    0  501 -0.28838507733E+03  0.41265511030E+03  0.22920842788E+01  0.53201451722E+03  0.17200000000E+03 0.  1.
</event>
<event>
 4    1  0.3191769E-002  0.3777138E+03  0.7818608E-02  0.1051782E+00
         -2   -1    0    0    0  501 -0.00000000000E+00  0.00000000000E+00  0.53106281328E+02  0.53106281328E+02  0.00000000000E+00 0.  1.
          2   -1    0    0  502    0  0.00000000000E+00 -0.00000000000E+00 -0.27158921800E+04  0.27158921800E+04  0.00000000000E+00 0. -1.
          6    1    1    2  502    0 -0.37267615934E+02  0.33420781296E+03 -0.14755282403E+04  0.15231058155E+04  0.17200000000E+03 0. -1.
         -6    1    1    2    0  501  0.37267615934E+02 -0.33420781296E+03 -0.11872576584E+04  0.12458926458E+04  0.17200000000E+03 0.  1.
</event>
<event>
 4    1  0.3191769E-002  0.2134919E+03  0.7818608E-02  0.1138830E+00
          2   -1    0    0  502    0  0.00000000000E+00  0.00000000000E+00  0.53006300321E+03  0.53006300321E+03  0.00000000000E+00 0. -1.
         -2   -1    0    0    0  501 -0.00000000000E+00 -0.00000000000E+00 -0.89522948241E+02  0.89522948241E+02  0.00000000000E+00 0.  1.
          6    1    1    2  502    0  0.12575502527E+03 -0.13433314678E+02  0.28183419758E+03  0.35356653582E+03  0.17200000000E+03 0. -1.
         -6    1    1    2    0  501 -0.12575502527E+03  0.13433314678E+02  0.15870585739E+03  0.26601941563E+03  0.17200000000E+03 0.  1.
</event>
<event>
 4    1  0.3191769E-002  0.2177718E+03  0.7818608E-02  0.1135555E+00
         -2   -1    0    0    0  501 -0.00000000000E+00  0.00000000000E+00  0.27731812181E+02  0.27731812181E+02  0.00000000000E+00 0.  1.
          2   -1    0    0  502    0  0.00000000000E+00 -0.00000000000E+00 -0.17464786203E+04  0.17464786203E+04  0.00000000000E+00 0. -1.
          6    1    1    2  502    0  0.13157695699E+03 -0.22979233206E+02 -0.98738143621E+03  0.10111115870E+04  0.17200000000E+03 0.  1.
         -6    1    1    2    0  501 -0.13157695699E+03  0.22979233206E+02 -0.73136537195E+03  0.76309884554E+03  0.17200000000E+03 0.  1.
</event>
<event>
 4    1  0.3191769E-002  0.1772989E+03  0.7818608E-02  0.1170443E+00
         -1   -1    0    0    0  501 -0.00000000000E+00  0.00000000000E+00  0.45348068617E+02  0.45348068617E+02  0.00000000000E+00 0.  1.
          1   -1    0    0  502    0  0.00000000000E+00 -0.00000000000E+00 -0.12548293797E+04  0.12548293797E+04  0.00000000000E+00 0. -1.
          6    1    1    2  502    0  0.41593166594E+02  0.10996303787E+02 -0.10396596407E+04  0.10546691797E+04  0.17200000000E+03 0. -1.
         -6    1    1    2    0  501 -0.41593166594E+02 -0.10996303787E+02 -0.16982167038E+03  0.24550826857E+03  0.17200000000E+03 0.  1.
</event>
<event>
 4    1  0.3191769E-002  0.5481738E+03  0.7818608E-02  0.1001917E+00
          1   -1    0    0  502    0  0.00000000000E+00  0.00000000000E+00  0.23427396988E+04  0.23427396988E+04  0.00000000000E+00 0. -1.
         -1   -1    0    0    0  501 -0.00000000000E+00 -0.00000000000E+00 -0.12857031461E+03  0.12857031461E+03  0.00000000000E+00 0.  1.
          6    1    1    2  502    0 -0.52044491062E+03  0.69027571355E+01  0.11671708038E+04  0.12894891385E+04  0.17200000000E+03 0. -1.
         -6    1    1    2    0  501  0.52044491062E+03 -0.69027571355E+01  0.10469985805E+04  0.11818208750E+04  0.17200000000E+03 0.  1.
</event>
<event>
 4    1  0.3191769E-002  0.2642010E+03  0.7818608E-02  0.1104645E+00
         -2   -1    0    0    0  501 -0.00000000000E+00  0.00000000000E+00  0.84902029231E+03  0.84902029231E+03  0.00000000000E+00 0.  1.
          2   -1    0    0  502    0  0.00000000000E+00 -0.00000000000E+00 -0.10277690944E+03  0.10277690944E+03  0.00000000000E+00 0. -1.
          6    1    1    2  502    0 -0.15011248391E+03  0.13298268968E+03  0.16025927360E+03  0.30900677720E+03  0.17200000000E+03 0. -1.
         -6    1    1    2    0  501  0.15011248391E+03 -0.13298268968E+03  0.58598410927E+03  0.64279042455E+03  0.17200000000E+03 0.  1.
</event>
<event>
 4    1  0.3191769E-002  0.1753992E+03  0.7818608E-02  0.1172331E+00
         -1   -1    0    0    0  501 -0.00000000000E+00  0.00000000000E+00  0.73182080493E+02  0.73182080493E+02  0.00000000000E+00 0.  1.
          1   -1    0    0  502    0  0.00000000000E+00 -0.00000000000E+00 -0.49821521182E+03  0.49821521182E+03  0.00000000000E+00 0. -1.
          6    1    1    2  502    0 -0.26539703005E+02 -0.21829741369E+02 -0.32543490276E+03  0.36969280407E+03  0.17200000000E+03 0. -1.
         -6    1    1    2    0  501  0.26539703005E+02  0.21829741369E+02 -0.99598228560E+02  0.20170448824E+03  0.17200000000E+03 0.  1.
</event>
<event>
 4    1  0.3191769E-002  0.1869522E+03  0.7818608E-02  0.1161239E+00
         -2   -1    0    0    0  501 -0.00000000000E+00  0.00000000000E+00  0.35238545176E+02  0.35238545176E+02  0.00000000000E+00 0.  1.
          2   -1    0    0  502    0  0.00000000000E+00 -0.00000000000E+00 -0.99215409757E+03  0.99215409757E+03  0.00000000000E+00 0. -1.
          6    1    1    2  502    0  0.32953051678E+02 -0.65431075384E+02 -0.46937179428E+03  0.50523361973E+03  0.17200000000E+03 0. -1.
         -6    1    1    2    0  501 -0.32953051678E+02  0.65431075384E+02 -0.48754375811E+03  0.52215902301E+03  0.17200000000E+03 0. -1.
</event>
<event>
 4    1  0.3191769E-002  0.2332029E+03  0.7818608E-02  0.1124406E+00
          2   -1    0    0  502    0  0.00000000000E+00  0.00000000000E+00  0.26751987441E+04  0.26751987441E+04  0.00000000000E+00 0. -1.
         -2   -1    0    0    0  501 -0.00000000000E+00 -0.00000000000E+00 -0.29737272536E+02  0.29737272536E+02  0.00000000000E+00 0.  1.
          6    1    1    2  502    0 -0.11782693660E+03  0.10448159785E+03  0.20834701185E+04  0.20964807001E+04  0.17200000000E+03 0. -1.
         -6    1    1    2    0  501  0.11782693660E+03 -0.10448159785E+03  0.56199135303E+03  0.60845531649E+03  0.17200000000E+03 0.  1.
</event>
<event>
 4    1  0.3191769E-002  0.1764872E+03  0.7818608E-02  0.1171247E+00
          1   -1    0    0  502    0  0.00000000000E+00  0.00000000000E+00  0.16954006991E+04  0.16954006991E+04  0.00000000000E+00 0. -1.
         -1   -1    0    0    0  501 -0.00000000000E+00 -0.00000000000E+00 -0.28360468243E+02  0.28360468243E+02  0.00000000000E+00 0.  1.
          6    1    1    2  502    0 -0.19241411219E+02  0.34546839265E+02  0.13450160963E+04  0.13565456186E+04  0.17200000000E+03 0. -1.
         -6    1    1    2    0  501  0.19241411219E+02 -0.34546839265E+02  0.32202413456E+03  0.36721554876E+03  0.17200000000E+03 0.  1.
</event>
<event>
 4    1  0.3191769E-002  0.2602857E+03  0.7818608E-02  0.1106972E+00
         -1   -1    0    0    0  501 -0.00000000000E+00  0.00000000000E+00  0.24361578902E+03  0.24361578902E+03  0.00000000000E+00 0.  1.
          1   -1    0    0  502    0  0.00000000000E+00 -0.00000000000E+00 -0.37263619484E+03  0.37263619484E+03  0.00000000000E+00 0. -1.
          6    1    1    2  502    0  0.31503620529E+02  0.19280090430E+03 -0.21971073691E+03  0.34061925183E+03  0.17200000000E+03 0. -1.
         -6    1    1    2    0  501 -0.31503620529E+02 -0.19280090430E+03  0.90690331089E+02  0.27563273202E+03  0.17200000000E+03 0.  1.
</event>
<event>
 4    1  0.3191769E-002  0.2470685E+03  0.7818608E-02  0.1115172E+00
          2   -1    0    0  502    0  0.00000000000E+00  0.00000000000E+00  0.12910988073E+03  0.12910988073E+03  0.00000000000E+00 0. -1.
         -2   -1    0    0    0  501 -0.00000000000E+00 -0.00000000000E+00 -0.74650301527E+03  0.74650301527E+03  0.00000000000E+00 0.  1.
          6    1    1    2  502    0 -0.17716536005E+03 -0.84417082085E+01 -0.43597527540E+02  0.25088557481E+03  0.17200000000E+03 0. -1.
         -6    1    1    2    0  501  0.17716536005E+03  0.84417082085E+01 -0.57379560700E+03  0.62472732119E+03  0.17200000000E+03 0.  1.
</event>
<event>
 4    1  0.3191769E-002  0.4047802E+03  0.7818608E-02  0.1042137E+00
          2   -1    0    0  502    0  0.00000000000E+00  0.00000000000E+00  0.14106586462E+04  0.14106586462E+04  0.00000000000E+00 0. -1.
         -2   -1    0    0    0  501 -0.00000000000E+00 -0.00000000000E+00 -0.21863773266E+03  0.21863773266E+03  0.00000000000E+00 0.  1.
          6    1    1    2  502    0  0.35054367756E+03  0.10668705863E+03  0.11537674046E+04  0.12227126491E+04  0.17200000000E+03 0. -1.
         -6    1    1    2    0  501 -0.35054367756E+03 -0.10668705863E+03  0.38253508943E+02  0.40658372975E+03  0.17200000000E+03 0.  1.
</event>
<event>
 4    1  0.3191769E-002  0.1851488E+03  0.7818608E-02  0.1162911E+00
          1   -1    0    0  502    0  0.00000000000E+00  0.00000000000E+00  0.23541704207E+04  0.23541704207E+04  0.00000000000E+00 0. -1.
         -1   -1    0    0    0  501 -0.00000000000E+00 -0.00000000000E+00 -0.48002350745E+02  0.48002350745E+02  0.00000000000E+00 0.  1.
          6    1    1    2  502    0  0.41363737166E+02 -0.54636235362E+02  0.21555788485E+04  0.21635157150E+04  0.17200000000E+03 0. -1.
         -6    1    1    2    0  501 -0.41363737166E+02  0.54636235362E+02  0.15058922143E+03  0.23865705642E+03  0.17200000000E+03 0.  1.
</event>
<event>
 4    1  0.3191769E-002  0.1858261E+03  0.7818608E-02  0.1162281E+00
          2   -1    0    0  502    0  0.00000000000E+00  0.00000000000E+00  0.11549983007E+04  0.11549983007E+04  0.00000000000E+00 0. -1.
         -2   -1    0    0    0  501 -0.00000000000E+00 -0.00000000000E+00 -0.31875619654E+02  0.31875619654E+02  0.00000000000E+00 0.  1.
          6    1    1    2  502    0  0.41085376176E+02 -0.57090510677E+02  0.41372093665E+03  0.45353759267E+03  0.17200000000E+03 0.  1.
         -6    1    1    2    0  501 -0.41085376176E+02  0.57090510677E+02  0.70940174442E+03  0.73333632770E+03  0.17200000000E+03 0. -1.
</event>
<event>
 4    1  0.3191769E-002  0.2090509E+03  0.7818608E-02  0.1142320E+00
          1   -1    0    0  502    0  0.00000000000E+00  0.00000000000E+00  0.32972089616E+03  0.32972089616E+03  0.00000000000E+00 0. -1.
         -1   -1    0    0    0  501 -0.00000000000E+00 -0.00000000000E+00 -0.13334247000E+03  0.13334247000E+03  0.00000000000E+00 0.  1.
          6    1    1    2  502    0 -0.10207136308E+03  0.60825134346E+02  0.80263557736E+02  0.22392967385E+03  0.17200000000E+03 0. -1.
         -6    1    1    2    0  501  0.10207136308E+03 -0.60825134346E+02  0.11611486843E+03  0.23913369232E+03  0.17200000000E+03 0.  1.
</event>
<event>
 4    1  0.3191769E-002  0.3538578E+03  0.7818608E-02  0.1061043E+00
         -2   -1    0    0    0  501 -0.00000000000E+00  0.00000000000E+00  0.46537604761E+02  0.46537604761E+02  0.00000000000E+00 0.  1.
          2   -1    0    0  502    0  0.00000000000E+00 -0.00000000000E+00 -0.27403148053E+04  0.27403148053E+04  0.00000000000E+00 0. -1.
          6    1    1    2  502    0  0.27973374299E+03  0.13183467498E+03 -0.15345208424E+04  0.15747919114E+04  0.17200000000E+03 0. -1.
         -6    1    1    2    0  501 -0.27973374299E+03 -0.13183467498E+03 -0.11592563581E+04  0.12120604986E+04  0.17200000000E+03 0.  1.
</event>
<event>
 4    1  0.3191769E-002  0.1774673E+03  0.7818608E-02  0.1170277E+00
         -1   -1    0    0    0  501 -0.00000000000E+00  0.00000000000E+00  0.25076861316E+03  0.25076861316E+03  0.00000000000E+00 0.  1.
          1   -1    0    0  502    0  0.00000000000E+00 -0.00000000000E+00 -0.13354807108E+03  0.13354807108E+03  0.00000000000E+00 0. -1.
          6    1    1    2  502    0 -0.36595904592E+02  0.23903543584E+02  0.11709713064E+02  0.17785318948E+03  0.17200000000E+03 0. -1.
         -6    1    1    2    0  501  0.36595904592E+02 -0.23903543584E+02  0.10551082901E+03  0.20646349476E+03  0.17200000000E+03 0.  1.
</event>
<event>
 4    1  0.3191769E-002  0.1729885E+03  0.7818608E-02  0.1174767E+00
          2   -1    0    0  502    0  0.00000000000E+00  0.00000000000E+00  0.23705623611E+04  0.23705623611E+04  0.00000000000E+00 0. -1.
         -2   -1    0    0    0  501 -0.00000000000E+00 -0.00000000000E+00 -0.12773245329E+02  0.12773245329E+02  0.00000000000E+00 0.  1.
          6    1    1    2  502    0 -0.69119802042E+01 -0.17123975668E+02  0.10499059163E+04  0.10640617647E+04  0.17200000000E+03 0. -1.
         -6    1    1    2    0  501  0.69119802042E+01  0.17123975668E+02  0.13078831995E+04  0.13192738417E+04  0.17200000000E+03 0. -1.
</event>
<event>
 4    1  0.3191769E-002  0.2587267E+03  0.7818608E-02  0.1107911E+00
         -1   -1    0    0    0  501 -0.00000000000E+00  0.00000000000E+00  0.20059790472E+03  0.20059790472E+03  0.00000000000E+00 0.  1.
          1   -1    0    0  502    0  0.00000000000E+00 -0.00000000000E+00 -0.36270157731E+03  0.36270157731E+03  0.00000000000E+00 0. -1.
          6    1    1    2  502    0 -0.71223593964E+02  0.17967392072E+03 -0.14092154142E+01  0.25873056258E+03  0.17200000000E+03 0. -1.
         -6    1    1    2    0  501  0.71223593964E+02 -0.17967392072E+03 -0.16069445717E+03  0.30456891945E+03  0.17200000000E+03 0.  1.
</event>
<event>
 4    1  0.3191769E-002  0.7657560E+03  0.7818608E-02  0.9610951E-01
          1   -1    0    0  502    0  0.00000000000E+00  0.00000000000E+00  0.12147148909E+04  0.12147148909E+04  0.00000000000E+00 0. -1.
         -1   -1    0    0    0  501 -0.00000000000E+00 -0.00000000000E+00 -0.48356199718E+03  0.48356199718E+03  0.00000000000E+00 0.  1.
          6    1    1    2  502    0  0.68348087943E+03  0.29941976700E+03  0.33040664410E+03  0.83399691838E+03  0.17200000000E+03 0. -1.
         -6    1    1    2    0  501 -0.68348087943E+03 -0.29941976700E+03  0.40074624959E+03  0.86427996967E+03  0.17200000000E+03 0.  1.
</event>
<event>
 4    1  0.3191769E-002  0.2296496E+03  0.7818608E-02  0.1126887E+00
         -1   -1    0    0    0  501 -0.00000000000E+00  0.00000000000E+00  0.67458153306E+02  0.67458153306E+02  0.00000000000E+00 0.  1.
          1   -1    0    0  502    0  0.00000000000E+00 -0.00000000000E+00 -0.83186635056E+03  0.83186635056E+03  0.00000000000E+00 0. -1.
          6    1    1    2  502    0 -0.14128444711E+03  0.56512390949E+02 -0.27189222419E+03  0.35589932130E+03  0.17200000000E+03 0.  1.
         -6    1    1    2    0  501  0.14128444711E+03 -0.56512390949E+02 -0.49251597306E+03  0.54342518256E+03  0.17200000000E+03 0. -1.
</event>
<event>
 4    1  0.3191769E-002  0.4020970E+03  0.7818608E-02  0.1043056E+00
          2   -1    0    0  502    0  0.00000000000E+00  0.00000000000E+00  0.20182254438E+04  0.20182254438E+04  0.00000000000E+00 0. -1.
         -2   -1    0    0    0  501 -0.00000000000E+00 -0.00000000000E+00 -0.82646131064E+02  0.82646131064E+02  0.00000000000E+00 0.  1.
          6    1    1    2  502    0 -0.25250304702E+03  0.26141959315E+03  0.11517656931E+04  0.12199369674E+04  0.17200000000E+03 0. -1.
         -6    1    1    2    0  501  0.25250304702E+03 -0.26141959315E+03  0.78381361964E+03  0.88093460755E+03  0.17200000000E+03 0.  1.
</event>
<event>
 4    1  0.3191769E-002  0.4746708E+03  0.7818608E-02  0.1020610E+00
          2   -1    0    0  502    0  0.00000000000E+00  0.00000000000E+00  0.17138936854E+04  0.17138936854E+04  0.00000000000E+00 0. -1.
         -2   -1    0    0    0  501 -0.00000000000E+00 -0.00000000000E+00 -0.22008127885E+03  0.22008127885E+03  0.00000000000E+00 0.  1.
          6    1    1    2  502    0 -0.41294775995E+03  0.15875309523E+03  0.13605165639E+04  0.14409433432E+04  0.17200000000E+03 0.  1.
         -6    1    1    2    0  501  0.41294775995E+03 -0.15875309523E+03  0.13329584268E+03  0.49303162107E+03  0.17200000000E+03 0.  1.
</event>
<event>
 4    1  0.3191769E-002  0.4271684E+03  0.7818608E-02  0.1034758E+00
         -1   -1    0    0    0  501 -0.00000000000E+00  0.00000000000E+00  0.72023178436E+02  0.72023178436E+02  0.00000000000E+00 0.  1.
          1   -1    0    0  502    0  0.00000000000E+00 -0.00000000000E+00 -0.30086339866E+04  0.30086339866E+04  0.00000000000E+00 0. -1.
          6    1    1    2  502    0  0.90762867685E+02  0.38033000977E+03 -0.20804069404E+04  0.21238092787E+04  0.17200000000E+03 0. -1.
         -6    1    1    2    0  501 -0.90762867685E+02 -0.38033000977E+03 -0.85620386777E+03  0.95684788637E+03  0.17200000000E+03 0.  1.
</event>
<event>
 4    1  0.3191769E-002  0.2375486E+03  0.7818608E-02  0.1121437E+00
          2   -1    0    0  502    0  0.00000000000E+00  0.00000000000E+00  0.83055044077E+03  0.83055044077E+03  0.00000000000E+00 0. -1.
         -2   -1    0    0    0  501 -0.00000000000E+00 -0.00000000000E+00 -0.49119447828E+03  0.49119447828E+03  0.00000000000E+00 0.  1.
          6    1    1    2  502    0 -0.58579349133E+02 -0.15301565249E+03  0.78314416256E+03  0.81837895220E+03  0.17200000000E+03 0. -1.
         -6    1    1    2    0  501  0.58579349133E+02  0.15301565249E+03 -0.44378820007E+03  0.50336596684E+03  0.17200000000E+03 0.  1.
</event>
<event>
 4    1  0.3191769E-002  0.2115832E+03  0.7818608E-02  0.1140318E+00
          2   -1    0    0  502    0  0.00000000000E+00  0.00000000000E+00  0.54892386668E+03  0.54892386668E+03  0.00000000000E+00 0. -1.
         -2   -1    0    0    0  501 -0.00000000000E+00 -0.00000000000E+00 -0.81661810766E+02  0.81661810766E+02  0.00000000000E+00 0.  1.
          6    1    1    2  502    0  0.90801562183E+02 -0.83297858225E+02  0.24503667022E+03  0.32374438471E+03  0.17200000000E+03 0. -1.
         -6    1    1    2    0  501 -0.90801562183E+02  0.83297858225E+02  0.22222538569E+03  0.30684129273E+03  0.17200000000E+03 0. -1.
</event>
<event>
 4    1  0.3191769E-002  0.4726505E+03  0.7818608E-02  0.1021175E+00
         -2   -1    0    0    0  501 -0.00000000000E+00  0.00000000000E+00  0.91808514615E+02  0.91808514615E+02  0.00000000000E+00 0.  1.
          2   -1    0    0  502    0  0.00000000000E+00 -0.00000000000E+00 -0.35868323624E+04  0.35868323624E+04  0.00000000000E+00 0. -1.
          6    1    1    2  502    0  0.43032500107E+03  0.92924314751E+02 -0.27905855199E+04  0.28303296767E+04  0.17200000000E+03 0. -1.
         -6    1    1    2    0  501 -0.43032500107E+03 -0.92924314751E+02 -0.70443832785E+03  0.84831120030E+03  0.17200000000E+03 0.  1.
</event>
<event>
 4    1  0.3191769E-002  0.1788074E+03  0.7818608E-02  0.1168962E+00
          1   -1    0    0  502    0  0.00000000000E+00  0.00000000000E+00  0.21814138485E+03  0.21814138485E+03  0.00000000000E+00 0. -1.
         -1   -1    0    0    0  501 -0.00000000000E+00 -0.00000000000E+00 -0.14736793625E+03  0.14736793625E+03  0.00000000000E+00 0.  1.
          6    1    1    2  502    0  0.48303507846E+02 -0.74071158720E+01  0.21904650067E+02  0.18014413099E+03  0.17200000000E+03 0.  1.
         -6    1    1    2    0  501 -0.48303507846E+02  0.74071158720E+01  0.48868798535E+02  0.18536519011E+03  0.17200000000E+03 0.  1.
</event>
<event>
 4    1  0.3191769E-002  0.2290648E+03  0.7818608E-02  0.1127300E+00
         -2   -1    0    0    0  501 -0.00000000000E+00  0.00000000000E+00  0.12577851988E+04  0.12577851988E+04  0.00000000000E+00 0.  1.
          2   -1    0    0  502    0  0.00000000000E+00 -0.00000000000E+00 -0.54836977400E+03  0.54836977400E+03  0.00000000000E+00 0. -1.
          6    1    1    2  502    0  0.13360862066E+03 -0.70960584516E+02 -0.51333999679E+03  0.56212865109E+03  0.17200000000E+03 0. -1.
         -6    1    1    2    0  501 -0.13360862066E+03  0.70960584516E+02  0.12227554216E+04  0.12440263217E+04  0.17200000000E+03 0.  1.
</event>
<event>
 4    1  0.3191769E-002  0.5002935E+03  0.7818608E-02  0.1013702E+00
         -1   -1    0    0    0  501 -0.00000000000E+00  0.00000000000E+00  0.67663691204E+03  0.67663691204E+03  0.00000000000E+00 0.  1.
          1   -1    0    0  502    0  0.00000000000E+00 -0.00000000000E+00 -0.47106986347E+03  0.47106986347E+03  0.00000000000E+00 0. -1.
          6    1    1    2  502    0 -0.12200561890E+03 -0.45367852885E+03 -0.16314575393E+03  0.52622249630E+03  0.17200000000E+03 0. -1.
         -6    1    1    2    0  501  0.12200561890E+03  0.45367852885E+03  0.36871280251E+03  0.62148427922E+03  0.17200000000E+03 0.  1.
</event>
<event>
 4    1  0.3191769E-002  0.2261753E+03  0.7818608E-02  0.1129361E+00
         -2   -1    0    0    0  501 -0.00000000000E+00  0.00000000000E+00  0.14640076751E+03  0.14640076751E+03  0.00000000000E+00 0.  1.
          2   -1    0    0  502    0  0.00000000000E+00 -0.00000000000E+00 -0.35607170180E+03  0.35607170180E+03  0.00000000000E+00 0. -1.
          6    1    1    2  502    0 -0.22805761072E+02 -0.14509012214E+03 -0.70495139275E+02  0.23690675579E+03  0.17200000000E+03 0. -1.
         -6    1    1    2    0  501  0.22805761072E+02  0.14509012214E+03 -0.13917579501E+03  0.26556571352E+03  0.17200000000E+03 0.  1.
</event>
<event>
 4    1  0.3191769E-002  0.4126516E+03  0.7818608E-02  0.1039485E+00
         -2   -1    0    0    0  501 -0.00000000000E+00  0.00000000000E+00  0.75315207486E+03  0.75315207486E+03  0.00000000000E+00 0.  1.
          2   -1    0    0  502    0  0.00000000000E+00 -0.00000000000E+00 -0.41075478365E+03  0.41075478365E+03  0.00000000000E+00 0. -1.
          6    1    1    2  502    0  0.33555416157E+03 -0.16763270797E+03 -0.21900123721E+03  0.46716470546E+03  0.17200000000E+03 0. -1.
         -6    1    1    2    0  501 -0.33555416157E+03  0.16763270797E+03  0.56139852842E+03  0.69674215305E+03  0.17200000000E+03 0.  1.
</event>
<event>
 4    1  0.3191769E-002  0.2164055E+03  0.7818608E-02  0.1136592E+00
         -1   -1    0    0    0  501 -0.00000000000E+00  0.00000000000E+00  0.48361016737E+02  0.48361016737E+02  0.00000000000E+00 0.  1.
          1   -1    0    0  502    0  0.00000000000E+00 -0.00000000000E+00 -0.10222636743E+04  0.10222636743E+04  0.00000000000E+00 0. -1.
          6    1    1    2  502    0  0.41825235175E+02 -0.12449088516E+03 -0.36403857734E+03  0.42350373856E+03  0.17200000000E+03 0.  1.
         -6    1    1    2    0  501 -0.41825235175E+02  0.12449088516E+03 -0.60986408022E+03  0.64712095247E+03  0.17200000000E+03 0. -1.
</event>
<event>
 4    1  0.3191769E-002  0.2083074E+03  0.7818608E-02  0.1142913E+00
         -2   -1    0    0    0  501 -0.00000000000E+00  0.00000000000E+00  0.50441634436E+02  0.50441634436E+02  0.00000000000E+00 0.  1.
          2   -1    0    0  502    0  0.00000000000E+00 -0.00000000000E+00 -0.10159119853E+04  0.10159119853E+04  0.00000000000E+00 0. -1.
          6    1    1    2  502    0  0.10429362866E+03  0.54137017678E+02 -0.69144678873E+03  0.72214308784E+03  0.17200000000E+03 0. -1.
         -6    1    1    2    0  501 -0.10429362866E+03 -0.54137017678E+02 -0.27402356209E+03  0.34421053186E+03  0.17200000000E+03 0.  1.
</event>
<event>
 4    1  0.3191769E-002  0.5430329E+03  0.7818608E-02  0.1003120E+00
          2   -1    0    0  502    0  0.00000000000E+00  0.00000000000E+00  0.19589337827E+04  0.19589337827E+04  0.00000000000E+00 0. -1.
         -2   -1    0    0    0  501 -0.00000000000E+00 -0.00000000000E+00 -0.19344083595E+03  0.19344083595E+03  0.00000000000E+00 0.  1.
          6    1    1    2  502    0  0.50739840590E+03  0.88586534573E+02  0.13895979358E+04  0.14919340266E+04  0.17200000000E+03 0. -1.
         -6    1    1    2    0  501 -0.50739840590E+03 -0.88586534573E+02  0.37589501093E+03  0.66044059208E+03  0.17200000000E+03 0.  1.
</event>
<event>
 4    1  0.3191769E-002  0.1814328E+03  0.7818608E-02  0.1166424E+00
          2   -1    0    0  502    0  0.00000000000E+00  0.00000000000E+00  0.27051170309E+04  0.27051170309E+04  0.00000000000E+00 0. -1.
         -2   -1    0    0    0  501 -0.00000000000E+00 -0.00000000000E+00 -0.15509747079E+02  0.15509747079E+02  0.00000000000E+00 0.  1.
          6    1    1    2  502    0  0.14611648531E+01 -0.57721129787E+02  0.71344611763E+03  0.73615434970E+03  0.17200000000E+03 0.  1.
         -6    1    1    2    0  501 -0.14611648531E+01  0.57721129787E+02  0.19761611662E+04  0.19844724283E+04  0.17200000000E+03 0. -1.
</event>
<event>
 4    1  0.3191769E-002  0.4301639E+03  0.7818608E-02  0.1033808E+00
          1   -1    0    0  502    0  0.00000000000E+00  0.00000000000E+00  0.77692742437E+03  0.77692742437E+03  0.00000000000E+00 0. -1.
         -1   -1    0    0    0  501 -0.00000000000E+00 -0.00000000000E+00 -0.25310151900E+03  0.25310151900E+03  0.00000000000E+00 0.  1.
          6    1    1    2  502    0 -0.32188185743E+03  0.22770393908E+03  0.13682366088E+03  0.45139974323E+03  0.17200000000E+03 0. -1.
         -6    1    1    2    0  501  0.32188185743E+03 -0.22770393908E+03  0.38700224449E+03  0.57862920014E+03  0.17200000000E+03 0.  1.
</event>
<event>
 4    1  0.3191769E-002  0.2005092E+03  0.7818608E-02  0.1149310E+00
         -2   -1    0    0    0  501 -0.00000000000E+00  0.00000000000E+00  0.11687712734E+04  0.11687712734E+04  0.00000000000E+00 0.  1.
          2   -1    0    0  502    0  0.00000000000E+00 -0.00000000000E+00 -0.48803004032E+02  0.48803004032E+02  0.00000000000E+00 0. -1.
          6    1    1    2  502    0  0.63766161938E+02  0.80955627224E+02  0.22924020412E+03  0.30455706883E+03  0.17200000000E+03 0. -1.
         -6    1    1    2    0  501 -0.63766161938E+02 -0.80955627224E+02  0.89072806522E+03  0.91301720857E+03  0.17200000000E+03 0.  1.
</event>
<event>
 4    1  0.3191769E-002  0.4231396E+03  0.7818608E-02  0.1036049E+00
          2   -1    0    0  502    0  0.00000000000E+00  0.00000000000E+00  0.42395572940E+03  0.42395572940E+03  0.00000000000E+00 0. -1.
         -2   -1    0    0    0  501 -0.00000000000E+00 -0.00000000000E+00 -0.51606438187E+03  0.51606438187E+03  0.00000000000E+00 0.  1.
          6    1    1    2  502    0  0.38437709566E+03  0.41440681988E+02  0.15426200964E+03  0.45038189285E+03  0.17200000000E+03 0. -1.
         -6    1    1    2    0  501 -0.38437709566E+03 -0.41440681988E+02 -0.24637066210E+03  0.48963821842E+03  0.17200000000E+03 0.  1.
</event>
<event>
 4    1  0.3191769E-002  0.2129332E+03  0.7818608E-02  0.1139264E+00
         -2   -1    0    0    0  501 -0.00000000000E+00  0.00000000000E+00  0.78933082484E+02  0.78933082484E+02  0.00000000000E+00 0.  1.
          2   -1    0    0  502    0  0.00000000000E+00 -0.00000000000E+00 -0.85304977512E+03  0.85304977512E+03  0.00000000000E+00 0. -1.
          6    1    1    2  502    0 -0.93153636268E+02 -0.84136573229E+02 -0.65337986897E+03  0.68720143778E+03  0.17200000000E+03 0. -1.
         -6    1    1    2    0  501  0.93153636268E+02  0.84136573229E+02 -0.12073682367E+03  0.24478141983E+03  0.17200000000E+03 0.  1.
</event>
<event>
 4    1  0.3191769E-002  0.2531923E+03  0.7818608E-02  0.1111304E+00
          2   -1    0    0  502    0  0.00000000000E+00  0.00000000000E+00  0.38859867750E+03  0.38859867750E+03  0.00000000000E+00 0. -1.
         -2   -1    0    0    0  501 -0.00000000000E+00 -0.00000000000E+00 -0.61241517737E+03  0.61241517737E+03  0.00000000000E+00 0.  1.
          6    1    1    2  502    0 -0.81006302057E+02 -0.16721336279E+03  0.31590874007E+03  0.40485140697E+03  0.17200000000E+03 0. -1.
         -6    1    1    2    0  501  0.81006302057E+02  0.16721336279E+03 -0.53972523994E+03  0.59616244790E+03  0.17200000000E+03 0.  1.
</event>
<event>
 4    1  0.3191769E-002  0.3711454E+03  0.7818608E-02  0.1054256E+00
          2   -1    0    0  502    0  0.00000000000E+00  0.00000000000E+00  0.35830401007E+03  0.35830401007E+03  0.00000000000E+00 0. -1.
         -2   -1    0    0    0  501 -0.00000000000E+00 -0.00000000000E+00 -0.41225370679E+03  0.41225370679E+03  0.00000000000E+00 0.  1.
          6    1    1    2  502    0 -0.26227761145E+03  0.19843223460E+03 -0.12703652414E+03  0.39228455955E+03  0.17200000000E+03 0.  1.
         -6    1    1    2    0  501  0.26227761145E+03 -0.19843223460E+03  0.73086827421E+02  0.37827315731E+03  0.17200000000E+03 0. -1.
</event>
<event>
 4    1  0.3191769E-002  0.2182665E+03  0.7818608E-02  0.1135182E+00
         -1   -1    0    0    0  501 -0.00000000000E+00  0.00000000000E+00  0.23631810006E+02  0.23631810006E+02  0.00000000000E+00 0.  1.
          1   -1    0    0  502    0  0.00000000000E+00 -0.00000000000E+00 -0.20226157933E+04  0.20226157933E+04  0.00000000000E+00 0. -1.
          6    1    1    2  502    0  0.76886536005E+02  0.11020314083E+03 -0.10582784303E+04  0.10805524086E+04  0.17200000000E+03 0.  1.
         -6    1    1    2    0  501 -0.76886536005E+02 -0.11020314083E+03 -0.94070555305E+03  0.96569519478E+03  0.17200000000E+03 0. -1.
</event>
<event>
 4    1  0.3191769E-002  0.1976365E+03  0.7818608E-02  0.1151749E+00
          2   -1    0    0  502    0  0.00000000000E+00  0.00000000000E+00  0.20466513722E+03  0.20466513722E+03  0.00000000000E+00 0. -1.
         -2   -1    0    0    0  501 -0.00000000000E+00 -0.00000000000E+00 -0.19486688111E+03  0.19486688111E+03  0.00000000000E+00 0.  1.
          6    1    1    2  502    0 -0.78800174742E+01 -0.97026317747E+02  0.33582760803E+02  0.20046945611E+03  0.17200000000E+03 0. -1.
         -6    1    1    2    0  501  0.78800174742E+01  0.97026317747E+02 -0.23784504690E+02  0.19906256221E+03  0.17200000000E+03 0. -1.
</event>
<event>
 4    1  0.3191769E-002  0.6712831E+03  0.7818608E-02  0.9767643E-01
          2   -1    0    0  502    0  0.00000000000E+00  0.00000000000E+00  0.28939313253E+04  0.28939313253E+04  0.00000000000E+00 0. -1.
         -2   -1    0    0    0  501 -0.00000000000E+00 -0.00000000000E+00 -0.26072375035E+03  0.26072375035E+03  0.00000000000E+00 0.  1.
          6    1    1    2  502    0 -0.10832403842E+03 -0.63976788532E+03  0.23176397328E+04  0.24128976306E+04  0.17200000000E+03 0. -1.
         -6    1    1    2    0  501  0.10832403842E+03  0.63976788532E+03  0.31556784217E+03  0.74175744513E+03  0.17200000000E+03 0.  1.
</event>
<event>
 4    1  0.3191769E-002  0.3226667E+03  0.7818608E-02  0.1074429E+00
         -2   -1    0    0    0  501 -0.00000000000E+00  0.00000000000E+00  0.39151850251E+02  0.39151850251E+02  0.00000000000E+00 0.  1.
          2   -1    0    0  502    0  0.00000000000E+00 -0.00000000000E+00 -0.26633583142E+04  0.26633583142E+04  0.00000000000E+00 0. -1.
          6    1    1    2  502    0 -0.20811720119E+03  0.17668335721E+03 -0.13653023392E+04  0.14029127755E+04  0.17200000000E+03 0. -1.
         -6    1    1    2    0  501  0.20811720119E+03 -0.17668335721E+03 -0.12589041247E+04  0.12995973890E+04  0.17200000000E+03 0. -1.
</event>
<event>
 4    1  0.3191769E-002  0.2647061E+03  0.7818608E-02  0.1104348E+00
         -1   -1    0    0    0  501 -0.00000000000E+00  0.00000000000E+00  0.60445111731E+03  0.60445111731E+03  0.00000000000E+00 0.  1.
          1   -1    0    0  502    0  0.00000000000E+00 -0.00000000000E+00 -0.13421170390E+03  0.13421170390E+03  0.00000000000E+00 0. -1.
          6    1    1    2  502    0  0.19752040936E+03 -0.38354020560E+02  0.98780352436E+02  0.28253654814E+03  0.17200000000E+03 0. -1.
         -6    1    1    2    0  501 -0.19752040936E+03  0.38354020560E+02  0.37145906097E+03  0.45612627307E+03  0.17200000000E+03 0.  1.
</event>
<event>
 4    1  0.3191769E-002  0.6291941E+03  0.7818608E-02  0.9846623E-01
          2   -1    0    0  502    0  0.00000000000E+00  0.00000000000E+00  0.47155321738E+03  0.47155321738E+03  0.00000000000E+00 0. -1.
         -2   -1    0    0    0  501 -0.00000000000E+00 -0.00000000000E+00 -0.10289463396E+04  0.10289463396E+04  0.00000000000E+00 0.  1.
          6    1    1    2  502    0 -0.45724754316E+03  0.39651723940E+03 -0.60059062713E+03  0.86982431460E+03  0.17200000000E+03 0.  1.
         -6    1    1    2    0  501  0.45724754316E+03 -0.39651723940E+03  0.43197504954E+02  0.63067524234E+03  0.17200000000E+03 0. -1.
</event>
<event>
 4    1  0.3191769E-002  0.1802271E+03  0.7818608E-02  0.1167583E+00
          1   -1    0    0  502    0  0.00000000000E+00  0.00000000000E+00  0.18724442123E+04  0.18724442123E+04  0.00000000000E+00 0. -1.
         -1   -1    0    0    0  501 -0.00000000000E+00 -0.00000000000E+00 -0.22764032295E+02  0.22764032295E+02  0.00000000000E+00 0.  1.
          6    1    1    2  502    0 -0.42692485512E+02  0.32789530819E+02  0.46259522222E+03  0.49646363540E+03  0.17200000000E+03 0.  1.
         -6    1    1    2    0  501  0.42692485512E+02 -0.32789530819E+02  0.13870849578E+04  0.13987446092E+04  0.17200000000E+03 0. -1.
</event>
<event>
 4    1  0.3191769E-002  0.1835776E+03  0.7818608E-02  0.1164385E+00
          4   -1    0    0  502    0  0.00000000000E+00  0.00000000000E+00  0.28086967393E+03  0.28086967393E+03  0.00000000000E+00 0. -1.
         -4   -1    0    0    0  501 -0.00000000000E+00 -0.00000000000E+00 -0.22456905042E+03  0.22456905042E+03  0.00000000000E+00 0.  1.
          6    1    1    2  502    0 -0.53521212308E+02 -0.35386634911E+02  0.20061173281E+03  0.27192977299E+03  0.17200000000E+03 0. -1.
         -6    1    1    2    0  501  0.53521212308E+02  0.35386634911E+02 -0.14431110930E+03  0.23350895136E+03  0.17200000000E+03 0.  1.
</event>
<event>
 4    1  0.3191769E-002  0.1975850E+03  0.7818608E-02  0.1151793E+00
          2   -1    0    0  502    0  0.00000000000E+00  0.00000000000E+00  0.11344480740E+03  0.11344480740E+03  0.00000000000E+00 0. -1.
         -2   -1    0    0    0  501 -0.00000000000E+00 -0.00000000000E+00 -0.34878464232E+03  0.34878464232E+03  0.00000000000E+00 0.  1.
          6    1    1    2  502    0 -0.44320801339E+01 -0.97139971450E+02 -0.14436732812E+03  0.24470746375E+03  0.17200000000E+03 0.  1.
         -6    1    1    2    0  501  0.44320801339E+01  0.97139971450E+02 -0.90972506795E+02  0.21752198597E+03  0.17200000000E+03 0.  1.
</event>
<event>
 4    1  0.3191769E-002  0.7677047E+03  0.7818608E-02  0.9607977E-01
          4   -1    0    0  502    0  0.00000000000E+00  0.00000000000E+00  0.19929239118E+04  0.19929239118E+04  0.00000000000E+00 0. -1.
         -4   -1    0    0    0  501 -0.00000000000E+00 -0.00000000000E+00 -0.30739305876E+03  0.30739305876E+03  0.00000000000E+00 0.  1.
          6    1    1    2  502    0 -0.50899739227E+03  0.54836858201E+03  0.10667862117E+04  0.13143071439E+04  0.17200000000E+03 0. -1.
         -6    1    1    2    0  501  0.50899739227E+03 -0.54836858201E+03  0.61874464136E+03  0.98600982666E+03  0.17200000000E+03 0.  1.
</event>
<event>
 4    1  0.3191769E-002  0.2281294E+03  0.7818608E-02  0.1127963E+00
         -2   -1    0    0    0  501 -0.00000000000E+00  0.00000000000E+00  0.26220641968E+02  0.26220641968E+02  0.00000000000E+00 0.  1.
          2   -1    0    0  502    0  0.00000000000E+00 -0.00000000000E+00 -0.20016556776E+04  0.20016556776E+04  0.00000000000E+00 0. -1.
          6    1    1    2  502    0 -0.32982183885E+02 -0.14618888586E+03 -0.89470315776E+03  0.92332916953E+03  0.17200000000E+03 0.  1.
         -6    1    1    2    0  501  0.32982183885E+02  0.14618888586E+03 -0.10807318778E+04  0.11045471500E+04  0.17200000000E+03 0. -1.
</event>
<event>
 4    1  0.3191769E-002  0.4399196E+03  0.7818608E-02  0.1030771E+00
         -2   -1    0    0    0  501 -0.00000000000E+00  0.00000000000E+00  0.17931328304E+04  0.17931328304E+04  0.00000000000E+00 0.  1.
          2   -1    0    0  502    0  0.00000000000E+00 -0.00000000000E+00 -0.19429304623E+03  0.19429304623E+03  0.00000000000E+00 0. -1.
          6    1    1    2  502    0 -0.40409482301E+03  0.25546280672E+02  0.13689633792E+03  0.46072751793E+03  0.17200000000E+03 0. -1.
         -6    1    1    2    0  501  0.40409482301E+03 -0.25546280672E+02  0.14619434463E+04  0.15266983587E+04  0.17200000000E+03 0.  1.
</event>
<event>
 4    1  0.3191769E-002  0.1809214E+03  0.7818608E-02  0.1166914E+00
         -2   -1    0    0    0  501 -0.00000000000E+00  0.00000000000E+00  0.22582859968E+02  0.22582859968E+02  0.00000000000E+00 0.  1.
          2   -1    0    0  502    0  0.00000000000E+00 -0.00000000000E+00 -0.16970295971E+04  0.16970295971E+04  0.00000000000E+00 0. -1.
          6    1    1    2  502    0  0.47794856501E+02  0.29397350425E+02 -0.11656361543E+04  0.11795932336E+04  0.17200000000E+03 0. -1.
         -6    1    1    2    0  501 -0.47794856501E+02 -0.29397350425E+02 -0.50881058275E+03  0.54001922340E+03  0.17200000000E+03 0.  1.
</event>
<event>
 4    1  0.3191769E-002  0.2339972E+03  0.7818608E-02  0.1123858E+00
         -2   -1    0    0    0  501 -0.00000000000E+00  0.00000000000E+00  0.11005135318E+03  0.11005135318E+03  0.00000000000E+00 0.  1.
          2   -1    0    0  502    0  0.00000000000E+00 -0.00000000000E+00 -0.79492190242E+03  0.79492190242E+03  0.00000000000E+00 0. -1.
          6    1    1    2  502    0 -0.14597629324E+03  0.62141802263E+02 -0.61919479331E+03  0.66193419147E+03  0.17200000000E+03 0. -1.
         -6    1    1    2    0  501  0.14597629324E+03 -0.62141802263E+02 -0.65675755923E+02  0.24303906413E+03  0.17200000000E+03 0.  1.
</event>
<event>
 4    1  0.3191769E-002  0.3732194E+03  0.7818608E-02  0.1053469E+00
          2   -1    0    0  502    0  0.00000000000E+00  0.00000000000E+00  0.73812826555E+03  0.73812826555E+03  0.00000000000E+00 0. -1.
         -2   -1    0    0    0  501 -0.00000000000E+00 -0.00000000000E+00 -0.32652661982E+03  0.32652661982E+03  0.00000000000E+00 0.  1.
          6    1    1    2  502    0  0.14519743897E+03 -0.29770193606E+03  0.55163600603E+03  0.66602929527E+03  0.17200000000E+03 0. -1.
         -6    1    1    2    0  501 -0.14519743897E+03  0.29770193606E+03 -0.14003436029E+03  0.39862559009E+03  0.17200000000E+03 0.  1.
</event>
<event>
 4    1  0.3191769E-002  0.2322282E+03  0.7818608E-02  0.1125081E+00
          1   -1    0    0  502    0  0.00000000000E+00  0.00000000000E+00  0.61806566267E+03  0.61806566267E+03  0.00000000000E+00 0. -1.
         -1   -1    0    0    0  501 -0.00000000000E+00 -0.00000000000E+00 -0.21341837471E+03  0.21341837471E+03  0.00000000000E+00 0.  1.
          6    1    1    2  502    0  0.12890622362E+03  0.87915478918E+02  0.52197232764E+03  0.57130119617E+03  0.17200000000E+03 0. -1.
         -6    1    1    2    0  501 -0.12890622362E+03 -0.87915478918E+02 -0.11732503969E+03  0.26018284121E+03  0.17200000000E+03 0.  1.
</event>
<event>
 4    1  0.3191769E-002  0.2699511E+03  0.7818608E-02  0.1101308E+00
         -3   -1    0    0    0  501 -0.00000000000E+00  0.00000000000E+00  0.80459343401E+03  0.80459343401E+03  0.00000000000E+00 0.  1.
          3   -1    0    0  502    0  0.00000000000E+00 -0.00000000000E+00 -0.14071503075E+03  0.14071503075E+03  0.00000000000E+00 0. -1.
          6    1    1    2  502    0  0.15372804958E+03 -0.14020445882E+03  0.61408836956E+03  0.67080409147E+03  0.17200000000E+03 0. -1.
         -6    1    1    2    0  501 -0.15372804958E+03  0.14020445882E+03  0.49790033709E+02  0.27450437330E+03  0.17200000000E+03 0.  1.
</event>
<event>
 4    1  0.3191769E-002  0.4351382E+03  0.7818608E-02  0.1032249E+00
          1   -1    0    0  502    0  0.00000000000E+00  0.00000000000E+00  0.39775971987E+04  0.39775971987E+04  0.00000000000E+00 0. -1.
         -1   -1    0    0    0  501 -0.00000000000E+00 -0.00000000000E+00 -0.52050316713E+02  0.52050316713E+02  0.00000000000E+00 0.  1.
          6    1    1    2  502    0  0.34951368478E+03 -0.19391083039E+03  0.25517235379E+04  0.25885591050E+04  0.17200000000E+03 0. -1.
         -6    1    1    2    0  501 -0.34951368478E+03  0.19391083039E+03  0.13738233441E+04  0.14410884104E+04  0.17200000000E+03 0.  1.
</event>
<event>
 4    1  0.3191769E-002  0.2272465E+03  0.7818608E-02  0.1128593E+00
         -1   -1    0    0    0  501 -0.00000000000E+00  0.00000000000E+00  0.71365736931E+03  0.71365736931E+03  0.00000000000E+00 0.  1.
          1   -1    0    0  502    0  0.00000000000E+00 -0.00000000000E+00 -0.76554915068E+02  0.76554915068E+02  0.00000000000E+00 0. -1.
          6    1    1    2  502    0 -0.10910917414E+03 -0.10075790793E+03  0.22607362719E+03  0.32054680283E+03  0.17200000000E+03 0. -1.
         -6    1    1    2    0  501  0.10910917414E+03  0.10075790793E+03  0.41102882705E+03  0.46966548155E+03  0.17200000000E+03 0.  1.
</event>
<event>
 4    1  0.3191769E-002  0.3918246E+03  0.7818608E-02  0.1046648E+00
          1   -1    0    0  502    0  0.00000000000E+00  0.00000000000E+00  0.40659437057E+03  0.40659437057E+03  0.00000000000E+00 0. -1.
         -1   -1    0    0    0  501 -0.00000000000E+00 -0.00000000000E+00 -0.49937656845E+03  0.49937656845E+03  0.00000000000E+00 0.  1.
          6    1    1    2  502    0 -0.35204761550E+03 -0.22268895323E+01  0.17730975026E+03  0.43007584233E+03  0.17200000000E+03 0. -1.
         -6    1    1    2    0  501  0.35204761550E+03  0.22268895323E+01 -0.27009194814E+03  0.47589509670E+03  0.17200000000E+03 0.  1.
</event>
<event>
 4    1  0.3191769E-002  0.2121675E+03  0.7818608E-02  0.1139861E+00
          2   -1    0    0  502    0  0.00000000000E+00  0.00000000000E+00  0.75242930489E+03  0.75242930489E+03  0.00000000000E+00 0. -1.
         -2   -1    0    0    0  501 -0.00000000000E+00 -0.00000000000E+00 -0.12840993019E+03  0.12840993019E+03  0.00000000000E+00 0.  1.
          6    1    1    2  502    0  0.10317423561E+03 -0.69181905743E+02  0.63387753425E+03  0.66844280788E+03  0.17200000000E+03 0. -1.
         -6    1    1    2    0  501 -0.10317423561E+03  0.69181905743E+02 -0.98581595557E+01  0.21239642719E+03  0.17200000000E+03 0.  1.
</event>
<event>
 4    1  0.3191769E-002  0.1841953E+03  0.7818608E-02  0.1163803E+00
          2   -1    0    0  502    0  0.00000000000E+00  0.00000000000E+00  0.74299407805E+03  0.74299407805E+03  0.00000000000E+00 0. -1.
         -2   -1    0    0    0  501 -0.00000000000E+00 -0.00000000000E+00 -0.50841687431E+02  0.50841687431E+02  0.00000000000E+00 0.  1.
          6    1    1    2  502    0  0.59957323018E+02 -0.27368505243E+02  0.47274450280E+03  0.50736109487E+03  0.17200000000E+03 0. -1.
         -6    1    1    2    0  501 -0.59957323018E+02  0.27368505243E+02  0.21940788782E+03  0.28647467061E+03  0.17200000000E+03 0.  1.
</event>
<event>
 4    1  0.3191769E-002  0.2030500E+03  0.7818608E-02  0.1147191E+00
          2   -1    0    0  502    0  0.00000000000E+00  0.00000000000E+00  0.12369770781E+04  0.12369770781E+04  0.00000000000E+00 0. -1.
         -2   -1    0    0    0  501 -0.00000000000E+00 -0.00000000000E+00 -0.33443790338E+02  0.33443790338E+02  0.00000000000E+00 0.  1.
          6    1    1    2  502    0  0.96669993034E+02 -0.47960650740E+02  0.56482866474E+03  0.60021723741E+03  0.17200000000E+03 0.  1.
         -6    1    1    2    0  501 -0.96669993034E+02  0.47960650740E+02  0.63870462300E+03  0.67020363100E+03  0.17200000000E+03 0. -1.
</event>
<event>
 4    1  0.3191769E-002  0.2134648E+03  0.7818608E-02  0.1138851E+00
         -2   -1    0    0    0  501 -0.00000000000E+00  0.00000000000E+00  0.38370738389E+03  0.38370738389E+03  0.00000000000E+00 0.  1.
          2   -1    0    0  502    0  0.00000000000E+00 -0.00000000000E+00 -0.11900169073E+03  0.11900169073E+03  0.00000000000E+00 0. -1.
          6    1    1    2  502    0 -0.27153878556E+02 -0.12347429551E+03  0.14379318304E+03  0.25737854274E+03  0.17200000000E+03 0. -1.
         -6    1    1    2    0  501  0.27153878556E+02  0.12347429551E+03  0.12091251012E+03  0.24533053189E+03  0.17200000000E+03 0. -1.
</event>
<event>
 4    1  0.3191769E-002  0.1905273E+03  0.7818608E-02  0.1157987E+00
         -2   -1    0    0    0  501 -0.00000000000E+00  0.00000000000E+00  0.50721122792E+02  0.50721122792E+02  0.00000000000E+00 0.  1.
          2   -1    0    0  502    0  0.00000000000E+00 -0.00000000000E+00 -0.23694798652E+04  0.23694798652E+04  0.00000000000E+00 0. -1.
          6    1    1    2  502    0 -0.78109212221E+02 -0.24811592846E+02 -0.21703415881E+04  0.21786884296E+04  0.17200000000E+03 0. -1.
         -6    1    1    2    0  501  0.78109212221E+02  0.24811592846E+02 -0.14841715430E+03  0.24151255840E+03  0.17200000000E+03 0.  1.
</event>
<event>
 4    1  0.3191769E-002  0.1734758E+03  0.7818608E-02  0.1174271E+00
          2   -1    0    0  502    0  0.00000000000E+00  0.00000000000E+00  0.27309100377E+03  0.27309100377E+03  0.00000000000E+00 0. -1.
         -2   -1    0    0    0  501 -0.00000000000E+00 -0.00000000000E+00 -0.16894233277E+03  0.16894233277E+03  0.00000000000E+00 0.  1.
          6    1    1    2  502    0  0.11962127334E+02 -0.19151053633E+02  0.18240357047E+03  0.25172389212E+03  0.17200000000E+03 0. -1.
         -6    1    1    2    0  501 -0.11962127334E+02  0.19151053633E+02 -0.78254899458E+02  0.19030944442E+03  0.17200000000E+03 0.  1.
</event>
<event>
 4    1  0.3191769E-002  0.4134536E+03  0.7818608E-02  0.1039218E+00
          1   -1    0    0  502    0  0.00000000000E+00  0.00000000000E+00  0.52380167467E+03  0.52380167467E+03  0.00000000000E+00 0. -1.
         -1   -1    0    0    0  501 -0.00000000000E+00 -0.00000000000E+00 -0.32693663382E+03  0.32693663382E+03  0.00000000000E+00 0.  1.
          6    1    1    2  502    0 -0.28139820558E+03  0.24934896370E+03  0.11641637493E+03  0.42953070688E+03  0.17200000000E+03 0. -1.
         -6    1    1    2    0  501  0.28139820558E+03 -0.24934896370E+03  0.80448665920E+02  0.42120760160E+03  0.17200000000E+03 0.  1.
</event>
<event>
 4    1  0.3191769E-002  0.1797128E+03  0.7818608E-02  0.1168081E+00
          2   -1    0    0  502    0  0.00000000000E+00  0.00000000000E+00  0.13035149566E+04  0.13035149566E+04  0.00000000000E+00 0. -1.
         -2   -1    0    0    0  501 -0.00000000000E+00 -0.00000000000E+00 -0.29159356890E+02  0.29159356890E+02  0.00000000000E+00 0.  1.
          6    1    1    2  502    0 -0.31524145436E+02  0.41459860743E+02  0.89550960118E+03  0.91336418673E+03  0.17200000000E+03 0. -1.
         -6    1    1    2    0  501  0.31524145436E+02 -0.41459860743E+02  0.37884599851E+03  0.41931012674E+03  0.17200000000E+03 0. -1.
</event>
<event>
 4    1  0.3191769E-002  0.2818357E+03  0.7818608E-02  0.1094691E+00
          1   -1    0    0  502    0  0.00000000000E+00  0.00000000000E+00  0.63087894281E+03  0.63087894281E+03  0.00000000000E+00 0. -1.
         -1   -1    0    0    0  501 -0.00000000000E+00 -0.00000000000E+00 -0.12758407206E+03  0.12758407206E+03  0.00000000000E+00 0.  1.
          6    1    1    2  502    0  0.78008806701E-01  0.22326524866E+03  0.20815385165E+03  0.35037038017E+03  0.17200000000E+03 0. -1.
         -6    1    1    2    0  501 -0.78008806701E-01 -0.22326524866E+03  0.29514101911E+03  0.40809263471E+03  0.17200000000E+03 0.  1.
</event>
<event>
 4    1  0.3191769E-002  0.8027585E+03  0.7818608E-02  0.9556033E-01
          2   -1    0    0  502    0  0.00000000000E+00  0.00000000000E+00  0.18252544700E+04  0.18252544700E+04  0.00000000000E+00 0. -1.
         -2   -1    0    0    0  501 -0.00000000000E+00 -0.00000000000E+00 -0.35726758341E+03  0.35726758341E+03  0.00000000000E+00 0.  1.
          6    1    1    2  502    0  0.55324803757E+03  0.55565624699E+03  0.61554333005E+03  0.10115902565E+04  0.17200000000E+03 0. -1.
         -6    1    1    2    0  501 -0.55324803757E+03 -0.55565624699E+03  0.85244355653E+03  0.11709317969E+04  0.17200000000E+03 0.  1.
</event>
<event>
 4    1  0.3191769E-002  0.2788802E+03  0.7818608E-02  0.1096302E+00
          1   -1    0    0  502    0  0.00000000000E+00  0.00000000000E+00  0.53649937912E+02  0.53649937912E+02  0.00000000000E+00 0. -1.
         -1   -1    0    0    0  501 -0.00000000000E+00 -0.00000000000E+00 -0.15533621134E+04  0.15533621134E+04  0.00000000000E+00 0.  1.
          6    1    1    2  502    0  0.16201387724E+03 -0.14812714840E+03 -0.95746566620E+03  0.99725355375E+03  0.17200000000E+03 0.  1.
         -6    1    1    2    0  501 -0.16201387724E+03  0.14812714840E+03 -0.54224650925E+03  0.60975849752E+03  0.17200000000E+03 0.  1.
</event>
<event>
 4    1  0.3191769E-002  0.1838482E+03  0.7818608E-02  0.1164130E+00
          2   -1    0    0  502    0  0.00000000000E+00  0.00000000000E+00  0.11753477916E+04  0.11753477916E+04  0.00000000000E+00 0. -1.
         -2   -1    0    0    0  501 -0.00000000000E+00 -0.00000000000E+00 -0.29300461571E+02  0.29300461571E+02  0.00000000000E+00 0.  1.
          6    1    1    2  502    0  0.60841366354E+02 -0.22682166156E+02  0.65501113621E+03  0.68032326220E+03  0.17200000000E+03 0. -1.
         -6    1    1    2    0  501 -0.60841366354E+02  0.22682166156E+02  0.49103619378E+03  0.52432499094E+03  0.17200000000E+03 0. -1.
</event>
<event>
 4    1  0.3191769E-002  0.2167734E+03  0.7818608E-02  0.1136312E+00
          2   -1    0    0  502    0  0.00000000000E+00  0.00000000000E+00  0.10861306040E+04  0.10861306040E+04  0.00000000000E+00 0. -1.
         -2   -1    0    0    0  501 -0.00000000000E+00 -0.00000000000E+00 -0.74719475679E+02  0.74719475679E+02  0.00000000000E+00 0.  1.
          6    1    1    2  502    0  0.11337656328E+03  0.67472092017E+02  0.88230094113E+03  0.90854041133E+03  0.17200000000E+03 0. -1.
         -6    1    1    2    0  501 -0.11337656328E+03 -0.67472092017E+02  0.12911018717E+03  0.25230966833E+03  0.17200000000E+03 0.  1.
</event>
<event>
 4    1  0.3191769E-002  0.2327696E+03  0.7818608E-02  0.1124705E+00
         -2   -1    0    0    0  501 -0.00000000000E+00  0.00000000000E+00  0.73318175820E+02  0.73318175820E+02  0.00000000000E+00 0.  1.
          2   -1    0    0  502    0  0.00000000000E+00 -0.00000000000E+00 -0.74387358446E+03  0.74387358446E+03  0.00000000000E+00 0. -1.
          6    1    1    2  502    0  0.49239871583E+02  0.14890645483E+03 -0.36837043959E+03  0.43575047677E+03  0.17200000000E+03 0.  1.
         -6    1    1    2    0  501 -0.49239871583E+02 -0.14890645483E+03 -0.30218496905E+03  0.38144128351E+03  0.17200000000E+03 0. -1.
</event>
<event>
 4    1  0.3191769E-002  0.1885586E+03  0.7818608E-02  0.1159768E+00
          2   -1    0    0  502    0  0.00000000000E+00  0.00000000000E+00  0.66663234869E+03  0.66663234869E+03  0.00000000000E+00 0. -1.
         -2   -1    0    0    0  501 -0.00000000000E+00 -0.00000000000E+00 -0.53377171345E+02  0.53377171345E+02  0.00000000000E+00 0.  1.
          6    1    1    2  502    0  0.18719683497E+02  0.74966043624E+02  0.29641859256E+03  0.35130943093E+03  0.17200000000E+03 0. -1.
         -6    1    1    2    0  501 -0.18719683497E+02 -0.74966043624E+02  0.31683658479E+03  0.36870008911E+03  0.17200000000E+03 0.  1.
</event>
<event>
 4    1  0.3191769E-002  0.1869375E+03  0.7818608E-02  0.1161253E+00
         -2   -1    0    0    0  501 -0.00000000000E+00  0.00000000000E+00  0.22584579372E+02  0.22584579372E+02  0.00000000000E+00 0.  1.
          2   -1    0    0  502    0  0.00000000000E+00 -0.00000000000E+00 -0.18151612416E+04  0.18151612416E+04  0.00000000000E+00 0. -1.
          6    1    1    2  502    0  0.72053581385E+02  0.13035416208E+02 -0.54332135043E+03  0.57458135238E+03  0.17200000000E+03 0.  1.
         -6    1    1    2    0  501 -0.72053581385E+02 -0.13035416208E+02 -0.12492553118E+04  0.12631644686E+04  0.17200000000E+03 0. -1.
</event>
<event>
 4    1  0.3191769E-002  0.1974560E+03  0.7818608E-02  0.1151903E+00
          2   -1    0    0  502    0  0.00000000000E+00  0.00000000000E+00  0.52673068545E+03  0.52673068545E+03  0.00000000000E+00 0. -1.
         -2   -1    0    0    0  501 -0.00000000000E+00 -0.00000000000E+00 -0.18378104856E+03  0.18378104856E+03  0.00000000000E+00 0.  1.
          6    1    1    2  502    0  0.45568577990E+02 -0.85605879143E+02 -0.10307050895E+03  0.22273839287E+03  0.17200000000E+03 0.  1.
         -6    1    1    2    0  501 -0.45568577990E+02  0.85605879143E+02  0.44602014583E+03  0.48777334114E+03  0.17200000000E+03 0. -1.
</event>
<event>
 4    1  0.3191769E-002  0.2053239E+03  0.7818608E-02  0.1145323E+00
         -1   -1    0    0    0  501 -0.00000000000E+00  0.00000000000E+00  0.20455002780E+02  0.20455002780E+02  0.00000000000E+00 0.  1.
          1   -1    0    0  502    0  0.00000000000E+00 -0.00000000000E+00 -0.20710929552E+04  0.20710929552E+04  0.00000000000E+00 0. -1.
          6    1    1    2  502    0  0.97589252041E+02  0.55228958864E+02 -0.10982984389E+04  0.11173259869E+04  0.17200000000E+03 0. -1.
         -6    1    1    2    0  501 -0.97589252041E+02 -0.55228958864E+02 -0.95233951346E+03  0.97422197106E+03  0.17200000000E+03 0.  1.
</event>
<event>
 4    1  0.3191769E-002  0.2579312E+03  0.7818608E-02  0.1108393E+00
          2   -1    0    0  502    0  0.00000000000E+00  0.00000000000E+00  0.19825538700E+04  0.19825538700E+04  0.00000000000E+00 0. -1.
         -2   -1    0    0    0  501 -0.00000000000E+00 -0.00000000000E+00 -0.34675070284E+02  0.34675070284E+02  0.00000000000E+00 0.  1.
          6    1    1    2  502    0  0.17466256066E+03  0.80234054037E+02  0.11550549110E+04  0.11835034267E+04  0.17200000000E+03 0. -1.
         -6    1    1    2    0  501 -0.17466256066E+03 -0.80234054037E+02  0.79282388868E+03  0.83372551357E+03  0.17200000000E+03 0.  1.
</event>
<event>
 4    1  0.3191769E-002  0.3054568E+03  0.7818608E-02  0.1082544E+00
         -1   -1    0    0    0  501 -0.00000000000E+00  0.00000000000E+00  0.61729174167E+02  0.61729174167E+02  0.00000000000E+00 0.  1.
          1   -1    0    0  502    0  0.00000000000E+00 -0.00000000000E+00 -0.17005532119E+04  0.17005532119E+04  0.00000000000E+00 0. -1.
          6    1    1    2  502    0  0.59588567041E+02 -0.24529378331E+03 -0.11132032801E+04  0.11543506314E+04  0.17200000000E+03 0. -1.
         -6    1    1    2    0  501 -0.59588567041E+02  0.24529378331E+03 -0.52562075766E+03  0.60793175467E+03  0.17200000000E+03 0.  1.
</event>
<event>
 4    1  0.3191769E-002  0.3894875E+03  0.7818608E-02  0.1047482E+00
          2   -1    0    0  502    0  0.00000000000E+00  0.00000000000E+00  0.19404670864E+03  0.19404670864E+03  0.00000000000E+00 0. -1.
         -2   -1    0    0    0  501 -0.00000000000E+00 -0.00000000000E+00 -0.98785911264E+03  0.98785911264E+03  0.00000000000E+00 0.  1.
          6    1    1    2  502    0  0.29279621146E+03 -0.19075342706E+03 -0.12698956177E+03  0.40966674283E+03  0.17200000000E+03 0. -1.
         -6    1    1    2    0  501 -0.29279621146E+03  0.19075342706E+03 -0.66682284223E+03  0.77223907846E+03  0.17200000000E+03 0.  1.
</event>
<event>
 4    1  0.3191769E-002  0.2449358E+03  0.7818608E-02  0.1116548E+00
          1   -1    0    0  502    0  0.00000000000E+00  0.00000000000E+00  0.84674860660E+03  0.84674860660E+03  0.00000000000E+00 0. -1.
         -1   -1    0    0    0  501 -0.00000000000E+00 -0.00000000000E+00 -0.10407268037E+03  0.10407268037E+03  0.00000000000E+00 0.  1.
          6    1    1    2  502    0  0.14153368770E+03  0.10187126004E+03  0.63993861394E+03  0.68521162277E+03  0.17200000000E+03 0. -1.
         -6    1    1    2    0  501 -0.14153368770E+03 -0.10187126004E+03  0.10273731230E+03  0.26560966419E+03  0.17200000000E+03 0.  1.
</event>
<event>
 4    1  0.3191769E-002  0.3107151E+03  0.7818608E-02  0.1080004E+00
         -2   -1    0    0    0  501 -0.00000000000E+00  0.00000000000E+00  0.15065051601E+03  0.15065051601E+03  0.00000000000E+00 0.  1.
          2   -1    0    0  502    0  0.00000000000E+00 -0.00000000000E+00 -0.65363988143E+03  0.65363988143E+03  0.00000000000E+00 0. -1.
          6    1    1    2  502    0  0.72962645588E+02 -0.24826661382E+03 -0.30775548504E+03  0.43732973574E+03  0.17200000000E+03 0. -1.
         -6    1    1    2    0  501 -0.72962645588E+02  0.24826661382E+03 -0.19523388038E+03  0.36696066170E+03  0.17200000000E+03 0.  1.
</event>
<event>
 4    1  0.3191769E-002  0.2356121E+03  0.7818608E-02  0.1122751E+00
          3   -1    0    0  502    0  0.00000000000E+00  0.00000000000E+00  0.14746828951E+03  0.14746828951E+03  0.00000000000E+00 0. -1.
         -3   -1    0    0    0  501 -0.00000000000E+00 -0.00000000000E+00 -0.37644098246E+03  0.37644098246E+03  0.00000000000E+00 0.  1.
          6    1    1    2  502    0  0.14193931701E+03 -0.76041357402E+02 -0.11473504233E+03  0.26206332763E+03  0.17200000000E+03 0. -1.
         -6    1    1    2    0  501 -0.14193931701E+03  0.76041357402E+02 -0.11423765063E+03  0.26184594435E+03  0.17200000000E+03 0.  1.
</event>
<event>
 4    1  0.3191769E-002  0.1838069E+03  0.7818608E-02  0.1164169E+00
          1   -1    0    0  502    0  0.00000000000E+00  0.00000000000E+00  0.23875824354E+03  0.23875824354E+03  0.00000000000E+00 0. -1.
         -1   -1    0    0    0  501 -0.00000000000E+00 -0.00000000000E+00 -0.14217773653E+03  0.14217773653E+03  0.00000000000E+00 0.  1.
          6    1    1    2  502    0  0.61049371830E+02 -0.21770261587E+02  0.61412979109E+02  0.19379505694E+03  0.17200000000E+03 0. -1.
         -6    1    1    2    0  501 -0.61049371830E+02  0.21770261587E+02  0.35167527897E+02  0.18714092313E+03  0.17200000000E+03 0.  1.
</event>
<event>
 4    1  0.3191769E-002  0.1995722E+03  0.7818608E-02  0.1150100E+00
          2   -1    0    0  502    0  0.00000000000E+00  0.00000000000E+00  0.92429960826E+02  0.92429960826E+02  0.00000000000E+00 0. -1.
         -2   -1    0    0    0  501 -0.00000000000E+00 -0.00000000000E+00 -0.10711619924E+04  0.10711619924E+04  0.00000000000E+00 0.  1.
          6    1    1    2  502    0 -0.10056206387E+03 -0.11504022859E+02 -0.39567183290E+02  0.20345671094E+03  0.17200000000E+03 0. -1.
         -6    1    1    2    0  501  0.10056206387E+03  0.11504022859E+02 -0.93916484832E+03  0.96013524232E+03  0.17200000000E+03 0.  1.
</event>
<event>
 4    1  0.3191769E-002  0.2529192E+03  0.7818608E-02  0.1111474E+00
          2   -1    0    0  502    0  0.00000000000E+00  0.00000000000E+00  0.27178324028E+03  0.27178324028E+03  0.00000000000E+00 0. -1.
         -2   -1    0    0    0  501 -0.00000000000E+00 -0.00000000000E+00 -0.25326293859E+03  0.25326293859E+03  0.00000000000E+00 0.  1.
          6    1    1    2  502    0  0.73201108321E+02 -0.17036931486E+03  0.79049666634E+02  0.26498482126E+03  0.17200000000E+03 0. -1.
         -6    1    1    2    0  501 -0.73201108321E+02  0.17036931486E+03 -0.60529364943E+02  0.26006135762E+03  0.17200000000E+03 0.  1.
</event>
<event>
 4    1  0.3191769E-002  0.1749243E+03  0.7818608E-02  0.1172808E+00
          1   -1    0    0  502    0  0.00000000000E+00  0.00000000000E+00  0.13083861579E+04  0.13083861579E+04  0.00000000000E+00 0. -1.
         -1   -1    0    0    0  501 -0.00000000000E+00 -0.00000000000E+00 -0.29335839471E+02  0.29335839471E+02  0.00000000000E+00 0.  1.
          6    1    1    2  502    0 -0.23149718393E+02 -0.21876981307E+02  0.94073745265E+03  0.95686230284E+03  0.17200000000E+03 0. -1.
         -6    1    1    2    0  501  0.23149718393E+02  0.21876981307E+02  0.33831286582E+03  0.38085969458E+03  0.17200000000E+03 0.  1.
</event>
<event>
 4    1  0.3191769E-002  0.3060259E+03  0.7818608E-02  0.1082267E+00
          2   -1    0    0  502    0  0.00000000000E+00  0.00000000000E+00  0.82875743275E+03  0.82875743275E+03  0.00000000000E+00 0. -1.
         -2   -1    0    0    0  501 -0.00000000000E+00 -0.00000000000E+00 -0.15086728531E+03  0.15086728531E+03  0.00000000000E+00 0.  1.
          6    1    1    2  502    0 -0.63408031423E+02 -0.24504545158E+03  0.93559720885E+02  0.32000823921E+03  0.17200000000E+03 0. -1.
         -6    1    1    2    0  501  0.63408031423E+02  0.24504545158E+03  0.58433042655E+03  0.65961647886E+03  0.17200000000E+03 0.  1.
</event>
<event>
 4    1  0.3191769E-002  0.2187616E+03  0.7818608E-02  0.1134810E+00
         -2   -1    0    0    0  501 -0.00000000000E+00  0.00000000000E+00  0.13501865479E+03  0.13501865479E+03  0.00000000000E+00 0.  1.
          2   -1    0    0  502    0  0.00000000000E+00 -0.00000000000E+00 -0.42596272401E+03  0.42596272401E+03  0.00000000000E+00 0. -1.
          6    1    1    2  502    0 -0.66049738199E+02  0.11794100756E+03 -0.30540197891E+02  0.22088312038E+03  0.17200000000E+03 0.  1.
         -6    1    1    2    0  501  0.66049738199E+02 -0.11794100756E+03 -0.26040387133E+03  0.34009825843E+03  0.17200000000E+03 0. -1.
</event>
<event>
 4    1  0.3191769E-002  0.3315374E+03  0.7818608E-02  0.1070459E+00
         -2   -1    0    0    0  501 -0.00000000000E+00  0.00000000000E+00  0.14680566460E+03  0.14680566460E+03  0.00000000000E+00 0.  1.
          2   -1    0    0  502    0  0.00000000000E+00 -0.00000000000E+00 -0.83766555195E+03  0.83766555195E+03  0.00000000000E+00 0. -1.
          6    1    1    2  502    0  0.20877825157E+03 -0.19168908662E+03 -0.50582379860E+03  0.60479317083E+03  0.17200000000E+03 0. -1.
         -6    1    1    2    0  501 -0.20877825157E+03  0.19168908662E+03 -0.18503608875E+03  0.37967804571E+03  0.17200000000E+03 0.  1.
</event>
<event>
 4    1  0.3191769E-002  0.6434014E+03  0.7818608E-02  0.9819240E-01
          2   -1    0    0  502    0  0.00000000000E+00  0.00000000000E+00  0.73812458592E+03  0.73812458592E+03  0.00000000000E+00 0. -1.
         -2   -1    0    0    0  501 -0.00000000000E+00 -0.00000000000E+00 -0.57563315942E+03  0.57563315942E+03  0.00000000000E+00 0.  1.
          6    1    1    2  502    0 -0.33797373942E+03  0.51976447769E+03 -0.24079168513E+02  0.64385182081E+03  0.17200000000E+03 0. -1.
         -6    1    1    2    0  501  0.33797373942E+03 -0.51976447769E+03  0.18657059501E+03  0.66990592453E+03  0.17200000000E+03 0.  1.
</event>
<event>
 4    1  0.3191769E-002  0.1831690E+03  0.7818608E-02  0.1164771E+00
          1   -1    0    0  502    0  0.00000000000E+00  0.00000000000E+00  0.55135439673E+03  0.55135439673E+03  0.00000000000E+00 0. -1.
         -1   -1    0    0    0  501 -0.00000000000E+00 -0.00000000000E+00 -0.60855630294E+02  0.60855630294E+02  0.00000000000E+00 0.  1.
          6    1    1    2  502    0  0.32913737176E+01 -0.62897116480E+02  0.24769339043E+03  0.30806313649E+03  0.17200000000E+03 0.  1.
         -6    1    1    2    0  501 -0.32913737176E+01  0.62897116480E+02  0.24280537600E+03  0.30414689053E+03  0.17200000000E+03 0.  1.
</event>
<event>
 4    1  0.3191769E-002  0.1908229E+03  0.7818608E-02  0.1157721E+00
          2   -1    0    0  502    0  0.00000000000E+00  0.00000000000E+00  0.17660874108E+04  0.17660874108E+04  0.00000000000E+00 0. -1.
         -2   -1    0    0    0  501 -0.00000000000E+00 -0.00000000000E+00 -0.32412007009E+02  0.32412007009E+02  0.00000000000E+00 0.  1.
          6    1    1    2  502    0  0.18528266854E+02 -0.80536228305E+02  0.14092831242E+04  0.14221435599E+04  0.17200000000E+03 0. -1.
         -6    1    1    2    0  501 -0.18528266854E+02  0.80536228305E+02  0.32439227959E+03  0.37635585793E+03  0.17200000000E+03 0.  1.
</event>
<event>
 4    1  0.3191769E-002  0.2772948E+03  0.7818608E-02  0.1097176E+00
         -1   -1    0    0    0  501 -0.00000000000E+00  0.00000000000E+00  0.62332877663E+02  0.62332877663E+02  0.00000000000E+00 0.  1.
          1   -1    0    0  502    0  0.00000000000E+00 -0.00000000000E+00 -0.15057538406E+04  0.15057538406E+04  0.00000000000E+00 0. -1.
          6    1    1    2  502    0 -0.20343794379E+03  0.76950541340E+02 -0.10550516471E+04  0.10908832938E+04  0.17200000000E+03 0. -1.
         -6    1    1    2    0  501  0.20343794379E+03 -0.76950541340E+02 -0.38836931590E+03  0.47720342446E+03  0.17200000000E+03 0.  1.
</event>
<event>
 4    1  0.3191769E-002  0.2601911E+03  0.7818608E-02  0.1107028E+00
         -2   -1    0    0    0  501 -0.00000000000E+00  0.00000000000E+00  0.14188483732E+03  0.14188483732E+03  0.00000000000E+00 0.  1.
          2   -1    0    0  502    0  0.00000000000E+00 -0.00000000000E+00 -0.54631642787E+03  0.54631642787E+03  0.00000000000E+00 0. -1.
          6    1    1    2  502    0 -0.32079727611E+02 -0.19257808741E+03 -0.79773516836E+02  0.27214562767E+03  0.17200000000E+03 0.  1.
         -6    1    1    2    0  501  0.32079727611E+02  0.19257808741E+03 -0.32465807371E+03  0.41605563751E+03  0.17200000000E+03 0. -1.
</event>
<event>
 4    1  0.3191769E-002  0.2690702E+03  0.7818608E-02  0.1101813E+00
         -2   -1    0    0    0  501 -0.00000000000E+00  0.00000000000E+00  0.10558059498E+03  0.10558059498E+03  0.00000000000E+00 0.  1.
          2   -1    0    0  502    0  0.00000000000E+00 -0.00000000000E+00 -0.68576070786E+03  0.68576070786E+03  0.00000000000E+00 0. -1.
          6    1    1    2  502    0 -0.46587654687E+02  0.20160451155E+03 -0.28706399938E+03  0.39345206619E+03  0.17200000000E+03 0. -1.
         -6    1    1    2    0  501  0.46587654687E+02 -0.20160451155E+03 -0.29311611350E+03  0.39788923665E+03  0.17200000000E+03 0.  1.
</event>
<event>
 4    1  0.3191769E-002  0.1733158E+03  0.7818608E-02  0.1174433E+00
          1   -1    0    0  502    0  0.00000000000E+00  0.00000000000E+00  0.65756371870E+02  0.65756371870E+02  0.00000000000E+00 0. -1.
         -1   -1    0    0    0  501 -0.00000000000E+00 -0.00000000000E+00 -0.56236947732E+03  0.56236947732E+03  0.00000000000E+00 0.  1.
          6    1    1    2  502    0  0.21018906071E+02 -0.35442647277E+01 -0.11224089217E+03  0.20648577215E+03  0.17200000000E+03 0. -1.
         -6    1    1    2    0  501 -0.21018906071E+02  0.35442647277E+01 -0.38437221328E+03  0.42164007704E+03  0.17200000000E+03 0.  1.
</event>
<event>
 4    1  0.3191769E-002  0.2021513E+03  0.7818608E-02  0.1147937E+00
          2   -1    0    0  502    0  0.00000000000E+00  0.00000000000E+00  0.23096679201E+04  0.23096679201E+04  0.00000000000E+00 0. -1.
         -2   -1    0    0    0  501 -0.00000000000E+00 -0.00000000000E+00 -0.18074018742E+02  0.18074018742E+02  0.00000000000E+00 0.  1.
          6    1    1    2  502    0  0.92135747325E+02 -0.52840895104E+02  0.13147635584E+04  0.13302136561E+04  0.17200000000E+03 0.  1.
         -6    1    1    2    0  501 -0.92135747325E+02  0.52840895104E+02  0.97683034291E+03  0.99752828279E+03  0.17200000000E+03 0.  1.
</event>
<event>
 4    1  0.3191769E-002  0.3282272E+03  0.7818608E-02  0.1071924E+00
          2   -1    0    0  502    0  0.00000000000E+00  0.00000000000E+00  0.71228285243E+03  0.71228285243E+03  0.00000000000E+00 0. -1.
         -2   -1    0    0    0  501 -0.00000000000E+00 -0.00000000000E+00 -0.24366784808E+03  0.24366784808E+03  0.00000000000E+00 0.  1.
          6    1    1    2  502    0  0.79010197449E+02 -0.26815389782E+03  0.52867047572E+03  0.62227453436E+03  0.17200000000E+03 0. -1.
         -6    1    1    2    0  501 -0.79010197449E+02  0.26815389782E+03 -0.60055471371E+02  0.33367616615E+03  0.17200000000E+03 0.  1.
</event>
<event>
 4    1  0.3191769E-002  0.2138366E+03  0.7818608E-02  0.1138563E+00
          1   -1    0    0  502    0  0.00000000000E+00  0.00000000000E+00  0.15485091794E+04  0.15485091794E+04  0.00000000000E+00 0. -1.
         -1   -1    0    0    0  501 -0.00000000000E+00 -0.00000000000E+00 -0.37021796634E+02  0.37021796634E+02  0.00000000000E+00 0.  1.
          6    1    1    2  502    0  0.12599361667E+03 -0.16361445428E+02  0.11123877173E+04  0.11327543962E+04  0.17200000000E+03 0. -1.
         -6    1    1    2    0  501 -0.12599361667E+03  0.16361445428E+02  0.39909966546E+03  0.45277657991E+03  0.17200000000E+03 0.  1.
</event>
<event>
 4    1  0.3191769E-002  0.2135081E+03  0.7818608E-02  0.1138818E+00
          2   -1    0    0  502    0  0.00000000000E+00  0.00000000000E+00  0.32972107586E+03  0.32972107586E+03  0.00000000000E+00 0. -1.
         -2   -1    0    0    0  501 -0.00000000000E+00 -0.00000000000E+00 -0.14305335674E+03  0.14305335674E+03  0.00000000000E+00 0.  1.
          6    1    1    2  502    0 -0.12641168582E+03  0.46704597315E+01  0.13662529520E+03  0.25348017436E+03  0.17200000000E+03 0. -1.
         -6    1    1    2    0  501  0.12641168582E+03 -0.46704597315E+01  0.50042423917E+02  0.21929425824E+03  0.17200000000E+03 0.  1.
</event>
<event>
 4    1  0.3191769E-002  0.1914102E+03  0.7818608E-02  0.1157196E+00
         -2   -1    0    0    0  501 -0.00000000000E+00  0.00000000000E+00  0.59280462598E+02  0.59280462598E+02  0.00000000000E+00 0.  1.
          2   -1    0    0  502    0  0.00000000000E+00 -0.00000000000E+00 -0.84180238754E+03  0.84180238754E+03  0.00000000000E+00 0. -1.
          6    1    1    2  502    0  0.83391905614E+02 -0.99830693154E+01 -0.62354552026E+03  0.65226289748E+03  0.17200000000E+03 0. -1.
         -6    1    1    2    0  501 -0.83391905614E+02  0.99830693154E+01 -0.15897640468E+03  0.24881995266E+03  0.17200000000E+03 0. -1.
</event>
<event>
 4    1  0.3191769E-002  0.2048000E+03  0.7818608E-02  0.1145751E+00
          1   -1    0    0  502    0  0.00000000000E+00  0.00000000000E+00  0.84184714274E+03  0.84184714274E+03  0.00000000000E+00 0. -1.
         -1   -1    0    0    0  501 -0.00000000000E+00 -0.00000000000E+00 -0.53281216293E+02  0.53281216293E+02  0.00000000000E+00 0.  1.
          6    1    1    2  502    0  0.11023052407E+03  0.14431440220E+02  0.50831262794E+03  0.54801894367E+03  0.17200000000E+03 0. -1.
         -6    1    1    2    0  501 -0.11023052407E+03 -0.14431440220E+02  0.28025329851E+03  0.34710941536E+03  0.17200000000E+03 0.  1.
</event>
<event>
 4    1  0.3191769E-002  0.2343697E+03  0.7818608E-02  0.1123601E+00
          2   -1    0    0  502    0  0.00000000000E+00  0.00000000000E+00  0.56469029304E+03  0.56469029304E+03  0.00000000000E+00 0. -1.
         -2   -1    0    0    0  501 -0.00000000000E+00 -0.00000000000E+00 -0.10045969069E+03  0.10045969069E+03  0.00000000000E+00 0.  1.
          6    1    1    2  502    0  0.14136801603E+03  0.73213634519E+02  0.17288286417E+03  0.29123467678E+03  0.17200000000E+03 0.  1.
         -6    1    1    2    0  501 -0.14136801603E+03 -0.73213634519E+02  0.29134773818E+03  0.37391530696E+03  0.17200000000E+03 0. -1.
</event>
<event>
 4    1  0.3191769E-002  0.1816286E+03  0.7818608E-02  0.1166236E+00
         -2   -1    0    0    0  501 -0.00000000000E+00  0.00000000000E+00  0.19922473558E+02  0.19922473558E+02  0.00000000000E+00 0.  1.
          2   -1    0    0  502    0  0.00000000000E+00 -0.00000000000E+00 -0.17003812466E+04  0.17003812466E+04  0.00000000000E+00 0. -1.
          6    1    1    2  502    0 -0.36619892952E+02  0.45430715487E+02 -0.97940127054E+03  0.99610030379E+03  0.17200000000E+03 0. -1.
         -6    1    1    2    0  501  0.36619892952E+02 -0.45430715487E+02 -0.70105750252E+03  0.72420341639E+03  0.17200000000E+03 0.  1.
</event>
<event>
 4    1  0.3191769E-002  0.2309663E+03  0.7818608E-02  0.1125961E+00
          2   -1    0    0  502    0  0.00000000000E+00  0.00000000000E+00  0.85298900826E+03  0.85298900826E+03  0.00000000000E+00 0. -1.
         -2   -1    0    0    0  501 -0.00000000000E+00 -0.00000000000E+00 -0.67935281639E+02  0.67935281639E+02  0.00000000000E+00 0.  1.
          6    1    1    2  502    0 -0.86943847016E+02  0.12728790638E+03  0.52229748071E+03  0.57108677274E+03  0.17200000000E+03 0. -1.
         -6    1    1    2    0  501  0.86943847016E+02 -0.12728790638E+03  0.26275624591E+03  0.34983751716E+03  0.17200000000E+03 0.  1.
</event>
<event>
 4    1  0.3191769E-002  0.4058094E+03  0.7818608E-02  0.1041786E+00
         -2   -1    0    0    0  501 -0.00000000000E+00  0.00000000000E+00  0.26067517995E+03  0.26067517995E+03  0.00000000000E+00 0.  1.
          2   -1    0    0  502    0  0.00000000000E+00 -0.00000000000E+00 -0.64826986554E+03  0.64826986554E+03  0.00000000000E+00 0. -1.
          6    1    1    2  502    0 -0.33116506365E+03  0.15945829560E+03 -0.26634910570E+03  0.48541023220E+03  0.17200000000E+03 0. -1.
         -6    1    1    2    0  501  0.33116506365E+03 -0.15945829560E+03 -0.12124557989E+03  0.42353481328E+03  0.17200000000E+03 0.  1.
</event>
<event>
 4    1  0.3191769E-002  0.3453993E+03  0.7818608E-02  0.1064519E+00
          2   -1    0    0  502    0  0.00000000000E+00  0.00000000000E+00  0.47280633505E+03  0.47280633505E+03  0.00000000000E+00 0. -1.
         -2   -1    0    0    0  501 -0.00000000000E+00 -0.00000000000E+00 -0.35782320732E+03  0.35782320732E+03  0.00000000000E+00 0.  1.
          6    1    1    2  502    0  0.28016713609E+03 -0.10593882304E+03  0.28300194382E+03  0.44653192336E+03  0.17200000000E+03 0. -1.
         -6    1    1    2    0  501 -0.28016713609E+03  0.10593882304E+03 -0.16801881609E+03  0.38409761901E+03  0.17200000000E+03 0.  1.
</event>
<event>
 4    1  0.3191769E-002  0.2300634E+03  0.7818608E-02  0.1126595E+00
          4   -1    0    0  502    0  0.00000000000E+00  0.00000000000E+00  0.40800009942E+03  0.40800009942E+03  0.00000000000E+00 0. -1.
         -4   -1    0    0    0  501 -0.00000000000E+00 -0.00000000000E+00 -0.12974592687E+03  0.12974592687E+03  0.00000000000E+00 0.  1.
          6    1    1    2  502    0  0.51509269462E+02 -0.14384695632E+03  0.13599150706E+03  0.26725052231E+03  0.17200000000E+03 0. -1.
         -6    1    1    2    0  501 -0.51509269462E+02  0.14384695632E+03  0.14226266549E+03  0.27049550398E+03  0.17200000000E+03 0.  1.
</event>
<event>
 4    1  0.3191769E-002  0.2699713E+03  0.7818608E-02  0.1101296E+00
         -2   -1    0    0    0  501 -0.00000000000E+00  0.00000000000E+00  0.16629368687E+03  0.16629368687E+03  0.00000000000E+00 0.  1.
          2   -1    0    0  502    0  0.00000000000E+00 -0.00000000000E+00 -0.46980044816E+03  0.46980044816E+03  0.00000000000E+00 0. -1.
          6    1    1    2  502    0  0.13944959374E+03 -0.15444843894E+03 -0.69381971062E+02  0.27874426881E+03  0.17200000000E+03 0.  1.
         -6    1    1    2    0  501 -0.13944959374E+03  0.15444843894E+03 -0.23412479023E+03  0.35734986622E+03  0.17200000000E+03 0.  1.
</event>
<event>
 4    1  0.3191769E-002  0.2946441E+03  0.7818608E-02  0.1087949E+00
          2   -1    0    0  502    0  0.00000000000E+00  0.00000000000E+00  0.36550701151E+03  0.36550701151E+03  0.00000000000E+00 0. -1.
         -2   -1    0    0    0  501 -0.00000000000E+00 -0.00000000000E+00 -0.41255281540E+03  0.41255281540E+03  0.00000000000E+00 0.  1.
          6    1    1    2  502    0 -0.23870544980E+03 -0.15838762393E+02  0.22987510012E+03  0.37370806763E+03  0.17200000000E+03 0. -1.
         -6    1    1    2    0  501  0.23870544980E+03  0.15838762393E+02 -0.27692090401E+03  0.40435175928E+03  0.17200000000E+03 0.  1.
</event>
<event>
 4    1  0.3191769E-002  0.1853622E+03  0.7818608E-02  0.1162712E+00
          3   -1    0    0  502    0  0.00000000000E+00  0.00000000000E+00  0.81275243631E+02  0.81275243631E+02  0.00000000000E+00 0. -1.
         -3   -1    0    0    0  501 -0.00000000000E+00 -0.00000000000E+00 -0.44634158773E+03  0.44634158773E+03  0.00000000000E+00 0.  1.
          6    1    1    2  502    0 -0.47013034360E+02 -0.50645074244E+02 -0.12188341608E+03  0.22184390021E+03  0.17200000000E+03 0. -1.
         -6    1    1    2    0  501  0.47013034360E+02  0.50645074244E+02 -0.24318292801E+03  0.30577293115E+03  0.17200000000E+03 0.  1.
</event>
<event>
 4    1  0.3191769E-002  0.3552416E+03  0.7818608E-02  0.1060484E+00
         -2   -1    0    0    0  501 -0.00000000000E+00  0.00000000000E+00  0.13441841904E+03  0.13441841904E+03  0.00000000000E+00 0.  1.
          2   -1    0    0  502    0  0.00000000000E+00 -0.00000000000E+00 -0.97579006946E+03  0.97579006946E+03  0.00000000000E+00 0. -1.
          6    1    1    2  502    0  0.13281924284E+02 -0.31054170942E+03 -0.52871475618E+03  0.63697398393E+03  0.17200000000E+03 0. -1.
         -6    1    1    2    0  501 -0.13281924284E+02  0.31054170942E+03 -0.31265689424E+03  0.47323450458E+03  0.17200000000E+03 0.  1.
</event>
<event>
 4    1  0.3191769E-002  0.4113096E+03  0.7818608E-02  0.1039932E+00
         -2   -1    0    0    0  501 -0.00000000000E+00  0.00000000000E+00  0.87482934012E+02  0.87482934012E+02  0.00000000000E+00 0.  1.
          2   -1    0    0  502    0  0.00000000000E+00 -0.00000000000E+00 -0.21482808338E+04  0.21482808338E+04  0.00000000000E+00 0. -1.
          6    1    1    2  502    0  0.47508898946E+02  0.37058667794E+03 -0.13836082218E+04  0.14434497888E+04  0.17200000000E+03 0. -1.
         -6    1    1    2    0  501 -0.47508898946E+02 -0.37058667794E+03 -0.67718967790E+03  0.79231397893E+03  0.17200000000E+03 0.  1.
</event>
<event>
 4    1  0.3191769E-002  0.2323958E+03  0.7818608E-02  0.1124965E+00
          2   -1    0    0  502    0  0.00000000000E+00  0.00000000000E+00  0.83035819666E+03  0.83035819666E+03  0.00000000000E+00 0. -1.
         -2   -1    0    0    0  501 -0.00000000000E+00 -0.00000000000E+00 -0.71114840184E+02  0.71114840184E+02  0.00000000000E+00 0.  1.
          6    1    1    2  502    0  0.73702795706E+02 -0.13781042112E+03  0.51134217103E+03  0.56167484378E+03  0.17200000000E+03 0. -1.
         -6    1    1    2    0  501 -0.73702795706E+02  0.13781042112E+03  0.24790118545E+03  0.33979819306E+03  0.17200000000E+03 0.  1.
</event>
<event>
 4    1  0.3191769E-002  0.1872973E+03  0.7818608E-02  0.1160922E+00
          2   -1    0    0  502    0  0.00000000000E+00  0.00000000000E+00  0.89942375578E+03  0.89942375578E+03  0.00000000000E+00 0. -1.
         -2   -1    0    0    0  501 -0.00000000000E+00 -0.00000000000E+00 -0.61141025080E+02  0.61141025080E+02  0.00000000000E+00 0.  1.
          6    1    1    2  502    0 -0.69425318144E+02  0.26007552109E+02  0.13014041146E+03  0.22807190590E+03  0.17200000000E+03 0.  1.
         -6    1    1    2    0  501  0.69425318144E+02 -0.26007552109E+02  0.70814231925E+03  0.73249287496E+03  0.17200000000E+03 0. -1.
</event>
<event>
 4    1  0.3191769E-002  0.1865979E+03  0.7818608E-02  0.1161566E+00
         -1   -1    0    0    0  501 -0.00000000000E+00  0.00000000000E+00  0.25355733421E+02  0.25355733421E+02  0.00000000000E+00 0.  1.
          1   -1    0    0  502    0  0.00000000000E+00 -0.00000000000E+00 -0.15440658123E+04  0.15440658123E+04  0.00000000000E+00 0. -1.
          6    1    1    2  502    0  0.20129606823E+02  0.69495159209E+02 -0.10203847907E+04  0.10373060779E+04  0.17200000000E+03 0. -1.
         -6    1    1    2    0  501 -0.20129606823E+02 -0.69495159209E+02 -0.49832528824E+03  0.53211546784E+03  0.17200000000E+03 0.  1.
</event>
<event>
 4    1  0.3191769E-002  0.1795291E+03  0.7818608E-02  0.1168260E+00
         -1   -1    0    0    0  501 -0.00000000000E+00  0.00000000000E+00  0.52625347221E+03  0.52625347221E+03  0.00000000000E+00 0.  1.
          1   -1    0    0  502    0  0.00000000000E+00 -0.00000000000E+00 -0.85649082486E+02  0.85649082486E+02  0.00000000000E+00 0. -1.
          6    1    1    2  502    0  0.50639749334E+02  0.90732662005E+01  0.56990668365E+02  0.18835775708E+03  0.17200000000E+03 0. -1.
         -6    1    1    2    0  501 -0.50639749334E+02 -0.90732662005E+01  0.38361372136E+03  0.42354479762E+03  0.17200000000E+03 0.  1.
</event>
<event>
 4    1  0.3191769E-002  0.2202900E+03  0.7818608E-02  0.1133667E+00
         -2   -1    0    0    0  501 -0.00000000000E+00  0.00000000000E+00  0.47806440483E+02  0.47806440483E+02  0.00000000000E+00 0.  1.
          2   -1    0    0  502    0  0.00000000000E+00 -0.00000000000E+00 -0.11797406399E+04  0.11797406399E+04  0.00000000000E+00 0. -1.
          6    1    1    2  502    0 -0.12696808480E+02  0.13704912930E+03 -0.79526559625E+03  0.82521211901E+03  0.17200000000E+03 0. -1.
         -6    1    1    2    0  501  0.12696808480E+02 -0.13704912930E+03 -0.33666860321E+03  0.40233496141E+03  0.17200000000E+03 0.  1.
</event>
<event>
 4    1  0.3191769E-002  0.9045390E+03  0.7818608E-02  0.9419925E-01
          2   -1    0    0  502    0  0.00000000000E+00  0.00000000000E+00  0.21332233922E+04  0.21332233922E+04  0.00000000000E+00 0. -1.
         -2   -1    0    0    0  501 -0.00000000000E+00 -0.00000000000E+00 -0.10004361283E+04  0.10004361283E+04  0.00000000000E+00 0.  1.
          6    1    1    2  502    0  0.83831270993E+03  0.29298229823E+03  0.17967496185E+04  0.20115914143E+04  0.17200000000E+03 0. -1.
         -6    1    1    2    0  501 -0.83831270993E+03 -0.29298229823E+03 -0.66396235450E+03  0.11220681062E+04  0.17200000000E+03 0.  1.
</event>
<event>
 4    1  0.3191769E-002  0.1873131E+03  0.7818608E-02  0.1160907E+00
          1   -1    0    0  502    0  0.00000000000E+00  0.00000000000E+00  0.65815123574E+02  0.65815123574E+02  0.00000000000E+00 0. -1.
         -1   -1    0    0    0  501 -0.00000000000E+00 -0.00000000000E+00 -0.54091477845E+03  0.54091477845E+03  0.00000000000E+00 0.  1.
          6    1    1    2  502    0 -0.27321838126E+02  0.68961569908E+02 -0.20109115949E+03  0.27481600279E+03  0.17200000000E+03 0. -1.
         -6    1    1    2    0  501  0.27321838126E+02 -0.68961569908E+02 -0.27400849539E+03  0.33191389924E+03  0.17200000000E+03 0.  1.
</event>
<event>
 4    1  0.3191769E-002  0.1932624E+03  0.7818608E-02  0.1155551E+00
          2   -1    0    0  502    0  0.00000000000E+00  0.00000000000E+00  0.87676333503E+03  0.87676333503E+03  0.00000000000E+00 0. -1.
         -2   -1    0    0    0  501 -0.00000000000E+00 -0.00000000000E+00 -0.45369570566E+02  0.45369570566E+02  0.00000000000E+00 0.  1.
          6    1    1    2  502    0  0.60375979605E+01  0.87919777999E+02  0.52960838067E+03  0.56376890374E+03  0.17200000000E+03 0. -1.
         -6    1    1    2    0  501 -0.60375979605E+01 -0.87919777999E+02  0.30178538379E+03  0.35836400185E+03  0.17200000000E+03 0. -1.
</event>
<event>
 4    1  0.3191769E-002  0.9505079E+03  0.7818608E-02  0.9364557E-01
          2   -1    0    0  502    0  0.00000000000E+00  0.00000000000E+00  0.90356654889E+03  0.90356654889E+03  0.00000000000E+00 0. -1.
         -2   -1    0    0    0  501 -0.00000000000E+00 -0.00000000000E+00 -0.10178817807E+04  0.10178817807E+04  0.00000000000E+00 0.  1.
          6    1    1    2  502    0 -0.82028804348E+03  0.44834013246E+03  0.70577782215E+02  0.95312463613E+03  0.17200000000E+03 0. -1.
         -6    1    1    2    0  501  0.82028804348E+03 -0.44834013246E+03 -0.18489301399E+03  0.96832369344E+03  0.17200000000E+03 0.  1.
</event>
<event>
 4    1  0.3191769E-002  0.2356865E+03  0.7818608E-02  0.1122700E+00
          2   -1    0    0  502    0  0.00000000000E+00  0.00000000000E+00  0.11011643115E+04  0.11011643115E+04  0.00000000000E+00 0. -1.
         -2   -1    0    0    0  501 -0.00000000000E+00 -0.00000000000E+00 -0.53502211405E+02  0.53502211405E+02  0.00000000000E+00 0.  1.
          6    1    1    2  502    0  0.11868382552E+02 -0.16069621689E+03  0.66184086282E+03  0.70255352844E+03  0.17200000000E+03 0. -1.
         -6    1    1    2    0  501 -0.11868382552E+02  0.16069621689E+03  0.38582123724E+03  0.45211299443E+03  0.17200000000E+03 0.  1.
</event>
<event>
 4    1  0.3191769E-002  0.2784726E+03  0.7818608E-02  0.1096526E+00
          1   -1    0    0  502    0  0.00000000000E+00  0.00000000000E+00  0.80988330369E+03  0.80988330369E+03  0.00000000000E+00 0. -1.
         -1   -1    0    0    0  501 -0.00000000000E+00 -0.00000000000E+00 -0.13048379964E+03  0.13048379964E+03  0.00000000000E+00 0.  1.
          6    1    1    2  502    0 -0.21791242522E+03 -0.21844094202E+02  0.58228264042E+03  0.64544563121E+03  0.17200000000E+03 0. -1.
         -6    1    1    2    0  501  0.21791242522E+03  0.21844094202E+02  0.97116863631E+02  0.29492147212E+03  0.17200000000E+03 0.  1.
</event>
<event>
 4    1  0.3191769E-002  0.1853845E+03  0.7818608E-02  0.1162691E+00
          2   -1    0    0  502    0  0.00000000000E+00  0.00000000000E+00  0.16941909577E+04  0.16941909577E+04  0.00000000000E+00 0. -1.
         -2   -1    0    0    0  501 -0.00000000000E+00 -0.00000000000E+00 -0.22662900117E+02  0.22662900117E+02  0.00000000000E+00 0.  1.
          6    1    1    2  502    0  0.41509856730E+02 -0.55320235402E+02  0.55772684711E+03  0.58773006783E+03  0.17200000000E+03 0.  1.
         -6    1    1    2    0  501 -0.41509856730E+02  0.55320235402E+02  0.11138012105E+04  0.11291237900E+04  0.17200000000E+03 0. -1.
</event>
<event>
 4    1  0.3191769E-002  0.3119862E+03  0.7818608E-02  0.1079398E+00
          1   -1    0    0  502    0  0.00000000000E+00  0.00000000000E+00  0.18476140839E+04  0.18476140839E+04  0.00000000000E+00 0. -1.
         -1   -1    0    0    0  501 -0.00000000000E+00 -0.00000000000E+00 -0.82297254894E+02  0.82297254894E+02  0.00000000000E+00 0.  1.
          6    1    1    2  502    0  0.18395213133E+03  0.18415489499E+03  0.30379676336E+03  0.43546284044E+03  0.17200000000E+03 0.  1.
         -6    1    1    2    0  501 -0.18395213133E+03 -0.18415489499E+03  0.14615200656E+04  0.14944484983E+04  0.17200000000E+03 0.  1.
</event>
<event>
 4    1  0.3191769E-002  0.1889049E+03  0.7818608E-02  0.1159453E+00
          1   -1    0    0  502    0  0.00000000000E+00  0.00000000000E+00  0.67473741087E+03  0.67473741087E+03  0.00000000000E+00 0. -1.
         -1   -1    0    0    0  501 -0.00000000000E+00 -0.00000000000E+00 -0.13226385570E+03  0.13226385570E+03  0.00000000000E+00 0.  1.
          6    1    1    2  502    0 -0.17169904858E+02 -0.76198772943E+02  0.58382289067E+03  0.61362384757E+03  0.17200000000E+03 0. -1.
         -6    1    1    2    0  501  0.17169904858E+02  0.76198772943E+02 -0.41349335501E+02  0.19337741900E+03  0.17200000000E+03 0.  1.
</event>
<event>
 4    1  0.3191769E-002  0.2928158E+03  0.7818608E-02  0.1088888E+00
         -2   -1    0    0    0  501 -0.00000000000E+00  0.00000000000E+00  0.11759413201E+03  0.11759413201E+03  0.00000000000E+00 0.  1.
          2   -1    0    0  502    0  0.00000000000E+00 -0.00000000000E+00 -0.18193036045E+04  0.18193036045E+04  0.00000000000E+00 0. -1.
          6    1    1    2  502    0  0.21966974199E+03 -0.88894978232E+02 -0.16005287206E+04  0.16270935124E+04  0.17200000000E+03 0. -1.
         -6    1    1    2    0  501 -0.21966974199E+03  0.88894978232E+02 -0.10118075188E+03  0.30980422407E+03  0.17200000000E+03 0.  1.
</event>
<event>
 4    1  0.3191769E-002  0.1830392E+03  0.7818608E-02  0.1164894E+00
          1   -1    0    0  502    0  0.00000000000E+00  0.00000000000E+00  0.26852410545E+04  0.26852410545E+04  0.00000000000E+00 0. -1.
         -1   -1    0    0    0  501 -0.00000000000E+00 -0.00000000000E+00 -0.19083439512E+02  0.19083439512E+02  0.00000000000E+00 0.  1.
          6    1    1    2  502    0 -0.62024496212E+02 -0.85036402710E+01  0.21286684844E+04  0.21365235469E+04  0.17200000000E+03 0. -1.
         -6    1    1    2    0  501  0.62024496212E+02  0.85036402710E+01  0.53748913057E+03  0.56780094709E+03  0.17200000000E+03 0.  1.
</event>
<event>
 4    1  0.3191769E-002  0.1848052E+03  0.7818608E-02  0.1163232E+00
         -2   -1    0    0    0  501 -0.00000000000E+00  0.00000000000E+00  0.36304295226E+03  0.36304295226E+03  0.00000000000E+00 0.  1.
          2   -1    0    0  502    0  0.00000000000E+00 -0.00000000000E+00 -0.14035255332E+03  0.14035255332E+03  0.00000000000E+00 0. -1.
          6    1    1    2  502    0 -0.67577739643E+02  0.14857044208E+01 -0.33184915701E+02  0.18776100991E+03  0.17200000000E+03 0. -1.
         -6    1    1    2    0  501  0.67577739643E+02 -0.14857044208E+01  0.25587531464E+03  0.31563449567E+03  0.17200000000E+03 0.  1.
</event>
<event>
 4    1  0.3191769E-002  0.2488510E+03  0.7818608E-02  0.1114033E+00
         -1   -1    0    0    0  501 -0.00000000000E+00  0.00000000000E+00  0.21600736193E+03  0.21600736193E+03  0.00000000000E+00 0.  1.
          1   -1    0    0  502    0  0.00000000000E+00 -0.00000000000E+00 -0.33017123367E+03  0.33017123367E+03  0.00000000000E+00 0. -1.
          6    1    1    2  502    0 -0.24023508820E+02 -0.17822935091E+03  0.42022568433E+02  0.25237418005E+03  0.17200000000E+03 0.  1.
         -6    1    1    2    0  501  0.24023508820E+02  0.17822935091E+03 -0.15618644017E+03  0.29380441554E+03  0.17200000000E+03 0. -1.
</event>
<event>
 4    1  0.3191769E-002  0.2379730E+03  0.7818608E-02  0.1121151E+00
          1   -1    0    0  502    0  0.00000000000E+00  0.00000000000E+00  0.52892734101E+03  0.52892734101E+03  0.00000000000E+00 0. -1.
         -1   -1    0    0    0  501 -0.00000000000E+00 -0.00000000000E+00 -0.10720225718E+03  0.10720225718E+03  0.00000000000E+00 0.  1.
          6    1    1    2  502    0 -0.88987074906E+02  0.13830566911E+03  0.22212126696E+03  0.32552882337E+03  0.17200000000E+03 0. -1.
         -6    1    1    2    0  501  0.88987074906E+02 -0.13830566911E+03  0.19960381687E+03  0.31060077482E+03  0.17200000000E+03 0.  1.
</event>
<event>
 4    1  0.3191769E-002  0.2496921E+03  0.7818608E-02  0.1113500E+00
          1   -1    0    0  502    0  0.00000000000E+00  0.00000000000E+00  0.95695117719E+03  0.95695117719E+03  0.00000000000E+00 0. -1.
         -1   -1    0    0    0  501 -0.00000000000E+00 -0.00000000000E+00 -0.77424998788E+02  0.77424998788E+02  0.00000000000E+00 0.  1.
          6    1    1    2  502    0  0.18083604040E+03 -0.77754133360E+01  0.64568595033E+03  0.69228352358E+03  0.17200000000E+03 0. -1.
         -6    1    1    2    0  501 -0.18083604040E+03  0.77754133360E+01  0.23384022807E+03  0.34209265240E+03  0.17200000000E+03 0.  1.
</event>
<event>
 4    1  0.3191769E-002  0.3324934E+03  0.7818608E-02  0.1070039E+00
         -2   -1    0    0    0  501 -0.00000000000E+00  0.00000000000E+00  0.52465859959E+03  0.52465859959E+03  0.00000000000E+00 0.  1.
          2   -1    0    0  502    0  0.00000000000E+00 -0.00000000000E+00 -0.30983884912E+04  0.30983884912E+04  0.00000000000E+00 0. -1.
          6    1    1    2  502    0 -0.16635897252E+03 -0.23085186030E+03 -0.30357058905E+04  0.30538602036E+04  0.17200000000E+03 0. -1.
         -6    1    1    2    0  501  0.16635897252E+03  0.23085186030E+03  0.46197599886E+03  0.56918688729E+03  0.17200000000E+03 0.  1.
</event>
<event>
 4    1  0.3191769E-002  0.1882815E+03  0.7818608E-02  0.1160020E+00
         -1   -1    0    0    0  501 -0.00000000000E+00  0.00000000000E+00  0.13539723267E+03  0.13539723267E+03  0.00000000000E+00 0.  1.
          1   -1    0    0  502    0  0.00000000000E+00 -0.00000000000E+00 -0.30495464377E+03  0.30495464377E+03  0.00000000000E+00 0. -1.
          6    1    1    2  502    0 -0.44529612608E+02  0.62314161843E+02 -0.16758369376E+03  0.25205998409E+03  0.17200000000E+03 0. -1.
         -6    1    1    2    0  501  0.44529612608E+02 -0.62314161843E+02 -0.19737173420E+01  0.18829189235E+03  0.17200000000E+03 0.  1.
</event>
<event>
 4    1  0.3191769E-002  0.4050883E+03  0.7818608E-02  0.1042032E+00
          1   -1    0    0  502    0  0.00000000000E+00  0.00000000000E+00  0.17973371491E+03  0.17973371491E+03  0.00000000000E+00 0. -1.
         -1   -1    0    0    0  501 -0.00000000000E+00 -0.00000000000E+00 -0.97905397617E+03  0.97905397617E+03  0.00000000000E+00 0.  1.
          6    1    1    2  502    0 -0.30556089640E+03 -0.20284253224E+03 -0.55015650289E+03  0.68320475113E+03  0.17200000000E+03 0.  1.
         -6    1    1    2    0  501  0.30556089640E+03  0.20284253224E+03 -0.24916375837E+03  0.47558293995E+03  0.17200000000E+03 0. -1.
</event>
<event>
 4    1  0.3191769E-002  0.2908498E+03  0.7818608E-02  0.1089906E+00
          1   -1    0    0  502    0  0.00000000000E+00  0.00000000000E+00  0.94559500893E+03  0.94559500893E+03  0.00000000000E+00 0. -1.
         -1   -1    0    0    0  501 -0.00000000000E+00 -0.00000000000E+00 -0.89465101095E+02  0.89465101095E+02  0.00000000000E+00 0.  1.
          6    1    1    2  502    0  0.23126639242E+03 -0.39056972820E+02  0.43169482014E+03  0.52053242850E+03  0.17200000000E+03 0. -1.
         -6    1    1    2    0  501 -0.23126639242E+03  0.39056972820E+02  0.42443508770E+03  0.51452768153E+03  0.17200000000E+03 0.  1.
</event>
<event>
 4    1  0.3191769E-002  0.1793524E+03  0.7818608E-02  0.1168431E+00
         -1   -1    0    0    0  501 -0.00000000000E+00  0.00000000000E+00  0.35976918764E+03  0.35976918764E+03  0.00000000000E+00 0.  1.
          1   -1    0    0  502    0  0.00000000000E+00 -0.00000000000E+00 -0.11517768561E+03  0.11517768561E+03  0.00000000000E+00 0. -1.
          6    1    1    2  502    0 -0.29408502727E+02  0.41453820900E+02  0.99746989926E+01  0.17962954634E+03  0.17200000000E+03 0. -1.
         -6    1    1    2    0  501  0.29408502727E+02 -0.41453820900E+02  0.23461680304E+03  0.29531732690E+03  0.17200000000E+03 0.  1.
</event>
<event>
 4    1  0.3191769E-002  0.3288811E+03  0.7818608E-02  0.1071633E+00
          2   -1    0    0  502    0  0.00000000000E+00  0.00000000000E+00  0.30871060121E+03  0.30871060121E+03  0.00000000000E+00 0. -1.
         -2   -1    0    0    0  501 -0.00000000000E+00 -0.00000000000E+00 -0.35835203599E+03  0.35835203599E+03  0.00000000000E+00 0.  1.
          6    1    1    2  502    0  0.25242256286E+03  0.12190825236E+03 -0.74600468474E+02  0.33723582569E+03  0.17200000000E+03 0. -1.
         -6    1    1    2    0  501 -0.25242256286E+03 -0.12190825236E+03  0.24959033692E+02  0.32982681152E+03  0.17200000000E+03 0.  1.
</event>
<event>
 4    1  0.3191769E-002  0.2114480E+03  0.7818608E-02  0.1140424E+00
         -2   -1    0    0    0  501 -0.00000000000E+00  0.00000000000E+00  0.28313563616E+02  0.28313563616E+02  0.00000000000E+00 0.  1.
          2   -1    0    0  502    0  0.00000000000E+00 -0.00000000000E+00 -0.18024020790E+04  0.18024020790E+04  0.00000000000E+00 0. -1.
          6    1    1    2  502    0 -0.70735936141E+02 -0.10061160488E+03 -0.56486285328E+03  0.60314203195E+03  0.17200000000E+03 0.  1.
         -6    1    1    2    0  501  0.70735936141E+02  0.10061160488E+03 -0.12092256621E+04  0.12275736107E+04  0.17200000000E+03 0. -1.
</event>
<event>
 4    1  0.3191769E-002  0.2027855E+03  0.7818608E-02  0.1147410E+00
          2   -1    0    0  502    0  0.00000000000E+00  0.00000000000E+00  0.27386014558E+03  0.27386014558E+03  0.00000000000E+00 0. -1.
         -2   -1    0    0    0  501 -0.00000000000E+00 -0.00000000000E+00 -0.16414338665E+03  0.16414338665E+03  0.00000000000E+00 0.  1.
          6    1    1    2  502    0 -0.51942399248E+02 -0.94021002808E+02 -0.90697307157E+01  0.20298823075E+03  0.17200000000E+03 0.  1.
         -6    1    1    2    0  501  0.51942399248E+02  0.94021002808E+02  0.11878648964E+03  0.23501530148E+03  0.17200000000E+03 0. -1.
</event>
<event>
 4    1  0.3191769E-002  0.2154622E+03  0.7818608E-02  0.1137312E+00
         -2   -1    0    0    0  501 -0.00000000000E+00  0.00000000000E+00  0.44646658550E+02  0.44646658550E+02  0.00000000000E+00 0.  1.
          2   -1    0    0  502    0  0.00000000000E+00 -0.00000000000E+00 -0.11275178947E+04  0.11275178947E+04  0.00000000000E+00 0. -1.
          6    1    1    2  502    0 -0.51367033327E+02 -0.11916960179E+03 -0.70489897757E+03  0.73709330120E+03  0.17200000000E+03 0. -1.
         -6    1    1    2    0  501  0.51367033327E+02  0.11916960179E+03 -0.37797225860E+03  0.43507125207E+03  0.17200000000E+03 0.  1.
</event>
<event>
 4    1  0.3191769E-002  0.1813869E+03  0.7818608E-02  0.1166468E+00
          1   -1    0    0  502    0  0.00000000000E+00  0.00000000000E+00  0.82980300419E+03  0.82980300419E+03  0.00000000000E+00 0. -1.
         -1   -1    0    0    0  501 -0.00000000000E+00 -0.00000000000E+00 -0.27990451730E+03  0.27990451730E+03  0.00000000000E+00 0.  1.
          6    1    1    2  502    0 -0.29257353975E+01  0.57520790562E+02  0.78900460438E+03  0.80958598494E+03  0.17200000000E+03 0. -1.
         -6    1    1    2    0  501  0.29257353975E+01 -0.57520790562E+02 -0.23910611749E+03  0.30012153654E+03  0.17200000000E+03 0.  1.
</event>
<event>
 4    1  0.3191769E-002  0.4483498E+03  0.7818608E-02  0.1028215E+00
          1   -1    0    0  502    0  0.00000000000E+00  0.00000000000E+00  0.12465567777E+04  0.12465567777E+04  0.00000000000E+00 0. -1.
         -1   -1    0    0    0  501 -0.00000000000E+00 -0.00000000000E+00 -0.19709671219E+03  0.19709671219E+03  0.00000000000E+00 0.  1.
          6    1    1    2  502    0 -0.40505196613E+03  0.85827760436E+02  0.83252979305E+03  0.94558096219E+03  0.17200000000E+03 0. -1.
         -6    1    1    2    0  501  0.40505196613E+03 -0.85827760436E+02  0.21693027244E+03  0.49807252768E+03  0.17200000000E+03 0. -1.
</event>
<event>
 4    1  0.3191769E-002  0.1926550E+03  0.7818608E-02  0.1156088E+00
         -1   -1    0    0    0  501 -0.00000000000E+00  0.00000000000E+00  0.32968577703E+03  0.32968577703E+03  0.00000000000E+00 0.  1.
          1   -1    0    0  502    0  0.00000000000E+00 -0.00000000000E+00 -0.57645668869E+03  0.57645668869E+03  0.00000000000E+00 0. -1.
          6    1    1    2  502    0 -0.80204644761E+02  0.33153359183E+02 -0.52981433086E+03  0.56375451701E+03  0.17200000000E+03 0. -1.
         -6    1    1    2    0  501  0.80204644761E+02 -0.33153359183E+02  0.28304341920E+03  0.34238794871E+03  0.17200000000E+03 0.  1.
</event>
<event>
 4    1  0.3191769E-002  0.3290181E+03  0.7818608E-02  0.1071572E+00
          3   -1    0    0  502    0  0.00000000000E+00  0.00000000000E+00  0.31810218313E+03  0.31810218313E+03  0.00000000000E+00 0. -1.
         -3   -1    0    0    0  501 -0.00000000000E+00 -0.00000000000E+00 -0.61924801527E+03  0.61924801527E+03  0.00000000000E+00 0.  1.
          6    1    1    2  502    0 -0.91593886856E+02 -0.26510279944E+03  0.16398053064E+03  0.36761739460E+03  0.17200000000E+03 0. -1.
         -6    1    1    2    0  501  0.91593886856E+02  0.26510279944E+03 -0.46512636278E+03  0.56973280381E+03  0.17200000000E+03 0.  1.
</event>
<event>
 4    1  0.3191769E-002  0.4939969E+03  0.7818608E-02  0.1015358E+00
         -1   -1    0    0    0  501 -0.00000000000E+00  0.00000000000E+00  0.24855188189E+03  0.24855188189E+03  0.00000000000E+00 0.  1.
          1   -1    0    0  502    0  0.00000000000E+00 -0.00000000000E+00 -0.11428634143E+04  0.11428634143E+04  0.00000000000E+00 0. -1.
          6    1    1    2  502    0  0.43835550679E+03  0.14930971169E+03 -0.18599823584E+03  0.52785252114E+03  0.17200000000E+03 0. -1.
         -6    1    1    2    0  501 -0.43835550679E+03 -0.14930971169E+03 -0.70831329653E+03  0.86356277501E+03  0.17200000000E+03 0.  1.
</event>
<event>
 4    1  0.3191769E-002  0.4938241E+03  0.7818608E-02  0.1015404E+00
          2   -1    0    0  502    0  0.00000000000E+00  0.00000000000E+00  0.76093264706E+03  0.76093264706E+03  0.00000000000E+00 0. -1.
         -2   -1    0    0    0  501 -0.00000000000E+00 -0.00000000000E+00 -0.32398460760E+03  0.32398460760E+03  0.00000000000E+00 0.  1.
          6    1    1    2  502    0 -0.28522904909E+03 -0.36458558276E+03  0.27490805709E+03  0.56518731183E+03  0.17200000000E+03 0. -1.
         -6    1    1    2    0  501  0.28522904909E+03  0.36458558276E+03  0.16203998236E+03  0.51972994284E+03  0.17200000000E+03 0.  1.
</event>
<event>
 4    1  0.3191769E-002  0.1823473E+03  0.7818608E-02  0.1165550E+00
          2   -1    0    0  502    0  0.00000000000E+00  0.00000000000E+00  0.28099711198E+02  0.28099711198E+02  0.00000000000E+00 0. -1.
         -2   -1    0    0    0  501 -0.00000000000E+00 -0.00000000000E+00 -0.15889799734E+04  0.15889799734E+04  0.00000000000E+00 0.  1.
          6    1    1    2  502    0 -0.44336223619E+02 -0.41241318044E+02 -0.37190352793E+03  0.41420137750E+03  0.17200000000E+03 0. -1.
         -6    1    1    2    0  501  0.44336223619E+02  0.41241318044E+02 -0.11889767342E+04  0.12028783071E+04  0.17200000000E+03 0.  1.
</event>
<event>
 4    1  0.3191769E-002  0.2002099E+03  0.7818608E-02  0.1149562E+00
          2   -1    0    0  502    0  0.00000000000E+00  0.00000000000E+00  0.21656164537E+04  0.21656164537E+04  0.00000000000E+00 0. -1.
         -2   -1    0    0    0  501 -0.00000000000E+00 -0.00000000000E+00 -0.18518457932E+02  0.18518457932E+02  0.00000000000E+00 0.  1.
          6    1    1    2  502    0 -0.76152655041E+02  0.68562126226E+02  0.10492313842E+04  0.10681622019E+04  0.17200000000E+03 0. -1.
         -6    1    1    2    0  501  0.76152655041E+02 -0.68562126226E+02  0.10978666116E+04  0.11159727098E+04  0.17200000000E+03 0.  1.
</event>
<event>
 4    1  0.3191769E-002  0.1864864E+03  0.7818608E-02  0.1161669E+00
          1   -1    0    0  502    0  0.00000000000E+00  0.00000000000E+00  0.24421501618E+04  0.24421501618E+04  0.00000000000E+00 0. -1.
         -1   -1    0    0    0  501 -0.00000000000E+00 -0.00000000000E+00 -0.14312452020E+02  0.14312452020E+02  0.00000000000E+00 0.  1.
          6    1    1    2  502    0  0.17465871165E+02 -0.69915045982E+02  0.11267669485E+04  0.11420949727E+04  0.17200000000E+03 0.  1.
         -6    1    1    2    0  501 -0.17465871165E+02  0.69915045982E+02  0.13010707612E+04  0.13143676411E+04  0.17200000000E+03 0. -1.
</event>
<event>
 4    1  0.3191769E-002  0.2490522E+03  0.7818608E-02  0.1113905E+00
         -1   -1    0    0    0  501 -0.00000000000E+00  0.00000000000E+00  0.12228824139E+03  0.12228824139E+03  0.00000000000E+00 0.  1.
          1   -1    0    0  502    0  0.00000000000E+00 -0.00000000000E+00 -0.51186090781E+03  0.51186090781E+03  0.00000000000E+00 0. -1.
          6    1    1    2  502    0 -0.16843307472E+03 -0.63822344981E+02 -0.22497930179E+03  0.33562282195E+03  0.17200000000E+03 0. -1.
         -6    1    1    2    0  501  0.16843307472E+03  0.63822344981E+02 -0.16459336463E+03  0.29852632725E+03  0.17200000000E+03 0.  1.
</event>
<event>
 4    1  0.3191769E-002  0.3112465E+03  0.7818608E-02  0.1079750E+00
          2   -1    0    0  502    0  0.00000000000E+00  0.00000000000E+00  0.77352947470E+03  0.77352947470E+03  0.00000000000E+00 0. -1.
         -2   -1    0    0    0  501 -0.00000000000E+00 -0.00000000000E+00 -0.12939630804E+03  0.12939630804E+03  0.00000000000E+00 0.  1.
          6    1    1    2  502    0  0.12493765622E+03  0.22733453143E+03  0.24112370240E+03  0.39371950293E+03  0.17200000000E+03 0.  1.
         -6    1    1    2    0  501 -0.12493765622E+03 -0.22733453143E+03  0.40300946426E+03  0.50920627982E+03  0.17200000000E+03 0. -1.
</event>
<event>
 4    1  0.3191769E-002  0.3959218E+03  0.7818608E-02  0.1045201E+00
          2   -1    0    0  502    0  0.00000000000E+00  0.00000000000E+00  0.13879825883E+04  0.13879825883E+04  0.00000000000E+00 0. -1.
         -2   -1    0    0    0  501 -0.00000000000E+00 -0.00000000000E+00 -0.74942819054E+03  0.74942819054E+03  0.00000000000E+00 0.  1.
          6    1    1    2  502    0  0.32774098241E+03  0.14055576489E+03  0.13041707911E+04  0.13629436991E+04  0.17200000000E+03 0. -1.
         -6    1    1    2    0  501 -0.32774098241E+03 -0.14055576489E+03 -0.66561639331E+03  0.77446707976E+03  0.17200000000E+03 0.  1.
</event>
<event>
 4    1  0.3191769E-002  0.3669157E+03  0.7818608E-02  0.1055879E+00
          1   -1    0    0  502    0  0.00000000000E+00  0.00000000000E+00  0.16321802056E+04  0.16321802056E+04  0.00000000000E+00 0. -1.
         -1   -1    0    0    0  501 -0.00000000000E+00 -0.00000000000E+00 -0.84242010416E+02  0.84242010416E+02  0.00000000000E+00 0.  1.
          6    1    1    2  502    0  0.24641208828E+03  0.21053324293E+03  0.64995796665E+03  0.74637291084E+03  0.17200000000E+03 0. -1.
         -6    1    1    2    0  501 -0.24641208828E+03 -0.21053324293E+03  0.89798022851E+03  0.97004930515E+03  0.17200000000E+03 0.  1.
</event>
<event>
 4    1  0.3191769E-002  0.2760210E+03  0.7818608E-02  0.1097882E+00
          2   -1    0    0  502    0  0.00000000000E+00  0.00000000000E+00  0.25385161325E+04  0.25385161325E+04  0.00000000000E+00 0. -1.
         -2   -1    0    0    0  501 -0.00000000000E+00 -0.00000000000E+00 -0.61279687522E+02  0.61279687522E+02  0.00000000000E+00 0.  1.
          6    1    1    2  502    0 -0.20410744010E+03 -0.70311757292E+02  0.21671448402E+04  0.21846519971E+04  0.17200000000E+03 0. -1.
         -6    1    1    2    0  501  0.20410744010E+03  0.70311757292E+02  0.31009160485E+03  0.41514382293E+03  0.17200000000E+03 0.  1.
</event>
<event>
 4    1  0.3191769E-002  0.1724181E+03  0.7818608E-02  0.1175349E+00
          2   -1    0    0  502    0  0.00000000000E+00  0.00000000000E+00  0.68573393346E+03  0.68573393346E+03  0.00000000000E+00 0. -1.
         -2   -1    0    0    0  501 -0.00000000000E+00 -0.00000000000E+00 -0.43352858698E+02  0.43352858698E+02  0.00000000000E+00 0.  1.
          6    1    1    2  502    0 -0.11841429496E+02 -0.19450429135E+01  0.31966052737E+03  0.36319534056E+03  0.17200000000E+03 0. -1.
         -6    1    1    2    0  501  0.11841429496E+02  0.19450429135E+01  0.32272054739E+03  0.36589145160E+03  0.17200000000E+03 0. -1.
</event>
<event>
 4    1  0.3191769E-002  0.1277970E+04  0.7818608E-02  0.9047220E-01
         -1   -1    0    0    0  501 -0.00000000000E+00  0.00000000000E+00  0.73292733968E+03  0.73292733968E+03  0.00000000000E+00 0.  1.
          1   -1    0    0  502    0  0.00000000000E+00 -0.00000000000E+00 -0.22411530836E+04  0.22411530836E+04  0.00000000000E+00 0. -1.
          6    1    1    2  502    0 -0.12383033201E+04 -0.26500630749E+03 -0.64165163770E+03  0.14300084894E+04  0.17200000000E+03 0. -1.
         -6    1    1    2    0  501  0.12383033201E+04  0.26500630749E+03 -0.86657410620E+03  0.15440719339E+04  0.17200000000E+03 0.  1.
</event>
<event>
 4    1  0.3191769E-002  0.4146319E+03  0.7818608E-02  0.1038828E+00
          2   -1    0    0  502    0  0.00000000000E+00  0.00000000000E+00  0.10829747274E+04  0.10829747274E+04  0.00000000000E+00 0. -1.
         -2   -1    0    0    0  501 -0.00000000000E+00 -0.00000000000E+00 -0.79322762255E+03  0.79322762255E+03  0.00000000000E+00 0.  1.
          6    1    1    2  502    0  0.37589437747E+03  0.32234342701E+02  0.98386926669E+03  0.10676695977E+04  0.17200000000E+03 0. -1.
         -6    1    1    2    0  501 -0.37589437747E+03 -0.32234342701E+02 -0.69412216186E+03  0.80853275224E+03  0.17200000000E+03 0.  1.
</event>
<event>
 4    1  0.3191769E-002  0.2321546E+03  0.7818608E-02  0.1125132E+00
          1   -1    0    0  502    0  0.00000000000E+00  0.00000000000E+00  0.64430715548E+02  0.64430715548E+02  0.00000000000E+00 0. -1.
         -1   -1    0    0    0  501 -0.00000000000E+00 -0.00000000000E+00 -0.90900906997E+03  0.90900906997E+03  0.00000000000E+00 0.  1.
          6    1    1    2  502    0 -0.11063829045E+03  0.10986782934E+03 -0.28481680341E+03  0.36744575483E+03  0.17200000000E+03 0. -1.
         -6    1    1    2    0  501  0.11063829045E+03 -0.10986782934E+03 -0.55976155102E+03  0.60599403069E+03  0.17200000000E+03 0.  1.
</event>
<event>
 4    1  0.3191769E-002  0.2883885E+03  0.7818608E-02  0.1091194E+00
         -1   -1    0    0    0  501 -0.00000000000E+00  0.00000000000E+00  0.12218614764E+03  0.12218614764E+03  0.00000000000E+00 0.  1.
          1   -1    0    0  502    0  0.00000000000E+00 -0.00000000000E+00 -0.17325324527E+04  0.17325324527E+04  0.00000000000E+00 0. -1.
          6    1    1    2  502    0 -0.21528559206E+03  0.85064964624E+02 -0.15277560562E+04  0.15547367950E+04  0.17200000000E+03 0. -1.
         -6    1    1    2    0  501  0.21528559206E+03 -0.85064964624E+02 -0.82590248886E+02  0.29998180539E+03  0.17200000000E+03 0.  1.
</event>
<event>
 4    1  0.3191769E-002  0.4450192E+03  0.7818608E-02  0.1029218E+00
          4   -1    0    0  502    0  0.00000000000E+00  0.00000000000E+00  0.98956273705E+03  0.98956273705E+03  0.00000000000E+00 0. -1.
         -4   -1    0    0    0  501 -0.00000000000E+00 -0.00000000000E+00 -0.24416888092E+03  0.24416888092E+03  0.00000000000E+00 0.  1.
          6    1    1    2  502    0 -0.25154733244E+03 -0.32431783258E+03  0.63467145448E+03  0.77514512971E+03  0.17200000000E+03 0. -1.
         -6    1    1    2    0  501  0.25154733244E+03  0.32431783258E+03  0.11072240165E+03  0.45858648826E+03  0.17200000000E+03 0.  1.
</event>
<event>
 4    1  0.3191769E-002  0.3882024E+03  0.7818608E-02  0.1047943E+00
         -2   -1    0    0    0  501 -0.00000000000E+00  0.00000000000E+00  0.96527819327E+02  0.96527819327E+02  0.00000000000E+00 0.  1.
          2   -1    0    0  502    0  0.00000000000E+00 -0.00000000000E+00 -0.21220449105E+04  0.21220449105E+04  0.00000000000E+00 0. -1.
          6    1    1    2  502    0  0.78046623208E+01 -0.34793134980E+03 -0.15830280370E+04  0.16299321774E+04  0.17200000000E+03 0. -1.
         -6    1    1    2    0  501 -0.78046623208E+01  0.34793134980E+03 -0.44248905419E+03  0.58864055246E+03  0.17200000000E+03 0.  1.
</event>
<event>
 4    1  0.3191769E-002  0.2027698E+03  0.7818608E-02  0.1147423E+00
          1   -1    0    0  502    0  0.00000000000E+00  0.00000000000E+00  0.13720545318E+04  0.13720545318E+04  0.00000000000E+00 0. -1.
         -1   -1    0    0    0  501 -0.00000000000E+00 -0.00000000000E+00 -0.73779136904E+02  0.73779136904E+02  0.00000000000E+00 0.  1.
          6    1    1    2  502    0 -0.10093930269E+03 -0.36644648209E+02  0.12062228797E+04  0.12231472555E+04  0.17200000000E+03 0. -1.
         -6    1    1    2    0  501  0.10093930269E+03  0.36644648209E+02  0.92052515146E+02  0.22268641318E+03  0.17200000000E+03 0.  1.
</event>
<event>
 4    1  0.3191769E-002  0.1967062E+03  0.7818608E-02  0.1152548E+00
          2   -1    0    0  502    0  0.00000000000E+00  0.00000000000E+00  0.12477166582E+03  0.12477166582E+03  0.00000000000E+00 0. -1.
         -2   -1    0    0    0  501 -0.00000000000E+00 -0.00000000000E+00 -0.40062430978E+03  0.40062430978E+03  0.00000000000E+00 0.  1.
          6    1    1    2  502    0  0.36460493988E+02  0.88204077075E+02 -0.26279091492E+03  0.32825659444E+03  0.17200000000E+03 0.  1.
         -6    1    1    2    0  501 -0.36460493988E+02 -0.88204077075E+02 -0.13061729045E+02  0.19713938115E+03  0.17200000000E+03 0. -1.
</event>
<event>
 4    1  0.3191769E-002  0.3224545E+03  0.7818608E-02  0.1074525E+00
         -1   -1    0    0    0  501 -0.00000000000E+00  0.00000000000E+00  0.56386401362E+02  0.56386401362E+02  0.00000000000E+00 0.  1.
          1   -1    0    0  502    0  0.00000000000E+00 -0.00000000000E+00 -0.32702696075E+04  0.32702696075E+04  0.00000000000E+00 0. -1.
          6    1    1    2  502    0  0.21361106829E+03  0.16959727301E+03 -0.27054056729E+04  0.27245544184E+04  0.17200000000E+03 0. -1.
         -6    1    1    2    0  501 -0.21361106829E+03 -0.16959727301E+03 -0.50847753324E+03  0.60210159053E+03  0.17200000000E+03 0.  1.
</event>
<event>
 4    1  0.3191769E-002  0.1720145E+03  0.7818608E-02  0.1175763E+00
          1   -1    0    0  502    0  0.00000000000E+00  0.00000000000E+00  0.71952001014E+02  0.71952001014E+02  0.00000000000E+00 0. -1.
         -1   -1    0    0    0  501 -0.00000000000E+00 -0.00000000000E+00 -0.55002450377E+03  0.55002450377E+03  0.00000000000E+00 0.  1.
          6    1    1    2  502    0 -0.94774232128E+00 -0.20198882068E+01 -0.39525591198E+03  0.43106404875E+03  0.17200000000E+03 0.  1.
         -6    1    1    2    0  501  0.94774232128E+00  0.20198882068E+01 -0.82816590775E+02  0.19091245604E+03  0.17200000000E+03 0. -1.
</event>
<event>
 4    1  0.3191769E-002  0.6914929E+03  0.7818608E-02  0.9731892E-01
          2   -1    0    0  502    0  0.00000000000E+00  0.00000000000E+00  0.25524913057E+04  0.25524913057E+04  0.00000000000E+00 0. -1.
         -2   -1    0    0    0  501 -0.00000000000E+00 -0.00000000000E+00 -0.20814883382E+03  0.20814883382E+03  0.00000000000E+00 0.  1.
          6    1    1    2  502    0  0.62642008676E+03  0.23701527939E+03  0.73565141911E+03  0.10096263557E+04  0.17200000000E+03 0. -1.
         -6    1    1    2    0  501 -0.62642008676E+03 -0.23701527939E+03  0.16086910527E+04  0.17510137837E+04  0.17200000000E+03 0.  1.
</event>
<event>
 4    1  0.3191769E-002  0.3045145E+03  0.7818608E-02  0.1083005E+00
          2   -1    0    0  502    0  0.00000000000E+00  0.00000000000E+00  0.66916895822E+03  0.66916895822E+03  0.00000000000E+00 0. -1.
         -2   -1    0    0    0  501 -0.00000000000E+00 -0.00000000000E+00 -0.14290331497E+03  0.14290331497E+03  0.00000000000E+00 0.  1.
          6    1    1    2  502    0 -0.16371408858E+03  0.19063786199E+03  0.33380968386E+03  0.45183846921E+03  0.17200000000E+03 0. -1.
         -6    1    1    2    0  501  0.16371408858E+03 -0.19063786199E+03  0.19245595939E+03  0.36023380397E+03  0.17200000000E+03 0.  1.
</event>
<event>
 4    1  0.3191769E-002  0.2691967E+03  0.7818608E-02  0.1101740E+00
         -2   -1    0    0    0  501 -0.00000000000E+00  0.00000000000E+00  0.94667692854E+02  0.94667692854E+02  0.00000000000E+00 0.  1.
          2   -1    0    0  502    0  0.00000000000E+00 -0.00000000000E+00 -0.77641084859E+03  0.77641084859E+03  0.00000000000E+00 0. -1.
          6    1    1    2  502    0 -0.81743433640E+02  0.19026531251E+03 -0.39253360954E+03  0.47597217640E+03  0.17200000000E+03 0. -1.
         -6    1    1    2    0  501  0.81743433640E+02 -0.19026531251E+03 -0.28920954620E+03  0.39510636505E+03  0.17200000000E+03 0. -1.
</event>
<event>
 4    1  0.3191769E-002  0.3294550E+03  0.7818608E-02  0.1071378E+00
         -1   -1    0    0    0  501 -0.00000000000E+00  0.00000000000E+00  0.17747701803E+03  0.17747701803E+03  0.00000000000E+00 0.  1.
          1   -1    0    0  502    0  0.00000000000E+00 -0.00000000000E+00 -0.12842517545E+04  0.12842517545E+04  0.00000000000E+00 0. -1.
          6    1    1    2  502    0 -0.20623699917E+02 -0.28023425381E+03 -0.10823375916E+04  0.11313687446E+04  0.17200000000E+03 0. -1.
         -6    1    1    2    0  501  0.20623699917E+02  0.28023425381E+03 -0.24437144846E+02  0.33036002793E+03  0.17200000000E+03 0.  1.
</event>
<event>
 4    1  0.3191769E-002  0.1862320E+03  0.7818608E-02  0.1161904E+00
         -1   -1    0    0    0  501 -0.00000000000E+00  0.00000000000E+00  0.21113082161E+03  0.21113082161E+03  0.00000000000E+00 0.  1.
          1   -1    0    0  502    0  0.00000000000E+00 -0.00000000000E+00 -0.16448064742E+03  0.16448064742E+03  0.00000000000E+00 0. -1.
          6    1    1    2  502    0 -0.62180538530E+01  0.71131483395E+02  0.16596003640E+02  0.18696999615E+03  0.17200000000E+03 0. -1.
         -6    1    1    2    0  501  0.62180538530E+01 -0.71131483395E+02  0.30054170555E+02  0.18864147288E+03  0.17200000000E+03 0.  1.
</event>
<event>
 4    1  0.3191769E-002  0.1947173E+03  0.7818608E-02  0.1154274E+00
         -2   -1    0    0    0  501 -0.00000000000E+00  0.00000000000E+00  0.74824814017E+02  0.74824814017E+02  0.00000000000E+00 0.  1.
          2   -1    0    0  502    0  0.00000000000E+00 -0.00000000000E+00 -0.59762064217E+03  0.59762064217E+03  0.00000000000E+00 0. -1.
          6    1    1    2  502    0 -0.73096679469E+02 -0.54660050978E+02 -0.39253031375E+03  0.43817221836E+03  0.17200000000E+03 0. -1.
         -6    1    1    2    0  501  0.73096679469E+02  0.54660050978E+02 -0.13026551440E+03  0.23427323783E+03  0.17200000000E+03 0.  1.
</event>
<event>
 4    1  0.3191769E-002  0.2018180E+03  0.7818608E-02  0.1148214E+00
         -2   -1    0    0    0  501 -0.00000000000E+00  0.00000000000E+00  0.17384788509E+02  0.17384788509E+02  0.00000000000E+00 0.  1.
          2   -1    0    0  502    0  0.00000000000E+00 -0.00000000000E+00 -0.27989289230E+04  0.27989289230E+04  0.00000000000E+00 0. -1.
          6    1    1    2  502    0  0.30794223731E+02  0.10098625770E+03 -0.19591796373E+04  0.19695469935E+04  0.17200000000E+03 0. -1.
         -6    1    1    2    0  501 -0.30794223731E+02 -0.10098625770E+03 -0.82236449719E+03  0.84676671799E+03  0.17200000000E+03 0. -1.
</event>
<event>
 4    1  0.3191769E-002  0.2378048E+03  0.7818608E-02  0.1121264E+00
          2   -1    0    0  502    0  0.00000000000E+00  0.00000000000E+00  0.24884353847E+03  0.24884353847E+03  0.00000000000E+00 0. -1.
         -2   -1    0    0    0  501 -0.00000000000E+00 -0.00000000000E+00 -0.22992205384E+03  0.22992205384E+03  0.00000000000E+00 0.  1.
          6    1    1    2  502    0  0.16138810392E+03 -0.30347924748E+02  0.35239392354E+02  0.24040160439E+03  0.17200000000E+03 0. -1.
         -6    1    1    2    0  501 -0.16138810392E+03  0.30347924748E+02 -0.16317907730E+02  0.23836398792E+03  0.17200000000E+03 0.  1.
</event>
<event>
 4    1  0.3191769E-002  0.2096540E+03  0.7818608E-02  0.1141840E+00
          2   -1    0    0  502    0  0.00000000000E+00  0.00000000000E+00  0.24051609881E+04  0.24051609881E+04  0.00000000000E+00 0. -1.
         -2   -1    0    0    0  501 -0.00000000000E+00 -0.00000000000E+00 -0.25960256108E+02  0.25960256108E+02  0.00000000000E+00 0.  1.
          6    1    1    2  502    0  0.27650718330E+02 -0.11664572334E+03  0.52822839121E+03  0.56831331172E+03  0.17200000000E+03 0. -1.
         -6    1    1    2    0  501 -0.27650718330E+02  0.11664572334E+03  0.18509723408E+04  0.18628079325E+04  0.17200000000E+03 0.  1.
</event>
<event>
 4    1  0.3191769E-002  0.2173430E+03  0.7818608E-02  0.1135880E+00
          2   -1    0    0  502    0  0.00000000000E+00  0.00000000000E+00  0.49432191851E+03  0.49432191851E+03  0.00000000000E+00 0. -1.
         -2   -1    0    0    0  501 -0.00000000000E+00 -0.00000000000E+00 -0.14643448265E+03  0.14643448265E+03  0.00000000000E+00 0.  1.
          6    1    1    2  502    0  0.87617674859E+02 -0.99885561646E+02  0.36278036272E+03  0.42290374076E+03  0.17200000000E+03 0. -1.
         -6    1    1    2    0  501 -0.87617674859E+02  0.99885561646E+02 -0.14892926854E+02  0.21785266040E+03  0.17200000000E+03 0.  1.
</event>
<event>
 4    1  0.3191769E-002  0.1781942E+03  0.7818608E-02  0.1169562E+00
          1   -1    0    0  502    0  0.00000000000E+00  0.00000000000E+00  0.11719243600E+04  0.11719243600E+04  0.00000000000E+00 0. -1.
         -1   -1    0    0    0  501 -0.00000000000E+00 -0.00000000000E+00 -0.40541063090E+02  0.40541063090E+02  0.00000000000E+00 0.  1.
          6    1    1    2  502    0 -0.43758732156E+02  0.15947999457E+02  0.91482480746E+03  0.93201802218E+03  0.17200000000E+03 0. -1.
         -6    1    1    2    0  501  0.43758732156E+02 -0.15947999457E+02  0.21655848947E+03  0.28044740093E+03  0.17200000000E+03 0.  1.
</event>
<event>
 4    1  0.3191769E-002  0.4427699E+03  0.7818608E-02  0.1029900E+00
          2   -1    0    0  502    0  0.00000000000E+00  0.00000000000E+00  0.20556376668E+04  0.20556376668E+04  0.00000000000E+00 0. -1.
         -2   -1    0    0    0  501 -0.00000000000E+00 -0.00000000000E+00 -0.96767207185E+02  0.96767207185E+02  0.00000000000E+00 0.  1.
          6    1    1    2  502    0 -0.13243003787E+03 -0.38590601251E+03  0.11087761000E+04  0.11939135670E+04  0.17200000000E+03 0. -1.
         -6    1    1    2    0  501  0.13243003787E+03  0.38590601251E+03  0.85009435964E+03  0.95849130706E+03  0.17200000000E+03 0.  1.
</event>
<event>
 4    1  0.3191769E-002  0.2099205E+03  0.7818608E-02  0.1141629E+00
         -1   -1    0    0    0  501 -0.00000000000E+00  0.00000000000E+00  0.22130643303E+02  0.22130643303E+02  0.00000000000E+00 0.  1.
          1   -1    0    0  502    0  0.00000000000E+00 -0.00000000000E+00 -0.19912195178E+04  0.19912195178E+04  0.00000000000E+00 0. -1.
          6    1    1    2  502    0 -0.11726547382E+03 -0.27044579070E+02 -0.98163424684E+03  0.10038288675E+04  0.17200000000E+03 0. -1.
         -6    1    1    2    0  501  0.11726547382E+03  0.27044579070E+02 -0.98745462761E+03  0.10095212936E+04  0.17200000000E+03 0. -1.
</event>
<event>
 4    1  0.3191769E-002  0.2741679E+03  0.7818608E-02  0.1098918E+00
         -1   -1    0    0    0  501 -0.00000000000E+00  0.00000000000E+00  0.57325149511E+03  0.57325149511E+03  0.00000000000E+00 0.  1.
          1   -1    0    0  502    0  0.00000000000E+00 -0.00000000000E+00 -0.20897638084E+03  0.20897638084E+03  0.00000000000E+00 0. -1.
          6    1    1    2  502    0 -0.21176177299E+03 -0.27221313551E+02  0.42085583928E+03  0.50228247617E+03  0.17200000000E+03 0. -1.
         -6    1    1    2    0  501  0.21176177299E+03  0.27221313551E+02 -0.56580725018E+02  0.27994539977E+03  0.17200000000E+03 0. -1.
</event>
<event>
 4    1  0.3191769E-002  0.2479256E+03  0.7818608E-02  0.1114623E+00
         -2   -1    0    0    0  501 -0.00000000000E+00  0.00000000000E+00  0.17455423956E+03  0.17455423956E+03  0.00000000000E+00 0.  1.
          2   -1    0    0  502    0  0.00000000000E+00 -0.00000000000E+00 -0.37214885346E+03  0.37214885346E+03  0.00000000000E+00 0. -1.
          6    1    1    2  502    0 -0.10423454747E+03  0.14497683614E+03 -0.16218421038E+03  0.29626144197E+03  0.17200000000E+03 0.  1.
         -6    1    1    2    0  501  0.10423454747E+03 -0.14497683614E+03 -0.35410403517E+02  0.25044165105E+03  0.17200000000E+03 0.  1.
</event>
<event>
 4    1  0.3191769E-002  0.3434689E+03  0.7818608E-02  0.1065328E+00
         -2   -1    0    0    0  501 -0.00000000000E+00  0.00000000000E+00  0.19053122862E+03  0.19053122862E+03  0.00000000000E+00 0.  1.
          2   -1    0    0  502    0  0.00000000000E+00 -0.00000000000E+00 -0.85760881615E+03  0.85760881615E+03  0.00000000000E+00 0. -1.
          6    1    1    2  502    0 -0.29717931695E+03 -0.84450551835E+01 -0.57204441597E+02  0.34819996198E+03  0.17200000000E+03 0. -1.
         -6    1    1    2    0  501  0.29717931695E+03  0.84450551835E+01 -0.60987314593E+03  0.69994008280E+03  0.17200000000E+03 0.  1.
</event>
<event>
 4    1  0.3191769E-002  0.2172682E+03  0.7818608E-02  0.1135936E+00
         -1   -1    0    0    0  501 -0.00000000000E+00  0.00000000000E+00  0.60674424972E+02  0.60674424972E+02  0.00000000000E+00 0.  1.
          1   -1    0    0  502    0  0.00000000000E+00 -0.00000000000E+00 -0.79981642071E+03  0.79981642071E+03  0.00000000000E+00 0. -1.
          6    1    1    2  502    0 -0.81335795671E+02 -0.10490937580E+03 -0.29853412319E+03  0.36922636891E+03  0.17200000000E+03 0.  1.
         -6    1    1    2    0  501  0.81335795671E+02  0.10490937580E+03 -0.44060787254E+03  0.49126447677E+03  0.17200000000E+03 0. -1.
</event>
<event>
 4    1  0.3191769E-002  0.1991198E+03  0.7818608E-02  0.1150484E+00
          3   -1    0    0  502    0  0.00000000000E+00  0.00000000000E+00  0.19664530139E+03  0.19664530139E+03  0.00000000000E+00 0. -1.
         -3   -1    0    0    0  501 -0.00000000000E+00 -0.00000000000E+00 -0.29527018851E+03  0.29527018851E+03  0.00000000000E+00 0.  1.
          6    1    1    2  502    0 -0.46323839692E+02 -0.88987664386E+02  0.89201129325E+02  0.21818694739E+03  0.17200000000E+03 0. -1.
         -6    1    1    2    0  501  0.46323839692E+02  0.88987664386E+02 -0.18782601644E+03  0.27372854252E+03  0.17200000000E+03 0.  1.
</event>
<event>
 4    1  0.3191769E-002  0.1738622E+03  0.7818608E-02  0.1173879E+00
          2   -1    0    0  502    0  0.00000000000E+00  0.00000000000E+00  0.81356946938E+03  0.81356946938E+03  0.00000000000E+00 0. -1.
         -2   -1    0    0    0  501 -0.00000000000E+00 -0.00000000000E+00 -0.37169030354E+02  0.37169030354E+02  0.00000000000E+00 0.  1.
          6    1    1    2  502    0  0.22148331076E+02  0.12390052694E+02  0.37989552571E+03  0.41779022539E+03  0.17200000000E+03 0. -1.
         -6    1    1    2    0  501 -0.22148331076E+02 -0.12390052694E+02  0.39650491332E+03  0.43294827435E+03  0.17200000000E+03 0.  1.
</event>
<event>
 4    1  0.3191769E-002  0.2852515E+03  0.7818608E-02  0.1092855E+00
         -2   -1    0    0    0  501 -0.00000000000E+00  0.00000000000E+00  0.40080029658E+03  0.40080029658E+03  0.00000000000E+00 0.  1.
          2   -1    0    0  502    0  0.00000000000E+00 -0.00000000000E+00 -0.84346478139E+03  0.84346478139E+03  0.00000000000E+00 0. -1.
          6    1    1    2  502    0 -0.90967643204E+02  0.20858882518E+03 -0.76344800275E+03  0.81499770736E+03  0.17200000000E+03 0. -1.
         -6    1    1    2    0  501  0.90967643204E+02 -0.20858882518E+03  0.32078351793E+03  0.42926737061E+03  0.17200000000E+03 0.  1.
</event>
<event>
 4    1  0.3191769E-002  0.2495252E+03  0.7818608E-02  0.1113605E+00
         -2   -1    0    0    0  501 -0.00000000000E+00  0.00000000000E+00  0.24424271729E+02  0.24424271729E+02  0.00000000000E+00 0.  1.
          2   -1    0    0  502    0  0.00000000000E+00 -0.00000000000E+00 -0.27965975440E+04  0.27965975440E+04  0.00000000000E+00 0. -1.
          6    1    1    2  502    0 -0.57232635672E+02 -0.17147373824E+03 -0.18055967927E+04  0.18227568667E+04  0.17200000000E+03 0. -1.
         -6    1    1    2    0  501  0.57232635672E+02  0.17147373824E+03 -0.96657647963E+03  0.99826494903E+03  0.17200000000E+03 0.  1.
</event>
<event>
 4    1  0.3191769E-002  0.4046965E+03  0.7818608E-02  0.1042165E+00
         -1   -1    0    0    0  501 -0.00000000000E+00  0.00000000000E+00  0.37480635802E+03  0.37480635802E+03  0.00000000000E+00 0.  1.
          1   -1    0    0  502    0  0.00000000000E+00 -0.00000000000E+00 -0.91100933713E+03  0.91100933713E+03  0.00000000000E+00 0. -1.
          6    1    1    2  502    0 -0.28574875001E+03  0.22922237074E+03 -0.73186264628E+03  0.83630268229E+03  0.17200000000E+03 0. -1.
         -6    1    1    2    0  501  0.28574875001E+03 -0.22922237074E+03  0.19565966716E+03  0.44951301286E+03  0.17200000000E+03 0.  1.
</event>
<event>
 4    1  0.3191769E-002  0.1791701E+03  0.7818608E-02  0.1168609E+00
         -3   -1    0    0    0  501 -0.00000000000E+00  0.00000000000E+00  0.10487231682E+04  0.10487231682E+04  0.00000000000E+00 0.  1.
          3   -1    0    0  502    0  0.00000000000E+00 -0.00000000000E+00 -0.43048794552E+02  0.43048794552E+02  0.00000000000E+00 0. -1.
          6    1    1    2  502    0 -0.44598393405E+01  0.49980165552E+02  0.20940860199E+03  0.27559729625E+03  0.17200000000E+03 0. -1.
         -6    1    1    2    0  501  0.44598393405E+01 -0.49980165552E+02  0.79626577161E+03  0.81617466645E+03  0.17200000000E+03 0.  1.
</event>
<event>
 4    1  0.3191769E-002  0.1850513E+03  0.7818608E-02  0.1163002E+00
         -1   -1    0    0    0  501 -0.00000000000E+00  0.00000000000E+00  0.15039761866E+03  0.15039761866E+03  0.00000000000E+00 0.  1.
          1   -1    0    0  502    0  0.00000000000E+00 -0.00000000000E+00 -0.30093374940E+03  0.30093374940E+03  0.00000000000E+00 0. -1.
          6    1    1    2  502    0  0.66669996181E+02 -0.14665688727E+02 -0.18659919104E+03  0.26279883735E+03  0.17200000000E+03 0. -1.
         -6    1    1    2    0  501 -0.66669996181E+02  0.14665688727E+02  0.36063060301E+02  0.18853253071E+03  0.17200000000E+03 0.  1.
</event>
<event>
 4    1  0.3191769E-002  0.2101049E+03  0.7818608E-02  0.1141483E+00
          2   -1    0    0  502    0  0.00000000000E+00  0.00000000000E+00  0.33107272107E+03  0.33107272107E+03  0.00000000000E+00 0. -1.
         -2   -1    0    0    0  501 -0.00000000000E+00 -0.00000000000E+00 -0.13872923578E+03  0.13872923578E+03  0.00000000000E+00 0.  1.
          6    1    1    2  502    0 -0.57234347142E+02  0.10622763591E+03  0.14248496559E+03  0.25386225900E+03  0.17200000000E+03 0.  1.
         -6    1    1    2    0  501  0.57234347142E+02 -0.10622763591E+03  0.49858519697E+02  0.21593969786E+03  0.17200000000E+03 0.  1.
</event>
<event>
 4    1  0.3191769E-002  0.2670992E+03  0.7818608E-02  0.1102951E+00
         -1   -1    0    0    0  501 -0.00000000000E+00  0.00000000000E+00  0.77052391368E+03  0.77052391368E+03  0.00000000000E+00 0.  1.
          1   -1    0    0  502    0  0.00000000000E+00 -0.00000000000E+00 -0.15228339611E+03  0.15228339611E+03  0.00000000000E+00 0. -1.
          6    1    1    2  502    0 -0.19781144001E+03 -0.51270268741E+02  0.20237456684E+02  0.26786481835E+03  0.17200000000E+03 0. -1.
         -6    1    1    2    0  501  0.19781144001E+03  0.51270268741E+02  0.59800306089E+03  0.65494249144E+03  0.17200000000E+03 0.  1.
</event>
<event>
 4    1  0.3191769E-002  0.2674748E+03  0.7818608E-02  0.1102734E+00
         -2   -1    0    0    0  501 -0.00000000000E+00  0.00000000000E+00  0.20232796423E+03  0.20232796423E+03  0.00000000000E+00 0.  1.
          2   -1    0    0  502    0  0.00000000000E+00 -0.00000000000E+00 -0.35360305342E+03  0.35360305342E+03  0.00000000000E+00 0. -1.
          6    1    1    2  502    0  0.12823282777E+03 -0.15973442997E+03 -0.74577897767E+02  0.27767716700E+03  0.17200000000E+03 0.  1.
         -6    1    1    2    0  501 -0.12823282777E+03  0.15973442997E+03 -0.76697191425E+02  0.27825385066E+03  0.17200000000E+03 0.  1.
</event>
<event>
 4    1  0.3191769E-002  0.2145627E+03  0.7818608E-02  0.1138003E+00
          2   -1    0    0  502    0  0.00000000000E+00  0.00000000000E+00  0.15524531157E+04  0.15524531157E+04  0.00000000000E+00 0. -1.
         -2   -1    0    0    0  501 -0.00000000000E+00 -0.00000000000E+00 -0.62469838534E+02  0.62469838534E+02  0.00000000000E+00 0.  1.
          6    1    1    2  502    0  0.14812969941E+02  0.12741170481E+03  0.15976336961E+03  0.26750981453E+03  0.17200000000E+03 0.  1.
         -6    1    1    2    0  501 -0.14812969941E+02 -0.12741170481E+03  0.13302199076E+04  0.13474131397E+04  0.17200000000E+03 0. -1.
</event>
<event>
 4    1  0.3191769E-002  0.1960018E+03  0.7818608E-02  0.1153157E+00
          1   -1    0    0  502    0  0.00000000000E+00  0.00000000000E+00  0.12728818038E+04  0.12728818038E+04  0.00000000000E+00 0. -1.
         -1   -1    0    0    0  501 -0.00000000000E+00 -0.00000000000E+00 -0.30203245418E+02  0.30203245418E+02  0.00000000000E+00 0.  1.
          6    1    1    2  502    0 -0.24084704825E+02 -0.90844046212E+02  0.63906263826E+03  0.66844429039E+03  0.17200000000E+03 0. -1.
         -6    1    1    2    0  501  0.24084704825E+02  0.90844046212E+02  0.60361592012E+03  0.63464075882E+03  0.17200000000E+03 0. -1.
</event>
<event>
 4    1  0.3191769E-002  0.1777470E+03  0.7818608E-02  0.1170002E+00
          2   -1    0    0  502    0  0.00000000000E+00  0.00000000000E+00  0.10721819445E+03  0.10721819445E+03  0.00000000000E+00 0. -1.
         -2   -1    0    0    0  501 -0.00000000000E+00 -0.00000000000E+00 -0.33528326149E+03  0.33528326149E+03  0.00000000000E+00 0.  1.
          6    1    1    2  502    0  0.33959896184E+02 -0.29269588824E+02 -0.37028618779E+02  0.18156294222E+03  0.17200000000E+03 0. -1.
         -6    1    1    2    0  501 -0.33959896184E+02  0.29269588824E+02 -0.19103644826E+03  0.26093851372E+03  0.17200000000E+03 0.  1.
</event>
<event>
 4    1  0.3191769E-002  0.2543937E+03  0.7818608E-02  0.1110559E+00
         -2   -1    0    0    0  501 -0.00000000000E+00  0.00000000000E+00  0.10997291924E+03  0.10997291924E+03  0.00000000000E+00 0.  1.
          2   -1    0    0  502    0  0.00000000000E+00 -0.00000000000E+00 -0.60831695752E+03  0.60831695752E+03  0.00000000000E+00 0. -1.
          6    1    1    2  502    0  0.12601511634E+03  0.13875279462E+03 -0.31403748982E+03  0.40414810723E+03  0.17200000000E+03 0. -1.
         -6    1    1    2    0  501 -0.12601511634E+03 -0.13875279462E+03 -0.18430654845E+03  0.31414176953E+03  0.17200000000E+03 0.  1.
</event>
<event>
 4    1  0.3191769E-002  0.2978066E+03  0.7818608E-02  0.1086342E+00
          3   -1    0    0  502    0  0.00000000000E+00  0.00000000000E+00  0.75586413045E+03  0.75586413045E+03  0.00000000000E+00 0. -1.
         -3   -1    0    0    0  501 -0.00000000000E+00 -0.00000000000E+00 -0.15957980471E+03  0.15957980471E+03  0.00000000000E+00 0.  1.
          6    1    1    2  502    0 -0.24064959489E+03  0.34533123425E+02  0.53364883180E+03  0.61112178804E+03  0.17200000000E+03 0. -1.
         -6    1    1    2    0  501  0.24064959489E+03 -0.34533123425E+02  0.62635493937E+02  0.30432214713E+03  0.17200000000E+03 0.  1.
</event>
<event>
 4    1  0.3191769E-002  0.3679822E+03  0.7818608E-02  0.1055467E+00
         -2   -1    0    0    0  501 -0.00000000000E+00  0.00000000000E+00  0.37469681266E+02  0.37469681266E+02  0.00000000000E+00 0.  1.
          2   -1    0    0  502    0  0.00000000000E+00 -0.00000000000E+00 -0.36299863591E+04  0.36299863591E+04  0.00000000000E+00 0. -1.
          6    1    1    2  502    0 -0.18190837694E+03 -0.26969662662E+03 -0.16741114378E+04  0.17140770210E+04  0.17200000000E+03 0. -1.
         -6    1    1    2    0  501  0.18190837694E+03  0.26969662662E+03 -0.19184052401E+04  0.19533790193E+04  0.17200000000E+03 0.  1.
</event>
<event>
 4    1  0.3191769E-002  0.4507145E+03  0.7818608E-02  0.1027509E+00
          1   -1    0    0  502    0  0.00000000000E+00  0.00000000000E+00  0.51694854598E+03  0.51694854598E+03  0.00000000000E+00 0. -1.
         -1   -1    0    0    0  501 -0.00000000000E+00 -0.00000000000E+00 -0.44824391478E+03  0.44824391478E+03  0.00000000000E+00 0.  1.
          6    1    1    2  502    0  0.77321186009E+02 -0.40936657992E+03  0.20382504058E+03  0.49465969082E+03  0.17200000000E+03 0. -1.
         -6    1    1    2    0  501 -0.77321186009E+02  0.40936657992E+03 -0.13512040938E+03  0.47053276994E+03  0.17200000000E+03 0.  1.
</event>
<event>
 4    1  0.3191769E-002  0.1955617E+03  0.7818608E-02  0.1153539E+00
         -2   -1    0    0    0  501 -0.00000000000E+00  0.00000000000E+00  0.22928386279E+02  0.22928386279E+02  0.00000000000E+00 0.  1.
          2   -1    0    0  502    0  0.00000000000E+00 -0.00000000000E+00 -0.17874570929E+04  0.17874570929E+04  0.00000000000E+00 0. -1.
          6    1    1    2  502    0 -0.70488575150E+02  0.60759796145E+02 -0.11162782281E+04  0.11332790806E+04  0.17200000000E+03 0. -1.
         -6    1    1    2    0  501  0.70488575150E+02 -0.60759796145E+02 -0.64825047845E+03  0.67710639848E+03  0.17200000000E+03 0.  1.
</event>
<event>
 4    1  0.3191769E-002  0.1742556E+03  0.7818608E-02  0.1173481E+00
         -2   -1    0    0    0  501 -0.00000000000E+00  0.00000000000E+00  0.11309634956E+03  0.11309634956E+03  0.00000000000E+00 0.  1.
          2   -1    0    0  502    0  0.00000000000E+00 -0.00000000000E+00 -0.41002327909E+03  0.41002327909E+03  0.00000000000E+00 0. -1.
          6    1    1    2  502    0  0.96044112697E+01  0.26244352415E+02 -0.30213702129E+03  0.34878616713E+03  0.17200000000E+03 0. -1.
         -6    1    1    2    0  501 -0.96044112697E+01 -0.26244352415E+02  0.52100917575E+01  0.17433346152E+03  0.17200000000E+03 0.  1.
</event>
<event>
 4    1  0.3191769E-002  0.2538475E+03  0.7818608E-02  0.1110897E+00
         -2   -1    0    0    0  501 -0.00000000000E+00  0.00000000000E+00  0.88874053972E+02  0.88874053972E+02  0.00000000000E+00 0.  1.
          2   -1    0    0  502    0  0.00000000000E+00 -0.00000000000E+00 -0.10927445604E+04  0.10927445604E+04  0.00000000000E+00 0. -1.
          6    1    1    2  502    0  0.17193510910E+03 -0.72752124494E+02 -0.84464685737E+03  0.88196761109E+03  0.17200000000E+03 0. -1.
         -6    1    1    2    0  501 -0.17193510910E+03  0.72752124494E+02 -0.15922364911E+03  0.29965100333E+03  0.17200000000E+03 0.  1.
</event>
<event>
 4    1  0.3191769E-002  0.1940700E+03  0.7818608E-02  0.1154841E+00
         -1   -1    0    0    0  501 -0.00000000000E+00  0.00000000000E+00  0.57771811603E+02  0.57771811603E+02  0.00000000000E+00 0.  1.
          1   -1    0    0  502    0  0.00000000000E+00 -0.00000000000E+00 -0.79323002475E+03  0.79323002475E+03  0.00000000000E+00 0. -1.
          6    1    1    2  502    0  0.30624236463E+02  0.84506444795E+02 -0.54731486391E+03  0.58070366223E+03  0.17200000000E+03 0. -1.
         -6    1    1    2    0  501 -0.30624236463E+02 -0.84506444795E+02 -0.18814334923E+03  0.27029817412E+03  0.17200000000E+03 0.  1.
</event>
<event>
 4    1  0.3191769E-002  0.2489405E+03  0.7818608E-02  0.1113976E+00
         -1   -1    0    0    0  501 -0.00000000000E+00  0.00000000000E+00  0.11479024914E+04  0.11479024914E+04  0.00000000000E+00 0.  1.
          1   -1    0    0  502    0  0.00000000000E+00 -0.00000000000E+00 -0.61397877442E+02  0.61397877442E+02  0.00000000000E+00 0. -1.
          6    1    1    2  502    0  0.17986857786E+03 -0.58878898539E+01  0.33317771026E+03  0.41590715210E+03  0.17200000000E+03 0. -1.
         -6    1    1    2    0  501 -0.17986857786E+03  0.58878898539E+01  0.75332690372E+03  0.79339321677E+03  0.17200000000E+03 0.  1.
</event>
<event>
 4    1  0.3191769E-002  0.1858875E+03  0.7818608E-02  0.1162224E+00
         -1   -1    0    0    0  501 -0.00000000000E+00  0.00000000000E+00  0.18943113345E+02  0.18943113345E+02  0.00000000000E+00 0.  1.
          1   -1    0    0  502    0  0.00000000000E+00 -0.00000000000E+00 -0.18465040149E+04  0.18465040149E+04  0.00000000000E+00 0. -1.
          6    1    1    2  502    0 -0.69759405556E+02  0.10187422463E+02 -0.10165176825E+04  0.10333742579E+04  0.17200000000E+03 0. -1.
         -6    1    1    2    0  501  0.69759405556E+02 -0.10187422463E+02 -0.81104321907E+03  0.83207287027E+03  0.17200000000E+03 0. -1.
</event>
<event>
 4    1  0.3191769E-002  0.2017819E+03  0.7818608E-02  0.1148244E+00
         -1   -1    0    0    0  501 -0.00000000000E+00  0.00000000000E+00  0.16574089998E+03  0.16574089998E+03  0.00000000000E+00 0.  1.
          1   -1    0    0  502    0  0.00000000000E+00 -0.00000000000E+00 -0.49503909796E+03  0.49503909796E+03  0.00000000000E+00 0. -1.
          6    1    1    2  502    0  0.17859193725E+02 -0.10398552723E+03  0.69847745650E+02  0.21352903373E+03  0.17200000000E+03 0.  1.
         -6    1    1    2    0  501 -0.17859193725E+02  0.10398552723E+03 -0.39914594363E+03  0.44725096421E+03  0.17200000000E+03 0. -1.
</event>
<event>
 4    1  0.3191769E-002  0.2336156E+03  0.7818608E-02  0.1124120E+00
         -2   -1    0    0    0  501 -0.00000000000E+00  0.00000000000E+00  0.30030518124E+03  0.30030518124E+03  0.00000000000E+00 0.  1.
          2   -1    0    0  502    0  0.00000000000E+00 -0.00000000000E+00 -0.32824091186E+03  0.32824091186E+03  0.00000000000E+00 0. -1.
          6    1    1    2  502    0 -0.82431842269E+01  0.15787436131E+03 -0.22392801082E+03  0.32360472505E+03  0.17200000000E+03 0. -1.
         -6    1    1    2    0  501  0.82431842269E+01 -0.15787436131E+03  0.19599228021E+03  0.30494136805E+03  0.17200000000E+03 0.  1.
</event>
<event>
 4    1  0.3191769E-002  0.4859718E+03  0.7818608E-02  0.1017507E+00
         -2   -1    0    0    0  501 -0.00000000000E+00  0.00000000000E+00  0.20847684838E+03  0.20847684838E+03  0.00000000000E+00 0.  1.
          2   -1    0    0  502    0  0.00000000000E+00 -0.00000000000E+00 -0.11536744054E+04  0.11536744054E+04  0.00000000000E+00 0. -1.
          6    1    1    2  502    0  0.31087124433E+03  0.33157748290E+03 -0.56414954359E+03  0.74460275668E+03  0.17200000000E+03 0. -1.
         -6    1    1    2    0  501 -0.31087124433E+03 -0.33157748290E+03 -0.38104801339E+03  0.61754849706E+03  0.17200000000E+03 0.  1.
</event>
<event>
 4    1  0.3191769E-002  0.8951531E+03  0.7818608E-02  0.9431661E-01
         -2   -1    0    0    0  501 -0.00000000000E+00  0.00000000000E+00  0.85862198239E+03  0.85862198239E+03  0.00000000000E+00 0.  1.
          2   -1    0    0  502    0  0.00000000000E+00 -0.00000000000E+00 -0.10371812499E+04  0.10371812499E+04  0.00000000000E+00 0. -1.
          6    1    1    2  502    0 -0.59029070370E+03 -0.65059352192E+03 -0.38935693580E+03  0.97616487803E+03  0.17200000000E+03 0. -1.
         -6    1    1    2    0  501  0.59029070370E+03  0.65059352192E+03  0.21079766830E+03  0.91963835425E+03  0.17200000000E+03 0.  1.
</event>
<event>
 4    1  0.3191769E-002  0.2789870E+03  0.7818608E-02  0.1096244E+00
          1   -1    0    0  502    0  0.00000000000E+00  0.00000000000E+00  0.24344304116E+04  0.24344304116E+04  0.00000000000E+00 0. -1.
         -1   -1    0    0    0  501 -0.00000000000E+00 -0.00000000000E+00 -0.33916053311E+02  0.33916053311E+02  0.00000000000E+00 0.  1.
          6    1    1    2  502    0  0.21476227267E+03  0.46118522710E+02  0.90478200166E+03  0.94681794576E+03  0.17200000000E+03 0.  1.
         -6    1    1    2    0  501 -0.21476227267E+03 -0.46118522710E+02  0.14957323566E+04  0.15215285191E+04  0.17200000000E+03 0.  1.
</event>
<event>
 4    1  0.3191769E-002  0.2177438E+03  0.7818608E-02  0.1135576E+00
          2   -1    0    0  502    0  0.00000000000E+00  0.00000000000E+00  0.54121126259E+03  0.54121126259E+03  0.00000000000E+00 0. -1.
         -2   -1    0    0    0  501 -0.00000000000E+00 -0.00000000000E+00 -0.96866079638E+02  0.96866079638E+02  0.00000000000E+00 0.  1.
          6    1    1    2  502    0 -0.13311444227E+03 -0.10436017613E+02  0.32082499257E+03  0.38773836676E+03  0.17200000000E+03 0.  1.
         -6    1    1    2    0  501  0.13311444227E+03  0.10436017613E+02  0.12352019038E+03  0.25033897546E+03  0.17200000000E+03 0.  1.
</event>
<event>
 4    1  0.3191769E-002  0.2097169E+03  0.7818608E-02  0.1141790E+00
         -1   -1    0    0    0  501 -0.00000000000E+00  0.00000000000E+00  0.93152536612E+02  0.93152536612E+02  0.00000000000E+00 0.  1.
          1   -1    0    0  502    0  0.00000000000E+00 -0.00000000000E+00 -0.26450230163E+04  0.26450230163E+04  0.00000000000E+00 0. -1.
          6    1    1    2  502    0  0.25017736538E+02  0.11735120599E+03 -0.25168289198E+04  0.25255512278E+04  0.17200000000E+03 0. -1.
         -6    1    1    2    0  501 -0.25017736538E+02 -0.11735120599E+03 -0.35041559825E+02  0.21262432505E+03  0.17200000000E+03 0.  1.
</event>
<event>
 4    1  0.3191769E-002  0.2414833E+03  0.7818608E-02  0.1118809E+00
         -2   -1    0    0    0  501 -0.00000000000E+00  0.00000000000E+00  0.10553908438E+04  0.10553908438E+04  0.00000000000E+00 0.  1.
          2   -1    0    0  502    0  0.00000000000E+00 -0.00000000000E+00 -0.67731047783E+03  0.67731047783E+03  0.00000000000E+00 0. -1.
          6    1    1    2  502    0  0.15984337873E+03  0.56393853557E+02 -0.64122122671E+03  0.68518525526E+03  0.17200000000E+03 0. -1.
         -6    1    1    2    0  501 -0.15984337873E+03 -0.56393853557E+02  0.10193015927E+04  0.10475160664E+04  0.17200000000E+03 0.  1.
</event>
<event>
 4    1  0.3191769E-002  0.1980733E+03  0.7818608E-02  0.1151375E+00
         -1   -1    0    0    0  501 -0.00000000000E+00  0.00000000000E+00  0.48725013079E+02  0.48725013079E+02  0.00000000000E+00 0.  1.
          1   -1    0    0  502    0  0.00000000000E+00 -0.00000000000E+00 -0.80725765132E+03  0.80725765132E+03  0.00000000000E+00 0. -1.
          6    1    1    2  502    0  0.90528798409E+02 -0.38125763253E+02 -0.35762133895E+03  0.40881054198E+03  0.17200000000E+03 0. -1.
         -6    1    1    2    0  501 -0.90528798409E+02  0.38125763253E+02 -0.40091129929E+03  0.44717212241E+03  0.17200000000E+03 0.  1.
</event>
<event>
 4    1  0.3191769E-002  0.2799537E+03  0.7818608E-02  0.1095714E+00
         -1   -1    0    0    0  501 -0.00000000000E+00  0.00000000000E+00  0.17784551753E+03  0.17784551753E+03  0.00000000000E+00 0.  1.
          1   -1    0    0  502    0  0.00000000000E+00 -0.00000000000E+00 -0.44093786997E+03  0.44093786997E+03  0.00000000000E+00 0. -1.
          6    1    1    2  502    0  0.87648125410E+02  0.20275080382E+03 -0.12415603029E+03  0.30624957501E+03  0.17200000000E+03 0. -1.
         -6    1    1    2    0  501 -0.87648125410E+02 -0.20275080382E+03 -0.13893632215E+03  0.31253381249E+03  0.17200000000E+03 0.  1.
</event>
<event>
 4    1  0.3191769E-002  0.1878574E+03  0.7818608E-02  0.1160408E+00
          2   -1    0    0  502    0  0.00000000000E+00  0.00000000000E+00  0.14976528746E+04  0.14976528746E+04  0.00000000000E+00 0. -1.
         -2   -1    0    0    0  501 -0.00000000000E+00 -0.00000000000E+00 -0.27450335209E+02  0.27450335209E+02  0.00000000000E+00 0.  1.
          6    1    1    2  502    0  0.41813970766E+01  0.75424961870E+02  0.44817116676E+03  0.48595041277E+03  0.17200000000E+03 0.  1.
         -6    1    1    2    0  501 -0.41813970766E+01 -0.75424961870E+02  0.10220313726E+04  0.10391527970E+04  0.17200000000E+03 0.  1.
</event>
<event>
 4    1  0.3191769E-002  0.2073680E+03  0.7818608E-02  0.1143667E+00
          1   -1    0    0  502    0  0.00000000000E+00  0.00000000000E+00  0.85322728077E+03  0.85322728077E+03  0.00000000000E+00 0. -1.
         -1   -1    0    0    0  501 -0.00000000000E+00 -0.00000000000E+00 -0.76678493853E+02  0.76678493853E+02  0.00000000000E+00 0.  1.
          6    1    1    2  502    0 -0.10680358911E+03 -0.44838324702E+02  0.11607712885E+03  0.23764549617E+03  0.17200000000E+03 0.  1.
         -6    1    1    2    0  501  0.10680358911E+03  0.44838324702E+02  0.66047165806E+03  0.69226027845E+03  0.17200000000E+03 0. -1.
</event>
<event>
 4    1  0.3191769E-002  0.5741697E+03  0.7818608E-02  0.9960494E-01
         -2   -1    0    0    0  501 -0.00000000000E+00  0.00000000000E+00  0.28095742697E+03  0.28095742697E+03  0.00000000000E+00 0.  1.
          2   -1    0    0  502    0  0.00000000000E+00 -0.00000000000E+00 -0.16594844066E+04  0.16594844066E+04  0.00000000000E+00 0. -1.
          6    1    1    2  502    0 -0.18353607785E+03  0.51614077308E+03 -0.12143698661E+04  0.13432665265E+04  0.17200000000E+03 0. -1.
         -6    1    1    2    0  501  0.18353607785E+03 -0.51614077308E+03 -0.16415711358E+03  0.59717530713E+03  0.17200000000E+03 0.  1.
</event>
<event>
 4    1  0.3191769E-002  0.2516912E+03  0.7818608E-02  0.1112241E+00
         -1   -1    0    0    0  501 -0.00000000000E+00  0.00000000000E+00  0.15117058047E+03  0.15117058047E+03  0.00000000000E+00 0.  1.
          1   -1    0    0  502    0  0.00000000000E+00 -0.00000000000E+00 -0.42000449425E+03  0.42000449425E+03  0.00000000000E+00 0. -1.
          6    1    1    2  502    0 -0.17915467822E+03  0.40842151137E+02 -0.14801020502E+03  0.29198544626E+03  0.17200000000E+03 0. -1.
         -6    1    1    2    0  501  0.17915467822E+03 -0.40842151137E+02 -0.12082370877E+03  0.27918962846E+03  0.17200000000E+03 0.  1.
</event>
<event>
 4    1  0.3191769E-002  0.2188905E+03  0.7818608E-02  0.1134713E+00
          1   -1    0    0  502    0  0.00000000000E+00  0.00000000000E+00  0.10921540228E+04  0.10921540228E+04  0.00000000000E+00 0. -1.
         -1   -1    0    0    0  501 -0.00000000000E+00 -0.00000000000E+00 -0.43984049482E+02  0.43984049482E+02  0.00000000000E+00 0.  1.
          6    1    1    2  502    0  0.11177913990E+03  0.76383756333E+02  0.55298187159E+03  0.59472851340E+03  0.17200000000E+03 0. -1.
         -6    1    1    2    0  501 -0.11177913990E+03 -0.76383756333E+02  0.49518810172E+03  0.54140955887E+03  0.17200000000E+03 0.  1.
</event>
<event>
 4    1  0.3191769E-002  0.2009057E+03  0.7818608E-02  0.1148977E+00
          2   -1    0    0  502    0  0.00000000000E+00  0.00000000000E+00  0.87830882930E+03  0.87830882930E+03  0.00000000000E+00 0. -1.
         -2   -1    0    0    0  501 -0.00000000000E+00 -0.00000000000E+00 -0.51598660341E+02  0.51598660341E+02  0.00000000000E+00 0.  1.
          6    1    1    2  502    0  0.63654397902E+02  0.82019565428E+02  0.25959165995E+03  0.32825435474E+03  0.17200000000E+03 0.  1.
         -6    1    1    2    0  501 -0.63654397902E+02 -0.82019565428E+02  0.56711850900E+03  0.60165313490E+03  0.17200000000E+03 0. -1.
</event>
<event>
 4    1  0.3191769E-002  0.1798339E+03  0.7818608E-02  0.1167964E+00
         -2   -1    0    0    0  501 -0.00000000000E+00  0.00000000000E+00  0.17143416936E+03  0.17143416936E+03  0.00000000000E+00 0.  1.
          2   -1    0    0  502    0  0.00000000000E+00 -0.00000000000E+00 -0.16031330156E+04  0.16031330156E+04  0.00000000000E+00 0. -1.
          6    1    1    2  502    0  0.48478017180E+02  0.20152149604E+02 -0.15492950693E+04  0.15596972267E+04  0.17200000000E+03 0. -1.
         -6    1    1    2    0  501 -0.48478017180E+02 -0.20152149604E+02  0.11759622305E+03  0.21486995825E+03  0.17200000000E+03 0.  1.
</event>
<event>
 4    1  0.3191769E-002  0.2119481E+03  0.7818608E-02  0.1140033E+00
         -1   -1    0    0    0  501 -0.00000000000E+00  0.00000000000E+00  0.12227191463E+03  0.12227191463E+03  0.00000000000E+00 0.  1.
          1   -1    0    0  502    0  0.00000000000E+00 -0.00000000000E+00 -0.38808311015E+03  0.38808311015E+03  0.00000000000E+00 0. -1.
          6    1    1    2  502    0 -0.29678274405E+02  0.12023808587E+03 -0.73987542274E+02  0.22449087660E+03  0.17200000000E+03 0.  1.
         -6    1    1    2    0  501  0.29678274405E+02 -0.12023808587E+03 -0.19182365325E+03  0.28586414817E+03  0.17200000000E+03 0. -1.
</event>
<event>
 4    1  0.3191769E-002  0.2367871E+03  0.7818608E-02  0.1121952E+00
          1   -1    0    0  502    0  0.00000000000E+00  0.00000000000E+00  0.78689231293E+03  0.78689231293E+03  0.00000000000E+00 0. -1.
         -1   -1    0    0    0  501 -0.00000000000E+00 -0.00000000000E+00 -0.72728472156E+02  0.72728472156E+02  0.00000000000E+00 0.  1.
          6    1    1    2  502    0 -0.14472024847E+03  0.74432497628E+02  0.29585469222E+03  0.37894346007E+03  0.17200000000E+03 0.  1.
         -6    1    1    2    0  501  0.14472024847E+03 -0.74432497628E+02  0.41830914856E+03  0.48067732502E+03  0.17200000000E+03 0.  1.
</event>
<event>
 4    1  0.3191769E-002  0.1746045E+03  0.7818608E-02  0.1173129E+00
          4   -1    0    0  502    0  0.00000000000E+00  0.00000000000E+00  0.77711413617E+03  0.77711413617E+03  0.00000000000E+00 0. -1.
         -4   -1    0    0    0  501 -0.00000000000E+00 -0.00000000000E+00 -0.56577825853E+02  0.56577825853E+02  0.00000000000E+00 0.  1.
          6    1    1    2  502    0  0.11646841806E+02 -0.27696548037E+02  0.59108420047E+03  0.61633374056E+03  0.17200000000E+03 0. -1.
         -6    1    1    2    0  501 -0.11646841806E+02  0.27696548037E+02  0.12945210985E+03  0.21735822147E+03  0.17200000000E+03 0.  1.
</event>
<event>
 4    1  0.3191769E-002  0.1851123E+03  0.7818608E-02  0.1162945E+00
         -2   -1    0    0    0  501 -0.00000000000E+00  0.00000000000E+00  0.65841563424E+02  0.65841563424E+02  0.00000000000E+00 0.  1.
          2   -1    0    0  502    0  0.00000000000E+00 -0.00000000000E+00 -0.64994006298E+03  0.64994006298E+03  0.00000000000E+00 0. -1.
          6    1    1    2  502    0 -0.39769250702E+02 -0.55686328386E+02 -0.45180241322E+03  0.48825401285E+03  0.17200000000E+03 0. -1.
         -6    1    1    2    0  501  0.39769250702E+02  0.55686328386E+02 -0.13229608633E+03  0.22752761355E+03  0.17200000000E+03 0.  1.
</event>
<event>
 4    1  0.3191769E-002  0.1863837E+03  0.7818608E-02  0.1161764E+00
          1   -1    0    0  502    0  0.00000000000E+00  0.00000000000E+00  0.56717059346E+03  0.56717059346E+03  0.00000000000E+00 0. -1.
         -1   -1    0    0    0  501 -0.00000000000E+00 -0.00000000000E+00 -0.64134531296E+02  0.64134531296E+02  0.00000000000E+00 0.  1.
          6    1    1    2  502    0  0.54888365668E+02 -0.46283375830E+02  0.31846683579E+03  0.36899865726E+03  0.17200000000E+03 0. -1.
         -6    1    1    2    0  501 -0.54888365668E+02  0.46283375830E+02  0.18456922637E+03  0.26230646749E+03  0.17200000000E+03 0.  1.
</event>
<event>
 4    1  0.3191769E-002  0.2107440E+03  0.7818608E-02  0.1140978E+00
         -2   -1    0    0    0  501 -0.00000000000E+00  0.00000000000E+00  0.15982005754E+03  0.15982005754E+03  0.00000000000E+00 0.  1.
          2   -1    0    0  502    0  0.00000000000E+00 -0.00000000000E+00 -0.27791778616E+03  0.27791778616E+03  0.00000000000E+00 0. -1.
          6    1    1    2  502    0 -0.92681216594E+02  0.78988643652E+02 -0.61079366349E+02  0.21941673302E+03  0.17200000000E+03 0.  1.
         -6    1    1    2    0  501  0.92681216594E+02 -0.78988643652E+02 -0.57018362274E+02  0.21832111069E+03  0.17200000000E+03 0.  1.
</event>
<event>
 4    1  0.3191769E-002  0.6190291E+03  0.7818608E-02  0.9866695E-01
          2   -1    0    0  502    0  0.00000000000E+00  0.00000000000E+00  0.12069265611E+04  0.12069265611E+04  0.00000000000E+00 0. -1.
         -2   -1    0    0    0  501 -0.00000000000E+00 -0.00000000000E+00 -0.38204935588E+03  0.38204935588E+03  0.00000000000E+00 0.  1.
          6    1    1    2  502    0  0.34164612764E+03  0.48671450161E+03  0.85866265283E+02  0.62495607696E+03  0.17200000000E+03 0. -1.
         -6    1    1    2    0  501 -0.34164612764E+03 -0.48671450161E+03  0.73901093993E+03  0.96401984002E+03  0.17200000000E+03 0.  1.
</event>
<event>
 4    1  0.3191769E-002  0.2092237E+03  0.7818608E-02  0.1142182E+00
         -3   -1    0    0    0  501 -0.00000000000E+00  0.00000000000E+00  0.19156161424E+03  0.19156161424E+03  0.00000000000E+00 0.  1.
          3   -1    0    0  502    0  0.00000000000E+00 -0.00000000000E+00 -0.25121107505E+03  0.25121107505E+03  0.00000000000E+00 0. -1.
          6    1    1    2  502    0 -0.10882752495E+03  0.48447011516E+02 -0.96369628982E+02  0.23035114174E+03  0.17200000000E+03 0.  1.
         -6    1    1    2    0  501  0.10882752495E+03 -0.48447011516E+02  0.36720168175E+02  0.21242154755E+03  0.17200000000E+03 0.  1.
</event>
<event>
 4    1  0.3191769E-002  0.2015575E+03  0.7818608E-02  0.1148432E+00
         -2   -1    0    0    0  501 -0.00000000000E+00  0.00000000000E+00  0.34130956611E+02  0.34130956611E+02  0.00000000000E+00 0.  1.
          2   -1    0    0  502    0  0.00000000000E+00 -0.00000000000E+00 -0.12254172629E+04  0.12254172629E+04  0.00000000000E+00 0. -1.
          6    1    1    2  502    0 -0.98991528965E+02  0.35243512567E+02 -0.48900298936E+03  0.52891336869E+03  0.17200000000E+03 0.  1.
         -6    1    1    2    0  501  0.98991528965E+02 -0.35243512567E+02 -0.70228331692E+03  0.73063485080E+03  0.17200000000E+03 0. -1.
</event>
<event>
 4    1  0.3191769E-002  0.3254423E+03  0.7818608E-02  0.1073172E+00
          1   -1    0    0  502    0  0.00000000000E+00  0.00000000000E+00  0.30936776766E+03  0.30936776766E+03  0.00000000000E+00 0. -1.
         -1   -1    0    0    0  501 -0.00000000000E+00 -0.00000000000E+00 -0.40496618802E+03  0.40496618802E+03  0.00000000000E+00 0.  1.
          6    1    1    2  502    0  0.91088932818E+02 -0.26082845647E+03  0.92643194025E+02  0.33837174644E+03  0.17200000000E+03 0. -1.
         -6    1    1    2    0  501 -0.91088932818E+02  0.26082845647E+03 -0.18824161438E+03  0.37596220924E+03  0.17200000000E+03 0.  1.
</event>
<event>
 4    1  0.3191769E-002  0.1917704E+03  0.7818608E-02  0.1156874E+00
          4   -1    0    0  502    0  0.00000000000E+00  0.00000000000E+00  0.25302889850E+03  0.25302889850E+03  0.00000000000E+00 0. -1.
         -4   -1    0    0    0  501 -0.00000000000E+00 -0.00000000000E+00 -0.16547536981E+03  0.16547536981E+03  0.00000000000E+00 0.  1.
          6    1    1    2  502    0 -0.32569135955E+02  0.78301479679E+02  0.11676541012E+03  0.22452178366E+03  0.17200000000E+03 0.  1.
         -6    1    1    2    0  501  0.32569135955E+02 -0.78301479679E+02 -0.29211881423E+02  0.19398248466E+03  0.17200000000E+03 0.  1.
</event>
<event>
 4    1  0.3191769E-002  0.2454787E+03  0.7818608E-02  0.1116196E+00
         -1   -1    0    0    0  501 -0.00000000000E+00  0.00000000000E+00  0.25819219173E+03  0.25819219173E+03  0.00000000000E+00 0.  1.
          1   -1    0    0  502    0  0.00000000000E+00 -0.00000000000E+00 -0.61108220991E+03  0.61108220991E+03  0.00000000000E+00 0. -1.
          6    1    1    2  502    0 -0.15998190548E+03  0.71285203113E+02 -0.51814533094E+03  0.57335362059E+03  0.17200000000E+03 0. -1.
         -6    1    1    2    0  501  0.15998190548E+03 -0.71285203113E+02  0.16525531277E+03  0.29592078106E+03  0.17200000000E+03 0.  1.
</event>
<event>
 4    1  0.3191769E-002  0.2854736E+03  0.7818608E-02  0.1092736E+00
          2   -1    0    0  502    0  0.00000000000E+00  0.00000000000E+00  0.13360172458E+03  0.13360172458E+03  0.00000000000E+00 0. -1.
         -2   -1    0    0    0  501 -0.00000000000E+00 -0.00000000000E+00 -0.73729225105E+03  0.73729225105E+03  0.00000000000E+00 0.  1.
          6    1    1    2  502    0 -0.22724781074E+03 -0.16419796931E+02 -0.12090285092E+03  0.31002044542E+03  0.17200000000E+03 0. -1.
         -6    1    1    2    0  501  0.22724781074E+03  0.16419796931E+02 -0.48278767555E+03  0.56087353021E+03  0.17200000000E+03 0.  1.
</event>
<event>
 4    1  0.3191769E-002  0.4405044E+03  0.7818608E-02  0.1030592E+00
          2   -1    0    0  502    0  0.00000000000E+00  0.00000000000E+00  0.13279709905E+03  0.13279709905E+03  0.00000000000E+00 0. -1.
         -2   -1    0    0    0  501 -0.00000000000E+00 -0.00000000000E+00 -0.16954098139E+04  0.16954098139E+04  0.00000000000E+00 0.  1.
          6    1    1    2  502    0 -0.32598394753E+02 -0.40422456424E+03 -0.44156114913E+03  0.62371500070E+03  0.17200000000E+03 0. -1.
         -6    1    1    2    0  501  0.32598394753E+02  0.40422456424E+03 -0.11210515657E+04  0.12044919122E+04  0.17200000000E+03 0.  1.
</event>
<event>
 4    1  0.3191769E-002  0.4148637E+03  0.7818608E-02  0.1038751E+00
         -1   -1    0    0    0  501 -0.00000000000E+00  0.00000000000E+00  0.34672038973E+03  0.34672038973E+03  0.00000000000E+00 0.  1.
          1   -1    0    0  502    0  0.00000000000E+00 -0.00000000000E+00 -0.62778822111E+03  0.62778822111E+03  0.00000000000E+00 0. -1.
          6    1    1    2  502    0 -0.41804765659E+02 -0.37520694166E+03 -0.36344304902E+03  0.55154577089E+03  0.17200000000E+03 0. -1.
         -6    1    1    2    0  501  0.41804765659E+02  0.37520694166E+03  0.82375217646E+02  0.42296283996E+03  0.17200000000E+03 0.  1.
</event>
<event>
 4    1  0.3191769E-002  0.2450648E+03  0.7818608E-02  0.1116464E+00
          1   -1    0    0  502    0  0.00000000000E+00  0.00000000000E+00  0.76713105448E+03  0.76713105448E+03  0.00000000000E+00 0. -1.
         -1   -1    0    0    0  501 -0.00000000000E+00 -0.00000000000E+00 -0.21336213738E+03  0.21336213738E+03  0.00000000000E+00 0.  1.
          6    1    1    2  502    0  0.95480216457E+02  0.14613791623E+03  0.66695471561E+03  0.71055285163E+03  0.17200000000E+03 0. -1.
         -6    1    1    2    0  501 -0.95480216457E+02 -0.14613791623E+03 -0.11318579851E+03  0.26994034022E+03  0.17200000000E+03 0.  1.
</event>
<event>
 4    1  0.3191769E-002  0.2259182E+03  0.7818608E-02  0.1129546E+00
          1   -1    0    0  502    0  0.00000000000E+00  0.00000000000E+00  0.14600566839E+03  0.14600566839E+03  0.00000000000E+00 0. -1.
         -1   -1    0    0    0  501 -0.00000000000E+00 -0.00000000000E+00 -0.35061328604E+03  0.35061328604E+03  0.00000000000E+00 0.  1.
          6    1    1    2  502    0 -0.14420265633E+03 -0.25702550274E+02 -0.11585661295E+03  0.25389324912E+03  0.17200000000E+03 0. -1.
         -6    1    1    2    0  501  0.14420265633E+03  0.25702550274E+02 -0.88751004702E+02  0.24272570531E+03  0.17200000000E+03 0.  1.
</event>
<event>
 4    1  0.3191769E-002  0.3262918E+03  0.7818608E-02  0.1072790E+00
          2   -1    0    0  502    0  0.00000000000E+00  0.00000000000E+00  0.22283938477E+04  0.22283938477E+04  0.00000000000E+00 0. -1.
         -2   -1    0    0    0  501 -0.00000000000E+00 -0.00000000000E+00 -0.49242516290E+02  0.49242516290E+02  0.00000000000E+00 0.  1.
          6    1    1    2  502    0 -0.25776858116E+03 -0.10216493766E+03  0.89312351531E+03  0.95086062571E+03  0.17200000000E+03 0. -1.
         -6    1    1    2    0  501  0.25776858116E+03  0.10216493766E+03  0.12860278161E+04  0.13267757383E+04  0.17200000000E+03 0.  1.
</event>
<event>
 4    1  0.3191769E-002  0.1900650E+03  0.7818608E-02  0.1158403E+00
         -1   -1    0    0    0  501 -0.00000000000E+00  0.00000000000E+00  0.15793186515E+02  0.15793186515E+02  0.00000000000E+00 0.  1.
          1   -1    0    0  502    0  0.00000000000E+00 -0.00000000000E+00 -0.25745326640E+04  0.25745326640E+04  0.00000000000E+00 0. -1.
          6    1    1    2  502    0 -0.50440763279E+02 -0.63217470985E+02 -0.17119293608E+04  0.17224479253E+04  0.17200000000E+03 0. -1.
         -6    1    1    2    0  501  0.50440763279E+02  0.63217470985E+02 -0.84681011675E+03  0.86787792521E+03  0.17200000000E+03 0.  1.
</event>
<event>
 4    1  0.3191769E-002  0.3665297E+03  0.7818608E-02  0.1056028E+00
          1   -1    0    0  502    0  0.00000000000E+00  0.00000000000E+00  0.21430665292E+04  0.21430665292E+04  0.00000000000E+00 0. -1.
         -1   -1    0    0    0  501 -0.00000000000E+00 -0.00000000000E+00 -0.63098018182E+02  0.63098018182E+02  0.00000000000E+00 0.  1.
          6    1    1    2  502    0 -0.15091831786E+03 -0.28632788454E+03  0.11289329475E+04  0.11869429625E+04  0.17200000000E+03 0. -1.
         -6    1    1    2    0  501  0.15091831786E+03  0.28632788454E+03  0.95103556342E+03  0.10192215848E+04  0.17200000000E+03 0.  1.
</event>
<event>
 4    1  0.3191769E-002  0.1749584E+03  0.7818608E-02  0.1172773E+00
         -2   -1    0    0    0  501 -0.00000000000E+00  0.00000000000E+00  0.23910697798E+03  0.23910697798E+03  0.00000000000E+00 0.  1.
          2   -1    0    0  502    0  0.00000000000E+00 -0.00000000000E+00 -0.15774404485E+03  0.15774404485E+03  0.00000000000E+00 0. -1.
          6    1    1    2  502    0  0.12847275726E+02 -0.29349324443E+02 -0.45452847098E+02  0.18076613800E+03  0.17200000000E+03 0. -1.
         -6    1    1    2    0  501 -0.12847275726E+02  0.29349324443E+02  0.12681578022E+03  0.21608488483E+03  0.17200000000E+03 0.  1.
</event>
<event>
 4    1  0.3191769E-002  0.1871530E+03  0.7818608E-02  0.1161054E+00
          2   -1    0    0  502    0  0.00000000000E+00  0.00000000000E+00  0.28118323060E+02  0.28118323060E+02  0.00000000000E+00 0. -1.
         -2   -1    0    0    0  501 -0.00000000000E+00 -0.00000000000E+00 -0.12548489670E+04  0.12548489670E+04  0.00000000000E+00 0.  1.
          6    1    1    2  502    0  0.52255438661E+02  0.52073181088E+02 -0.55851156977E+03  0.58903431192E+03  0.17200000000E+03 0. -1.
         -6    1    1    2    0  501 -0.52255438661E+02 -0.52073181088E+02 -0.66821907417E+03  0.69393297813E+03  0.17200000000E+03 0.  1.
</event>
<event>
 4    1  0.3191769E-002  0.1910507E+03  0.7818608E-02  0.1157517E+00
          1   -1    0    0  502    0  0.00000000000E+00  0.00000000000E+00  0.37503118742E+03  0.37503118742E+03  0.00000000000E+00 0. -1.
         -1   -1    0    0    0  501 -0.00000000000E+00 -0.00000000000E+00 -0.13161313226E+03  0.13161313226E+03  0.00000000000E+00 0.  1.
          6    1    1    2  502    0  0.16858773761E+02  0.81438119109E+02 -0.75876781069E+01  0.19120135553E+03  0.17200000000E+03 0.  1.
         -6    1    1    2    0  501 -0.16858773761E+02 -0.81438119109E+02  0.25100573327E+03  0.31544296415E+03  0.17200000000E+03 0. -1.
</event>
<event>
 4    1  0.3191769E-002  0.2185720E+03  0.7818608E-02  0.1134952E+00
         -2   -1    0    0    0  501 -0.00000000000E+00  0.00000000000E+00  0.97520364979E+02  0.97520364979E+02  0.00000000000E+00 0.  1.
          2   -1    0    0  502    0  0.00000000000E+00 -0.00000000000E+00 -0.49027905697E+03  0.49027905697E+03  0.00000000000E+00 0. -1.
          6    1    1    2  502    0  0.93066220752E+02 -0.97613591074E+02 -0.18804401200E+03  0.28833016675E+03  0.17200000000E+03 0.  1.
         -6    1    1    2    0  501 -0.93066220752E+02  0.97613591074E+02 -0.20471467998E+03  0.29946925520E+03  0.17200000000E+03 0.  1.
</event>
<event>
 4    1  0.3191769E-002  0.2184522E+03  0.7818608E-02  0.1135042E+00
          3   -1    0    0  502    0  0.00000000000E+00  0.00000000000E+00  0.61362770062E+03  0.61362770062E+03  0.00000000000E+00 0. -1.
         -3   -1    0    0    0  501 -0.00000000000E+00 -0.00000000000E+00 -0.77878414288E+02  0.77878414288E+02  0.00000000000E+00 0.  1.
          6    1    1    2  502    0 -0.39115046385E+02  0.12886966751E+03  0.28081835583E+03  0.35578129100E+03  0.17200000000E+03 0. -1.
         -6    1    1    2    0  501  0.39115046385E+02 -0.12886966751E+03  0.25493093051E+03  0.33572482391E+03  0.17200000000E+03 0.  1.
</event>
<event>
 4    1  0.3191769E-002  0.1832844E+03  0.7818608E-02  0.1164662E+00
          1   -1    0    0  502    0  0.00000000000E+00  0.00000000000E+00  0.78181450140E+03  0.78181450140E+03  0.00000000000E+00 0. -1.
         -1   -1    0    0    0  501 -0.00000000000E+00 -0.00000000000E+00 -0.77876783062E+02  0.77876783062E+02  0.00000000000E+00 0.  1.
          6    1    1    2  502    0 -0.21892042097E+02  0.59412956031E+02  0.63975816070E+03  0.66549505260E+03  0.17200000000E+03 0. -1.
         -6    1    1    2    0  501  0.21892042097E+02 -0.59412956031E+02  0.64179557639E+02  0.19419623186E+03  0.17200000000E+03 0.  1.
</event>
<event>
 4    1  0.3191769E-002  0.1920328E+03  0.7818608E-02  0.1156641E+00
          1   -1    0    0  502    0  0.00000000000E+00  0.00000000000E+00  0.48392407153E+02  0.48392407153E+02  0.00000000000E+00 0. -1.
         -1   -1    0    0    0  501 -0.00000000000E+00 -0.00000000000E+00 -0.10916248614E+04  0.10916248614E+04  0.00000000000E+00 0.  1.
          6    1    1    2  502    0  0.72860305070E+02 -0.44541589868E+02 -0.20840780866E+03  0.28339088199E+03  0.17200000000E+03 0. -1.
         -6    1    1    2    0  501 -0.72860305070E+02  0.44541589868E+02 -0.83482464554E+03  0.85662638652E+03  0.17200000000E+03 0.  1.
</event>
<event>
 4    1  0.3191769E-002  0.2720721E+03  0.7818608E-02  0.1100099E+00
          1   -1    0    0  502    0  0.00000000000E+00  0.00000000000E+00  0.15369103403E+04  0.15369103403E+04  0.00000000000E+00 0. -1.
         -1   -1    0    0    0  501 -0.00000000000E+00 -0.00000000000E+00 -0.28586123800E+03  0.28586123800E+03  0.00000000000E+00 0.  1.
          6    1    1    2  502    0 -0.16443176236E+03  0.13191455532E+03  0.14565933534E+04  0.14817852245E+04  0.17200000000E+03 0. -1.
         -6    1    1    2    0  501  0.16443176236E+03 -0.13191455532E+03 -0.20554425105E+03  0.34098635386E+03  0.17200000000E+03 0.  1.
</event>
<event>
 4    1  0.3191769E-002  0.2365271E+03  0.7818608E-02  0.1122128E+00
         -1   -1    0    0    0  501 -0.00000000000E+00  0.00000000000E+00  0.18232090261E+03  0.18232090261E+03  0.00000000000E+00 0.  1.
          1   -1    0    0  502    0  0.00000000000E+00 -0.00000000000E+00 -0.31149556136E+03  0.31149556136E+03  0.00000000000E+00 0. -1.
          6    1    1    2  502    0  0.15090085548E+03 -0.59916768290E+02 -0.34433000093E+02  0.23902033136E+03  0.17200000000E+03 0. -1.
         -6    1    1    2    0  501 -0.15090085548E+03  0.59916768290E+02 -0.94741658654E+02  0.25479613261E+03  0.17200000000E+03 0.  1.
</event>
<event>
 4    1  0.3191769E-002  0.2890279E+03  0.7818608E-02  0.1090858E+00
         -1   -1    0    0    0  501 -0.00000000000E+00  0.00000000000E+00  0.13876009241E+03  0.13876009241E+03  0.00000000000E+00 0.  1.
          1   -1    0    0  502    0  0.00000000000E+00 -0.00000000000E+00 -0.60800740041E+03  0.60800740041E+03  0.00000000000E+00 0. -1.
          6    1    1    2  502    0  0.19684998269E+03  0.12330119972E+03 -0.19758767499E+03  0.35011139776E+03  0.17200000000E+03 0.  1.
         -6    1    1    2    0  501 -0.19684998269E+03 -0.12330119972E+03 -0.27165963301E+03  0.39665609506E+03  0.17200000000E+03 0.  1.
</event>
<event>
 4    1  0.3191769E-002  0.1818830E+03  0.7818608E-02  0.1165993E+00
          2   -1    0    0  502    0  0.00000000000E+00  0.00000000000E+00  0.30149169615E+04  0.30149169615E+04  0.00000000000E+00 0. -1.
         -2   -1    0    0    0  501 -0.00000000000E+00 -0.00000000000E+00 -0.27971828836E+02  0.27971828836E+02  0.00000000000E+00 0.  1.
          6    1    1    2  502    0  0.48896961134E+02 -0.33264454628E+02  0.30740224761E+03  0.35718003666E+03  0.17200000000E+03 0. -1.
         -6    1    1    2    0  501 -0.48896961134E+02  0.33264454628E+02  0.26795428850E+04  0.26857087536E+04  0.17200000000E+03 0. -1.
</event>
<event>
 4    1  0.3191769E-002  0.3316440E+03  0.7818608E-02  0.1070412E+00
          2   -1    0    0  502    0  0.00000000000E+00  0.00000000000E+00  0.46965812450E+03  0.46965812450E+03  0.00000000000E+00 0. -1.
         -2   -1    0    0    0  501 -0.00000000000E+00 -0.00000000000E+00 -0.25107405124E+03  0.25107405124E+03  0.00000000000E+00 0.  1.
          6    1    1    2  502    0  0.82317969293E+02  0.27134392018E+03  0.20275110486E+03  0.38871040841E+03  0.17200000000E+03 0. -1.
         -6    1    1    2    0  501 -0.82317969293E+02 -0.27134392018E+03  0.15832968402E+02  0.33202176732E+03  0.17200000000E+03 0.  1.
</event>
<event>
 4    1  0.3191769E-002  0.1948835E+03  0.7818608E-02  0.1154129E+00
          2   -1    0    0  502    0  0.00000000000E+00  0.00000000000E+00  0.94810148652E+03  0.94810148652E+03  0.00000000000E+00 0. -1.
         -2   -1    0    0    0  501 -0.00000000000E+00 -0.00000000000E+00 -0.43589091068E+02  0.43589091068E+02  0.00000000000E+00 0.  1.
          6    1    1    2  502    0  0.83657231599E+02 -0.37376869206E+02  0.31113948834E+03  0.36713395914E+03  0.17200000000E+03 0.  1.
         -6    1    1    2    0  501 -0.83657231599E+02  0.37376869206E+02  0.59337290711E+03  0.62455661844E+03  0.17200000000E+03 0. -1.
</event>
<event>
 4    1  0.3191769E-002  0.2242453E+03  0.7818608E-02  0.1130757E+00
          2   -1    0    0  502    0  0.00000000000E+00  0.00000000000E+00  0.70895809236E+03  0.70895809236E+03  0.00000000000E+00 0. -1.
         -2   -1    0    0    0  501 -0.00000000000E+00 -0.00000000000E+00 -0.28995570670E+03  0.28995570670E+03  0.00000000000E+00 0.  1.
          6    1    1    2  502    0  0.14242800757E+03 -0.20401325997E+02  0.64359176678E+03  0.68153966408E+03  0.17200000000E+03 0. -1.
         -6    1    1    2    0  501 -0.14242800757E+03  0.20401325997E+02 -0.22458938113E+03  0.31737413498E+03  0.17200000000E+03 0.  1.
</event>
<event>
 4    1  0.3191769E-002  0.2011909E+03  0.7818608E-02  0.1148738E+00
         -1   -1    0    0    0  501 -0.00000000000E+00  0.00000000000E+00  0.40908750416E+02  0.40908750416E+02  0.00000000000E+00 0.  1.
          1   -1    0    0  502    0  0.00000000000E+00 -0.00000000000E+00 -0.11826487008E+04  0.11826487008E+04  0.00000000000E+00 0. -1.
          6    1    1    2  502    0 -0.72824017368E+02 -0.74769200806E+02 -0.81812885198E+03  0.84250376221E+03  0.17200000000E+03 0. -1.
         -6    1    1    2    0  501  0.72824017368E+02  0.74769200806E+02 -0.32361109839E+03  0.38105368900E+03  0.17200000000E+03 0.  1.
</event>
<event>
 4    1  0.3191769E-002  0.4109005E+03  0.7818608E-02  0.1040069E+00
         -1   -1    0    0    0  501 -0.00000000000E+00  0.00000000000E+00  0.61240993156E+02  0.61240993156E+02  0.00000000000E+00 0.  1.
          1   -1    0    0  502    0  0.00000000000E+00 -0.00000000000E+00 -0.27892749345E+04  0.27892749345E+04  0.00000000000E+00 0. -1.
          6    1    1    2  502    0 -0.30398147647E+02  0.37192900732E+03 -0.15174151956E+04  0.15720649191E+04  0.17200000000E+03 0. -1.
         -6    1    1    2    0  501  0.30398147647E+02 -0.37192900732E+03 -0.12106187457E+04  0.12784510086E+04  0.17200000000E+03 0.  1.
</event>
<event>
 4    1  0.3191769E-002  0.2069613E+03  0.7818608E-02  0.1143995E+00
         -2   -1    0    0    0  501 -0.00000000000E+00  0.00000000000E+00  0.72662529992E+02  0.72662529992E+02  0.00000000000E+00 0.  1.
          2   -1    0    0  502    0  0.00000000000E+00 -0.00000000000E+00 -0.61236815572E+03  0.61236815572E+03  0.00000000000E+00 0. -1.
          6    1    1    2  502    0  0.78972685847E+02 -0.83739563683E+02 -0.33607344201E+03  0.39468767154E+03  0.17200000000E+03 0. -1.
         -6    1    1    2    0  501 -0.78972685847E+02  0.83739563683E+02 -0.20363218371E+03  0.29034301417E+03  0.17200000000E+03 0. -1.
</event>
<event>
 4    1  0.3191769E-002  0.2103620E+03  0.7818608E-02  0.1141280E+00
          1   -1    0    0  502    0  0.00000000000E+00  0.00000000000E+00  0.84650911907E+03  0.84650911907E+03  0.00000000000E+00 0. -1.
         -1   -1    0    0    0  501 -0.00000000000E+00 -0.00000000000E+00 -0.82234456728E+02  0.82234456728E+02  0.00000000000E+00 0.  1.
          6    1    1    2  502    0 -0.11826802865E+03 -0.26093205050E+02  0.66242114736E+03  0.69502083308E+03  0.17200000000E+03 0. -1.
         -6    1    1    2    0  501  0.11826802865E+03  0.26093205050E+02  0.10185351499E+03  0.23372274272E+03  0.17200000000E+03 0.  1.
</event>
<event>
 4    1  0.3191769E-002  0.2004824E+03  0.7818608E-02  0.1149333E+00
          1   -1    0    0  502    0  0.00000000000E+00  0.00000000000E+00  0.13012699594E+04  0.13012699594E+04  0.00000000000E+00 0. -1.
         -1   -1    0    0    0  501 -0.00000000000E+00 -0.00000000000E+00 -0.30894650231E+02  0.30894650231E+02  0.00000000000E+00 0.  1.
          6    1    1    2  502    0  0.16574817704E-01 -0.10300092740E+03  0.62517246962E+03  0.65653165049E+03  0.17200000000E+03 0. -1.
         -6    1    1    2    0  501 -0.16574817704E-01  0.10300092740E+03  0.64520283954E+03  0.67563295913E+03  0.17200000000E+03 0.  1.
</event>
<event>
 4    1  0.3191769E-002  0.2900425E+03  0.7818608E-02  0.1090327E+00
         -2   -1    0    0    0  501 -0.00000000000E+00  0.00000000000E+00  0.56675640484E+03  0.56675640484E+03  0.00000000000E+00 0.  1.
          2   -1    0    0  502    0  0.00000000000E+00 -0.00000000000E+00 -0.17468316532E+03  0.17468316532E+03  0.00000000000E+00 0. -1.
          6    1    1    2  502    0 -0.19208298924E+03  0.13283369396E+03  0.52323536281E+02  0.29472430754E+03  0.17200000000E+03 0.  1.
         -6    1    1    2    0  501  0.19208298924E+03 -0.13283369396E+03  0.33974970324E+03  0.44671526262E+03  0.17200000000E+03 0.  1.
</event>
<event>
 4    1  0.3191769E-002  0.2484482E+03  0.7818608E-02  0.1114289E+00
          2   -1    0    0  502    0  0.00000000000E+00  0.00000000000E+00  0.17265187860E+04  0.17265187860E+04  0.00000000000E+00 0. -1.
         -2   -1    0    0    0  501 -0.00000000000E+00 -0.00000000000E+00 -0.38647373774E+02  0.38647373774E+02  0.00000000000E+00 0.  1.
          6    1    1    2  502    0  0.74214869460E+02 -0.16320127046E+03  0.60236301379E+03  0.65158859867E+03  0.17200000000E+03 0. -1.
         -6    1    1    2    0  501 -0.74214869460E+02  0.16320127046E+03  0.10855083984E+04  0.11135775611E+04  0.17200000000E+03 0.  1.
</event>
<event>
 4    1  0.3191769E-002  0.2848711E+03  0.7818608E-02  0.1093058E+00
          2   -1    0    0  502    0  0.00000000000E+00  0.00000000000E+00  0.68784814136E+03  0.68784814136E+03  0.00000000000E+00 0. -1.
         -2   -1    0    0    0  501 -0.00000000000E+00 -0.00000000000E+00 -0.11915588093E+03  0.11915588093E+03  0.00000000000E+00 0.  1.
          6    1    1    2  502    0  0.20104703631E+03  0.10558233401E+03  0.32444941279E+03  0.43176262173E+03  0.17200000000E+03 0. -1.
         -6    1    1    2    0  501 -0.20104703631E+03 -0.10558233401E+03  0.24424284765E+03  0.37524140056E+03  0.17200000000E+03 0.  1.
</event>
<event>
 4    1  0.3191769E-002  0.1720536E+03  0.7818608E-02  0.1175723E+00
          2   -1    0    0  502    0  0.00000000000E+00  0.00000000000E+00  0.40459868288E+03  0.40459868288E+03  0.00000000000E+00 0. -1.
         -2   -1    0    0    0  501 -0.00000000000E+00 -0.00000000000E+00 -0.80719692757E+02  0.80719692757E+02  0.00000000000E+00 0.  1.
          6    1    1    2  502    0  0.70994915849E-01  0.42946690232E+01  0.23617579976E+03  0.29220105683E+03  0.17200000000E+03 0. -1.
         -6    1    1    2    0  501 -0.70994915849E-01 -0.42946690232E+01  0.87703190367E+02  0.19311731881E+03  0.17200000000E+03 0.  1.
</event>
<event>
 4    1  0.3191769E-002  0.2657957E+03  0.7818608E-02  0.1103710E+00
          2   -1    0    0  502    0  0.00000000000E+00  0.00000000000E+00  0.16995744970E+04  0.16995744970E+04  0.00000000000E+00 0. -1.
         -2   -1    0    0    0  501 -0.00000000000E+00 -0.00000000000E+00 -0.41593742187E+02  0.41593742187E+02  0.00000000000E+00 0.  1.
          6    1    1    2  502    0 -0.13953620152E+03 -0.14694557352E+03  0.85078649839E+03  0.89133889120E+03  0.17200000000E+03 0. -1.
         -6    1    1    2    0  501  0.13953620152E+03  0.14694557352E+03  0.80719425647E+03  0.84982934804E+03  0.17200000000E+03 0.  1.
</event>
<event>
 4    1  0.3191769E-002  0.2151719E+03  0.7818608E-02  0.1137535E+00
          1   -1    0    0  502    0  0.00000000000E+00  0.00000000000E+00  0.72049252554E+03  0.72049252554E+03  0.00000000000E+00 0. -1.
         -1   -1    0    0    0  501 -0.00000000000E+00 -0.00000000000E+00 -0.77484192428E+02  0.77484192428E+02  0.00000000000E+00 0.  1.
          6    1    1    2  502    0  0.11384572344E+03  0.61270602454E+02  0.15667415299E+03  0.26616860387E+03  0.17200000000E+03 0. -1.
         -6    1    1    2    0  501 -0.11384572344E+03 -0.61270602454E+02  0.48633418012E+03  0.53180811410E+03  0.17200000000E+03 0.  1.
</event>
<event>
 4    1  0.3191769E-002  0.7045975E+03  0.7818608E-02  0.9709402E-01
         -1   -1    0    0    0  501 -0.00000000000E+00  0.00000000000E+00  0.84869145555E+03  0.84869145555E+03  0.00000000000E+00 0.  1.
          1   -1    0    0  502    0  0.00000000000E+00 -0.00000000000E+00 -0.58496842802E+03  0.58496842802E+03  0.00000000000E+00 0. -1.
          6    1    1    2  502    0  0.20671437221E+03  0.65126250992E+03  0.13172454200E+03  0.71680474571E+03  0.17200000000E+03 0. -1.
         -6    1    1    2    0  501 -0.20671437221E+03 -0.65126250992E+03  0.13199848552E+03  0.71685513786E+03  0.17200000000E+03 0.  1.
</event>
<event>
 4    1  0.3191769E-002  0.2852877E+03  0.7818608E-02  0.1092835E+00
         -2   -1    0    0    0  501 -0.00000000000E+00  0.00000000000E+00  0.23152951736E+03  0.23152951736E+03  0.00000000000E+00 0.  1.
          2   -1    0    0  502    0  0.00000000000E+00 -0.00000000000E+00 -0.44798242602E+03  0.44798242602E+03  0.00000000000E+00 0. -1.
          6    1    1    2  502    0 -0.57385406643E+02  0.22025435552E+03 -0.26587795190E+03  0.38997455215E+03  0.17200000000E+03 0. -1.
         -6    1    1    2    0  501  0.57385406643E+02 -0.22025435552E+03  0.49425043246E+02  0.28953739123E+03  0.17200000000E+03 0.  1.
</event>
<event>
 4    1  0.3191769E-002  0.2923591E+03  0.7818608E-02  0.1089124E+00
         -1   -1    0    0    0  501 -0.00000000000E+00  0.00000000000E+00  0.12040892799E+03  0.12040892799E+03  0.00000000000E+00 0.  1.
          1   -1    0    0  502    0  0.00000000000E+00 -0.00000000000E+00 -0.71521329506E+03  0.71521329506E+03  0.00000000000E+00 0. -1.
          6    1    1    2  502    0  0.17109774977E+03  0.16314221458E+03 -0.33353967803E+03  0.44353414635E+03  0.17200000000E+03 0. -1.
         -6    1    1    2    0  501 -0.17109774977E+03 -0.16314221458E+03 -0.26126468904E+03  0.39208807670E+03  0.17200000000E+03 0. -1.
</event>
<event>
 4    1  0.3191769E-002  0.1869906E+03  0.7818608E-02  0.1161204E+00
          2   -1    0    0  502    0  0.00000000000E+00  0.00000000000E+00  0.16922999718E+03  0.16922999718E+03  0.00000000000E+00 0. -1.
         -2   -1    0    0    0  501 -0.00000000000E+00 -0.00000000000E+00 -0.21304369090E+03  0.21304369090E+03  0.00000000000E+00 0.  1.
          6    1    1    2  502    0  0.30055517393E+02  0.66918886608E+02  0.11295457192E+02  0.18733141451E+03  0.17200000000E+03 0. -1.
         -6    1    1    2    0  501 -0.30055517393E+02 -0.66918886608E+02 -0.55109150914E+02  0.19494227357E+03  0.17200000000E+03 0.  1.
</event>
<event>
 4    1  0.3191769E-002  0.1947283E+03  0.7818608E-02  0.1154265E+00
          2   -1    0    0  502    0  0.00000000000E+00  0.00000000000E+00  0.26997473827E+03  0.26997473827E+03  0.00000000000E+00 0. -1.
         -2   -1    0    0    0  501 -0.00000000000E+00 -0.00000000000E+00 -0.14425396164E+03  0.14425396164E+03  0.00000000000E+00 0.  1.
          6    1    1    2  502    0 -0.88225812437E+02  0.23480151945E+02  0.96474300951E+02  0.21731636445E+03  0.17200000000E+03 0. -1.
         -6    1    1    2    0  501  0.88225812437E+02 -0.23480151945E+02  0.29246475685E+02  0.19691233546E+03  0.17200000000E+03 0.  1.
</event>
<event>
 4    1  0.3191769E-002  0.2005565E+03  0.7818608E-02  0.1149270E+00
         -2   -1    0    0    0  501 -0.00000000000E+00  0.00000000000E+00  0.40018772694E+03  0.40018772694E+03  0.00000000000E+00 0.  1.
          2   -1    0    0  502    0  0.00000000000E+00 -0.00000000000E+00 -0.20839783859E+03  0.20839783859E+03  0.00000000000E+00 0. -1.
          6    1    1    2  502    0 -0.38277149136E+02 -0.95779717938E+02 -0.12304810485E+03  0.23529498639E+03  0.17200000000E+03 0. -1.
         -6    1    1    2    0  501  0.38277149136E+02  0.95779717938E+02  0.31483799320E+03  0.37329057914E+03  0.17200000000E+03 0.  1.
</event>
<event>
 4    1  0.3191769E-002  0.1776465E+03  0.7818608E-02  0.1170100E+00
         -2   -1    0    0    0  501 -0.00000000000E+00  0.00000000000E+00  0.25294272917E+02  0.25294272917E+02  0.00000000000E+00 0.  1.
          2   -1    0    0  502    0  0.00000000000E+00 -0.00000000000E+00 -0.20364706767E+04  0.20364706767E+04  0.00000000000E+00 0. -1.
          6    1    1    2  502    0 -0.44384114007E+02  0.20830846528E+01 -0.36399400861E+03  0.40503077305E+03  0.17200000000E+03 0.  1.
         -6    1    1    2    0  501  0.44384114007E+02 -0.20830846528E+01 -0.16471823952E+04  0.16567341766E+04  0.17200000000E+03 0. -1.
</event>
<event>
 4    1  0.3191769E-002  0.4052600E+03  0.7818608E-02  0.1041973E+00
         -1   -1    0    0    0  501 -0.00000000000E+00  0.00000000000E+00  0.88200503700E+02  0.88200503700E+02  0.00000000000E+00 0.  1.
          1   -1    0    0  502    0  0.00000000000E+00 -0.00000000000E+00 -0.19143745589E+04  0.19143745589E+04  0.00000000000E+00 0. -1.
          6    1    1    2  502    0 -0.23532827489E+03 -0.28155338240E+03 -0.74758394891E+03  0.85036313700E+03  0.17200000000E+03 0.  1.
         -6    1    1    2    0  501  0.23532827489E+03  0.28155338240E+03 -0.10785901063E+04  0.11522119256E+04  0.17200000000E+03 0. -1.
</event>
<event>
 4    1  0.3191769E-002  0.2109180E+03  0.7818608E-02  0.1140841E+00
          2   -1    0    0  502    0  0.00000000000E+00  0.00000000000E+00  0.12962411050E+04  0.12962411050E+04  0.00000000000E+00 0. -1.
         -2   -1    0    0    0  501 -0.00000000000E+00 -0.00000000000E+00 -0.44582217870E+02  0.44582217870E+02  0.00000000000E+00 0.  1.
          6    1    1    2  502    0  0.11396789955E+03 -0.43746318630E+02  0.94748472059E+03  0.97067693816E+03  0.17200000000E+03 0. -1.
         -6    1    1    2    0  501 -0.11396789955E+03  0.43746318630E+02  0.30417416652E+03  0.37014638469E+03  0.17200000000E+03 0.  1.
</event>
<event>
 4    1  0.3191769E-002  0.2873802E+03  0.7818608E-02  0.1091725E+00
          1   -1    0    0  502    0  0.00000000000E+00  0.00000000000E+00  0.95633572287E+03  0.95633572287E+03  0.00000000000E+00 0. -1.
         -1   -1    0    0    0  501 -0.00000000000E+00 -0.00000000000E+00 -0.14049868280E+03  0.14049868280E+03  0.00000000000E+00 0.  1.
          6    1    1    2  502    0 -0.23008387562E+03  0.80484081965E+01  0.74835514587E+03  0.80163756839E+03  0.17200000000E+03 0. -1.
         -6    1    1    2    0  501  0.23008387562E+03 -0.80484081965E+01  0.67481894201E+02  0.29519683728E+03  0.17200000000E+03 0.  1.
</event>
<event>
 4    1  0.3191769E-002  0.6232498E+03  0.7818608E-02  0.9858310E-01
          1   -1    0    0  502    0  0.00000000000E+00  0.00000000000E+00  0.82180443036E+03  0.82180443036E+03  0.00000000000E+00 0. -1.
         -1   -1    0    0    0  501 -0.00000000000E+00 -0.00000000000E+00 -0.58948021041E+03  0.58948021041E+03  0.00000000000E+00 0.  1.
          6    1    1    2  502    0  0.59051299025E+03 -0.10075107264E+03  0.43028151984E+03  0.75735233321E+03  0.17200000000E+03 0. -1.
         -6    1    1    2    0  501 -0.59051299025E+03  0.10075107264E+03 -0.19795729989E+03  0.65393230756E+03  0.17200000000E+03 0.  1.
</event>
<event>
 4    1  0.3191769E-002  0.2782160E+03  0.7818608E-02  0.1096667E+00
          2   -1    0    0  502    0  0.00000000000E+00  0.00000000000E+00  0.12205395391E+03  0.12205395391E+03  0.00000000000E+00 0. -1.
         -2   -1    0    0    0  501 -0.00000000000E+00 -0.00000000000E+00 -0.73408929725E+03  0.73408929725E+03  0.00000000000E+00 0.  1.
          6    1    1    2  502    0  0.11831839898E+03  0.18390454288E+03 -0.14809449369E+03  0.31517630541E+03  0.17200000000E+03 0. -1.
         -6    1    1    2    0  501 -0.11831839898E+03 -0.18390454288E+03 -0.46394084965E+03  0.54096694576E+03  0.17200000000E+03 0.  1.
</event>
<event>
 4    1  0.3191769E-002  0.3310685E+03  0.7818608E-02  0.1070665E+00
         -2   -1    0    0    0  501 -0.00000000000E+00  0.00000000000E+00  0.29026189574E+03  0.29026189574E+03  0.00000000000E+00 0.  1.
          2   -1    0    0  502    0  0.00000000000E+00 -0.00000000000E+00 -0.38252003812E+03  0.38252003812E+03  0.00000000000E+00 0. -1.
          6    1    1    2  502    0 -0.27196675340E+02 -0.28157188004E+03 -0.80251207231E+01  0.33116579736E+03  0.17200000000E+03 0. -1.
         -6    1    1    2    0  501  0.27196675340E+02  0.28157188004E+03 -0.84233021655E+02  0.34161613650E+03  0.17200000000E+03 0.  1.
</event>
<event>
 4    1  0.3191769E-002  0.2045583E+03  0.7818608E-02  0.1145949E+00
          2   -1    0    0  502    0  0.00000000000E+00  0.00000000000E+00  0.54534168473E+03  0.54534168473E+03  0.00000000000E+00 0. -1.
         -2   -1    0    0    0  501 -0.00000000000E+00 -0.00000000000E+00 -0.94555755176E+02  0.94555755176E+02  0.00000000000E+00 0.  1.
          6    1    1    2  502    0 -0.64242773288E+02 -0.90182906797E+02  0.36431138802E+03  0.41781201280E+03  0.17200000000E+03 0. -1.
         -6    1    1    2    0  501  0.64242773288E+02  0.90182906797E+02  0.86474541526E+02  0.22208542710E+03  0.17200000000E+03 0. -1.
</event>
<event>
 4    1  0.3191769E-002  0.3113475E+03  0.7818608E-02  0.1079702E+00
          2   -1    0    0  502    0  0.00000000000E+00  0.00000000000E+00  0.30262506259E+04  0.30262506259E+04  0.00000000000E+00 0. -1.
         -2   -1    0    0    0  501 -0.00000000000E+00 -0.00000000000E+00 -0.32913624635E+02  0.32913624635E+02  0.00000000000E+00 0.  1.
          6    1    1    2  502    0 -0.55551995508E+02 -0.25350986930E+03  0.17469869041E+04  0.17745141648E+04  0.17200000000E+03 0. -1.
         -6    1    1    2    0  501  0.55551995508E+02  0.25350986930E+03  0.12463500972E+04  0.12846500857E+04  0.17200000000E+03 0.  1.
</event>
<event>
 4    1  0.3191769E-002  0.1731113E+03  0.7818608E-02  0.1174642E+00
          1   -1    0    0  502    0  0.00000000000E+00  0.00000000000E+00  0.13145529616E+03  0.13145529616E+03  0.00000000000E+00 0. -1.
         -1   -1    0    0    0  501 -0.00000000000E+00 -0.00000000000E+00 -0.47640349331E+03  0.47640349331E+03  0.00000000000E+00 0.  1.
          6    1    1    2  502    0  0.18596050961E+02  0.61397272366E+01  0.47004746765E+02  0.17937936219E+03  0.17200000000E+03 0. -1.
         -6    1    1    2    0  501 -0.18596050961E+02 -0.61397272366E+01 -0.39195294391E+03  0.42847942728E+03  0.17200000000E+03 0.  1.
</event>
<event>
 4    1  0.3191769E-002  0.2219008E+03  0.7818608E-02  0.1132474E+00
         -2   -1    0    0    0  501 -0.00000000000E+00  0.00000000000E+00  0.37785870937E+02  0.37785870937E+02  0.00000000000E+00 0.  1.
          2   -1    0    0  502    0  0.00000000000E+00 -0.00000000000E+00 -0.22576879311E+04  0.22576879311E+04  0.00000000000E+00 0. -1.
          6    1    1    2  502    0  0.93187851147E+02  0.10474716571E+03 -0.18562473147E+04  0.18694635695E+04  0.17200000000E+03 0. -1.
         -6    1    1    2    0  501 -0.93187851147E+02 -0.10474716571E+03 -0.36365474538E+03  0.42601023246E+03  0.17200000000E+03 0.  1.
</event>
<event>
 4    1  0.3191769E-002  0.3640823E+03  0.7818608E-02  0.1056979E+00
          1   -1    0    0  502    0  0.00000000000E+00  0.00000000000E+00  0.10438162438E+04  0.10438162438E+04  0.00000000000E+00 0. -1.
         -1   -1    0    0    0  501 -0.00000000000E+00 -0.00000000000E+00 -0.26172503677E+03  0.26172503677E+03  0.00000000000E+00 0.  1.
          6    1    1    2  502    0 -0.51061282603E+02 -0.31680387881E+03  0.85940105928E+03  0.93334138069E+03  0.17200000000E+03 0. -1.
         -6    1    1    2    0  501  0.51061282603E+02  0.31680387881E+03 -0.77309852260E+02  0.37219989988E+03  0.17200000000E+03 0.  1.
</event>
<event>
 4    1  0.3191769E-002  0.2657692E+03  0.7818608E-02  0.1103726E+00
         -2   -1    0    0    0  501 -0.00000000000E+00  0.00000000000E+00  0.19033491310E+04  0.19033491310E+04  0.00000000000E+00 0.  1.
          2   -1    0    0  502    0  0.00000000000E+00 -0.00000000000E+00 -0.89819211042E+02  0.89819211042E+02  0.00000000000E+00 0. -1.
          6    1    1    2  502    0 -0.33343292536E+02  0.19984367942E+03  0.14332892196E+03  0.30195438601E+03  0.17200000000E+03 0. -1.
         -6    1    1    2    0  501  0.33343292536E+02 -0.19984367942E+03  0.16702009980E+04  0.16912139560E+04  0.17200000000E+03 0.  1.
</event>
<event>
 4    1  0.3191769E-002  0.3262745E+03  0.7818608E-02  0.1072797E+00
          2   -1    0    0  502    0  0.00000000000E+00  0.00000000000E+00  0.24542072094E+04  0.24542072094E+04  0.00000000000E+00 0. -1.
         -2   -1    0    0    0  501 -0.00000000000E+00 -0.00000000000E+00 -0.44517657600E+02  0.44517657600E+02  0.00000000000E+00 0.  1.
          6    1    1    2  502    0  0.19764716030E+03 -0.19443939414E+03  0.14048690852E+04  0.14422594165E+04  0.17200000000E+03 0. -1.
         -6    1    1    2    0  501 -0.19764716030E+03  0.19443939414E+03  0.10048204666E+04  0.10564654504E+04  0.17200000000E+03 0.  1.
</event>
<event>
 4    1  0.3191769E-002  0.1951531E+03  0.7818608E-02  0.1153894E+00
         -1   -1    0    0    0  501 -0.00000000000E+00  0.00000000000E+00  0.17916633380E+03  0.17916633380E+03  0.00000000000E+00 0.  1.
          1   -1    0    0  502    0  0.00000000000E+00 -0.00000000000E+00 -0.27233562727E+03  0.27233562727E+03  0.00000000000E+00 0. -1.
          6    1    1    2  502    0  0.92094803111E+02  0.43908350108E+01 -0.15234343018E+03  0.24757474207E+03  0.17200000000E+03 0. -1.
         -6    1    1    2    0  501 -0.92094803111E+02 -0.43908350108E+01  0.59174136718E+02  0.20392721900E+03  0.17200000000E+03 0.  1.
</event>
<event>
 4    1  0.3191769E-002  0.1741799E+03  0.7818608E-02  0.1173558E+00
          2   -1    0    0  502    0  0.00000000000E+00  0.00000000000E+00  0.10857960439E+04  0.10857960439E+04  0.00000000000E+00 0. -1.
         -2   -1    0    0    0  501 -0.00000000000E+00 -0.00000000000E+00 -0.29850043287E+02  0.29850043287E+02  0.00000000000E+00 0.  1.
          6    1    1    2  502    0  0.25097812119E+02  0.11169285365E+02  0.66902759612E+03  0.69132957226E+03  0.17200000000E+03 0. -1.
         -6    1    1    2    0  501 -0.25097812119E+02 -0.11169285365E+02  0.38691840453E+03  0.42431651496E+03  0.17200000000E+03 0.  1.
</event>
<event>
 4    1  0.3191769E-002  0.2117600E+03  0.7818608E-02  0.1140180E+00
          2   -1    0    0  502    0  0.00000000000E+00  0.00000000000E+00  0.36555433754E+04  0.36555433754E+04  0.00000000000E+00 0. -1.
         -2   -1    0    0    0  501 -0.00000000000E+00 -0.00000000000E+00 -0.14559052174E+02  0.14559052174E+02  0.00000000000E+00 0.  1.
          6    1    1    2  502    0 -0.18346492310E+02  0.12215434159E+03  0.25486088403E+04  0.25573911116E+04  0.17200000000E+03 0. -1.
         -6    1    1    2    0  501  0.18346492310E+02 -0.12215434159E+03  0.10923754829E+04  0.11127113160E+04  0.17200000000E+03 0. -1.
</event>
<event>
 4    1  0.3191769E-002  0.2027546E+03  0.7818608E-02  0.1147436E+00
         -2   -1    0    0    0  501 -0.00000000000E+00  0.00000000000E+00  0.68585768996E+02  0.68585768996E+02  0.00000000000E+00 0.  1.
          2   -1    0    0  502    0  0.00000000000E+00 -0.00000000000E+00 -0.70448056696E+03  0.70448056696E+03  0.00000000000E+00 0. -1.
          6    1    1    2  502    0 -0.36388653405E+02 -0.10100152285E+03 -0.46724045870E+03  0.50933592840E+03  0.17200000000E+03 0. -1.
         -6    1    1    2    0  501  0.36388653405E+02  0.10100152285E+03 -0.16865433926E+03  0.26373040755E+03  0.17200000000E+03 0.  1.
</event>
<event>
 4    1  0.3191769E-002  0.2996639E+03  0.7818608E-02  0.1085409E+00
         -2   -1    0    0    0  501 -0.00000000000E+00  0.00000000000E+00  0.61664594633E+03  0.61664594633E+03  0.00000000000E+00 0.  1.
          2   -1    0    0  502    0  0.00000000000E+00 -0.00000000000E+00 -0.14889261178E+03  0.14889261178E+03  0.00000000000E+00 0. -1.
          6    1    1    2  502    0  0.23055691533E+03 -0.84011623718E+02  0.17716365347E+03  0.34811694046E+03  0.17200000000E+03 0. -1.
         -6    1    1    2    0  501 -0.23055691533E+03  0.84011623718E+02  0.29058968109E+03  0.41742161765E+03  0.17200000000E+03 0.  1.
</event>
<event>
 4    1  0.3191769E-002  0.2234357E+03  0.7818608E-02  0.1131347E+00
         -1   -1    0    0    0  501 -0.00000000000E+00  0.00000000000E+00  0.80538506487E+02  0.80538506487E+02  0.00000000000E+00 0.  1.
          1   -1    0    0  502    0  0.00000000000E+00 -0.00000000000E+00 -0.68136972526E+03  0.68136972526E+03  0.00000000000E+00 0. -1.
          6    1    1    2  502    0  0.27375115709E+02  0.13996465760E+03 -0.18596620656E+03  0.29070076078E+03  0.17200000000E+03 0.  1.
         -6    1    1    2    0  501 -0.27375115709E+02 -0.13996465760E+03 -0.41486501222E+03  0.47120747097E+03  0.17200000000E+03 0. -1.
</event>
<event>
 4    1  0.3191769E-002  0.1932006E+03  0.7818608E-02  0.1155606E+00
          2   -1    0    0  502    0  0.00000000000E+00  0.00000000000E+00  0.61210007142E+03  0.61210007142E+03  0.00000000000E+00 0. -1.
         -2   -1    0    0    0  501 -0.00000000000E+00 -0.00000000000E+00 -0.81510196416E+02  0.81510196416E+02  0.00000000000E+00 0.  1.
          6    1    1    2  502    0 -0.78154283105E+02  0.40427530914E+02  0.43934151003E+03  0.47994524652E+03  0.17200000000E+03 0. -1.
         -6    1    1    2    0  501  0.78154283105E+02 -0.40427530914E+02  0.91248364979E+02  0.21366502132E+03  0.17200000000E+03 0.  1.
</event>
<event>
 4    1  0.3191769E-002  0.2544153E+03  0.7818608E-02  0.1110546E+00
         -1   -1    0    0    0  501 -0.00000000000E+00  0.00000000000E+00  0.63151467224E+03  0.63151467224E+03  0.00000000000E+00 0.  1.
          1   -1    0    0  502    0  0.00000000000E+00 -0.00000000000E+00 -0.10427866028E+03  0.10427866028E+03  0.00000000000E+00 0. -1.
          6    1    1    2  502    0 -0.16316577218E+03  0.92304280381E+02  0.21550372801E+03  0.33342016462E+03  0.17200000000E+03 0. -1.
         -6    1    1    2    0  501  0.16316577218E+03 -0.92304280381E+02  0.31173228395E+03  0.40237316789E+03  0.17200000000E+03 0.  1.
</event>
<event>
 4    1  0.3191769E-002  0.3601025E+03  0.7818608E-02  0.1058543E+00
          2   -1    0    0  502    0  0.00000000000E+00  0.00000000000E+00  0.15909772559E+04  0.15909772559E+04  0.00000000000E+00 0. -1.
         -2   -1    0    0    0  501 -0.00000000000E+00 -0.00000000000E+00 -0.93411294413E+02  0.93411294413E+02  0.00000000000E+00 0.  1.
          6    1    1    2  502    0  0.11659560596E+03 -0.29410080058E+03  0.10494508156E+04  0.11095137811E+04  0.17200000000E+03 0. -1.
         -6    1    1    2    0  501 -0.11659560596E+03  0.29410080058E+03  0.44811514590E+03  0.57487476916E+03  0.17200000000E+03 0.  1.
</event>
<event>
 4    1  0.3191769E-002  0.2526560E+03  0.7818608E-02  0.1111638E+00
          1   -1    0    0  502    0  0.00000000000E+00  0.00000000000E+00  0.21244402792E+04  0.21244402792E+04  0.00000000000E+00 0. -1.
         -1   -1    0    0    0  501 -0.00000000000E+00 -0.00000000000E+00 -0.11023145833E+03  0.11023145833E+03  0.00000000000E+00 0.  1.
          6    1    1    2  502    0 -0.18358795262E+03  0.23377989847E+02  0.19600618443E+04  0.19762787001E+04  0.17200000000E+03 0. -1.
         -6    1    1    2    0  501  0.18358795262E+03 -0.23377989847E+02  0.54146976577E+02  0.25839303750E+03  0.17200000000E+03 0.  1.
</event>
<event>
 4    1  0.3191769E-002  0.2638866E+03  0.7818608E-02  0.1104830E+00
          2   -1    0    0  502    0  0.00000000000E+00  0.00000000000E+00  0.12316179368E+03  0.12316179368E+03  0.00000000000E+00 0. -1.
         -2   -1    0    0    0  501 -0.00000000000E+00 -0.00000000000E+00 -0.57999674454E+03  0.57999674454E+03  0.00000000000E+00 0.  1.
          6    1    1    2  502    0 -0.10235543678E+03  0.17197522269E+03 -0.17264935665E+03  0.31534728952E+03  0.17200000000E+03 0. -1.
         -6    1    1    2    0  501  0.10235543678E+03 -0.17197522269E+03 -0.28418559421E+03  0.38781124870E+03  0.17200000000E+03 0.  1.
</event>
<event>
 4    1  0.3191769E-002  0.2268233E+03  0.7818608E-02  0.1128896E+00
          2   -1    0    0  502    0  0.00000000000E+00  0.00000000000E+00  0.24821885619E+03  0.24821885619E+03  0.00000000000E+00 0. -1.
         -2   -1    0    0    0  501 -0.00000000000E+00 -0.00000000000E+00 -0.24337214576E+03  0.24337214576E+03  0.00000000000E+00 0.  1.
          6    1    1    2  502    0  0.80089824622E+01  0.14765046159E+03  0.97089210463E+02  0.24672883374E+03  0.17200000000E+03 0. -1.
         -6    1    1    2    0  501 -0.80089824622E+01 -0.14765046159E+03 -0.92242500041E+02  0.24486216821E+03  0.17200000000E+03 0.  1.
</event>
<event>
 4    1  0.3191769E-002  0.7074381E+03  0.7818608E-02  0.9704596E-01
         -2   -1    0    0    0  501 -0.00000000000E+00  0.00000000000E+00  0.29629075768E+03  0.29629075768E+03  0.00000000000E+00 0.  1.
          2   -1    0    0  502    0  0.00000000000E+00 -0.00000000000E+00 -0.17931939871E+04  0.17931939871E+04  0.00000000000E+00 0. -1.
          6    1    1    2  502    0 -0.26829389140E+03 -0.63158774227E+03 -0.49675322098E+03  0.86442608180E+03  0.17200000000E+03 0. -1.
         -6    1    1    2    0  501  0.26829389140E+03  0.63158774227E+03 -0.10001500084E+04  0.12250586629E+04  0.17200000000E+03 0.  1.
</event>
<event>
 4    1  0.3191769E-002  0.1781897E+03  0.7818608E-02  0.1169567E+00
         -2   -1    0    0    0  501 -0.00000000000E+00  0.00000000000E+00  0.13446306684E+03  0.13446306684E+03  0.00000000000E+00 0.  1.
          2   -1    0    0  502    0  0.00000000000E+00 -0.00000000000E+00 -0.73895660266E+03  0.73895660266E+03  0.00000000000E+00 0. -1.
          6    1    1    2  502    0 -0.40791910002E+02 -0.22440398692E+02 -0.66248524637E+03  0.68603079601E+03  0.17200000000E+03 0. -1.
         -6    1    1    2    0  501  0.40791910002E+02  0.22440398692E+02  0.57991710550E+02  0.18738887349E+03  0.17200000000E+03 0.  1.
</event>
<event>
 4    1  0.3191769E-002  0.1845549E+03  0.7818608E-02  0.1163466E+00
         -2   -1    0    0    0  501 -0.00000000000E+00  0.00000000000E+00  0.17436995842E+04  0.17436995842E+04  0.00000000000E+00 0.  1.
          2   -1    0    0  502    0  0.00000000000E+00 -0.00000000000E+00 -0.24082857921E+02  0.24082857921E+02  0.00000000000E+00 0. -1.
          6    1    1    2  502    0  0.42076491611E+02  0.52019951358E+02  0.47564034026E+03  0.51019039561E+03  0.17200000000E+03 0. -1.
         -6    1    1    2    0  501 -0.42076491611E+02 -0.52019951358E+02  0.12439763860E+04  0.12575920465E+04  0.17200000000E+03 0.  1.
</event>
<event>
 4    1  0.3191769E-002  0.2156012E+03  0.7818608E-02  0.1137206E+00
         -2   -1    0    0    0  501 -0.00000000000E+00  0.00000000000E+00  0.38469125217E+02  0.38469125217E+02  0.00000000000E+00 0.  1.
          2   -1    0    0  502    0  0.00000000000E+00 -0.00000000000E+00 -0.13785471896E+04  0.13785471896E+04  0.00000000000E+00 0. -1.
          6    1    1    2  502    0 -0.10145495948E+03  0.81281933584E+02 -0.42108430650E+03  0.47307066567E+03  0.17200000000E+03 0. -1.
         -6    1    1    2    0  501  0.10145495948E+03 -0.81281933584E+02 -0.91899375793E+03  0.94394564920E+03  0.17200000000E+03 0. -1.
</event>
<event>
 4    1  0.3191769E-002  0.2764040E+03  0.7818608E-02  0.1097669E+00
          2   -1    0    0  502    0  0.00000000000E+00  0.00000000000E+00  0.32701539161E+03  0.32701539161E+03  0.00000000000E+00 0. -1.
         -2   -1    0    0    0  501 -0.00000000000E+00 -0.00000000000E+00 -0.29980714571E+03  0.29980714571E+03  0.00000000000E+00 0.  1.
          6    1    1    2  502    0 -0.16591872845E+03  0.13887454689E+03  0.16085642710E+03  0.31980299305E+03  0.17200000000E+03 0. -1.
         -6    1    1    2    0  501  0.16591872845E+03 -0.13887454689E+03 -0.13364818120E+03  0.30701954427E+03  0.17200000000E+03 0.  1.
</event>
<event>
 4    1  0.3191769E-002  0.1932816E+03  0.7818608E-02  0.1155534E+00
          3   -1    0    0  502    0  0.00000000000E+00  0.00000000000E+00  0.10351855118E+04  0.10351855118E+04  0.00000000000E+00 0. -1.
         -3   -1    0    0    0  501 -0.00000000000E+00 -0.00000000000E+00 -0.42535339574E+02  0.42535339574E+02  0.00000000000E+00 0.  1.
          6    1    1    2  502    0 -0.80528183862E+02 -0.35902746889E+02  0.70611805585E+03  0.73209323479E+03  0.17200000000E+03 0. -1.
         -6    1    1    2    0  501  0.80528183862E+02  0.35902746889E+02  0.28653211638E+03  0.34562761659E+03  0.17200000000E+03 0.  1.
</event>
<event>
 4    1  0.3191769E-002  0.1969265E+03  0.7818608E-02  0.1152358E+00
         -2   -1    0    0    0  501 -0.00000000000E+00  0.00000000000E+00  0.26462826970E+02  0.26462826970E+02  0.00000000000E+00 0.  1.
          2   -1    0    0  502    0  0.00000000000E+00 -0.00000000000E+00 -0.14672821529E+04  0.14672821529E+04  0.00000000000E+00 0. -1.
          6    1    1    2  502    0  0.43251053797E+02 -0.85588526402E+02 -0.74677439806E+03  0.77230308241E+03  0.17200000000E+03 0. -1.
         -6    1    1    2    0  501 -0.43251053797E+02  0.85588526402E+02 -0.69404492790E+03  0.72144189749E+03  0.17200000000E+03 0. -1.
</event>
<event>
 4    1  0.3191769E-002  0.3421558E+03  0.7818608E-02  0.1065881E+00
         -2   -1    0    0    0  501 -0.00000000000E+00  0.00000000000E+00  0.81839057474E+02  0.81839057474E+02  0.00000000000E+00 0.  1.
          2   -1    0    0  502    0  0.00000000000E+00 -0.00000000000E+00 -0.16849394816E+04  0.16849394816E+04  0.00000000000E+00 0. -1.
          6    1    1    2  502    0 -0.20047579953E+03  0.21747652110E+03 -0.11448347011E+04  0.11948711546E+04  0.17200000000E+03 0. -1.
         -6    1    1    2    0  501  0.20047579953E+03 -0.21747652110E+03 -0.45826572302E+03  0.57190738439E+03  0.17200000000E+03 0.  1.
</event>
<event>
 4    1  0.3191769E-002  0.3064704E+03  0.7818608E-02  0.1082050E+00
          2   -1    0    0  502    0  0.00000000000E+00  0.00000000000E+00  0.29229582822E+04  0.29229582822E+04  0.00000000000E+00 0. -1.
         -2   -1    0    0    0  501 -0.00000000000E+00 -0.00000000000E+00 -0.50420383083E+02  0.50420383083E+02  0.00000000000E+00 0.  1.
          6    1    1    2  502    0 -0.16655494279E+03  0.19131012663E+03  0.23316133308E+04  0.23516685221E+04  0.17200000000E+03 0. -1.
         -6    1    1    2    0  501  0.16655494279E+03 -0.19131012663E+03  0.54092456836E+03  0.62171014322E+03  0.17200000000E+03 0.  1.
</event>
<event>
 4    1  0.3191769E-002  0.2160021E+03  0.7818608E-02  0.1136899E+00
          2   -1    0    0  502    0  0.00000000000E+00  0.00000000000E+00  0.50240297286E+03  0.50240297286E+03  0.00000000000E+00 0. -1.
         -2   -1    0    0    0  501 -0.00000000000E+00 -0.00000000000E+00 -0.17944550603E+03  0.17944550603E+03  0.00000000000E+00 0.  1.
          6    1    1    2  502    0  0.11044038445E+03  0.69827235581E+02  0.39828615579E+03  0.45308805241E+03  0.17200000000E+03 0. -1.
         -6    1    1    2    0  501 -0.11044038445E+03 -0.69827235581E+02 -0.75328688950E+02  0.22876042648E+03  0.17200000000E+03 0.  1.
</event>
<event>
 4    1  0.3191769E-002  0.2185307E+03  0.7818608E-02  0.1134983E+00
          2   -1    0    0  502    0  0.00000000000E+00  0.00000000000E+00  0.11623761625E+04  0.11623761625E+04  0.00000000000E+00 0. -1.
         -2   -1    0    0    0  501 -0.00000000000E+00 -0.00000000000E+00 -0.41273012654E+02  0.41273012654E+02  0.00000000000E+00 0.  1.
          6    1    1    2  502    0  0.61096836605E+02 -0.12016179477E+03  0.51988191800E+03  0.56394404778E+03  0.17200000000E+03 0. -1.
         -6    1    1    2    0  501 -0.61096836605E+02  0.12016179477E+03  0.60122123188E+03  0.63970512740E+03  0.17200000000E+03 0.  1.
</event>
<event>
 4    1  0.3191769E-002  0.2018667E+03  0.7818608E-02  0.1148174E+00
         -1   -1    0    0    0  501 -0.00000000000E+00  0.00000000000E+00  0.20560767296E+03  0.20560767296E+03  0.00000000000E+00 0.  1.
          1   -1    0    0  502    0  0.00000000000E+00 -0.00000000000E+00 -0.22705536252E+03  0.22705536252E+03  0.00000000000E+00 0. -1.
          6    1    1    2  502    0  0.81991450513E+02 -0.66660223869E+02  0.66404355732E+02  0.21250816893E+03  0.17200000000E+03 0. -1.
         -6    1    1    2    0  501 -0.81991450513E+02  0.66660223869E+02 -0.87852045295E+02  0.22015486655E+03  0.17200000000E+03 0. -1.
</event>
<event>
 4    1  0.3191769E-002  0.1848598E+03  0.7818608E-02  0.1163181E+00
         -2   -1    0    0    0  501 -0.00000000000E+00  0.00000000000E+00  0.22060728218E+02  0.22060728218E+02  0.00000000000E+00 0.  1.
          2   -1    0    0  502    0  0.00000000000E+00 -0.00000000000E+00 -0.15889263927E+04  0.15889263927E+04  0.00000000000E+00 0. -1.
          6    1    1    2  502    0  0.60381563620E+02 -0.30711669266E+02 -0.65582544554E+03  0.68138106436E+03  0.17200000000E+03 0.  1.
         -6    1    1    2    0  501 -0.60381563620E+02  0.30711669266E+02 -0.91104021896E+03  0.92960605657E+03  0.17200000000E+03 0. -1.
</event>
<event>
 4    1  0.3191769E-002  0.1973896E+03  0.7818608E-02  0.1151960E+00
          4   -1    0    0  502    0  0.00000000000E+00  0.00000000000E+00  0.54394266657E+02  0.54394266657E+02  0.00000000000E+00 0. -1.
         -4   -1    0    0    0  501 -0.00000000000E+00 -0.00000000000E+00 -0.12339096036E+04  0.12339096036E+04  0.00000000000E+00 0.  1.
          6    1    1    2  502    0 -0.89470142177E+02  0.37064310939E+02 -0.17255471683E+03  0.26217894612E+03  0.17200000000E+03 0. -1.
         -6    1    1    2    0  501  0.89470142177E+02 -0.37064310939E+02 -0.10069606202E+04  0.10261249242E+04  0.17200000000E+03 0.  1.
</event>
<event>
 4    1  0.3191769E-002  0.3207372E+03  0.7818608E-02  0.1075311E+00
         -2   -1    0    0    0  501 -0.00000000000E+00  0.00000000000E+00  0.95455049692E+02  0.95455049692E+02  0.00000000000E+00 0.  1.
          2   -1    0    0  502    0  0.00000000000E+00 -0.00000000000E+00 -0.15106743076E+04  0.15106743076E+04  0.00000000000E+00 0. -1.
          6    1    1    2  502    0  0.27071731131E+03  0.69024723722E+00 -0.11375358134E+04  0.11818883475E+04  0.17200000000E+03 0. -1.
         -6    1    1    2    0  501 -0.27071731131E+03 -0.69024723722E+00 -0.27768344454E+03  0.42424100987E+03  0.17200000000E+03 0.  1.
</event>
<event>
 4    1  0.3191769E-002  0.1742965E+03  0.7818608E-02  0.1173440E+00
          2   -1    0    0  502    0  0.00000000000E+00  0.00000000000E+00  0.13775875015E+04  0.13775875015E+04  0.00000000000E+00 0. -1.
         -2   -1    0    0    0  501 -0.00000000000E+00 -0.00000000000E+00 -0.22052533955E+02  0.22052533955E+02  0.00000000000E+00 0.  1.
          6    1    1    2  502    0  0.25787435077E+02 -0.11414505757E+02  0.67732032597E+03  0.69938695063E+03  0.17200000000E+03 0. -1.
         -6    1    1    2    0  501 -0.25787435077E+02  0.11414505757E+02  0.67821464156E+03  0.70025308480E+03  0.17200000000E+03 0. -1.
</event>
<event>
 4    1  0.3191769E-002  0.8568600E+03  0.7818608E-02  0.9481176E-01
          2   -1    0    0  502    0  0.00000000000E+00  0.00000000000E+00  0.36055046584E+04  0.36055046584E+04  0.00000000000E+00 0. -1.
         -2   -1    0    0    0  501 -0.00000000000E+00 -0.00000000000E+00 -0.21906735103E+03  0.21906735103E+03  0.00000000000E+00 0.  1.
          6    1    1    2  502    0 -0.10775325230E+03  0.83247484266E+03  0.11856771829E+04  0.14628873877E+04  0.17200000000E+03 0. -1.
         -6    1    1    2    0  501  0.10775325230E+03 -0.83247484266E+03  0.22007601244E+04  0.23616846217E+04  0.17200000000E+03 0.  1.
</event>
<event>
 4    1  0.3191769E-002  0.2067285E+03  0.7818608E-02  0.1144183E+00
          2   -1    0    0  502    0  0.00000000000E+00  0.00000000000E+00  0.25137674108E+03  0.25137674108E+03  0.00000000000E+00 0. -1.
         -2   -1    0    0    0  501 -0.00000000000E+00 -0.00000000000E+00 -0.17878438685E+03  0.17878438685E+03  0.00000000000E+00 0.  1.
          6    1    1    2  502    0  0.16176555299E+02 -0.11353856220E+03 -0.11350468037E+02  0.20703989754E+03  0.17200000000E+03 0. -1.
         -6    1    1    2    0  501 -0.16176555299E+02  0.11353856220E+03  0.83942822268E+02  0.22312123040E+03  0.17200000000E+03 0.  1.
</event>
<event>
 4    1  0.3191769E-002  0.4557420E+03  0.7818608E-02  0.1026023E+00
         -2   -1    0    0    0  501 -0.00000000000E+00  0.00000000000E+00  0.14028461733E+04  0.14028461733E+04  0.00000000000E+00 0.  1.
          2   -1    0    0  502    0  0.00000000000E+00 -0.00000000000E+00 -0.17498294687E+03  0.17498294687E+03  0.00000000000E+00 0. -1.
          6    1    1    2  502    0  0.14749585434E+03 -0.39542605312E+03  0.30446063278E+03  0.54808490898E+03  0.17200000000E+03 0. -1.
         -6    1    1    2    0  501 -0.14749585434E+03  0.39542605312E+03  0.92340259369E+03  0.10297442112E+04  0.17200000000E+03 0.  1.
</event>
<event>
 4    1  0.3191769E-002  0.2072039E+03  0.7818608E-02  0.1143800E+00
          2   -1    0    0  502    0  0.00000000000E+00  0.00000000000E+00  0.15725621086E+03  0.15725621086E+03  0.00000000000E+00 0. -1.
         -2   -1    0    0    0  501 -0.00000000000E+00 -0.00000000000E+00 -0.30892601061E+03  0.30892601061E+03  0.00000000000E+00 0.  1.
          6    1    1    2  502    0  0.19912605711E+02  0.11381103369E+03  0.36356428255E+01  0.20723581050E+03  0.17200000000E+03 0. -1.
         -6    1    1    2    0  501 -0.19912605711E+02 -0.11381103369E+03 -0.15530544258E+03  0.25894641097E+03  0.17200000000E+03 0. -1.
</event>
<event>
 4    1  0.3191769E-002  0.3857153E+03  0.7818608E-02  0.1048841E+00
         -2   -1    0    0    0  501 -0.00000000000E+00  0.00000000000E+00  0.27274282576E+03  0.27274282576E+03  0.00000000000E+00 0.  1.
          2   -1    0    0  502    0  0.00000000000E+00 -0.00000000000E+00 -0.66521285383E+03  0.66521285383E+03  0.00000000000E+00 0. -1.
          6    1    1    2  502    0  0.33793325612E+03 -0.70664128687E+02  0.27292263444E+01  0.38572497113E+03  0.17200000000E+03 0. -1.
         -6    1    1    2    0  501 -0.33793325612E+03  0.70664128687E+02 -0.39519925441E+03  0.55223070846E+03  0.17200000000E+03 0.  1.
</event>
<event>
 4    1  0.3191769E-002  0.1868713E+03  0.7818608E-02  0.1161314E+00
         -1   -1    0    0    0  501 -0.00000000000E+00  0.00000000000E+00  0.80724174388E+02  0.80724174388E+02  0.00000000000E+00 0.  1.
          1   -1    0    0  502    0  0.00000000000E+00 -0.00000000000E+00 -0.49743128543E+03  0.49743128543E+03  0.00000000000E+00 0. -1.
          6    1    1    2  502    0 -0.67245908872E+02 -0.28546229845E+02 -0.31271884965E+03  0.36429929786E+03  0.17200000000E+03 0. -1.
         -6    1    1    2    0  501  0.67245908872E+02  0.28546229845E+02 -0.10398826139E+03  0.21385616196E+03  0.17200000000E+03 0.  1.
</event>
<event>
 4    1  0.3191769E-002  0.1838743E+03  0.7818608E-02  0.1164105E+00
         -2   -1    0    0    0  501 -0.00000000000E+00  0.00000000000E+00  0.21267044873E+03  0.21267044873E+03  0.00000000000E+00 0.  1.
          2   -1    0    0  502    0  0.00000000000E+00 -0.00000000000E+00 -0.31586806696E+03  0.31586806696E+03  0.00000000000E+00 0. -1.
          6    1    1    2  502    0 -0.36927852071E+02 -0.53498485712E+02 -0.23784723189E+03  0.30063442908E+03  0.17200000000E+03 0. -1.
         -6    1    1    2    0  501  0.36927852071E+02  0.53498485712E+02  0.13464961366E+03  0.22790408660E+03  0.17200000000E+03 0.  1.
</event>
<event>
 4    1  0.3191769E-002  0.3005155E+03  0.7818608E-02  0.1084983E+00
          2   -1    0    0  502    0  0.00000000000E+00  0.00000000000E+00  0.48666383584E+03  0.48666383584E+03  0.00000000000E+00 0. -1.
         -2   -1    0    0    0  501 -0.00000000000E+00 -0.00000000000E+00 -0.23462625080E+03  0.23462625080E+03  0.00000000000E+00 0.  1.
          6    1    1    2  502    0  0.42054673549E+01 -0.24638967456E+03  0.29092794476E+03  0.41826860595E+03  0.17200000000E+03 0. -1.
         -6    1    1    2    0  501 -0.42054673549E+01  0.24638967456E+03 -0.38890359721E+02  0.30302148069E+03  0.17200000000E+03 0.  1.
</event>
<event>
 4    1  0.3191769E-002  0.1846523E+03  0.7818608E-02  0.1163375E+00
          1   -1    0    0  502    0  0.00000000000E+00  0.00000000000E+00  0.16248164893E+03  0.16248164893E+03  0.00000000000E+00 0. -1.
         -1   -1    0    0    0  501 -0.00000000000E+00 -0.00000000000E+00 -0.22559855420E+03  0.22559855420E+03  0.00000000000E+00 0.  1.
          6    1    1    2  502    0 -0.57962582050E+02  0.33952858060E+02 -0.82829305563E+02  0.20237873245E+03  0.17200000000E+03 0.  1.
         -6    1    1    2    0  501  0.57962582050E+02 -0.33952858060E+02  0.19712400298E+02  0.18570147068E+03  0.17200000000E+03 0.  1.
</event>
<event>
 4    1  0.3191769E-002  0.2095232E+03  0.7818608E-02  0.1141944E+00
          2   -1    0    0  502    0  0.00000000000E+00  0.00000000000E+00  0.92077153556E+03  0.92077153556E+03  0.00000000000E+00 0. -1.
         -2   -1    0    0    0  501 -0.00000000000E+00 -0.00000000000E+00 -0.54256317091E+02  0.54256317091E+02  0.00000000000E+00 0.  1.
          6    1    1    2  502    0 -0.11725052848E+03 -0.23838302087E+02  0.60301964464E+03  0.63838283412E+03  0.17200000000E+03 0. -1.
         -6    1    1    2    0  501  0.11725052848E+03  0.23838302087E+02  0.26349557383E+03  0.33664501853E+03  0.17200000000E+03 0.  1.
</event>
<event>
 4    1  0.3191769E-002  0.3499348E+03  0.7818608E-02  0.1062642E+00
         -2   -1    0    0    0  501 -0.00000000000E+00  0.00000000000E+00  0.36627055152E+03  0.36627055152E+03  0.00000000000E+00 0.  1.
          2   -1    0    0  502    0  0.00000000000E+00 -0.00000000000E+00 -0.34403545500E+03  0.34403545500E+03  0.00000000000E+00 0. -1.
          6    1    1    2  502    0 -0.29384548486E+03  0.80778665777E+02 -0.48541329622E+02  0.35328546885E+03  0.17200000000E+03 0. -1.
         -6    1    1    2    0  501  0.29384548486E+03 -0.80778665777E+02  0.70776426134E+02  0.35702053767E+03  0.17200000000E+03 0.  1.
</event>
<event>
 4    1  0.3191769E-002  0.2136064E+03  0.7818608E-02  0.1138741E+00
         -2   -1    0    0    0  501 -0.00000000000E+00  0.00000000000E+00  0.17481310355E+03  0.17481310355E+03  0.00000000000E+00 0.  1.
          2   -1    0    0  502    0  0.00000000000E+00 -0.00000000000E+00 -0.26210625423E+03  0.26210625423E+03  0.00000000000E+00 0. -1.
          6    1    1    2  502    0  0.11218697922E+03  0.58803025065E+02 -0.29508966364E+02  0.21563509259E+03  0.17200000000E+03 0. -1.
         -6    1    1    2    0  501 -0.11218697922E+03 -0.58803025065E+02 -0.57784184311E+02  0.22128426519E+03  0.17200000000E+03 0. -1.
</event>
<event>
 4    1  0.3191769E-002  0.4155440E+03  0.7818608E-02  0.1038526E+00
          2   -1    0    0  502    0  0.00000000000E+00  0.00000000000E+00  0.15105963764E+04  0.15105963764E+04  0.00000000000E+00 0. -1.
         -2   -1    0    0    0  501 -0.00000000000E+00 -0.00000000000E+00 -0.11985823355E+03  0.11985823355E+03  0.00000000000E+00 0.  1.
          6    1    1    2  502    0  0.16068450152E+03 -0.34245184460E+03  0.87076080169E+03  0.96483218679E+03  0.17200000000E+03 0. -1.
         -6    1    1    2    0  501 -0.16068450152E+03  0.34245184460E+03  0.51997734116E+03  0.66562242317E+03  0.17200000000E+03 0.  1.
</event>
<event>
 4    1  0.3191769E-002  0.2319110E+03  0.7818608E-02  0.1125302E+00
          1   -1    0    0  502    0  0.00000000000E+00  0.00000000000E+00  0.69672209600E+03  0.69672209600E+03  0.00000000000E+00 0. -1.
         -1   -1    0    0    0  501 -0.00000000000E+00 -0.00000000000E+00 -0.99745135277E+02  0.99745135277E+02  0.00000000000E+00 0.  1.
          6    1    1    2  502    0 -0.79665296764E+02 -0.13361188383E+03  0.48784367947E+03  0.54016122650E+03  0.17200000000E+03 0. -1.
         -6    1    1    2    0  501  0.79665296764E+02  0.13361188383E+03  0.10913328125E+03  0.25630600478E+03  0.17200000000E+03 0.  1.
</event>
<event>
 4    1  0.3191769E-002  0.4997639E+03  0.7818608E-02  0.1013841E+00
         -2   -1    0    0    0  501 -0.00000000000E+00  0.00000000000E+00  0.31339395651E+03  0.31339395651E+03  0.00000000000E+00 0.  1.
          2   -1    0    0  502    0  0.00000000000E+00 -0.00000000000E+00 -0.79935866743E+03  0.79935866743E+03  0.00000000000E+00 0. -1.
          6    1    1    2  502    0 -0.23324676219E+01  0.46922757098E+03 -0.21253516072E+03  0.54307932046E+03  0.17200000000E+03 0. -1.
         -6    1    1    2    0  501  0.23324676219E+01 -0.46922757098E+03 -0.27342955020E+03  0.56967330348E+03  0.17200000000E+03 0.  1.
</event>
<event>
 4    1  0.3191769E-002  0.2124916E+03  0.7818608E-02  0.1139608E+00
          2   -1    0    0  502    0  0.00000000000E+00  0.00000000000E+00  0.66157444827E+03  0.66157444827E+03  0.00000000000E+00 0. -1.
         -2   -1    0    0    0  501 -0.00000000000E+00 -0.00000000000E+00 -0.68500052285E+02  0.68500052285E+02  0.00000000000E+00 0.  1.
          6    1    1    2  502    0 -0.11905947129E+03 -0.37329686302E+02  0.31857839340E+03  0.38294236632E+03  0.17200000000E+03 0.  1.
         -6    1    1    2    0  501  0.11905947129E+03  0.37329686302E+02  0.27449600259E+03  0.34713213423E+03  0.17200000000E+03 0. -1.
</event>
<event>
 4    1  0.3191769E-002  0.3666516E+03  0.7818608E-02  0.1055981E+00
          1   -1    0    0  502    0  0.00000000000E+00  0.00000000000E+00  0.52930957384E+03  0.52930957384E+03  0.00000000000E+00 0. -1.
         -1   -1    0    0    0  501 -0.00000000000E+00 -0.00000000000E+00 -0.74293072155E+03  0.74293072155E+03  0.00000000000E+00 0.  1.
          6    1    1    2  502    0  0.30529038657E+03 -0.10792194079E+03  0.40924694337E+03  0.54946922215E+03  0.17200000000E+03 0. -1.
         -6    1    1    2    0  501 -0.30529038657E+03  0.10792194079E+03 -0.62286809108E+03  0.72277107325E+03  0.17200000000E+03 0.  1.
</event>
<event>
 4    1  0.3191769E-002  0.3920901E+03  0.7818608E-02  0.1046554E+00
          2   -1    0    0  502    0  0.00000000000E+00  0.00000000000E+00  0.92115817418E+03  0.92115817418E+03  0.00000000000E+00 0. -1.
         -2   -1    0    0    0  501 -0.00000000000E+00 -0.00000000000E+00 -0.17548707163E+03  0.17548707163E+03  0.00000000000E+00 0.  1.
          6    1    1    2  502    0 -0.89068156887E+02  0.34090694106E+03  0.25149169099E+03  0.46581407200E+03  0.17200000000E+03 0. -1.
         -6    1    1    2    0  501  0.89068156887E+02 -0.34090694106E+03  0.49417941156E+03  0.63083117380E+03  0.17200000000E+03 0.  1.
</event>
<event>
 4    1  0.3191769E-002  0.2117963E+03  0.7818608E-02  0.1140151E+00
          1   -1    0    0  502    0  0.00000000000E+00  0.00000000000E+00  0.91233969986E+03  0.91233969986E+03  0.00000000000E+00 0. -1.
         -1   -1    0    0    0  501 -0.00000000000E+00 -0.00000000000E+00 -0.56705921623E+02  0.56705921623E+02  0.00000000000E+00 0.  1.
          6    1    1    2  502    0 -0.62532598211E+02  0.10659902307E+03  0.60447493956E+03  0.64050576118E+03  0.17200000000E+03 0. -1.
         -6    1    1    2    0  501  0.62532598211E+02 -0.10659902307E+03  0.25115883868E+03  0.32853986030E+03  0.17200000000E+03 0. -1.
</event>
<event>
 4    1  0.3191769E-002  0.1833703E+03  0.7818608E-02  0.1164581E+00
         -1   -1    0    0    0  501 -0.00000000000E+00  0.00000000000E+00  0.81678438243E+02  0.81678438243E+02  0.00000000000E+00 0.  1.
          1   -1    0    0  502    0  0.00000000000E+00 -0.00000000000E+00 -0.64575654880E+03  0.64575654880E+03  0.00000000000E+00 0. -1.
          6    1    1    2  502    0 -0.51332109275E+02  0.37492314936E+02 -0.50102533924E+03  0.53352699058E+03  0.17200000000E+03 0. -1.
         -6    1    1    2    0  501  0.51332109275E+02 -0.37492314936E+02 -0.63052771324E+02  0.19390799647E+03  0.17200000000E+03 0.  1.
</event>
<event>
 4    1  0.3191769E-002  0.5779682E+03  0.7818608E-02  0.9952199E-01
         -2   -1    0    0    0  501 -0.00000000000E+00  0.00000000000E+00  0.16703123450E+03  0.16703123450E+03  0.00000000000E+00 0.  1.
          2   -1    0    0  502    0  0.00000000000E+00 -0.00000000000E+00 -0.20090981887E+04  0.20090981887E+04  0.00000000000E+00 0. -1.
          6    1    1    2  502    0 -0.48646615196E+03 -0.26041117543E+03 -0.99461838520E+03  0.11503534368E+04  0.17200000000E+03 0. -1.
         -6    1    1    2    0  501  0.48646615196E+03  0.26041117543E+03 -0.84744856904E+03  0.10257759865E+04  0.17200000000E+03 0.  1.
</event>
<event>
 4    1  0.3191769E-002  0.1807634E+03  0.7818608E-02  0.1167066E+00
          2   -1    0    0  502    0  0.00000000000E+00  0.00000000000E+00  0.17127307201E+04  0.17127307201E+04  0.00000000000E+00 0. -1.
         -2   -1    0    0    0  501 -0.00000000000E+00 -0.00000000000E+00 -0.23367770039E+02  0.23367770039E+02  0.00000000000E+00 0.  1.
          6    1    1    2  502    0  0.49955982108E+02  0.24408904861E+02  0.47275666074E+03  0.50613659723E+03  0.17200000000E+03 0.  1.
         -6    1    1    2    0  501 -0.49955982108E+02 -0.24408904861E+02  0.12166062893E+04  0.12299618929E+04  0.17200000000E+03 0. -1.
</event>
<event>
 4    1  0.3191769E-002  0.8951081E+03  0.7818608E-02  0.9431717E-01
          3   -1    0    0  502    0  0.00000000000E+00  0.00000000000E+00  0.14313336161E+04  0.14313336161E+04  0.00000000000E+00 0. -1.
         -3   -1    0    0    0  501 -0.00000000000E+00 -0.00000000000E+00 -0.56485454350E+03  0.56485454350E+03  0.00000000000E+00 0.  1.
          6    1    1    2  502    0  0.32134147316E+03  0.81754158944E+03  0.33855041872E+03  0.95699267440E+03  0.17200000000E+03 0. -1.
         -6    1    1    2    0  501 -0.32134147316E+03 -0.81754158944E+03  0.52792865386E+03  0.10391954852E+04  0.17200000000E+03 0.  1.
</event>
<event>
 4    1  0.3191769E-002  0.2428436E+03  0.7818608E-02  0.1117913E+00
          2   -1    0    0  502    0  0.00000000000E+00  0.00000000000E+00  0.29622047134E+03  0.29622047134E+03  0.00000000000E+00 0. -1.
         -2   -1    0    0    0  501 -0.00000000000E+00 -0.00000000000E+00 -0.20439187329E+03  0.20439187329E+03  0.00000000000E+00 0.  1.
          6    1    1    2  502    0 -0.60132059385E+02  0.16054019693E+03  0.55810057662E+01  0.24290773356E+03  0.17200000000E+03 0. -1.
         -6    1    1    2    0  501  0.60132059385E+02 -0.16054019693E+03  0.86247592284E+02  0.25770461108E+03  0.17200000000E+03 0.  1.
</event>
<event>
 4    1  0.3191769E-002  0.6457262E+03  0.7818608E-02  0.9814832E-01
          2   -1    0    0  502    0  0.00000000000E+00  0.00000000000E+00  0.18798846977E+04  0.18798846977E+04  0.00000000000E+00 0. -1.
         -2   -1    0    0    0  501 -0.00000000000E+00 -0.00000000000E+00 -0.23640429924E+03  0.23640429924E+03  0.00000000000E+00 0.  1.
          6    1    1    2  502    0  0.62097937587E+03  0.41986750570E+02  0.10847229288E+04  0.12623732034E+04  0.17200000000E+03 0. -1.
         -6    1    1    2    0  501 -0.62097937587E+03 -0.41986750570E+02  0.55875746961E+03  0.85391579346E+03  0.17200000000E+03 0.  1.
</event>
<event>
 4    1  0.3191769E-002  0.2288814E+03  0.7818608E-02  0.1127430E+00
          1   -1    0    0  502    0  0.00000000000E+00  0.00000000000E+00  0.41817853626E+03  0.41817853626E+03  0.00000000000E+00 0. -1.
         -1   -1    0    0    0  501 -0.00000000000E+00 -0.00000000000E+00 -0.12853321430E+03  0.12853321430E+03  0.00000000000E+00 0.  1.
          6    1    1    2  502    0 -0.15047984151E+03  0.12590186434E+02  0.18835474316E+03  0.29641896830E+03  0.17200000000E+03 0. -1.
         -6    1    1    2    0  501  0.15047984151E+03 -0.12590186434E+02  0.10129057880E+03  0.25029278226E+03  0.17200000000E+03 0.  1.
</event>
<event>
 4    1  0.3191769E-002  0.1833277E+03  0.7818608E-02  0.1164621E+00
          1   -1    0    0  502    0  0.00000000000E+00  0.00000000000E+00  0.78140425581E+03  0.78140425581E+03  0.00000000000E+00 0. -1.
         -1   -1    0    0    0  501 -0.00000000000E+00 -0.00000000000E+00 -0.43666720800E+02  0.43666720800E+02  0.00000000000E+00 0.  1.
          6    1    1    2  502    0  0.55921571611E+02 -0.29963570471E+02  0.41941867679E+03  0.45773470937E+03  0.17200000000E+03 0.  1.
         -6    1    1    2    0  501 -0.55921571611E+02  0.29963570471E+02  0.31831885822E+03  0.36733626723E+03  0.17200000000E+03 0.  1.
</event>
<event>
 4    1  0.3191769E-002  0.1847010E+03  0.7818608E-02  0.1163329E+00
         -2   -1    0    0    0  501 -0.00000000000E+00  0.00000000000E+00  0.32103492749E+02  0.32103492749E+02  0.00000000000E+00 0.  1.
          2   -1    0    0  502    0  0.00000000000E+00 -0.00000000000E+00 -0.11320210549E+04  0.11320210549E+04  0.00000000000E+00 0. -1.
          6    1    1    2  502    0 -0.35702883586E+01 -0.67213884395E+02 -0.40585914803E+03  0.44591041842E+03  0.17200000000E+03 0. -1.
         -6    1    1    2    0  501  0.35702883586E+01  0.67213884395E+02 -0.69405841413E+03  0.71821412924E+03  0.17200000000E+03 0. -1.
</event>
<event>
 4    1  0.3191769E-002  0.2302747E+03  0.7818608E-02  0.1126447E+00
         -2   -1    0    0    0  501 -0.00000000000E+00  0.00000000000E+00  0.15729548050E+03  0.15729548050E+03  0.00000000000E+00 0.  1.
          2   -1    0    0  502    0  0.00000000000E+00 -0.00000000000E+00 -0.33748893688E+03  0.33748893688E+03  0.00000000000E+00 0. -1.
          6    1    1    2  502    0  0.33225937760E+02 -0.14946061429E+03 -0.81845956690E+02  0.24438739491E+03  0.17200000000E+03 0. -1.
         -6    1    1    2    0  501 -0.33225937760E+02  0.14946061429E+03 -0.98347499690E+02  0.25039702247E+03  0.17200000000E+03 0.  1.
</event>
<event>
 4    1  0.3191769E-002  0.5243119E+03  0.7818608E-02  0.1007621E+00
         -2   -1    0    0    0  501 -0.00000000000E+00  0.00000000000E+00  0.12826452678E+03  0.12826452678E+03  0.00000000000E+00 0.  1.
          2   -1    0    0  502    0  0.00000000000E+00 -0.00000000000E+00 -0.24803203819E+04  0.24803203819E+04  0.00000000000E+00 0. -1.
          6    1    1    2  502    0 -0.49308552393E+03  0.46750320418E+02 -0.69520907133E+03  0.87075747440E+03  0.17200000000E+03 0. -1.
         -6    1    1    2    0  501  0.49308552393E+03 -0.46750320418E+02 -0.16568467838E+04  0.17378274343E+04  0.17200000000E+03 0.  1.
</event>
<event>
 4    1  0.3191769E-002  0.1867529E+03  0.7818608E-02  0.1161423E+00
          2   -1    0    0  502    0  0.00000000000E+00  0.00000000000E+00  0.22664272961E+03  0.22664272961E+03  0.00000000000E+00 0. -1.
         -2   -1    0    0    0  501 -0.00000000000E+00 -0.00000000000E+00 -0.22867780598E+03  0.22867780598E+03  0.00000000000E+00 0.  1.
          6    1    1    2  502    0 -0.70833269994E+02 -0.16591925268E+02  0.12918175779E+03  0.22707833597E+03  0.17200000000E+03 0. -1.
         -6    1    1    2    0  501  0.70833269994E+02  0.16591925268E+02 -0.13121683416E+03  0.22824219962E+03  0.17200000000E+03 0.  1.
</event>
<event>
 4    1  0.3191769E-002  0.2859121E+03  0.7818608E-02  0.1092503E+00
          2   -1    0    0  502    0  0.00000000000E+00  0.00000000000E+00  0.27335114899E+03  0.27335114899E+03  0.00000000000E+00 0. -1.
         -2   -1    0    0    0  501 -0.00000000000E+00 -0.00000000000E+00 -0.47340967940E+03  0.47340967940E+03  0.00000000000E+00 0.  1.
          6    1    1    2  502    0 -0.10959398806E+03  0.20037688520E+03  0.12656851206E+03  0.31267447383E+03  0.17200000000E+03 0. -1.
         -6    1    1    2    0  501  0.10959398806E+03 -0.20037688520E+03 -0.32662704247E+03  0.43408635456E+03  0.17200000000E+03 0.  1.
</event>
<event>
 4    1  0.3191769E-002  0.1751997E+03  0.7818608E-02  0.1172531E+00
         -3   -1    0    0    0  501 -0.00000000000E+00  0.00000000000E+00  0.17887049341E+02  0.17887049341E+02  0.00000000000E+00 0.  1.
          3   -1    0    0  502    0  0.00000000000E+00 -0.00000000000E+00 -0.20458852669E+04  0.20458852669E+04  0.00000000000E+00 0. -1.
          6    1    1    2  502    0  0.35005278022E+00  0.33328625350E+02 -0.59967017741E+03  0.62473933883E+03  0.17200000000E+03 0.  1.
         -6    1    1    2    0  501 -0.35005278022E+00 -0.33328625350E+02 -0.14283280402E+04  0.14390329774E+04  0.17200000000E+03 0. -1.
</event>
<event>
 4    1  0.3191769E-002  0.3032398E+03  0.7818608E-02  0.1083632E+00
         -1   -1    0    0    0  501 -0.00000000000E+00  0.00000000000E+00  0.12065272082E+03  0.12065272082E+03  0.00000000000E+00 0.  1.
          1   -1    0    0  502    0  0.00000000000E+00 -0.00000000000E+00 -0.10002284678E+04  0.10002284678E+04  0.00000000000E+00 0. -1.
          6    1    1    2  502    0  0.16425835942E+03 -0.18812111925E+03 -0.71321928695E+03  0.77500717121E+03  0.17200000000E+03 0. -1.
         -6    1    1    2    0  501 -0.16425835942E+03  0.18812111925E+03 -0.16635646007E+03  0.34587401746E+03  0.17200000000E+03 0.  1.
</event>
<event>
 4    1  0.3191769E-002  0.2972258E+03  0.7818608E-02  0.1086636E+00
          2   -1    0    0  502    0  0.00000000000E+00  0.00000000000E+00  0.26293668484E+04  0.26293668484E+04  0.00000000000E+00 0. -1.
         -2   -1    0    0    0  501 -0.00000000000E+00 -0.00000000000E+00 -0.34354792244E+02  0.34354792244E+02  0.00000000000E+00 0.  1.
          6    1    1    2  502    0  0.17769603693E+03  0.16487351223E+03  0.14950979122E+04  0.15243559045E+04  0.17200000000E+03 0. -1.
         -6    1    1    2    0  501 -0.17769603693E+03 -0.16487351223E+03  0.10999141439E+04  0.11393657361E+04  0.17200000000E+03 0.  1.
</event>
<event>
 4    1  0.3191769E-002  0.2203234E+03  0.7818608E-02  0.1133642E+00
         -2   -1    0    0    0  501 -0.00000000000E+00  0.00000000000E+00  0.66445707748E+03  0.66445707748E+03  0.00000000000E+00 0.  1.
          2   -1    0    0  502    0  0.00000000000E+00 -0.00000000000E+00 -0.10502361350E+03  0.10502361350E+03  0.00000000000E+00 0. -1.
          6    1    1    2  502    0 -0.12421156826E+03 -0.59412860081E+02  0.67450385344E+02  0.23041691803E+03  0.17200000000E+03 0. -1.
         -6    1    1    2    0  501  0.12421156826E+03  0.59412860081E+02  0.49198307864E+03  0.53906377294E+03  0.17200000000E+03 0. -1.
</event>
<event>
 4    1  0.3191769E-002  0.1772109E+03  0.7818608E-02  0.1170530E+00
          2   -1    0    0  502    0  0.00000000000E+00  0.00000000000E+00  0.21428895989E+03  0.21428895989E+03  0.00000000000E+00 0. -1.
         -2   -1    0    0    0  501 -0.00000000000E+00 -0.00000000000E+00 -0.14660862530E+03  0.14660862530E+03  0.00000000000E+00 0.  1.
          6    1    1    2  502    0 -0.20593622939E+02  0.37357753212E+02  0.37498227350E+02  0.18113480087E+03  0.17200000000E+03 0. -1.
         -6    1    1    2    0  501  0.20593622939E+02 -0.37357753212E+02  0.30182107246E+02  0.17976278433E+03  0.17200000000E+03 0.  1.
</event>
<event>
 4    1  0.3191769E-002  0.1753858E+03  0.7818608E-02  0.1172345E+00
          2   -1    0    0  502    0  0.00000000000E+00  0.00000000000E+00  0.23683661002E+03  0.23683661002E+03  0.00000000000E+00 0. -1.
         -2   -1    0    0    0  501 -0.00000000000E+00 -0.00000000000E+00 -0.13589907534E+03  0.13589907534E+03  0.00000000000E+00 0.  1.
          6    1    1    2  502    0 -0.86218008161E+01 -0.33193945542E+02  0.89692851853E+02  0.19698979959E+03  0.17200000000E+03 0.  1.
         -6    1    1    2    0  501  0.86218008161E+01  0.33193945542E+02  0.11244682825E+02  0.17574588576E+03  0.17200000000E+03 0.  1.
</event>
<event>
 4    1  0.3191769E-002  0.1988918E+03  0.7818608E-02  0.1150677E+00
         -2   -1    0    0    0  501 -0.00000000000E+00  0.00000000000E+00  0.18139793757E+02  0.18139793757E+02  0.00000000000E+00 0.  1.
          2   -1    0    0  502    0  0.00000000000E+00 -0.00000000000E+00 -0.30773064595E+04  0.30773064595E+04  0.00000000000E+00 0. -1.
          6    1    1    2  502    0  0.70106576987E+02 -0.71126811336E+02 -0.23649979271E+04  0.23733464034E+04  0.17200000000E+03 0. -1.
         -6    1    1    2    0  501 -0.70106576987E+02  0.71126811336E+02 -0.69416873865E+03  0.72209984984E+03  0.17200000000E+03 0.  1.
</event>
<event>
 4    1  0.3191769E-002  0.2289703E+03  0.7818608E-02  0.1127367E+00
          3   -1    0    0  502    0  0.00000000000E+00  0.00000000000E+00  0.13714305464E+04  0.13714305464E+04  0.00000000000E+00 0. -1.
         -3   -1    0    0    0  501 -0.00000000000E+00 -0.00000000000E+00 -0.66334696608E+02  0.66334696608E+02  0.00000000000E+00 0.  1.
          6    1    1    2  502    0  0.93454272653E+02 -0.11878429880E+03  0.11204882418E+04  0.11436438741E+04  0.17200000000E+03 0. -1.
         -6    1    1    2    0  501 -0.93454272653E+02  0.11878429880E+03  0.18460760795E+03  0.29412136888E+03  0.17200000000E+03 0. -1.
</event>
<event>
 4    1  0.3191769E-002  0.2073505E+03  0.7818608E-02  0.1143681E+00
          2   -1    0    0  502    0  0.00000000000E+00  0.00000000000E+00  0.22631074725E+04  0.22631074725E+04  0.00000000000E+00 0. -1.
         -2   -1    0    0    0  501 -0.00000000000E+00 -0.00000000000E+00 -0.19328249209E+02  0.19328249209E+02  0.00000000000E+00 0.  1.
          6    1    1    2  502    0  0.10871118699E+03 -0.39901337164E+02  0.12710912611E+04  0.12878925549E+04  0.17200000000E+03 0. -1.
         -6    1    1    2    0  501 -0.10871118699E+03  0.39901337164E+02  0.97268796218E+03  0.99454316681E+03  0.17200000000E+03 0.  1.
</event>
<event>
 4    1  0.3191769E-002  0.1989192E+03  0.7818608E-02  0.1150654E+00
          2   -1    0    0  502    0  0.00000000000E+00  0.00000000000E+00  0.93146723352E+03  0.93146723352E+03  0.00000000000E+00 0. -1.
         -2   -1    0    0    0  501 -0.00000000000E+00 -0.00000000000E+00 -0.45596220803E+02  0.45596220803E+02  0.00000000000E+00 0.  1.
          6    1    1    2  502    0  0.80589992721E+02  0.59076966533E+02  0.57064831898E+03  0.60432469655E+03  0.17200000000E+03 0. -1.
         -6    1    1    2    0  501 -0.80589992721E+02 -0.59076966533E+02  0.31522269374E+03  0.37273875778E+03  0.17200000000E+03 0.  1.
</event>
<event>
 4    1  0.3191769E-002  0.2006095E+03  0.7818608E-02  0.1149226E+00
          1   -1    0    0  502    0  0.00000000000E+00  0.00000000000E+00  0.19272792796E+04  0.19272792796E+04  0.00000000000E+00 0. -1.
         -1   -1    0    0    0  501 -0.00000000000E+00 -0.00000000000E+00 -0.35748527049E+02  0.35748527049E+02  0.00000000000E+00 0.  1.
          6    1    1    2  502    0  0.59862602890E+02  0.84122736872E+02  0.15787335033E+04  0.15914281764E+04  0.17200000000E+03 0. -1.
         -6    1    1    2    0  501 -0.59862602890E+02 -0.84122736872E+02  0.31279724921E+03  0.37159963024E+03  0.17200000000E+03 0.  1.
</event>
<event>
 4    1  0.3191769E-002  0.3069554E+03  0.7818608E-02  0.1081814E+00
         -2   -1    0    0    0  501 -0.00000000000E+00  0.00000000000E+00  0.20641564330E+04  0.20641564330E+04  0.00000000000E+00 0.  1.
          2   -1    0    0  502    0  0.00000000000E+00 -0.00000000000E+00 -0.79848632388E+02  0.79848632388E+02  0.00000000000E+00 0. -1.
          6    1    1    2  502    0 -0.22170014420E+03 -0.12444554274E+03  0.29055603169E+03  0.42266352409E+03  0.17200000000E+03 0. -1.
         -6    1    1    2    0  501  0.22170014420E+03  0.12444554274E+03  0.16937517689E+04  0.17213415413E+04  0.17200000000E+03 0.  1.
</event>
<event>
 4    1  0.3191769E-002  0.3985055E+03  0.7818608E-02  0.1044298E+00
          2   -1    0    0  502    0  0.00000000000E+00  0.00000000000E+00  0.55964296670E+03  0.55964296670E+03  0.00000000000E+00 0. -1.
         -2   -1    0    0    0  501 -0.00000000000E+00 -0.00000000000E+00 -0.28552079648E+03  0.28552079648E+03  0.00000000000E+00 0.  1.
          6    1    1    2  502    0  0.30586612841E+03  0.18886115501E+03  0.10391508151E+03  0.41183123794E+03  0.17200000000E+03 0. -1.
         -6    1    1    2    0  501 -0.30586612841E+03 -0.18886115501E+03  0.17020708872E+03  0.43333252524E+03  0.17200000000E+03 0.  1.
</event>
<event>
 4    1  0.3191769E-002  0.2052085E+03  0.7818608E-02  0.1145418E+00
          1   -1    0    0  502    0  0.00000000000E+00  0.00000000000E+00  0.13842646437E+04  0.13842646437E+04  0.00000000000E+00 0. -1.
         -1   -1    0    0    0  501 -0.00000000000E+00 -0.00000000000E+00 -0.31613108019E+02  0.31613108019E+02  0.00000000000E+00 0.  1.
          6    1    1    2  502    0  0.97090272255E+02 -0.55677793194E+02  0.81380695466E+03  0.83928082134E+03  0.17200000000E+03 0. -1.
         -6    1    1    2    0  501 -0.97090272255E+02  0.55677793194E+02  0.53884458100E+03  0.57659693036E+03  0.17200000000E+03 0.  1.
</event>
<event>
 4    1  0.3191769E-002  0.1847962E+03  0.7818608E-02  0.1163240E+00
         -2   -1    0    0    0  501 -0.00000000000E+00  0.00000000000E+00  0.11955943633E+03  0.11955943633E+03  0.00000000000E+00 0.  1.
          2   -1    0    0  502    0  0.00000000000E+00 -0.00000000000E+00 -0.30248192679E+03  0.30248192679E+03  0.00000000000E+00 0. -1.
          6    1    1    2  502    0  0.66056094360E+02 -0.14220247524E+02 -0.41651417218E+02  0.18943194978E+03  0.17200000000E+03 0. -1.
         -6    1    1    2    0  501 -0.66056094360E+02  0.14220247524E+02 -0.14127107324E+03  0.23260941335E+03  0.17200000000E+03 0. -1.
</event>
<event>
 4    1  0.3191769E-002  0.2438829E+03  0.7818608E-02  0.1117233E+00
          2   -1    0    0  502    0  0.00000000000E+00  0.00000000000E+00  0.26597354383E+03  0.26597354383E+03  0.00000000000E+00 0. -1.
         -2   -1    0    0    0  501 -0.00000000000E+00 -0.00000000000E+00 -0.91860111247E+03  0.91860111247E+03  0.00000000000E+00 0.  1.
          6    1    1    2  502    0  0.13371027704E+03  0.10961958184E+03  0.18885939124E+03  0.30845868535E+03  0.17200000000E+03 0. -1.
         -6    1    1    2    0  501 -0.13371027704E+03 -0.10961958184E+03 -0.84148695988E+03  0.87611597095E+03  0.17200000000E+03 0.  1.
</event>
<event>
 4    1  0.3191769E-002  0.2105223E+03  0.7818608E-02  0.1141153E+00
          2   -1    0    0  502    0  0.00000000000E+00  0.00000000000E+00  0.21247080052E+03  0.21247080052E+03  0.00000000000E+00 0. -1.
         -2   -1    0    0    0  501 -0.00000000000E+00 -0.00000000000E+00 -0.42800538752E+03  0.42800538752E+03  0.00000000000E+00 0.  1.
          6    1    1    2  502    0  0.34530539683E+02  0.11637559322E+03  0.12152015036E+03  0.24307773203E+03  0.17200000000E+03 0. -1.
         -6    1    1    2    0  501 -0.34530539683E+02 -0.11637559322E+03 -0.33705473736E+03  0.39739845602E+03  0.17200000000E+03 0.  1.
</event>
<event>
 4    1  0.3191769E-002  0.1791143E+03  0.7818608E-02  0.1168663E+00
          2   -1    0    0  502    0  0.00000000000E+00  0.00000000000E+00  0.16357782892E+03  0.16357782892E+03  0.00000000000E+00 0. -1.
         -2   -1    0    0    0  501 -0.00000000000E+00 -0.00000000000E+00 -0.19687650877E+03  0.19687650877E+03  0.00000000000E+00 0.  1.
          6    1    1    2  502    0 -0.47219861429E+02 -0.16377050984E+02 -0.55243693089E+01  0.17919944690E+03  0.17200000000E+03 0. -1.
         -6    1    1    2    0  501  0.47219861429E+02  0.16377050984E+02 -0.27774310542E+02  0.18125489080E+03  0.17200000000E+03 0.  1.
</event>
<event>
 4    1  0.3191769E-002  0.2085488E+03  0.7818608E-02  0.1142720E+00
          2   -1    0    0  502    0  0.00000000000E+00  0.00000000000E+00  0.94291374674E+03  0.94291374674E+03  0.00000000000E+00 0. -1.
         -2   -1    0    0    0  501 -0.00000000000E+00 -0.00000000000E+00 -0.10502584213E+03  0.10502584213E+03  0.00000000000E+00 0.  1.
          6    1    1    2  502    0  0.10298776459E+03 -0.57464229055E+02  0.81133229771E+03  0.83770681899E+03  0.17200000000E+03 0. -1.
         -6    1    1    2    0  501 -0.10298776459E+03  0.57464229055E+02  0.26555606899E+02  0.21023276988E+03  0.17200000000E+03 0.  1.
</event>
<event>
 4    1  0.3191769E-002  0.4627631E+03  0.7818608E-02  0.1023983E+00
         -1   -1    0    0    0  501 -0.00000000000E+00  0.00000000000E+00  0.48221468675E+03  0.48221468675E+03  0.00000000000E+00 0.  1.
          1   -1    0    0  502    0  0.00000000000E+00 -0.00000000000E+00 -0.60882013441E+03  0.60882013441E+03  0.00000000000E+00 0. -1.
          6    1    1    2  502    0 -0.23081100905E+03 -0.36234235245E+03  0.22045159939E+03  0.51259009935E+03  0.17200000000E+03 0. -1.
         -6    1    1    2    0  501  0.23081100905E+03  0.36234235245E+03 -0.34705704705E+03  0.57844472180E+03  0.17200000000E+03 0. -1.
</event>
<event>
 4    1  0.3191769E-002  0.1993824E+03  0.7818608E-02  0.1150261E+00
         -1   -1    0    0    0  501 -0.00000000000E+00  0.00000000000E+00  0.20203592420E+02  0.20203592420E+02  0.00000000000E+00 0.  1.
          1   -1    0    0  502    0  0.00000000000E+00 -0.00000000000E+00 -0.20015724465E+04  0.20015724465E+04  0.00000000000E+00 0. -1.
          6    1    1    2  502    0 -0.94619613303E+02 -0.34878191451E+02 -0.11223089286E+04  0.11398818757E+04  0.17200000000E+03 0. -1.
         -6    1    1    2    0  501  0.94619613303E+02  0.34878191451E+02 -0.85905992555E+03  0.88189416323E+03  0.17200000000E+03 0.  1.
</event>
<event>
 4    1  0.3191769E-002  0.4723556E+03  0.7818608E-02  0.1021257E+00
          2   -1    0    0  502    0  0.00000000000E+00  0.00000000000E+00  0.16194707047E+04  0.16194707047E+04  0.00000000000E+00 0. -1.
         -2   -1    0    0    0  501 -0.00000000000E+00 -0.00000000000E+00 -0.68204444798E+03  0.68204444798E+03  0.00000000000E+00 0.  1.
          6    1    1    2  502    0  0.41226894307E+03  0.15352569952E+03  0.14966943009E+04  0.15694628546E+04  0.17200000000E+03 0. -1.
         -6    1    1    2    0  501 -0.41226894307E+03 -0.15352569952E+03 -0.55926804416E+03  0.73205229803E+03  0.17200000000E+03 0.  1.
</event>
<event>
 4    1  0.3191769E-002  0.4047256E+03  0.7818608E-02  0.1042156E+00
          2   -1    0    0  502    0  0.00000000000E+00  0.00000000000E+00  0.34922071750E+03  0.34922071750E+03  0.00000000000E+00 0. -1.
         -2   -1    0    0    0  501 -0.00000000000E+00 -0.00000000000E+00 -0.80257812620E+03  0.80257812620E+03  0.00000000000E+00 0.  1.
          6    1    1    2  502    0 -0.93886091916E+02  0.35412458482E+03  0.14457230618E+03  0.42977199949E+03  0.17200000000E+03 0. -1.
         -6    1    1    2    0  501  0.93886091916E+02 -0.35412458482E+03 -0.59792971488E+03  0.72202684422E+03  0.17200000000E+03 0.  1.
</event>
<event>
 4    1  0.3191769E-002  0.2086233E+03  0.7818608E-02  0.1142661E+00
          2   -1    0    0  502    0  0.00000000000E+00  0.00000000000E+00  0.15003344724E+04  0.15003344724E+04  0.00000000000E+00 0. -1.
         -2   -1    0    0    0  501 -0.00000000000E+00 -0.00000000000E+00 -0.49451855898E+02  0.49451855898E+02  0.00000000000E+00 0.  1.
          6    1    1    2  502    0  0.29371470212E+02 -0.11435469370E+03  0.12236576197E+04  0.12413144845E+04  0.17200000000E+03 0. -1.
         -6    1    1    2    0  501 -0.29371470212E+02  0.11435469370E+03  0.22722499682E+03  0.30847184379E+03  0.17200000000E+03 0.  1.
</event>
<event>
 4    1  0.3191769E-002  0.3359299E+03  0.7818608E-02  0.1068543E+00
          1   -1    0    0  502    0  0.00000000000E+00  0.00000000000E+00  0.80199234414E+03  0.80199234414E+03  0.00000000000E+00 0. -1.
         -1   -1    0    0    0  501 -0.00000000000E+00 -0.00000000000E+00 -0.19781261574E+03  0.19781261574E+03  0.00000000000E+00 0.  1.
          6    1    1    2  502    0  0.34057093741E+02  0.28653969211E+03  0.57067609740E+03  0.66220849355E+03  0.17200000000E+03 0. -1.
         -6    1    1    2    0  501 -0.34057093741E+02 -0.28653969211E+03  0.33503631009E+02  0.33759646633E+03  0.17200000000E+03 0.  1.
</event>
<event>
 4    1  0.3191769E-002  0.2362567E+03  0.7818608E-02  0.1122312E+00
         -2   -1    0    0    0  501 -0.00000000000E+00  0.00000000000E+00  0.11222271473E+03  0.11222271473E+03  0.00000000000E+00 0.  1.
          2   -1    0    0  502    0  0.00000000000E+00 -0.00000000000E+00 -0.49893686822E+03  0.49893686822E+03  0.00000000000E+00 0. -1.
          6    1    1    2  502    0 -0.15851048438E+03  0.33281444227E+02 -0.17628214252E+03  0.29477554505E+03  0.17200000000E+03 0. -1.
         -6    1    1    2    0  501  0.15851048438E+03 -0.33281444227E+02 -0.21043201097E+03  0.31638403789E+03  0.17200000000E+03 0.  1.
</event>
<event>
 4    1  0.3191769E-002  0.4511758E+03  0.7818608E-02  0.1027372E+00
          1   -1    0    0  502    0  0.00000000000E+00  0.00000000000E+00  0.97159633910E+03  0.97159633910E+03  0.00000000000E+00 0. -1.
         -1   -1    0    0    0  501 -0.00000000000E+00 -0.00000000000E+00 -0.27177001481E+03  0.27177001481E+03  0.00000000000E+00 0.  1.
          6    1    1    2  502    0  0.19011754187E+03  0.37125590468E+03  0.64747089569E+03  0.78916296622E+03  0.17200000000E+03 0. -1.
         -6    1    1    2    0  501 -0.19011754187E+03 -0.37125590468E+03  0.52355428603E+02  0.45420338769E+03  0.17200000000E+03 0.  1.
</event>
<event>
 4    1  0.3191769E-002  0.1779558E+03  0.7818608E-02  0.1169796E+00
          2   -1    0    0  502    0  0.00000000000E+00  0.00000000000E+00  0.96430415243E+03  0.96430415243E+03  0.00000000000E+00 0. -1.
         -2   -1    0    0    0  501 -0.00000000000E+00 -0.00000000000E+00 -0.34470109309E+03  0.34470109309E+03  0.00000000000E+00 0.  1.
          6    1    1    2  502    0 -0.45354679719E+02 -0.52182425532E+01  0.93234585331E+03  0.94917704734E+03  0.17200000000E+03 0. -1.
         -6    1    1    2    0  501  0.45354679719E+02  0.52182425532E+01 -0.31274279397E+03  0.35982819818E+03  0.17200000000E+03 0.  1.
</event>
<event>
 4    1  0.3191769E-002  0.5088082E+03  0.7818608E-02  0.1011505E+00
         -3   -1    0    0    0  501 -0.00000000000E+00  0.00000000000E+00  0.27551035192E+03  0.27551035192E+03  0.00000000000E+00 0.  1.
          3   -1    0    0  502    0  0.00000000000E+00 -0.00000000000E+00 -0.94789683563E+03  0.94789683563E+03  0.00000000000E+00 0. -1.
          6    1    1    2  502    0 -0.13562758039E+03 -0.45924611472E+03 -0.27916867228E+03  0.58036280208E+03  0.17200000000E+03 0. -1.
         -6    1    1    2    0  501  0.13562758039E+03  0.45924611472E+03 -0.39321781144E+03  0.64304438547E+03  0.17200000000E+03 0.  1.
</event>
<event>
 4    1  0.3191769E-002  0.7173917E+03  0.7818608E-02  0.9687944E-01
         -2   -1    0    0    0  501 -0.00000000000E+00  0.00000000000E+00  0.52593147102E+03  0.52593147102E+03  0.00000000000E+00 0.  1.
          2   -1    0    0  502    0  0.00000000000E+00 -0.00000000000E+00 -0.98169642737E+03  0.98169642737E+03  0.00000000000E+00 0. -1.
          6    1    1    2  502    0 -0.69110283062E+03  0.86277438484E+02 -0.27054980595E+03  0.76671253830E+03  0.17200000000E+03 0. -1.
         -6    1    1    2    0  501  0.69110283062E+03 -0.86277438484E+02 -0.18521515040E+03  0.74091536009E+03  0.17200000000E+03 0.  1.
</event>
<event>
 4    1  0.3191769E-002  0.2045432E+03  0.7818608E-02  0.1145962E+00
         -2   -1    0    0    0  501 -0.00000000000E+00  0.00000000000E+00  0.13861928538E+04  0.13861928538E+04  0.00000000000E+00 0.  1.
          2   -1    0    0  502    0  0.00000000000E+00 -0.00000000000E+00 -0.64406205295E+02  0.64406205295E+02  0.00000000000E+00 0. -1.
          6    1    1    2  502    0 -0.37195768704E+02 -0.10426126201E+03  0.13217927377E+03  0.24353500032E+03  0.17200000000E+03 0. -1.
         -6    1    1    2    0  501  0.37195768704E+02  0.10426126201E+03  0.11896073747E+04  0.12070640587E+04  0.17200000000E+03 0.  1.
</event>
<event>
 4    1  0.3191769E-002  0.3846342E+03  0.7818608E-02  0.1049234E+00
          3   -1    0    0  502    0  0.00000000000E+00  0.00000000000E+00  0.14022055239E+03  0.14022055239E+03  0.00000000000E+00 0. -1.
         -3   -1    0    0    0  501 -0.00000000000E+00 -0.00000000000E+00 -0.11287532422E+04  0.11287532422E+04  0.00000000000E+00 0.  1.
          6    1    1    2  502    0  0.50577184398E+02 -0.34029610421E+03 -0.33216498135E+03  0.50820966634E+03  0.17200000000E+03 0. -1.
         -6    1    1    2    0  501 -0.50577184398E+02  0.34029610421E+03 -0.65636770846E+03  0.76076412825E+03  0.17200000000E+03 0.  1.
</event>
<event>
 4    1  0.3191769E-002  0.3918909E+03  0.7818608E-02  0.1046624E+00
          2   -1    0    0  502    0  0.00000000000E+00  0.00000000000E+00  0.89052203419E+03  0.89052203419E+03  0.00000000000E+00 0. -1.
         -2   -1    0    0    0  501 -0.00000000000E+00 -0.00000000000E+00 -0.18297873670E+03  0.18297873670E+03  0.00000000000E+00 0.  1.
          6    1    1    2  502    0  0.22472938583E+03 -0.27109254373E+03  0.22507233399E+03  0.45192479424E+03  0.17200000000E+03 0. -1.
         -6    1    1    2    0  501 -0.22472938583E+03  0.27109254373E+03  0.48247096350E+03  0.62157597665E+03  0.17200000000E+03 0.  1.
</event>
<event>
 4    1  0.3191769E-002  0.1720498E+03  0.7818608E-02  0.1175727E+00
         -1   -1    0    0    0  501 -0.00000000000E+00  0.00000000000E+00  0.94019720583E+02  0.94019720583E+02  0.00000000000E+00 0.  1.
          1   -1    0    0  502    0  0.00000000000E+00 -0.00000000000E+00 -0.35138665814E+03  0.35138665814E+03  0.00000000000E+00 0. -1.
          6    1    1    2  502    0  0.41150682280E+01  0.45374346930E+00 -0.56861140283E+02  0.18120245292E+03  0.17200000000E+03 0.  1.
         -6    1    1    2    0  501 -0.41150682280E+01 -0.45374346930E+00 -0.20050579727E+03  0.26420392580E+03  0.17200000000E+03 0. -1.
</event>
<event>
 4    1  0.3191769E-002  0.1759385E+03  0.7818608E-02  0.1171793E+00
          1   -1    0    0  502    0  0.00000000000E+00  0.00000000000E+00  0.29752340080E+02  0.29752340080E+02  0.00000000000E+00 0. -1.
         -1   -1    0    0    0  501 -0.00000000000E+00 -0.00000000000E+00 -0.14986696961E+04  0.14986696961E+04  0.00000000000E+00 0.  1.
          6    1    1    2  502    0  0.15186696449E+02  0.33759969922E+02 -0.31186760617E+03  0.35807230429E+03  0.17200000000E+03 0. -1.
         -6    1    1    2    0  501 -0.15186696449E+02 -0.33759969922E+02 -0.11570497498E+04  0.11703497319E+04  0.17200000000E+03 0.  1.
</event>
<event>
 4    1  0.3191769E-002  0.2439622E+03  0.7818608E-02  0.1117181E+00
         -1   -1    0    0    0  501 -0.00000000000E+00  0.00000000000E+00  0.42987562204E+03  0.42987562204E+03  0.00000000000E+00 0.  1.
          1   -1    0    0  502    0  0.00000000000E+00 -0.00000000000E+00 -0.13885821468E+03  0.13885821468E+03  0.00000000000E+00 0. -1.
          6    1    1    2  502    0 -0.73419380058E+02  0.15666258849E+03  0.13014723476E+03  0.27650655457E+03  0.17200000000E+03 0. -1.
         -6    1    1    2    0  501  0.73419380058E+02 -0.15666258849E+03  0.16087017260E+03  0.29222728215E+03  0.17200000000E+03 0.  1.
</event>
<event>
 4    1  0.3191769E-002  0.1933421E+03  0.7818608E-02  0.1155481E+00
         -4   -1    0    0    0  501 -0.00000000000E+00  0.00000000000E+00  0.41045389708E+03  0.41045389708E+03  0.00000000000E+00 0.  1.
          4   -1    0    0  502    0  0.00000000000E+00 -0.00000000000E+00 -0.14226506689E+03  0.14226506689E+03  0.00000000000E+00 0. -1.
          6    1    1    2  502    0  0.87347334382E+02 -0.12945851633E+02  0.29987274630E+03  0.35679800430E+03  0.17200000000E+03 0.  1.
         -6    1    1    2    0  501 -0.87347334382E+02  0.12945851633E+02 -0.31683916107E+02  0.19592095967E+03  0.17200000000E+03 0. -1.
</event>
<event>
 4    1  0.3191769E-002  0.2299351E+03  0.7818608E-02  0.1126685E+00
          2   -1    0    0  502    0  0.00000000000E+00  0.00000000000E+00  0.19362753453E+04  0.19362753453E+04  0.00000000000E+00 0. -1.
         -2   -1    0    0    0  501 -0.00000000000E+00 -0.00000000000E+00 -0.34473314842E+02  0.34473314842E+02  0.00000000000E+00 0.  1.
          6    1    1    2  502    0  0.14871061736E+03  0.34224229880E+02  0.14002315706E+04  0.14189850588E+04  0.17200000000E+03 0.  1.
         -6    1    1    2    0  501 -0.14871061736E+03 -0.34224229880E+02  0.50157045983E+03  0.55176360137E+03  0.17200000000E+03 0.  1.
</event>
<event>
 4    1  0.3191769E-002  0.2849080E+03  0.7818608E-02  0.1093038E+00
         -2   -1    0    0    0  501 -0.00000000000E+00  0.00000000000E+00  0.32563836689E+03  0.32563836689E+03  0.00000000000E+00 0.  1.
          2   -1    0    0  502    0  0.00000000000E+00 -0.00000000000E+00 -0.86526441755E+03  0.86526441755E+03  0.00000000000E+00 0. -1.
          6    1    1    2  502    0 -0.33182905850E+02  0.22469411091E+03 -0.77222450305E+03  0.82310584485E+03  0.17200000000E+03 0. -1.
         -6    1    1    2    0  501  0.33182905850E+02 -0.22469411091E+03  0.23259845240E+03  0.36779693959E+03  0.17200000000E+03 0.  1.
</event>
<event>
 4    1  0.3191769E-002  0.1725264E+03  0.7818608E-02  0.1175239E+00
         -2   -1    0    0    0  501 -0.00000000000E+00  0.00000000000E+00  0.96682860337E+01  0.96682860337E+01  0.00000000000E+00 0.  1.
          2   -1    0    0  502    0  0.00000000000E+00 -0.00000000000E+00 -0.35196177722E+04  0.35196177722E+04  0.00000000000E+00 0. -1.
          6    1    1    2  502    0 -0.13465751879E+02 -0.18115954871E+00 -0.23795833005E+04  0.23858294246E+04  0.17200000000E+03 0. -1.
         -6    1    1    2    0  501  0.13465751879E+02  0.18115954871E+00 -0.11303661857E+04  0.11434566336E+04  0.17200000000E+03 0.  1.
</event>
<event>
 4    1  0.3191769E-002  0.1731943E+03  0.7818608E-02  0.1174557E+00
         -2   -1    0    0    0  501 -0.00000000000E+00  0.00000000000E+00  0.49875955953E+02  0.49875955953E+02  0.00000000000E+00 0.  1.
          2   -1    0    0  502    0  0.00000000000E+00 -0.00000000000E+00 -0.60169714479E+03  0.60169714479E+03  0.00000000000E+00 0. -1.
          6    1    1    2  502    0 -0.62091075684E+01  0.19331991635E+02 -0.28293244100E+03  0.33173339460E+03  0.17200000000E+03 0.  1.
         -6    1    1    2    0  501  0.62091075684E+01 -0.19331991635E+02 -0.26888874783E+03  0.31983970614E+03  0.17200000000E+03 0.  1.
</event>
<event>
 4    1  0.3191769E-002  0.2093870E+03  0.7818608E-02  0.1142052E+00
         -2   -1    0    0    0  501 -0.00000000000E+00  0.00000000000E+00  0.55237713271E+02  0.55237713271E+02  0.00000000000E+00 0.  1.
          2   -1    0    0  502    0  0.00000000000E+00 -0.00000000000E+00 -0.84229321895E+03  0.84229321895E+03  0.00000000000E+00 0. -1.
          6    1    1    2  502    0  0.88011571722E+02 -0.80702404466E+02 -0.28575335856E+03  0.35425682318E+03  0.17200000000E+03 0.  1.
         -6    1    1    2    0  501 -0.88011571722E+02  0.80702404466E+02 -0.50130214712E+03  0.54327410904E+03  0.17200000000E+03 0.  1.
</event>
<event>
 4    1  0.3191769E-002  0.2022658E+03  0.7818608E-02  0.1147841E+00
         -1   -1    0    0    0  501 -0.00000000000E+00  0.00000000000E+00  0.15535256934E+03  0.15535256934E+03  0.00000000000E+00 0.  1.
          1   -1    0    0  502    0  0.00000000000E+00 -0.00000000000E+00 -0.58799369576E+03  0.58799369576E+03  0.00000000000E+00 0. -1.
          6    1    1    2  502    0  0.10377678764E+03 -0.23618071440E+02 -0.49249353909E+03  0.53241085732E+03  0.17200000000E+03 0. -1.
         -6    1    1    2    0  501 -0.10377678764E+03  0.23618071440E+02  0.59852412673E+02  0.21093540778E+03  0.17200000000E+03 0.  1.
</event>
<event>
 4    1  0.3191769E-002  0.2172772E+03  0.7818608E-02  0.1135929E+00
         -2   -1    0    0    0  501 -0.00000000000E+00  0.00000000000E+00  0.47902964689E+02  0.47902964689E+02  0.00000000000E+00 0.  1.
          2   -1    0    0  502    0  0.00000000000E+00 -0.00000000000E+00 -0.10725836366E+04  0.10725836366E+04  0.00000000000E+00 0. -1.
          6    1    1    2  502    0  0.10474912916E+03 -0.81565883015E+02 -0.67195662933E+03  0.70621178483E+03  0.17200000000E+03 0.  1.
         -6    1    1    2    0  501 -0.10474912916E+03  0.81565883015E+02 -0.35272404253E+03  0.41427481641E+03  0.17200000000E+03 0.  1.
</event>
<event>
 4    1  0.3191769E-002  0.2074960E+03  0.7818608E-02  0.1143564E+00
         -1   -1    0    0    0  501 -0.00000000000E+00  0.00000000000E+00  0.36540638605E+03  0.36540638605E+03  0.00000000000E+00 0.  1.
          1   -1    0    0  502    0  0.00000000000E+00 -0.00000000000E+00 -0.12873438941E+03  0.12873438941E+03  0.00000000000E+00 0. -1.
          6    1    1    2  502    0 -0.13360662923E+01 -0.11605523535E+03  0.46417402249E+02  0.21262449990E+03  0.17200000000E+03 0. -1.
         -6    1    1    2    0  501  0.13360662923E+01  0.11605523535E+03  0.19025459439E+03  0.28151627557E+03  0.17200000000E+03 0. -1.
</event>
<event>
 4    1  0.3191769E-002  0.2642270E+03  0.7818608E-02  0.1104630E+00
         -1   -1    0    0    0  501 -0.00000000000E+00  0.00000000000E+00  0.90872464392E+02  0.90872464392E+02  0.00000000000E+00 0.  1.
          1   -1    0    0  502    0  0.00000000000E+00 -0.00000000000E+00 -0.96691034484E+03  0.96691034484E+03  0.00000000000E+00 0. -1.
          6    1    1    2  502    0 -0.15154903295E+03  0.13139564839E+03 -0.19830623969E+03  0.33036538939E+03  0.17200000000E+03 0.  1.
         -6    1    1    2    0  501  0.15154903295E+03 -0.13139564839E+03 -0.67773164076E+03  0.72741741984E+03  0.17200000000E+03 0. -1.
</event>
<event>
 4    1  0.3191769E-002  0.2577323E+03  0.7818608E-02  0.1108513E+00
         -1   -1    0    0    0  501 -0.00000000000E+00  0.00000000000E+00  0.16640299835E+03  0.16640299835E+03  0.00000000000E+00 0.  1.
          1   -1    0    0  502    0  0.00000000000E+00 -0.00000000000E+00 -0.40514071666E+03  0.40514071666E+03  0.00000000000E+00 0. -1.
          6    1    1    2  502    0 -0.58353863301E+02  0.18285724483E+03 -0.15401091497E+03  0.30024208112E+03  0.17200000000E+03 0.  1.
         -6    1    1    2    0  501  0.58353863301E+02 -0.18285724483E+03 -0.84726803331E+02  0.27130163389E+03  0.17200000000E+03 0.  1.
</event>
<event>
 4    1  0.3191769E-002  0.2011582E+03  0.7818608E-02  0.1148765E+00
          2   -1    0    0  502    0  0.00000000000E+00  0.00000000000E+00  0.39233716545E+03  0.39233716545E+03  0.00000000000E+00 0. -1.
         -2   -1    0    0    0  501 -0.00000000000E+00 -0.00000000000E+00 -0.14307043743E+03  0.14307043743E+03  0.00000000000E+00 0.  1.
          6    1    1    2  502    0 -0.10427590468E+03 -0.26783212912E+01  0.26606472588E+03  0.33354921085E+03  0.17200000000E+03 0. -1.
         -6    1    1    2    0  501  0.10427590468E+03  0.26783212912E+01 -0.16797997859E+02  0.20185839203E+03  0.17200000000E+03 0.  1.
</event>
<event>
 4    1  0.3191769E-002  0.2325032E+03  0.7818608E-02  0.1124890E+00
          2   -1    0    0  502    0  0.00000000000E+00  0.00000000000E+00  0.38907411549E+03  0.38907411549E+03  0.00000000000E+00 0. -1.
         -2   -1    0    0    0  501 -0.00000000000E+00 -0.00000000000E+00 -0.17263965357E+03  0.17263965357E+03  0.00000000000E+00 0.  1.
          6    1    1    2  502    0 -0.69408866348E+02 -0.14020030805E+03  0.23230572025E+03  0.32866953732E+03  0.17200000000E+03 0. -1.
         -6    1    1    2    0  501  0.69408866348E+02  0.14020030805E+03 -0.15871258338E+02  0.23304423174E+03  0.17200000000E+03 0.  1.
</event>
<event>
 4    1  0.3191769E-002  0.1836763E+03  0.7818608E-02  0.1164292E+00
         -1   -1    0    0    0  501 -0.00000000000E+00  0.00000000000E+00  0.50714865716E+03  0.50714865716E+03  0.00000000000E+00 0.  1.
          1   -1    0    0  502    0  0.00000000000E+00 -0.00000000000E+00 -0.72579497367E+02  0.72579497367E+02  0.00000000000E+00 0. -1.
          6    1    1    2  502    0 -0.21218000312E+01 -0.64408763467E+02  0.30101868349E+03  0.35263187414E+03  0.17200000000E+03 0.  1.
         -6    1    1    2    0  501  0.21218000312E+01  0.64408763467E+02  0.13355047630E+03  0.22709628039E+03  0.17200000000E+03 0. -1.
</event>
<event>
 4    1  0.3191769E-002  0.1924342E+03  0.7818608E-02  0.1156284E+00
          1   -1    0    0  502    0  0.00000000000E+00  0.00000000000E+00  0.18120808242E+03  0.18120808242E+03  0.00000000000E+00 0. -1.
         -1   -1    0    0    0  501 -0.00000000000E+00 -0.00000000000E+00 -0.24861080066E+03  0.24861080066E+03  0.00000000000E+00 0.  1.
          6    1    1    2  502    0  0.45440019356E+02  0.73362921088E+02 -0.12437413712E+03  0.22912843458E+03  0.17200000000E+03 0.  1.
         -6    1    1    2    0  501 -0.45440019356E+02 -0.73362921088E+02  0.56971418879E+02  0.20069044850E+03  0.17200000000E+03 0. -1.
</event>
<event>
 4    1  0.3191769E-002  0.1817598E+03  0.7818608E-02  0.1166111E+00
          2   -1    0    0  502    0  0.00000000000E+00  0.00000000000E+00  0.50726539245E+03  0.50726539245E+03  0.00000000000E+00 0. -1.
         -2   -1    0    0    0  501 -0.00000000000E+00 -0.00000000000E+00 -0.16288818955E+03  0.16288818955E+03  0.00000000000E+00 0.  1.
          6    1    1    2  502    0  0.32432103798E+02 -0.48997810546E+02  0.43177563253E+03  0.46847286329E+03  0.17200000000E+03 0. -1.
         -6    1    1    2    0  501 -0.32432103798E+02  0.48997810546E+02 -0.87398429639E+02  0.20168071871E+03  0.17200000000E+03 0.  1.
</event>
<event>
 4    1  0.3191769E-002  0.4190419E+03  0.7818608E-02  0.1037379E+00
         -1   -1    0    0    0  501 -0.00000000000E+00  0.00000000000E+00  0.39556813621E+03  0.39556813621E+03  0.00000000000E+00 0.  1.
          1   -1    0    0  502    0  0.00000000000E+00 -0.00000000000E+00 -0.13489207715E+04  0.13489207715E+04  0.00000000000E+00 0. -1.
          6    1    1    2  502    0  0.22474039311E+03  0.30903697332E+03 -0.11911269205E+04  0.12626873864E+04  0.17200000000E+03 0. -1.
         -6    1    1    2    0  501 -0.22474039311E+03 -0.30903697332E+03  0.23777428521E+03  0.48180152125E+03  0.17200000000E+03 0.  1.
</event>
<event>
 4    1  0.3191769E-002  0.1881256E+03  0.7818608E-02  0.1160163E+00
         -1   -1    0    0    0  501 -0.00000000000E+00  0.00000000000E+00  0.26173499594E+02  0.26173499594E+02  0.00000000000E+00 0.  1.
          1   -1    0    0  502    0  0.00000000000E+00 -0.00000000000E+00 -0.16168060210E+04  0.16168060210E+04  0.00000000000E+00 0. -1.
          6    1    1    2  502    0  0.30866951231E+02  0.69674071040E+02 -0.46297010870E+03  0.49973249484E+03  0.17200000000E+03 0.  1.
         -6    1    1    2    0  501 -0.30866951231E+02 -0.69674071040E+02 -0.11276624127E+04  0.11432470257E+04  0.17200000000E+03 0.  1.
</event>
<event>
 4    1  0.3191769E-002  0.3209143E+03  0.7818608E-02  0.1075229E+00
          2   -1    0    0  502    0  0.00000000000E+00  0.00000000000E+00  0.13893141106E+04  0.13893141106E+04  0.00000000000E+00 0. -1.
         -2   -1    0    0    0  501 -0.00000000000E+00 -0.00000000000E+00 -0.10577585044E+03  0.10577585044E+03  0.00000000000E+00 0.  1.
          6    1    1    2  502    0  0.19721179515E+03 -0.18576725752E+03  0.10506734124E+04  0.10985902720E+04  0.17200000000E+03 0. -1.
         -6    1    1    2    0  501 -0.19721179515E+03  0.18576725752E+03  0.23286484776E+03  0.39649968907E+03  0.17200000000E+03 0.  1.
</event>
<event>
 4    1  0.3191769E-002  0.1791557E+03  0.7818608E-02  0.1168623E+00
         -2   -1    0    0    0  501 -0.00000000000E+00  0.00000000000E+00  0.22933230401E+02  0.22933230401E+02  0.00000000000E+00 0.  1.
          2   -1    0    0  502    0  0.00000000000E+00 -0.00000000000E+00 -0.14670294934E+04  0.14670294934E+04  0.00000000000E+00 0. -1.
          6    1    1    2  502    0  0.39668705187E+01 -0.49970181217E+02 -0.88179573670E+03  0.89981135597E+03  0.17200000000E+03 0. -1.
         -6    1    1    2    0  501 -0.39668705187E+01  0.49970181217E+02 -0.56230052625E+03  0.59015136778E+03  0.17200000000E+03 0.  1.
</event>
<event>
 4    1  0.3191769E-002  0.2771723E+03  0.7818608E-02  0.1097243E+00
          1   -1    0    0  502    0  0.00000000000E+00  0.00000000000E+00  0.34600359973E+03  0.34600359973E+03  0.00000000000E+00 0. -1.
         -1   -1    0    0    0  501 -0.00000000000E+00 -0.00000000000E+00 -0.61492517714E+03  0.61492517714E+03  0.00000000000E+00 0.  1.
          6    1    1    2  502    0 -0.93846017314E+02  0.19604437049E+03  0.24958795881E+03  0.37298608466E+03  0.17200000000E+03 0. -1.
         -6    1    1    2    0  501  0.93846017314E+02 -0.19604437049E+03 -0.51850953622E+03  0.58794269220E+03  0.17200000000E+03 0.  1.
</event>
<event>
 4    1  0.3191769E-002  0.2780055E+03  0.7818608E-02  0.1096783E+00
         -2   -1    0    0    0  501 -0.00000000000E+00  0.00000000000E+00  0.30154002877E+03  0.30154002877E+03  0.00000000000E+00 0.  1.
          2   -1    0    0  502    0  0.00000000000E+00 -0.00000000000E+00 -0.26813199131E+03  0.26813199131E+03  0.00000000000E+00 0. -1.
          6    1    1    2  502    0  0.27821033745E+02  0.21663118300E+03 -0.43110306177E+02  0.28132823866E+03  0.17200000000E+03 0. -1.
         -6    1    1    2    0  501 -0.27821033745E+02 -0.21663118300E+03  0.76518343636E+02  0.28834378142E+03  0.17200000000E+03 0.  1.
</event>
<event>
 4    1  0.3191769E-002  0.2556209E+03  0.7818608E-02  0.1109803E+00
         -2   -1    0    0    0  501 -0.00000000000E+00  0.00000000000E+00  0.29758931594E+02  0.29758931594E+02  0.00000000000E+00 0.  1.
          2   -1    0    0  502    0  0.00000000000E+00 -0.00000000000E+00 -0.23260152065E+04  0.23260152065E+04  0.00000000000E+00 0. -1.
          6    1    1    2  502    0 -0.14036882887E+03  0.12670679789E+03 -0.86933878164E+03  0.90614123513E+03  0.17200000000E+03 0. -1.
         -6    1    1    2    0  501  0.14036882887E+03 -0.12670679789E+03 -0.14269174933E+04  0.14496329030E+04  0.17200000000E+03 0.  1.
</event>
<event>
 4    1  0.3191769E-002  0.1991099E+03  0.7818608E-02  0.1150492E+00
          2   -1    0    0  502    0  0.00000000000E+00  0.00000000000E+00  0.36693302982E+04  0.36693302982E+04  0.00000000000E+00 0. -1.
         -2   -1    0    0    0  501 -0.00000000000E+00 -0.00000000000E+00 -0.11028264432E+02  0.11028264432E+02  0.00000000000E+00 0.  1.
          6    1    1    2  502    0  0.76877926548E+02 -0.64424668677E+02  0.15669459608E+04  0.15795456301E+04  0.17200000000E+03 0.  1.
         -6    1    1    2    0  501 -0.76877926548E+02  0.64424668677E+02  0.20913560730E+04  0.21008129326E+04  0.17200000000E+03 0. -1.
</event>
<event>
 4    1  0.3191769E-002  0.4934496E+03  0.7818608E-02  0.1015503E+00
          2   -1    0    0  502    0  0.00000000000E+00  0.00000000000E+00  0.11619442085E+04  0.11619442085E+04  0.00000000000E+00 0. -1.
         -2   -1    0    0    0  501 -0.00000000000E+00 -0.00000000000E+00 -0.21275276844E+03  0.21275276844E+03  0.00000000000E+00 0.  1.
          6    1    1    2  502    0 -0.40701870108E+03 -0.21964588374E+03  0.39034263745E+03  0.62917399175E+03  0.17200000000E+03 0.  1.
         -6    1    1    2    0  501  0.40701870108E+03  0.21964588374E+03  0.55884880263E+03  0.74552298521E+03  0.17200000000E+03 0.  1.
</event>
<event>
 4    1  0.3191769E-002  0.1728139E+03  0.7818608E-02  0.1174945E+00
         -1   -1    0    0    0  501 -0.00000000000E+00  0.00000000000E+00  0.36038694188E+03  0.36038694188E+03  0.00000000000E+00 0.  1.
          1   -1    0    0  502    0  0.00000000000E+00 -0.00000000000E+00 -0.83419565370E+02  0.83419565370E+02  0.00000000000E+00 0. -1.
          6    1    1    2  502    0  0.19125955272E+01 -0.16643061004E+02  0.15652275746E+03  0.23316093820E+03  0.17200000000E+03 0.  1.
         -6    1    1    2    0  501 -0.19125955272E+01  0.16643061004E+02  0.12044461906E+03  0.21064556905E+03  0.17200000000E+03 0. -1.
</event>
<event>
 4    1  0.3191769E-002  0.2378037E+03  0.7818608E-02  0.1121265E+00
         -1   -1    0    0    0  501 -0.00000000000E+00  0.00000000000E+00  0.43004122374E+02  0.43004122374E+02  0.00000000000E+00 0.  1.
          1   -1    0    0  502    0  0.00000000000E+00 -0.00000000000E+00 -0.17726756105E+04  0.17726756105E+04  0.00000000000E+00 0. -1.
          6    1    1    2  502    0  0.45866853764E+01  0.16415097838E+03 -0.13261232905E+04  0.13472763499E+04  0.17200000000E+03 0. -1.
         -6    1    1    2    0  501 -0.45866853764E+01 -0.16415097838E+03 -0.40354819769E+03  0.46840338304E+03  0.17200000000E+03 0.  1.
</event>
<event>
 4    1  0.3191769E-002  0.1788491E+03  0.7818608E-02  0.1168922E+00
          2   -1    0    0  502    0  0.00000000000E+00  0.00000000000E+00  0.16568850991E+03  0.16568850991E+03  0.00000000000E+00 0. -1.
         -2   -1    0    0    0  501 -0.00000000000E+00 -0.00000000000E+00 -0.32782017865E+03  0.32782017865E+03  0.00000000000E+00 0.  1.
          6    1    1    2  502    0  0.48900711459E+02  0.34243862579E+01 -0.23927648172E+03  0.29873105079E+03  0.17200000000E+03 0. -1.
         -6    1    1    2    0  501 -0.48900711459E+02 -0.34243862579E+01  0.77144812985E+02  0.19477763776E+03  0.17200000000E+03 0. -1.
</event>
<event>
 4    1  0.3191769E-002  0.1841420E+03  0.7818608E-02  0.1163854E+00
         -2   -1    0    0    0  501 -0.00000000000E+00  0.00000000000E+00  0.12739021482E+04  0.12739021482E+04  0.00000000000E+00 0.  1.
          2   -1    0    0  502    0  0.00000000000E+00 -0.00000000000E+00 -0.27796784341E+02  0.27796784341E+02  0.00000000000E+00 0. -1.
          6    1    1    2  502    0 -0.65707611293E+02 -0.26069654752E+01  0.75710187520E+03  0.77917362371E+03  0.17200000000E+03 0.  1.
         -6    1    1    2    0  501  0.65707611293E+02  0.26069654752E+01  0.48900348867E+03  0.52252530884E+03  0.17200000000E+03 0. -1.
</event>
<event>
 4    1  0.3191769E-002  0.2323052E+03  0.7818608E-02  0.1125028E+00
          1   -1    0    0  502    0  0.00000000000E+00  0.00000000000E+00  0.54461321378E+03  0.54461321378E+03  0.00000000000E+00 0. -1.
         -1   -1    0    0    0  501 -0.00000000000E+00 -0.00000000000E+00 -0.15260520104E+03  0.15260520104E+03  0.00000000000E+00 0.  1.
          6    1    1    2  502    0  0.40459450700E+02  0.15081358271E+03 -0.10435547325E+02  0.23253946876E+03  0.17200000000E+03 0.  1.
         -6    1    1    2    0  501 -0.40459450700E+02 -0.15081358271E+03  0.40244356006E+03  0.46467894607E+03  0.17200000000E+03 0. -1.
</event>
<event>
 4    1  0.3191769E-002  0.2808067E+03  0.7818608E-02  0.1095249E+00
         -2   -1    0    0    0  501 -0.00000000000E+00  0.00000000000E+00  0.71855197534E+02  0.71855197534E+02  0.00000000000E+00 0.  1.
          2   -1    0    0  502    0  0.00000000000E+00 -0.00000000000E+00 -0.11137143444E+04  0.11137143444E+04  0.00000000000E+00 0. -1.
          6    1    1    2  502    0 -0.14446859910E+03 -0.16851482163E+03 -0.44913898041E+03  0.52969637054E+03  0.17200000000E+03 0.  1.
         -6    1    1    2    0  501  0.14446859910E+03  0.16851482163E+03 -0.59272016646E+03  0.65587317140E+03  0.17200000000E+03 0.  1.
</event>
<event>
 4    1  0.3191769E-002  0.1728985E+03  0.7818608E-02  0.1174858E+00
         -2   -1    0    0    0  501 -0.00000000000E+00  0.00000000000E+00  0.18631166826E+02  0.18631166826E+02  0.00000000000E+00 0.  1.
          2   -1    0    0  502    0  0.00000000000E+00 -0.00000000000E+00 -0.18258777892E+04  0.18258777892E+04  0.00000000000E+00 0. -1.
          6    1    1    2  502    0 -0.10157939047E+02  0.14377467869E+02 -0.12247467735E+04  0.12368906801E+04  0.17200000000E+03 0. -1.
         -6    1    1    2    0  501  0.10157939047E+02 -0.14377467869E+02 -0.58249984890E+03  0.60761827596E+03  0.17200000000E+03 0.  1.
</event>
<event>
 4    1  0.3191769E-002  0.4339452E+03  0.7818608E-02  0.1032621E+00
          2   -1    0    0  502    0  0.00000000000E+00  0.00000000000E+00  0.14863593319E+04  0.14863593319E+04  0.00000000000E+00 0. -1.
         -2   -1    0    0    0  501 -0.00000000000E+00 -0.00000000000E+00 -0.16221444089E+03  0.16221444089E+03  0.00000000000E+00 0.  1.
          6    1    1    2  502    0  0.38404342535E+03 -0.10599569947E+03  0.10478089791E+04  0.11341129122E+04  0.17200000000E+03 0. -1.
         -6    1    1    2    0  501 -0.38404342535E+03  0.10599569947E+03  0.27633591184E+03  0.51446086054E+03  0.17200000000E+03 0.  1.
</event>
<event>
 4    1  0.3191769E-002  0.6261852E+03  0.7818608E-02  0.9852521E-01
          1   -1    0    0  502    0  0.00000000000E+00  0.00000000000E+00  0.67293587066E+03  0.67293587066E+03  0.00000000000E+00 0. -1.
         -1   -1    0    0    0  501 -0.00000000000E+00 -0.00000000000E+00 -0.59579592986E+03  0.59579592986E+03  0.00000000000E+00 0.  1.
          6    1    1    2  502    0  0.59935750053E+03 -0.57397802506E+02  0.13268306544E+03  0.64008805413E+03  0.17200000000E+03 0. -1.
         -6    1    1    2    0  501 -0.59935750053E+03  0.57397802506E+02 -0.55543124637E+02  0.62864374639E+03  0.17200000000E+03 0.  1.
</event>
<event>
 4    1  0.3191769E-002  0.2081222E+03  0.7818608E-02  0.1143062E+00
          2   -1    0    0  502    0  0.00000000000E+00  0.00000000000E+00  0.15412826167E+04  0.15412826167E+04  0.00000000000E+00 0. -1.
         -2   -1    0    0    0  501 -0.00000000000E+00 -0.00000000000E+00 -0.29075713322E+02  0.29075713322E+02  0.00000000000E+00 0.  1.
          6    1    1    2  502    0 -0.11149886246E+03  0.36039730407E+02  0.89970794740E+03  0.92346588952E+03  0.17200000000E+03 0.  1.
         -6    1    1    2    0  501  0.11149886246E+03 -0.36039730407E+02  0.61249895595E+03  0.64689244047E+03  0.17200000000E+03 0. -1.
</event>
<event>
 4    1  0.3191769E-002  0.4310947E+03  0.7818608E-02  0.1033515E+00
         -1   -1    0    0    0  501 -0.00000000000E+00  0.00000000000E+00  0.20593650080E+03  0.20593650080E+03  0.00000000000E+00 0.  1.
          1   -1    0    0  502    0  0.00000000000E+00 -0.00000000000E+00 -0.10911659476E+04  0.10911659476E+04  0.00000000000E+00 0. -1.
          6    1    1    2  502    0  0.34245994088E+03  0.19743320376E+03 -0.71234488981E+03  0.83263312635E+03  0.17200000000E+03 0. -1.
         -6    1    1    2    0  501 -0.34245994088E+03 -0.19743320376E+03 -0.17288455694E+03  0.46446932200E+03  0.17200000000E+03 0.  1.
</event>
<event>
 4    1  0.3191769E-002  0.2049536E+03  0.7818608E-02  0.1145626E+00
          1   -1    0    0  502    0  0.00000000000E+00  0.00000000000E+00  0.21596994259E+04  0.21596994259E+04  0.00000000000E+00 0. -1.
         -1   -1    0    0    0  501 -0.00000000000E+00 -0.00000000000E+00 -0.19572904517E+02  0.19572904517E+02  0.00000000000E+00 0.  1.
          6    1    1    2  502    0  0.13088917962E+02  0.11068270276E+03  0.98368994836E+03  0.10048143585E+04  0.17200000000E+03 0.  1.
         -6    1    1    2    0  501 -0.13088917962E+02 -0.11068270276E+03  0.11564365730E+04  0.11744579719E+04  0.17200000000E+03 0.  1.
</event>
<event>
 4    1  0.3191769E-002  0.2620857E+03  0.7818608E-02  0.1105897E+00
          2   -1    0    0  502    0  0.00000000000E+00  0.00000000000E+00  0.43402188353E+04  0.43402188353E+04  0.00000000000E+00 0. -1.
         -2   -1    0    0    0  501 -0.00000000000E+00 -0.00000000000E+00 -0.15925698594E+02  0.15925698594E+02  0.00000000000E+00 0.  1.
          6    1    1    2  502    0 -0.10249555259E+03 -0.16911415188E+03  0.23343534423E+04  0.23490199931E+04  0.17200000000E+03 0. -1.
         -6    1    1    2    0  501  0.10249555259E+03  0.16911415188E+03  0.19899396944E+04  0.20071245407E+04  0.17200000000E+03 0. -1.
</event>
<event>
 4    1  0.3191769E-002  0.1791190E+03  0.7818608E-02  0.1168658E+00
          1   -1    0    0  502    0  0.00000000000E+00  0.00000000000E+00  0.12190217679E+04  0.12190217679E+04  0.00000000000E+00 0. -1.
         -1   -1    0    0    0  501 -0.00000000000E+00 -0.00000000000E+00 -0.28791232391E+02  0.28791232391E+02  0.00000000000E+00 0.  1.
          6    1    1    2  502    0  0.24620677206E+02 -0.43513585236E+02  0.77793427726E+03  0.79828901381E+03  0.17200000000E+03 0. -1.
         -6    1    1    2    0  501 -0.24620677206E+02  0.43513585236E+02  0.41229625822E+03  0.44952398644E+03  0.17200000000E+03 0.  1.
</event>
<event>
 4    1  0.3191769E-002  0.2332247E+03  0.7818608E-02  0.1124390E+00
         -1   -1    0    0    0  501 -0.00000000000E+00  0.00000000000E+00  0.55156467304E+02  0.55156467304E+02  0.00000000000E+00 0.  1.
          1   -1    0    0  502    0  0.00000000000E+00 -0.00000000000E+00 -0.11595510222E+04  0.11595510222E+04  0.00000000000E+00 0. -1.
          6    1    1    2  502    0 -0.92820338945E+01  0.15723745255E+03 -0.31734495829E+03  0.39382939859E+03  0.17200000000E+03 0. -1.
         -6    1    1    2    0  501  0.92820338945E+01 -0.15723745255E+03 -0.78704959659E+03  0.82087809091E+03  0.17200000000E+03 0. -1.
</event>
<event>
 4    1  0.3191769E-002  0.6947940E+03  0.7818608E-02  0.9726177E-01
          1   -1    0    0  502    0  0.00000000000E+00  0.00000000000E+00  0.17124473039E+03  0.17124473039E+03  0.00000000000E+00 0. -1.
         -1   -1    0    0    0  501 -0.00000000000E+00 -0.00000000000E+00 -0.28236415839E+04  0.28236415839E+04  0.00000000000E+00 0.  1.
          6    1    1    2  502    0 -0.12620532205E+02  0.67304939198E+03 -0.12654807674E+04  0.14436690529E+04  0.17200000000E+03 0. -1.
         -6    1    1    2    0  501  0.12620532205E+02 -0.67304939198E+03 -0.13869160861E+04  0.15512172613E+04  0.17200000000E+03 0.  1.
</event>
<event>
 4    1  0.3191769E-002  0.4504097E+03  0.7818608E-02  0.1027600E+00
         -2   -1    0    0    0  501 -0.00000000000E+00  0.00000000000E+00  0.25687861100E+03  0.25687861100E+03  0.00000000000E+00 0.  1.
          2   -1    0    0  502    0  0.00000000000E+00 -0.00000000000E+00 -0.22069590519E+04  0.22069590519E+04  0.00000000000E+00 0. -1.
          6    1    1    2  502    0  0.22015528776E+03 -0.35329391470E+03 -0.19622341523E+04  0.20132639691E+04  0.17200000000E+03 0. -1.
         -6    1    1    2    0  501 -0.22015528776E+03  0.35329391470E+03  0.12153711325E+02  0.45057369385E+03  0.17200000000E+03 0.  1.
</event>
<event>
 4    1  0.3191769E-002  0.2093112E+03  0.7818608E-02  0.1142113E+00
         -2   -1    0    0    0  501 -0.00000000000E+00  0.00000000000E+00  0.38196854925E+03  0.38196854925E+03  0.00000000000E+00 0.  1.
          2   -1    0    0  502    0  0.00000000000E+00 -0.00000000000E+00 -0.11874384951E+03  0.11874384951E+03  0.00000000000E+00 0. -1.
          6    1    1    2  502    0  0.46019184576E+00 -0.11927687694E+03  0.17782231713E+03  0.27464879686E+03  0.17200000000E+03 0. -1.
         -6    1    1    2    0  501 -0.46019184576E+00  0.11927687694E+03  0.85402382614E+02  0.22606360190E+03  0.17200000000E+03 0.  1.
</event>
<event>
 4    1  0.3191769E-002  0.3737738E+03  0.7818608E-02  0.1053259E+00
          2   -1    0    0  502    0  0.00000000000E+00  0.00000000000E+00  0.57498793394E+03  0.57498793394E+03  0.00000000000E+00 0. -1.
         -2   -1    0    0    0  501 -0.00000000000E+00 -0.00000000000E+00 -0.33484485074E+03  0.33484485074E+03  0.00000000000E+00 0.  1.
          6    1    1    2  502    0 -0.81767963308E+02  0.32161597852E+03 -0.11821515538E+03  0.39202252540E+03  0.17200000000E+03 0.  1.
         -6    1    1    2    0  501  0.81767963308E+02 -0.32161597852E+03  0.35835823858E+03  0.51781025928E+03  0.17200000000E+03 0.  1.
</event>
<event>
 4    1  0.3191769E-002  0.2695280E+03  0.7818608E-02  0.1101550E+00
         -1   -1    0    0    0  501 -0.00000000000E+00  0.00000000000E+00  0.74220041566E+02  0.74220041566E+02  0.00000000000E+00 0.  1.
          1   -1    0    0  502    0  0.00000000000E+00 -0.00000000000E+00 -0.17069526659E+04  0.17069526659E+04  0.00000000000E+00 0. -1.
          6    1    1    2  502    0  0.20093676069E+03  0.51824476680E+02 -0.13980426736E+04  0.14237867380E+04  0.17200000000E+03 0. -1.
         -6    1    1    2    0  501 -0.20093676069E+03 -0.51824476680E+02 -0.23468995074E+03  0.35738596945E+03  0.17200000000E+03 0.  1.
</event>
<event>
 4    1  0.3191769E-002  0.6513315E+03  0.7818608E-02  0.9804284E-01
         -1   -1    0    0    0  501 -0.00000000000E+00  0.00000000000E+00  0.11216094449E+04  0.11216094449E+04  0.00000000000E+00 0.  1.
          1   -1    0    0  502    0  0.00000000000E+00 -0.00000000000E+00 -0.42398089426E+03  0.42398089426E+03  0.00000000000E+00 0. -1.
          6    1    1    2  502    0 -0.62347002885E+03 -0.77031393731E+02  0.94971923577E+02  0.65821909632E+03  0.17200000000E+03 0. -1.
         -6    1    1    2    0  501  0.62347002885E+03  0.77031393731E+02  0.60265662711E+03  0.88737124288E+03  0.17200000000E+03 0.  1.
</event>
<event>
 4    1  0.3191769E-002  0.1803644E+03  0.7818608E-02  0.1167451E+00
          1   -1    0    0  502    0  0.00000000000E+00  0.00000000000E+00  0.40381864787E+03  0.40381864787E+03  0.00000000000E+00 0. -1.
         -1   -1    0    0    0  501 -0.00000000000E+00 -0.00000000000E+00 -0.22587466653E+03  0.22587466653E+03  0.00000000000E+00 0.  1.
          6    1    1    2  502    0  0.53886756449E+02 -0.65976126278E+01  0.34150678899E+03  0.38621004381E+03  0.17200000000E+03 0. -1.
         -6    1    1    2    0  501 -0.53886756449E+02  0.65976126278E+01 -0.16356280765E+03  0.24348327059E+03  0.17200000000E+03 0.  1.
</event>
<event>
 4    1  0.3191769E-002  0.1740184E+03  0.7818608E-02  0.1173721E+00
         -1   -1    0    0    0  501 -0.00000000000E+00  0.00000000000E+00  0.84549570600E+03  0.84549570600E+03  0.00000000000E+00 0.  1.
          1   -1    0    0  502    0  0.00000000000E+00 -0.00000000000E+00 -0.35832359718E+02  0.35832359718E+02  0.00000000000E+00 0. -1.
          6    1    1    2  502    0  0.13786405877E+02  0.22546199079E+02  0.39545743351E+03  0.43205205450E+03  0.17200000000E+03 0. -1.
         -6    1    1    2    0  501 -0.13786405877E+02 -0.22546199079E+02  0.41420591277E+03  0.44927601121E+03  0.17200000000E+03 0. -1.
</event>
<event>
 4    1  0.3191769E-002  0.2317099E+03  0.7818608E-02  0.1125442E+00
         -2   -1    0    0    0  501 -0.00000000000E+00  0.00000000000E+00  0.22487250105E+02  0.22487250105E+02  0.00000000000E+00 0.  1.
          2   -1    0    0  502    0  0.00000000000E+00 -0.00000000000E+00 -0.24445645284E+04  0.24445645284E+04  0.00000000000E+00 0. -1.
          6    1    1    2  502    0  0.95503519441E+02 -0.12241144154E+03 -0.13994174025E+04  0.14184704966E+04  0.17200000000E+03 0. -1.
         -6    1    1    2    0  501 -0.95503519441E+02  0.12241144154E+03 -0.10226598758E+04  0.10485812819E+04  0.17200000000E+03 0.  1.
</event>
<event>
 4    1  0.3191769E-002  0.2059497E+03  0.7818608E-02  0.1144814E+00
         -1   -1    0    0    0  501 -0.00000000000E+00  0.00000000000E+00  0.32600024205E+03  0.32600024205E+03  0.00000000000E+00 0.  1.
          1   -1    0    0  502    0  0.00000000000E+00 -0.00000000000E+00 -0.18098269542E+03  0.18098269542E+03  0.00000000000E+00 0. -1.
          6    1    1    2  502    0 -0.35051853660E+02  0.10771549458E+03 -0.61890048461E+02  0.21504799073E+03  0.17200000000E+03 0. -1.
         -6    1    1    2    0  501  0.35051853660E+02 -0.10771549458E+03  0.20690759509E+03  0.29193494673E+03  0.17200000000E+03 0.  1.
</event>
<event>
 4    1  0.3191769E-002  0.8181777E+03  0.7818608E-02  0.9534072E-01
          2   -1    0    0  502    0  0.00000000000E+00  0.00000000000E+00  0.42080238405E+03  0.42080238405E+03  0.00000000000E+00 0. -1.
         -2   -1    0    0    0  501 -0.00000000000E+00 -0.00000000000E+00 -0.15927127252E+04  0.15927127252E+04  0.00000000000E+00 0.  1.
          6    1    1    2  502    0 -0.43917476482E+03 -0.66854784597E+03 -0.55111575729E+03  0.98648024529E+03  0.17200000000E+03 0. -1.
         -6    1    1    2    0  501  0.43917476482E+03  0.66854784597E+03 -0.62079458382E+03  0.10270348639E+04  0.17200000000E+03 0.  1.
</event>
<event>
 4    1  0.3191769E-002  0.1770701E+03  0.7818608E-02  0.1170669E+00
         -2   -1    0    0    0  501 -0.00000000000E+00  0.00000000000E+00  0.27257645608E+04  0.27257645608E+04  0.00000000000E+00 0.  1.
          2   -1    0    0  502    0  0.00000000000E+00 -0.00000000000E+00 -0.12513922883E+02  0.12513922883E+02  0.00000000000E+00 0. -1.
          6    1    1    2  502    0 -0.45986446230E+01 -0.41817013729E+02  0.17458154915E+04  0.17547722190E+04  0.17200000000E+03 0.  1.
         -6    1    1    2    0  501  0.45986446230E+01  0.41817013729E+02  0.96743514639E+03  0.98350626467E+03  0.17200000000E+03 0. -1.
</event>
<event>
 4    1  0.3191769E-002  0.2372818E+03  0.7818608E-02  0.1121617E+00
          2   -1    0    0  502    0  0.00000000000E+00  0.00000000000E+00  0.11496420190E+04  0.11496420190E+04  0.00000000000E+00 0. -1.
         -2   -1    0    0    0  501 -0.00000000000E+00 -0.00000000000E+00 -0.66590613222E+02  0.66590613222E+02  0.00000000000E+00 0.  1.
          6    1    1    2  502    0 -0.15695443184E+03  0.45650460306E+02  0.85430672463E+03  0.88664685075E+03  0.17200000000E+03 0. -1.
         -6    1    1    2    0  501  0.15695443184E+03 -0.45650460306E+02  0.22874468119E+03  0.32958578151E+03  0.17200000000E+03 0. -1.
</event>
<event>
 4    1  0.3191769E-002  0.2036224E+03  0.7818608E-02  0.1146718E+00
         -2   -1    0    0    0  501 -0.00000000000E+00  0.00000000000E+00  0.48050018405E+02  0.48050018405E+02  0.00000000000E+00 0.  1.
          2   -1    0    0  502    0  0.00000000000E+00 -0.00000000000E+00 -0.87205399517E+03  0.87205399517E+03  0.00000000000E+00 0. -1.
          6    1    1    2  502    0  0.10391403830E+03 -0.32862400744E+02 -0.45915253516E+03  0.50227792633E+03  0.17200000000E+03 0. -1.
         -6    1    1    2    0  501 -0.10391403830E+03  0.32862400744E+02 -0.36485144161E+03  0.41782608725E+03  0.17200000000E+03 0.  1.
</event>
<event>
 4    1  0.3191769E-002  0.2677017E+03  0.7818608E-02  0.1102602E+00
         -1   -1    0    0    0  501 -0.00000000000E+00  0.00000000000E+00  0.58976747294E+03  0.58976747294E+03  0.00000000000E+00 0.  1.
          1   -1    0    0  502    0  0.00000000000E+00 -0.00000000000E+00 -0.30277611088E+03  0.30277611088E+03  0.00000000000E+00 0. -1.
          6    1    1    2  502    0  0.11450866269E+03 -0.17019975538E+03 -0.20180211308E+03  0.33524361799E+03  0.17200000000E+03 0. -1.
         -6    1    1    2    0  501 -0.11450866269E+03  0.17019975538E+03  0.48879347514E+03  0.55729996582E+03  0.17200000000E+03 0.  1.
</event>
<event>
 4    1  0.3191769E-002  0.1802324E+03  0.7818608E-02  0.1167578E+00
          1   -1    0    0  502    0  0.00000000000E+00  0.00000000000E+00  0.34031131957E+03  0.34031131957E+03  0.00000000000E+00 0. -1.
         -1   -1    0    0    0  501 -0.00000000000E+00 -0.00000000000E+00 -0.95885930134E+02  0.95885930134E+02  0.00000000000E+00 0.  1.
          6    1    1    2  502    0 -0.28779539493E+02  0.45513375446E+02  0.13686800199E+03  0.22631080223E+03  0.17200000000E+03 0. -1.
         -6    1    1    2    0  501  0.28779539493E+02 -0.45513375446E+02  0.10755738745E+03  0.20988644747E+03  0.17200000000E+03 0.  1.
</event>
<event>
 4    1  0.3191769E-002  0.1766662E+03  0.7818608E-02  0.1171069E+00
         -2   -1    0    0    0  501 -0.00000000000E+00  0.00000000000E+00  0.15237510015E+02  0.15237510015E+02  0.00000000000E+00 0.  1.
          2   -1    0    0  502    0  0.00000000000E+00 -0.00000000000E+00 -0.22113486835E+04  0.22113486835E+04  0.00000000000E+00 0. -1.
          6    1    1    2  502    0 -0.14604289738E+02 -0.37598849616E+02 -0.14003585711E+04  0.14114584962E+04  0.17200000000E+03 0. -1.
         -6    1    1    2    0  501  0.14604289738E+02  0.37598849616E+02 -0.79575260243E+03  0.81512769738E+03  0.17200000000E+03 0.  1.
</event>
<event>
 4    1  0.3191769E-002  0.2000236E+03  0.7818608E-02  0.1149719E+00
          1   -1    0    0  502    0  0.00000000000E+00  0.00000000000E+00  0.71305861824E+02  0.71305861824E+02  0.00000000000E+00 0. -1.
         -1   -1    0    0    0  501 -0.00000000000E+00 -0.00000000000E+00 -0.61936526059E+03  0.61936526059E+03  0.00000000000E+00 0.  1.
          6    1    1    2  502    0 -0.99644137164E+02  0.22282306899E+02 -0.37995178292E+03  0.42938655384E+03  0.17200000000E+03 0. -1.
         -6    1    1    2    0  501  0.99644137164E+02 -0.22282306899E+02 -0.16810761585E+03  0.26128456858E+03  0.17200000000E+03 0.  1.
</event>
<event>
 4    1  0.3191769E-002  0.1806294E+03  0.7818608E-02  0.1167195E+00
         -1   -1    0    0    0  501 -0.00000000000E+00  0.00000000000E+00  0.68881738634E+02  0.68881738634E+02  0.00000000000E+00 0.  1.
          1   -1    0    0  502    0  0.00000000000E+00 -0.00000000000E+00 -0.62093231513E+03  0.62093231513E+03  0.00000000000E+00 0. -1.
          6    1    1    2  502    0  0.35730169468E+02 -0.42027701562E+02 -0.10805561785E+03  0.21048275287E+03  0.17200000000E+03 0.  1.
         -6    1    1    2    0  501 -0.35730169468E+02  0.42027701562E+02 -0.44399495864E+03  0.47933130089E+03  0.17200000000E+03 0. -1.
</event>
<event>
 4    1  0.3191769E-002  0.2184827E+03  0.7818608E-02  0.1135019E+00
         -2   -1    0    0    0  501 -0.00000000000E+00  0.00000000000E+00  0.14721644839E+03  0.14721644839E+03  0.00000000000E+00 0.  1.
          2   -1    0    0  502    0  0.00000000000E+00 -0.00000000000E+00 -0.16657781094E+04  0.16657781094E+04  0.00000000000E+00 0. -1.
          6    1    1    2  502    0  0.12866126071E+03 -0.39961893431E+02 -0.15727818553E+04  0.15878845794E+04  0.17200000000E+03 0. -1.
         -6    1    1    2    0  501 -0.12866126071E+03  0.39961893431E+02  0.54220194279E+02  0.22510997846E+03  0.17200000000E+03 0.  1.
</event>
<event>
 4    1  0.3191769E-002  0.2192475E+03  0.7818608E-02  0.1134445E+00
          2   -1    0    0  502    0  0.00000000000E+00  0.00000000000E+00  0.40321899010E+04  0.40321899010E+04  0.00000000000E+00 0. -1.
         -2   -1    0    0    0  501 -0.00000000000E+00 -0.00000000000E+00 -0.14560165597E+02  0.14560165597E+02  0.00000000000E+00 0.  1.
          6    1    1    2  502    0 -0.13311166457E+03  0.27690504680E+02  0.11474424304E+04  0.11682010146E+04  0.17200000000E+03 0.  1.
         -6    1    1    2    0  501  0.13311166457E+03 -0.27690504680E+02  0.28701873050E+04  0.28785490520E+04  0.17200000000E+03 0. -1.
</event>
<event>
 4    1  0.3191769E-002  0.2609750E+03  0.7818608E-02  0.1106559E+00
          2   -1    0    0  502    0  0.00000000000E+00  0.00000000000E+00  0.98999244886E+03  0.98999244886E+03  0.00000000000E+00 0. -1.
         -2   -1    0    0    0  501 -0.00000000000E+00 -0.00000000000E+00 -0.73012978871E+02  0.73012978871E+02  0.00000000000E+00 0.  1.
          6    1    1    2  502    0 -0.60873800558E+02  0.18659665851E+03  0.58621732905E+03  0.64168425993E+03  0.17200000000E+03 0. -1.
         -6    1    1    2    0  501  0.60873800558E+02 -0.18659665851E+03  0.33076214093E+03  0.42132116780E+03  0.17200000000E+03 0.  1.
</event>
<event>
 4    1  0.3191769E-002  0.1999316E+03  0.7818608E-02  0.1149797E+00
          1   -1    0    0  502    0  0.00000000000E+00  0.00000000000E+00  0.24222692927E+04  0.24222692927E+04  0.00000000000E+00 0. -1.
         -1   -1    0    0    0  501 -0.00000000000E+00 -0.00000000000E+00 -0.24676813450E+02  0.24676813450E+02  0.00000000000E+00 0.  1.
          6    1    1    2  502    0 -0.84050010213E+02  0.57656351638E+02  0.19029779223E+04  0.19134517584E+04  0.17200000000E+03 0. -1.
         -6    1    1    2    0  501  0.84050010213E+02 -0.57656351638E+02  0.49461455701E+03  0.53349434778E+03  0.17200000000E+03 0.  1.
</event>
<event>
 4    1  0.3191769E-002  0.1881011E+03  0.7818608E-02  0.1160185E+00
          2   -1    0    0  502    0  0.00000000000E+00  0.00000000000E+00  0.10268689495E+04  0.10268689495E+04  0.00000000000E+00 0. -1.
         -2   -1    0    0    0  501 -0.00000000000E+00 -0.00000000000E+00 -0.35843835315E+02  0.35843835315E+02  0.00000000000E+00 0.  1.
          6    1    1    2  502    0  0.15355938546E+02  0.74580345543E+02  0.39096554218E+03  0.43386183049E+03  0.17200000000E+03 0.  1.
         -6    1    1    2    0  501 -0.15355938546E+02 -0.74580345543E+02  0.60005957196E+03  0.62885095428E+03  0.17200000000E+03 0.  1.
</event>
<event>
 4    1  0.3191769E-002  0.2266771E+03  0.7818608E-02  0.1129001E+00
          1   -1    0    0  502    0  0.00000000000E+00  0.00000000000E+00  0.12140710395E+04  0.12140710395E+04  0.00000000000E+00 0. -1.
         -1   -1    0    0    0  501 -0.00000000000E+00 -0.00000000000E+00 -0.57134599809E+02  0.57134599809E+02  0.00000000000E+00 0.  1.
          6    1    1    2  502    0  0.51285498813E+02  0.13844969987E+03  0.90209505976E+03  0.93013870935E+03  0.17200000000E+03 0. -1.
         -6    1    1    2    0  501 -0.51285498813E+02 -0.13844969987E+03  0.25484137989E+03  0.34106692992E+03  0.17200000000E+03 0.  1.
</event>
<event>
 4    1  0.3191769E-002  0.1997044E+03  0.7818608E-02  0.1149989E+00
          2   -1    0    0  502    0  0.00000000000E+00  0.00000000000E+00  0.12627846418E+04  0.12627846418E+04  0.00000000000E+00 0. -1.
         -2   -1    0    0    0  501 -0.00000000000E+00 -0.00000000000E+00 -0.45102431275E+02  0.45102431275E+02  0.00000000000E+00 0.  1.
          6    1    1    2  502    0 -0.88875841345E+02  0.48979067430E+02  0.96687811427E+03  0.98728676284E+03  0.17200000000E+03 0. -1.
         -6    1    1    2    0  501  0.88875841345E+02 -0.48979067430E+02  0.25080409623E+03  0.32060031021E+03  0.17200000000E+03 0.  1.
</event>
<event>
 4    1  0.3191769E-002  0.1977311E+03  0.7818608E-02  0.1151667E+00
          1   -1    0    0  502    0  0.00000000000E+00  0.00000000000E+00  0.92839993272E+03  0.92839993272E+03  0.00000000000E+00 0. -1.
         -1   -1    0    0    0  501 -0.00000000000E+00 -0.00000000000E+00 -0.44700403123E+02  0.44700403123E+02  0.00000000000E+00 0.  1.
          6    1    1    2  502    0 -0.83484416429E+02  0.50437670984E+02  0.55891096937E+03  0.59285670961E+03  0.17200000000E+03 0.  1.
         -6    1    1    2    0  501  0.83484416429E+02 -0.50437670984E+02  0.32478856023E+03  0.38024362624E+03  0.17200000000E+03 0. -1.
</event>
<event>
 4    1  0.3191769E-002  0.1782262E+03  0.7818608E-02  0.1169531E+00
         -2   -1    0    0    0  501 -0.00000000000E+00  0.00000000000E+00  0.32476955200E+04  0.32476955200E+04  0.00000000000E+00 0.  1.
          2   -1    0    0  502    0  0.00000000000E+00 -0.00000000000E+00 -0.27661909248E+02  0.27661909248E+02  0.00000000000E+00 0. -1.
          6    1    1    2  502    0 -0.22010563418E+02  0.41184003050E+02  0.29331743914E+03  0.34321961936E+03  0.17200000000E+03 0. -1.
         -6    1    1    2    0  501  0.22010563418E+02 -0.41184003050E+02  0.29267161716E+04  0.29321378099E+04  0.17200000000E+03 0.  1.
</event>
<event>
 4    1  0.3191769E-002  0.1919278E+03  0.7818608E-02  0.1156734E+00
          1   -1    0    0  502    0  0.00000000000E+00  0.00000000000E+00  0.24112603230E+02  0.24112603230E+02  0.00000000000E+00 0. -1.
         -1   -1    0    0    0  501 -0.00000000000E+00 -0.00000000000E+00 -0.15329724171E+04  0.15329724171E+04  0.00000000000E+00 0.  1.
          6    1    1    2  502    0 -0.82554113430E+02  0.20907255244E+02 -0.80018313105E+03  0.82287868983E+03  0.17200000000E+03 0. -1.
         -6    1    1    2    0  501  0.82554113430E+02 -0.20907255244E+02 -0.70867668278E+03  0.73420633045E+03  0.17200000000E+03 0. -1.
</event>
<event>
 4    1  0.3191769E-002  0.2657348E+03  0.7818608E-02  0.1103746E+00
          1   -1    0    0  502    0  0.00000000000E+00  0.00000000000E+00  0.30272743473E+03  0.30272743473E+03  0.00000000000E+00 0. -1.
         -1   -1    0    0    0  501 -0.00000000000E+00 -0.00000000000E+00 -0.64332021033E+03  0.64332021033E+03  0.00000000000E+00 0.  1.
          6    1    1    2  502    0 -0.19194946483E+03 -0.64702345874E+02  0.20735566545E+03  0.33706284667E+03  0.17200000000E+03 0. -1.
         -6    1    1    2    0  501  0.19194946483E+03  0.64702345874E+02 -0.54794844106E+03  0.60898479839E+03  0.17200000000E+03 0.  1.
</event>
<event>
 4    1  0.3191769E-002  0.1757833E+03  0.7818608E-02  0.1171948E+00
         -3   -1    0    0    0  501 -0.00000000000E+00  0.00000000000E+00  0.35733941737E+03  0.35733941737E+03  0.00000000000E+00 0.  1.
          3   -1    0    0  502    0  0.00000000000E+00 -0.00000000000E+00 -0.13687567099E+03  0.13687567099E+03  0.00000000000E+00 0. -1.
          6    1    1    2  502    0  0.12425062621E+02  0.34079009148E+02 -0.39721099566E+02  0.18021522354E+03  0.17200000000E+03 0. -1.
         -6    1    1    2    0  501 -0.12425062621E+02 -0.34079009148E+02  0.26018484595E+03  0.31399986482E+03  0.17200000000E+03 0.  1.
</event>
<event>
 4    1  0.3191769E-002  0.7471197E+03  0.7818608E-02  0.9639880E-01
         -1   -1    0    0    0  501 -0.00000000000E+00  0.00000000000E+00  0.68041899966E+03  0.68041899966E+03  0.00000000000E+00 0.  1.
          1   -1    0    0  502    0  0.00000000000E+00 -0.00000000000E+00 -0.84568025244E+03  0.84568025244E+03  0.00000000000E+00 0. -1.
          6    1    1    2  502    0 -0.68068802283E+03 -0.25547522866E+03 -0.21466688327E+03  0.77734782926E+03  0.17200000000E+03 0. -1.
         -6    1    1    2    0  501  0.68068802283E+03  0.25547522866E+03  0.49405630490E+02  0.74875142284E+03  0.17200000000E+03 0.  1.
</event>
<event>
 4    1  0.3191769E-002  0.2080467E+03  0.7818608E-02  0.1143122E+00
          1   -1    0    0  502    0  0.00000000000E+00  0.00000000000E+00  0.50425491330E+03  0.50425491330E+03  0.00000000000E+00 0. -1.
         -1   -1    0    0    0  501 -0.00000000000E+00 -0.00000000000E+00 -0.92522284801E+02  0.92522284801E+02  0.00000000000E+00 0.  1.
          6    1    1    2  502    0  0.11577565965E+03 -0.17188042679E+02  0.12565453941E+03  0.24304833975E+03  0.17200000000E+03 0.  1.
         -6    1    1    2    0  501 -0.11577565965E+03  0.17188042679E+02  0.28607808909E+03  0.35372885836E+03  0.17200000000E+03 0. -1.
</event>
<event>
 4    1  0.3191769E-002  0.2880690E+03  0.7818608E-02  0.1091362E+00
          2   -1    0    0  502    0  0.00000000000E+00  0.00000000000E+00  0.12878436953E+04  0.12878436953E+04  0.00000000000E+00 0. -1.
         -2   -1    0    0    0  501 -0.00000000000E+00 -0.00000000000E+00 -0.64846794918E+02  0.64846794918E+02  0.00000000000E+00 0.  1.
          6    1    1    2  502    0  0.15034280406E+03  0.17549010187E+03  0.55767904325E+03  0.62768594844E+03  0.17200000000E+03 0.  1.
         -6    1    1    2    0  501 -0.15034280406E+03 -0.17549010187E+03  0.66531785714E+03  0.72500454179E+03  0.17200000000E+03 0.  1.
</event>
<event>
 4    1  0.3191769E-002  0.4788682E+03  0.7818608E-02  0.1019447E+00
         -1   -1    0    0    0  501 -0.00000000000E+00  0.00000000000E+00  0.27630233795E+03  0.27630233795E+03  0.00000000000E+00 0.  1.
          1   -1    0    0  502    0  0.00000000000E+00 -0.00000000000E+00 -0.83053365235E+03  0.83053365235E+03  0.00000000000E+00 0. -1.
          6    1    1    2  502    0  0.31257124502E+03 -0.31942130668E+03 -0.29189384434E+03  0.56081794795E+03  0.17200000000E+03 0. -1.
         -6    1    1    2    0  501 -0.31257124502E+03  0.31942130668E+03 -0.26233747006E+03  0.54601804235E+03  0.17200000000E+03 0.  1.
</event>
<event>
 4    1  0.3191769E-002  0.2137982E+03  0.7818608E-02  0.1138593E+00
         -2   -1    0    0    0  501 -0.00000000000E+00  0.00000000000E+00  0.25361297257E+03  0.25361297257E+03  0.00000000000E+00 0.  1.
          2   -1    0    0  502    0  0.00000000000E+00 -0.00000000000E+00 -0.22761930392E+03  0.22761930392E+03  0.00000000000E+00 0. -1.
          6    1    1    2  502    0 -0.11202233095E+03  0.59805383249E+02 -0.96787894568E+02  0.23468613728E+03  0.17200000000E+03 0. -1.
         -6    1    1    2    0  501  0.11202233095E+03 -0.59805383249E+02  0.12278156322E+03  0.24654613922E+03  0.17200000000E+03 0.  1.
</event>
<event>
 4    1  0.3191769E-002  0.2961268E+03  0.7818608E-02  0.1087193E+00
         -2   -1    0    0    0  501 -0.00000000000E+00  0.00000000000E+00  0.53968184364E+02  0.53968184364E+02  0.00000000000E+00 0.  1.
          2   -1    0    0  502    0  0.00000000000E+00 -0.00000000000E+00 -0.17724850259E+04  0.17724850259E+04  0.00000000000E+00 0. -1.
          6    1    1    2  502    0  0.18283703629E+03  0.15709141308E+03 -0.11228052075E+04  0.11611987891E+04  0.17200000000E+03 0. -1.
         -6    1    1    2    0  501 -0.18283703629E+03 -0.15709141308E+03 -0.59571163404E+03  0.66525442113E+03  0.17200000000E+03 0.  1.
</event>
<event>
 4    1  0.3191769E-002  0.3238917E+03  0.7818608E-02  0.1073872E+00
         -2   -1    0    0    0  501 -0.00000000000E+00  0.00000000000E+00  0.34058260870E+03  0.34058260870E+03  0.00000000000E+00 0.  1.
          2   -1    0    0  502    0  0.00000000000E+00 -0.00000000000E+00 -0.48724986376E+03  0.48724986376E+03  0.00000000000E+00 0. -1.
          6    1    1    2  502    0  0.99168923483E+02  0.25590497339E+03 -0.32437384125E+03  0.45839308424E+03  0.17200000000E+03 0. -1.
         -6    1    1    2    0  501 -0.99168923483E+02 -0.25590497339E+03  0.17770658619E+03  0.36943938822E+03  0.17200000000E+03 0.  1.
</event>
<event>
 4    1  0.3191769E-002  0.2992816E+03  0.7818608E-02  0.1085600E+00
          1   -1    0    0  502    0  0.00000000000E+00  0.00000000000E+00  0.33362363037E+04  0.33362363037E+04  0.00000000000E+00 0. -1.
         -1   -1    0    0    0  501 -0.00000000000E+00 -0.00000000000E+00 -0.26909235909E+02  0.26909235909E+02  0.00000000000E+00 0.  1.
          6    1    1    2  502    0 -0.23532962638E+03  0.67863524066E+02  0.17352297993E+04  0.17608497798E+04  0.17200000000E+03 0.  1.
         -6    1    1    2    0  501  0.23532962638E+03 -0.67863524066E+02  0.15740972685E+04  0.16022957598E+04  0.17200000000E+03 0.  1.
</event>
<event>
 4    1  0.3191769E-002  0.2193658E+03  0.7818608E-02  0.1134357E+00
          1   -1    0    0  502    0  0.00000000000E+00  0.00000000000E+00  0.12623566192E+04  0.12623566192E+04  0.00000000000E+00 0. -1.
         -1   -1    0    0    0  501 -0.00000000000E+00 -0.00000000000E+00 -0.51523234195E+02  0.51523234195E+02  0.00000000000E+00 0.  1.
          6    1    1    2  502    0 -0.13821142617E+02 -0.13544861282E+03  0.94047843445E+03  0.96572306401E+03  0.17200000000E+03 0. -1.
         -6    1    1    2    0  501  0.13821142617E+02  0.13544861282E+03  0.27035495052E+03  0.34815678935E+03  0.17200000000E+03 0.  1.
</event>
<event>
 4    1  0.3191769E-002  0.5276931E+03  0.7818608E-02  0.1006793E+00
         -2   -1    0    0    0  501 -0.00000000000E+00  0.00000000000E+00  0.22857492383E+03  0.22857492383E+03  0.00000000000E+00 0.  1.
          2   -1    0    0  502    0  0.00000000000E+00 -0.00000000000E+00 -0.12401764391E+04  0.12401764391E+04  0.00000000000E+00 0. -1.
          6    1    1    2  502    0  0.46742969895E+03  0.17431438251E+03 -0.40813999629E+03  0.66711189764E+03  0.17200000000E+03 0. -1.
         -6    1    1    2    0  501 -0.46742969895E+03 -0.17431438251E+03 -0.60346151895E+03  0.80163946526E+03  0.17200000000E+03 0.  1.
</event>
<event>
 4    1  0.3191769E-002  0.1769258E+03  0.7818608E-02  0.1170812E+00
          1   -1    0    0  502    0  0.00000000000E+00  0.00000000000E+00  0.37519989065E+04  0.37519989065E+04  0.00000000000E+00 0. -1.
         -1   -1    0    0    0  501 -0.00000000000E+00 -0.00000000000E+00 -0.10333666673E+02  0.10333666673E+02  0.00000000000E+00 0.  1.
          6    1    1    2  502    0 -0.40078600265E+02 -0.10604016189E+02  0.10451660762E+04  0.10600353137E+04  0.17200000000E+03 0.  1.
         -6    1    1    2    0  501  0.40078600265E+02  0.10604016189E+02  0.26964991636E+04  0.27022972595E+04  0.17200000000E+03 0.  1.
</event>
<event>
 4    1  0.3191769E-002  0.2723903E+03  0.7818608E-02  0.1099919E+00
         -2   -1    0    0    0  501 -0.00000000000E+00  0.00000000000E+00  0.68134938825E+02  0.68134938825E+02  0.00000000000E+00 0.  1.
          2   -1    0    0  502    0  0.00000000000E+00 -0.00000000000E+00 -0.11989054807E+04  0.11989054807E+04  0.00000000000E+00 0. -1.
          6    1    1    2  502    0 -0.19111501375E+03  0.89930568104E+02 -0.75723003485E+03  0.80473211769E+03  0.17200000000E+03 0. -1.
         -6    1    1    2    0  501  0.19111501375E+03 -0.89930568104E+02 -0.37354050704E+03  0.46230830185E+03  0.17200000000E+03 0.  1.
</event>
<event>
 4    1  0.3191769E-002  0.4145697E+03  0.7818608E-02  0.1038848E+00
          1   -1    0    0  502    0  0.00000000000E+00  0.00000000000E+00  0.84800338847E+02  0.84800338847E+02  0.00000000000E+00 0. -1.
         -1   -1    0    0    0  501 -0.00000000000E+00 -0.00000000000E+00 -0.21259311320E+04  0.21259311320E+04  0.00000000000E+00 0.  1.
          6    1    1    2  502    0  0.14530601318E+03 -0.34809515131E+03 -0.12593312047E+04  0.13258141479E+04  0.17200000000E+03 0. -1.
         -6    1    1    2    0  501 -0.14530601318E+03  0.34809515131E+03 -0.78179958852E+03  0.88491732294E+03  0.17200000000E+03 0. -1.
</event>
<event>
 4    1  0.3191769E-002  0.3595046E+03  0.7818608E-02  0.1058780E+00
         -2   -1    0    0    0  501 -0.00000000000E+00  0.00000000000E+00  0.16139582879E+03  0.16139582879E+03  0.00000000000E+00 0.  1.
          2   -1    0    0  502    0  0.00000000000E+00 -0.00000000000E+00 -0.90737129476E+03  0.90737129476E+03  0.00000000000E+00 0. -1.
          6    1    1    2  502    0  0.19519712991E+03  0.24810810601E+03 -0.55613853226E+03  0.66221870923E+03  0.17200000000E+03 0. -1.
         -6    1    1    2    0  501 -0.19519712991E+03 -0.24810810601E+03 -0.18983693371E+03  0.40654841433E+03  0.17200000000E+03 0.  1.
</event>
<event>
 4    1  0.3191769E-002  0.2263582E+03  0.7818608E-02  0.1129230E+00
         -2   -1    0    0    0  501 -0.00000000000E+00  0.00000000000E+00  0.35565944654E+02  0.35565944654E+02  0.00000000000E+00 0.  1.
          2   -1    0    0  502    0  0.00000000000E+00 -0.00000000000E+00 -0.14933927688E+04  0.14933927688E+04  0.00000000000E+00 0. -1.
          6    1    1    2  502    0 -0.10283136812E+03 -0.10526030145E+03 -0.87258364049E+03  0.90146560166E+03  0.17200000000E+03 0.  1.
         -6    1    1    2    0  501  0.10283136812E+03  0.10526030145E+03 -0.58524318368E+03  0.62749311182E+03  0.17200000000E+03 0.  1.
</event>
<event>
 4    1  0.3191769E-002  0.3009117E+03  0.7818608E-02  0.1084786E+00
          2   -1    0    0  502    0  0.00000000000E+00  0.00000000000E+00  0.37752530451E+03  0.37752530451E+03  0.00000000000E+00 0. -1.
         -2   -1    0    0    0  501 -0.00000000000E+00 -0.00000000000E+00 -0.33539093755E+03  0.33539093755E+03  0.00000000000E+00 0.  1.
          6    1    1    2  502    0  0.15238857738E+02  0.24643782832E+03  0.21132273734E+03  0.36770249568E+03  0.17200000000E+03 0. -1.
         -6    1    1    2    0  501 -0.15238857738E+02 -0.24643782832E+03 -0.16918837039E+03  0.34521374638E+03  0.17200000000E+03 0.  1.
</event>
<event>
 4    1  0.3191769E-002  0.1793818E+03  0.7818608E-02  0.1168403E+00
          1   -1    0    0  502    0  0.00000000000E+00  0.00000000000E+00  0.47862519867E+03  0.47862519867E+03  0.00000000000E+00 0. -1.
         -1   -1    0    0    0  501 -0.00000000000E+00 -0.00000000000E+00 -0.10101354533E+03  0.10101354533E+03  0.00000000000E+00 0.  1.
          6    1    1    2  502    0 -0.32161883496E+02  0.39489856059E+02  0.35641278726E+03  0.39900865956E+03  0.17200000000E+03 0. -1.
         -6    1    1    2    0  501  0.32161883496E+02 -0.39489856059E+02  0.21198866087E+02  0.18063008444E+03  0.17200000000E+03 0.  1.
</event>
<event>
 4    1  0.3191769E-002  0.2092947E+03  0.7818608E-02  0.1142126E+00
          1   -1    0    0  502    0  0.00000000000E+00  0.00000000000E+00  0.32006654165E+04  0.32006654165E+04  0.00000000000E+00 0. -1.
         -1   -1    0    0    0  501 -0.00000000000E+00 -0.00000000000E+00 -0.13730786736E+02  0.13730786736E+02  0.00000000000E+00 0.  1.
          6    1    1    2  502    0 -0.80562655787E+02 -0.87919982393E+02  0.16852710049E+04  0.16982174846E+04  0.17200000000E+03 0. -1.
         -6    1    1    2    0  501  0.80562655787E+02  0.87919982393E+02  0.15016636248E+04  0.15161787186E+04  0.17200000000E+03 0.  1.
</event>
<event>
 4    1  0.3191769E-002  0.2842285E+03  0.7818608E-02  0.1093402E+00
         -2   -1    0    0    0  501 -0.00000000000E+00  0.00000000000E+00  0.75247804537E+02  0.75247804537E+02  0.00000000000E+00 0.  1.
          2   -1    0    0  502    0  0.00000000000E+00 -0.00000000000E+00 -0.15637438679E+04  0.15637438679E+04  0.00000000000E+00 0. -1.
          6    1    1    2  502    0 -0.33331449132E+02  0.22380990752E+03 -0.12030516183E+04  0.12361711275E+04  0.17200000000E+03 0. -1.
         -6    1    1    2    0  501  0.33331449132E+02 -0.22380990752E+03 -0.28544444509E+03  0.40282054496E+03  0.17200000000E+03 0.  1.
</event>
<event>
 4    1  0.3191769E-002  0.3404169E+03  0.7818608E-02  0.1066619E+00
          1   -1    0    0  502    0  0.00000000000E+00  0.00000000000E+00  0.84163877440E+03  0.84163877440E+03  0.00000000000E+00 0. -1.
         -1   -1    0    0    0  501 -0.00000000000E+00 -0.00000000000E+00 -0.15086137157E+03  0.15086137157E+03  0.00000000000E+00 0.  1.
          6    1    1    2  502    0  0.13465197420E+03  0.26109093780E+03  0.49203078095E+03  0.59831256160E+03  0.17200000000E+03 0. -1.
         -6    1    1    2    0  501 -0.13465197420E+03 -0.26109093780E+03  0.19874662188E+03  0.39418758437E+03  0.17200000000E+03 0.  1.
</event>
<event>
 4    1  0.3191769E-002  0.1969079E+03  0.7818608E-02  0.1152374E+00
          3   -1    0    0  502    0  0.00000000000E+00  0.00000000000E+00  0.16416180607E+04  0.16416180607E+04  0.00000000000E+00 0. -1.
         -3   -1    0    0    0  501 -0.00000000000E+00 -0.00000000000E+00 -0.24413299101E+02  0.24413299101E+02  0.00000000000E+00 0.  1.
          6    1    1    2  502    0  0.92861652732E+02  0.23778886957E+02  0.95889616548E+03  0.97890478505E+03  0.17200000000E+03 0. -1.
         -6    1    1    2    0  501 -0.92861652732E+02 -0.23778886957E+02  0.65830859615E+03  0.68712657478E+03  0.17200000000E+03 0.  1.
</event>
<event>
 4    1  0.3191769E-002  0.1829330E+03  0.7818608E-02  0.1164994E+00
         -2   -1    0    0    0  501 -0.00000000000E+00  0.00000000000E+00  0.38226052957E+02  0.38226052957E+02  0.00000000000E+00 0.  1.
          2   -1    0    0  502    0  0.00000000000E+00 -0.00000000000E+00 -0.21908517805E+04  0.21908517805E+04  0.00000000000E+00 0. -1.
          6    1    1    2  502    0 -0.13646759553E+02 -0.60780359951E+02 -0.19399278345E+04  0.19485339334E+04  0.17200000000E+03 0. -1.
         -6    1    1    2    0  501  0.13646759553E+02  0.60780359951E+02 -0.21269789303E+03  0.28054390013E+03  0.17200000000E+03 0.  1.
</event>
<event>
 4    1  0.3191769E-002  0.1873620E+03  0.7818608E-02  0.1160862E+00
         -2   -1    0    0    0  501 -0.00000000000E+00  0.00000000000E+00  0.63734600795E+02  0.63734600795E+02  0.00000000000E+00 0.  1.
          2   -1    0    0  502    0  0.00000000000E+00 -0.00000000000E+00 -0.74743878667E+03  0.74743878667E+03  0.00000000000E+00 0. -1.
          6    1    1    2  502    0  0.58443473339E+02 -0.45878983876E+02 -0.54988837978E+03  0.58093179544E+03  0.17200000000E+03 0. -1.
         -6    1    1    2    0  501 -0.58443473339E+02  0.45878983876E+02 -0.13381580610E+03  0.23024159203E+03  0.17200000000E+03 0.  1.
</event>
<event>
 4    1  0.3191769E-002  0.1773920E+03  0.7818608E-02  0.1170351E+00
          1   -1    0    0  502    0  0.00000000000E+00  0.00000000000E+00  0.54443347940E+03  0.54443347940E+03  0.00000000000E+00 0. -1.
         -1   -1    0    0    0  501 -0.00000000000E+00 -0.00000000000E+00 -0.61019485425E+02  0.61019485425E+02  0.00000000000E+00 0.  1.
          6    1    1    2  502    0 -0.20914469857E+02 -0.38032816780E+02  0.31124978549E+03  0.35825178181E+03  0.17200000000E+03 0. -1.
         -6    1    1    2    0  501  0.20914469857E+02  0.38032816780E+02  0.17216420849E+03  0.24720118302E+03  0.17200000000E+03 0.  1.
</event>
<event>
 4    1  0.3191769E-002  0.2266828E+03  0.7818608E-02  0.1128997E+00
         -2   -1    0    0    0  501 -0.00000000000E+00  0.00000000000E+00  0.33048665665E+03  0.33048665665E+03  0.00000000000E+00 0.  1.
          2   -1    0    0  502    0  0.00000000000E+00 -0.00000000000E+00 -0.15677033145E+03  0.15677033145E+03  0.00000000000E+00 0. -1.
          6    1    1    2  502    0 -0.13829468901E+03 -0.51726806331E+02  0.10893453551E+03  0.25149913823E+03  0.17200000000E+03 0. -1.
         -6    1    1    2    0  501  0.13829468901E+03  0.51726806331E+02  0.64781789680E+02  0.23575784987E+03  0.17200000000E+03 0. -1.
</event>
<event>
 4    1  0.3191769E-002  0.2746435E+03  0.7818608E-02  0.1098651E+00
         -2   -1    0    0    0  501 -0.00000000000E+00  0.00000000000E+00  0.23726150651E+03  0.23726150651E+03  0.00000000000E+00 0.  1.
          2   -1    0    0  502    0  0.00000000000E+00 -0.00000000000E+00 -0.18031150273E+04  0.18031150273E+04  0.00000000000E+00 0. -1.
          6    1    1    2  502    0  0.92372833366E+02  0.19316401413E+03 -0.17088202492E+04  0.17307500458E+04  0.17200000000E+03 0. -1.
         -6    1    1    2    0  501 -0.92372833366E+02 -0.19316401413E+03  0.14296672840E+03  0.30962648809E+03  0.17200000000E+03 0.  1.
</event>
<event>
 4    1  0.3191769E-002  0.1955205E+03  0.7818608E-02  0.1153574E+00
         -1   -1    0    0    0  501 -0.00000000000E+00  0.00000000000E+00  0.17147463636E+03  0.17147463636E+03  0.00000000000E+00 0.  1.
          1   -1    0    0  502    0  0.00000000000E+00 -0.00000000000E+00 -0.22312435270E+03  0.22312435270E+03  0.00000000000E+00 0. -1.
          6    1    1    2  502    0  0.81420671691E+02 -0.44888043600E+02 -0.20127389528E+02  0.19655374340E+03  0.17200000000E+03 0.  1.
         -6    1    1    2    0  501 -0.81420671691E+02  0.44888043600E+02 -0.31522326809E+02  0.19804524565E+03  0.17200000000E+03 0.  1.
</event>
<event>
 4    1  0.3191769E-002  0.1747346E+03  0.7818608E-02  0.1172998E+00
          1   -1    0    0  502    0  0.00000000000E+00  0.00000000000E+00  0.49420617153E+03  0.49420617153E+03  0.00000000000E+00 0. -1.
         -1   -1    0    0    0  501 -0.00000000000E+00 -0.00000000000E+00 -0.65869193206E+02  0.65869193206E+02  0.00000000000E+00 0.  1.
          6    1    1    2  502    0 -0.12218244107E+02 -0.28264481137E+02  0.28394068550E+03  0.33339837922E+03  0.17200000000E+03 0. -1.
         -6    1    1    2    0  501  0.12218244107E+02  0.28264481137E+02  0.14439629283E+03  0.22667698552E+03  0.17200000000E+03 0.  1.
</event>
<event>
 4    1  0.3191769E-002  0.3528574E+03  0.7818608E-02  0.1061448E+00
          2   -1    0    0  502    0  0.00000000000E+00  0.00000000000E+00  0.90535793010E+03  0.90535793010E+03  0.00000000000E+00 0. -1.
         -2   -1    0    0    0  501 -0.00000000000E+00 -0.00000000000E+00 -0.14246412110E+03  0.14246412110E+03  0.00000000000E+00 0.  1.
          6    1    1    2  502    0 -0.29707829599E+03  0.81662966744E+02  0.47900828756E+03  0.59494310118E+03  0.17200000000E+03 0. -1.
         -6    1    1    2    0  501  0.29707829599E+03 -0.81662966744E+02  0.28388552144E+03  0.45287895002E+03  0.17200000000E+03 0.  1.
</event>
<event>
 4    1  0.3191769E-002  0.2969839E+03  0.7818608E-02  0.1086758E+00
          1   -1    0    0  502    0  0.00000000000E+00  0.00000000000E+00  0.36129350800E+02  0.36129350800E+02  0.00000000000E+00 0. -1.
         -1   -1    0    0    0  501 -0.00000000000E+00 -0.00000000000E+00 -0.24931695553E+04  0.24931695553E+04  0.00000000000E+00 0.  1.
          6    1    1    2  502    0  0.18675553532E+03  0.15407076577E+03 -0.10459559156E+04  0.10873008821E+04  0.17200000000E+03 0. -1.
         -6    1    1    2    0  501 -0.18675553532E+03 -0.15407076577E+03 -0.14110842889E+04  0.14419980240E+04  0.17200000000E+03 0.  1.
</event>
<event>
 4    1  0.3191769E-002  0.2197651E+03  0.7818608E-02  0.1134058E+00
         -2   -1    0    0    0  501 -0.00000000000E+00  0.00000000000E+00  0.91349425244E+02  0.91349425244E+02  0.00000000000E+00 0.  1.
          2   -1    0    0  502    0  0.00000000000E+00 -0.00000000000E+00 -0.12753329831E+04  0.12753329831E+04  0.00000000000E+00 0. -1.
          6    1    1    2  502    0 -0.13670058164E+03 -0.50641707903E+01 -0.69139999188E+02  0.23038453580E+03  0.17200000000E+03 0.  1.
         -6    1    1    2    0  501  0.13670058164E+03  0.50641707903E+01 -0.11148435587E+04  0.11362978725E+04  0.17200000000E+03 0. -1.
</event>
<event>
 4    1  0.3191769E-002  0.1946915E+03  0.7818608E-02  0.1154297E+00
          2   -1    0    0  502    0  0.00000000000E+00  0.00000000000E+00  0.36077724532E+02  0.36077724532E+02  0.00000000000E+00 0. -1.
         -2   -1    0    0    0  501 -0.00000000000E+00 -0.00000000000E+00 -0.11768955358E+04  0.11768955358E+04  0.00000000000E+00 0.  1.
          6    1    1    2  502    0  0.53711239077E+02  0.73728323198E+02 -0.76905247770E+03  0.79331360527E+03  0.17200000000E+03 0.  1.
         -6    1    1    2    0  501 -0.53711239077E+02 -0.73728323198E+02 -0.37176533355E+03  0.41965965505E+03  0.17200000000E+03 0. -1.
</event>
<event>
 4    1  0.3191769E-002  0.2836211E+03  0.7818608E-02  0.1093727E+00
          1   -1    0    0  502    0  0.00000000000E+00  0.00000000000E+00  0.22109396267E+03  0.22109396267E+03  0.00000000000E+00 0. -1.
         -1   -1    0    0    0  501 -0.00000000000E+00 -0.00000000000E+00 -0.38998130847E+03  0.38998130847E+03  0.00000000000E+00 0.  1.
          6    1    1    2  502    0  0.11475919239E+03 -0.19413205127E+03 -0.16356214995E+03  0.32740418822E+03  0.17200000000E+03 0. -1.
         -6    1    1    2    0  501 -0.11475919239E+03  0.19413205127E+03 -0.53251958512E+01  0.28367108291E+03  0.17200000000E+03 0.  1.
</event>
<event>
 4    1  0.3191769E-002  0.2221986E+03  0.7818608E-02  0.1132254E+00
          2   -1    0    0  502    0  0.00000000000E+00  0.00000000000E+00  0.45667007085E+04  0.45667007085E+04  0.00000000000E+00 0. -1.
         -2   -1    0    0    0  501 -0.00000000000E+00 -0.00000000000E+00 -0.11250009711E+02  0.11250009711E+02  0.00000000000E+00 0.  1.
          6    1    1    2  502    0 -0.63447070080E+02 -0.12554961663E+03  0.18257398449E+04  0.18392113033E+04  0.17200000000E+03 0. -1.
         -6    1    1    2    0  501  0.63447070080E+02  0.12554961663E+03  0.27297108539E+04  0.27387394149E+04  0.17200000000E+03 0.  1.
</event>
<event>
 4    1  0.3191769E-002  0.1861427E+03  0.7818608E-02  0.1161987E+00
          1   -1    0    0  502    0  0.00000000000E+00  0.00000000000E+00  0.86630491676E+03  0.86630491676E+03  0.00000000000E+00 0. -1.
         -1   -1    0    0    0  501 -0.00000000000E+00 -0.00000000000E+00 -0.59128989871E+02  0.59128989871E+02  0.00000000000E+00 0.  1.
          6    1    1    2  502    0  0.19377858092E+02 -0.68480556825E+02  0.66679768810E+03  0.69229202285E+03  0.17200000000E+03 0. -1.
         -6    1    1    2    0  501 -0.19377858092E+02  0.68480556825E+02  0.14037823879E+03  0.23314188378E+03  0.17200000000E+03 0.  1.
</event>
<event>
 4    1  0.3191769E-002  0.2489594E+03  0.7818608E-02  0.1113964E+00
          1   -1    0    0  502    0  0.00000000000E+00  0.00000000000E+00  0.55344069695E+03  0.55344069695E+03  0.00000000000E+00 0. -1.
         -1   -1    0    0    0  501 -0.00000000000E+00 -0.00000000000E+00 -0.11210233849E+03  0.11210233849E+03  0.00000000000E+00 0.  1.
          6    1    1    2  502    0  0.16285061684E+03 -0.76658158950E+02  0.23112065408E+03  0.33970215407E+03  0.17200000000E+03 0. -1.
         -6    1    1    2    0  501 -0.16285061684E+03  0.76658158950E+02  0.21021770438E+03  0.32584088137E+03  0.17200000000E+03 0.  1.
</event>
<event>
 4    1  0.3191769E-002  0.1832453E+03  0.7818608E-02  0.1164699E+00
          3   -1    0    0  502    0  0.00000000000E+00  0.00000000000E+00  0.94667242662E+03  0.94667242662E+03  0.00000000000E+00 0. -1.
         -3   -1    0    0    0  501 -0.00000000000E+00 -0.00000000000E+00 -0.71789612266E+02  0.71789612266E+02  0.00000000000E+00 0.  1.
          6    1    1    2  502    0  0.27716610089E+02 -0.56803368406E+02  0.75238141943E+02  0.19808990671E+03  0.17200000000E+03 0.  1.
         -6    1    1    2    0  501 -0.27716610089E+02  0.56803368406E+02  0.79964467242E+03  0.82037213218E+03  0.17200000000E+03 0. -1.
</event>
<event>
 4    1  0.3191769E-002  0.1874177E+03  0.7818608E-02  0.1160811E+00
          1   -1    0    0  502    0  0.00000000000E+00  0.00000000000E+00  0.66647924170E+03  0.66647924170E+03  0.00000000000E+00 0. -1.
         -1   -1    0    0    0  501 -0.00000000000E+00 -0.00000000000E+00 -0.58362374769E+02  0.58362374769E+02  0.00000000000E+00 0.  1.
          6    1    1    2  502    0  0.53840669164E+02  0.51405849333E+02  0.41691719410E+03  0.45710537706E+03  0.17200000000E+03 0. -1.
         -6    1    1    2    0  501 -0.53840669164E+02 -0.51405849333E+02  0.19119967283E+03  0.26773623941E+03  0.17200000000E+03 0. -1.
</event>
<event>
 4    1  0.3191769E-002  0.1863316E+03  0.7818608E-02  0.1161812E+00
          1   -1    0    0  502    0  0.00000000000E+00  0.00000000000E+00  0.63097902497E+03  0.63097902497E+03  0.00000000000E+00 0. -1.
         -1   -1    0    0    0  501 -0.00000000000E+00 -0.00000000000E+00 -0.10253530072E+03  0.10253530072E+03  0.00000000000E+00 0.  1.
          6    1    1    2  502    0  0.66533219493E+02  0.26622965854E+02  0.51387499210E+03  0.54661408609E+03  0.17200000000E+03 0. -1.
         -6    1    1    2    0  501 -0.66533219493E+02 -0.26622965854E+02  0.14568732144E+02  0.18690023960E+03  0.17200000000E+03 0.  1.
</event>
<event>
 4    1  0.3191769E-002  0.2028073E+03  0.7818608E-02  0.1147392E+00
         -1   -1    0    0    0  501 -0.00000000000E+00  0.00000000000E+00  0.54450518927E+03  0.54450518927E+03  0.00000000000E+00 0.  1.
          1   -1    0    0  502    0  0.00000000000E+00 -0.00000000000E+00 -0.78747172197E+02  0.78747172197E+02  0.00000000000E+00 0. -1.
          6    1    1    2  502    0 -0.44745511126E+02  0.97696775364E+02  0.16996976066E+03  0.26461394563E+03  0.17200000000E+03 0.  1.
         -6    1    1    2    0  501  0.44745511126E+02 -0.97696775364E+02  0.29578825642E+03  0.35863841584E+03  0.17200000000E+03 0.  1.
</event>
<event>
 4    1  0.3191769E-002  0.1926654E+03  0.7818608E-02  0.1156079E+00
          3   -1    0    0  502    0  0.00000000000E+00  0.00000000000E+00  0.13705415242E+03  0.13705415242E+03  0.00000000000E+00 0. -1.
         -3   -1    0    0    0  501 -0.00000000000E+00 -0.00000000000E+00 -0.33653556795E+03  0.33653556795E+03  0.00000000000E+00 0.  1.
          6    1    1    2  502    0  0.43559698133E+02 -0.75090065123E+02 -0.20436187261E+03  0.28086249333E+03  0.17200000000E+03 0. -1.
         -6    1    1    2    0  501 -0.43559698133E+02  0.75090065123E+02  0.48804570742E+01  0.19272722704E+03  0.17200000000E+03 0.  1.
</event>
<event>
 4    1  0.3191769E-002  0.1764906E+03  0.7818608E-02  0.1171243E+00
         -1   -1    0    0    0  501 -0.00000000000E+00  0.00000000000E+00  0.23021681852E+04  0.23021681852E+04  0.00000000000E+00 0.  1.
          1   -1    0    0  502    0  0.00000000000E+00 -0.00000000000E+00 -0.13582525282E+02  0.13582525282E+02  0.00000000000E+00 0. -1.
          6    1    1    2  502    0  0.18134747579E+02 -0.35157622589E+02  0.10724654323E+04  0.10868905332E+04  0.17200000000E+03 0. -1.
         -6    1    1    2    0  501 -0.18134747579E+02  0.35157622589E+02  0.12161202276E+04  0.12288601773E+04  0.17200000000E+03 0. -1.
</event>
<event>
 4    1  0.3191769E-002  0.2739877E+03  0.7818608E-02  0.1099019E+00
         -2   -1    0    0    0  501 -0.00000000000E+00  0.00000000000E+00  0.79513711087E+03  0.79513711087E+03  0.00000000000E+00 0.  1.
          2   -1    0    0  502    0  0.00000000000E+00 -0.00000000000E+00 -0.11203780332E+03  0.11203780332E+03  0.00000000000E+00 0. -1.
          6    1    1    2  502    0  0.14826480833E+03 -0.15330623217E+03  0.16163262453E+03  0.31811060894E+03  0.17200000000E+03 0. -1.
         -6    1    1    2    0  501 -0.14826480833E+03  0.15330623217E+03  0.52146668303E+03  0.58906430525E+03  0.17200000000E+03 0.  1.
</event>
<event>
 4    1  0.3191769E-002  0.1874373E+03  0.7818608E-02  0.1160793E+00
         -2   -1    0    0    0  501 -0.00000000000E+00  0.00000000000E+00  0.15477784345E+02  0.15477784345E+02  0.00000000000E+00 0.  1.
          2   -1    0    0  502    0  0.00000000000E+00 -0.00000000000E+00 -0.22815630798E+04  0.22815630798E+04  0.00000000000E+00 0. -1.
          6    1    1    2  502    0 -0.53432431237E+02 -0.51900847744E+02 -0.12152270987E+04  0.12295973423E+04  0.17200000000E+03 0. -1.
         -6    1    1    2    0  501  0.53432431237E+02  0.51900847744E+02 -0.10508581968E+04  0.10674435219E+04  0.17200000000E+03 0.  1.
</event>
<event>
 4    1  0.3191769E-002  0.4542299E+03  0.7818608E-02  0.1026468E+00
         -2   -1    0    0    0  501 -0.00000000000E+00  0.00000000000E+00  0.16054911358E+04  0.16054911358E+04  0.00000000000E+00 0.  1.
          2   -1    0    0  502    0  0.00000000000E+00 -0.00000000000E+00 -0.13383276507E+03  0.13383276507E+03  0.00000000000E+00 0. -1.
          6    1    1    2  502    0  0.33353533937E+03 -0.25591986756E+03  0.90923282481E+03  0.10163804066E+04  0.17200000000E+03 0. -1.
         -6    1    1    2    0  501 -0.33353533937E+03  0.25591986756E+03  0.56242554593E+03  0.72294349429E+03  0.17200000000E+03 0.  1.
</event>
<event>
 4    1  0.3191769E-002  0.9000946E+03  0.7818608E-02  0.9425463E-01
          1   -1    0    0  502    0  0.00000000000E+00  0.00000000000E+00  0.12263552238E+04  0.12263552238E+04  0.00000000000E+00 0. -1.
         -1   -1    0    0    0  501 -0.00000000000E+00 -0.00000000000E+00 -0.73427768578E+03  0.73427768578E+03  0.00000000000E+00 0.  1.
          6    1    1    2  502    0 -0.26393011227E+03  0.84316503212E+03  0.55650022328E+03  0.10582357365E+04  0.17200000000E+03 0. -1.
         -6    1    1    2    0  501  0.26393011227E+03 -0.84316503212E+03 -0.64422685263E+02  0.90239717305E+03  0.17200000000E+03 0.  1.
</event>
<event>
 4    1  0.3191769E-002  0.1818419E+03  0.7818608E-02  0.1166032E+00
         -2   -1    0    0    0  501 -0.00000000000E+00  0.00000000000E+00  0.27787126522E+02  0.27787126522E+02  0.00000000000E+00 0.  1.
          2   -1    0    0  502    0  0.00000000000E+00 -0.00000000000E+00 -0.12369318634E+04  0.12369318634E+04  0.00000000000E+00 0. -1.
          6    1    1    2  502    0  0.58710812186E+02  0.59609569262E+01 -0.48138778180E+03  0.51458788263E+03  0.17200000000E+03 0.  1.
         -6    1    1    2    0  501 -0.58710812186E+02 -0.59609569262E+01 -0.72775695511E+03  0.75013110733E+03  0.17200000000E+03 0. -1.
</event>
<event>
 4    1  0.3191769E-002  0.2458704E+03  0.7818608E-02  0.1115943E+00
         -2   -1    0    0    0  501 -0.00000000000E+00  0.00000000000E+00  0.37754054899E+02  0.37754054899E+02  0.00000000000E+00 0.  1.
          2   -1    0    0  502    0  0.00000000000E+00 -0.00000000000E+00 -0.19377928829E+04  0.19377928829E+04  0.00000000000E+00 0. -1.
          6    1    1    2  502    0 -0.63577472073E+02 -0.16378700337E+03 -0.13616881256E+04  0.13837076385E+04  0.17200000000E+03 0. -1.
         -6    1    1    2    0  501  0.63577472073E+02  0.16378700337E+03 -0.53835070245E+03  0.59183929935E+03  0.17200000000E+03 0.  1.
</event>
<event>
 4    1  0.3191769E-002  0.2073475E+03  0.7818608E-02  0.1143684E+00
         -1   -1    0    0    0  501 -0.00000000000E+00  0.00000000000E+00  0.25363372128E+03  0.25363372128E+03  0.00000000000E+00 0.  1.
          1   -1    0    0  502    0  0.00000000000E+00 -0.00000000000E+00 -0.17830159270E+03  0.17830159270E+03  0.00000000000E+00 0. -1.
          6    1    1    2  502    0 -0.27136546703E+02  0.11257252268E+03 -0.10295386485E+02  0.20760289018E+03  0.17200000000E+03 0. -1.
         -6    1    1    2    0  501  0.27136546703E+02 -0.11257252268E+03  0.85627515061E+02  0.22433242379E+03  0.17200000000E+03 0.  1.
</event>
<event>
 4    1  0.3191769E-002  0.1748796E+03  0.7818608E-02  0.1172853E+00
         -1   -1    0    0    0  501 -0.00000000000E+00  0.00000000000E+00  0.11624144156E+03  0.11624144156E+03  0.00000000000E+00 0.  1.
          1   -1    0    0  502    0  0.00000000000E+00 -0.00000000000E+00 -0.93796846936E+03  0.93796846936E+03  0.00000000000E+00 0. -1.
          6    1    1    2  502    0  0.79645097329E+01  0.30585059072E+02 -0.85797232018E+03  0.87561371703E+03  0.17200000000E+03 0. -1.
         -6    1    1    2    0  501 -0.79645097329E+01 -0.30585059072E+02  0.36245292383E+02  0.17859619389E+03  0.17200000000E+03 0.  1.
</event>
<event>
 4    1  0.3191769E-002  0.3790632E+03  0.7818608E-02  0.1051281E+00
         -2   -1    0    0    0  501 -0.00000000000E+00  0.00000000000E+00  0.19501097295E+03  0.19501097295E+03  0.00000000000E+00 0.  1.
          2   -1    0    0  502    0  0.00000000000E+00 -0.00000000000E+00 -0.19604537750E+04  0.19604537750E+04  0.00000000000E+00 0. -1.
          6    1    1    2  502    0 -0.30109072058E+03 -0.15313161282E+03 -0.17341681845E+04  0.17751135753E+04  0.17200000000E+03 0. -1.
         -6    1    1    2    0  501  0.30109072058E+03  0.15313161282E+03 -0.31274617519E+02  0.38035117269E+03  0.17200000000E+03 0.  1.
</event>
<event>
 4    1  0.3191769E-002  0.1728279E+03  0.7818608E-02  0.1174931E+00
          2   -1    0    0  502    0  0.00000000000E+00  0.00000000000E+00  0.12802565634E+04  0.12802565634E+04  0.00000000000E+00 0. -1.
         -2   -1    0    0    0  501 -0.00000000000E+00 -0.00000000000E+00 -0.24953516875E+02  0.24953516875E+02  0.00000000000E+00 0.  1.
          6    1    1    2  502    0 -0.18095625088E+01  0.16798658950E+02  0.79406928848E+03  0.81265952549E+03  0.17200000000E+03 0. -1.
         -6    1    1    2    0  501  0.18095625088E+01 -0.16798658950E+02  0.46123375802E+03  0.49255055476E+03  0.17200000000E+03 0.  1.
</event>
<event>
 4    1  0.3191769E-002  0.6704238E+03  0.7818608E-02  0.9769193E-01
          2   -1    0    0  502    0  0.00000000000E+00  0.00000000000E+00  0.13674712369E+04  0.13674712369E+04  0.00000000000E+00 0. -1.
         -2   -1    0    0    0  501 -0.00000000000E+00 -0.00000000000E+00 -0.35209226239E+03  0.35209226239E+03  0.00000000000E+00 0.  1.
          6    1    1    2  502    0  0.62389429615E+03  0.17504270579E+03  0.72937134406E+03  0.99068188595E+03  0.17200000000E+03 0. -1.
         -6    1    1    2    0  501 -0.62389429615E+03 -0.17504270579E+03  0.28600763048E+03  0.72888161337E+03  0.17200000000E+03 0.  1.
</event>
<event>
 4    1  0.3191769E-002  0.1903941E+03  0.7818608E-02  0.1158106E+00
         -2   -1    0    0    0  501 -0.00000000000E+00  0.00000000000E+00  0.47587122518E+02  0.47587122518E+02  0.00000000000E+00 0.  1.
          2   -1    0    0  502    0  0.00000000000E+00 -0.00000000000E+00 -0.76188960184E+03  0.76188960184E+03  0.00000000000E+00 0. -1.
          6    1    1    2  502    0  0.74324863530E+02 -0.33789644005E+02 -0.36244757064E+03  0.40941197692E+03  0.17200000000E+03 0.  1.
         -6    1    1    2    0  501 -0.74324863530E+02  0.33789644005E+02 -0.35185490868E+03  0.40006474744E+03  0.17200000000E+03 0.  1.
</event>
<event>
 4    1  0.3191769E-002  0.2069506E+03  0.7818608E-02  0.1144004E+00
          2   -1    0    0  502    0  0.00000000000E+00  0.00000000000E+00  0.33944299698E+04  0.33944299698E+04  0.00000000000E+00 0. -1.
         -2   -1    0    0    0  501 -0.00000000000E+00 -0.00000000000E+00 -0.12940934842E+02  0.12940934842E+02  0.00000000000E+00 0.  1.
          6    1    1    2  502    0 -0.11164522667E+03 -0.27926719213E+02  0.19601651548E+04  0.19710596116E+04  0.17200000000E+03 0. -1.
         -6    1    1    2    0  501  0.11164522667E+03  0.27926719213E+02  0.14213238801E+04  0.14363112930E+04  0.17200000000E+03 0.  1.
</event>
<event>
 4    1  0.3191769E-002  0.3773868E+03  0.7818608E-02  0.1051904E+00
         -2   -1    0    0    0  501 -0.00000000000E+00  0.00000000000E+00  0.46321476507E+02  0.46321476507E+02  0.00000000000E+00 0.  1.
          2   -1    0    0  502    0  0.00000000000E+00 -0.00000000000E+00 -0.34521377897E+04  0.34521377897E+04  0.00000000000E+00 0. -1.
          6    1    1    2  502    0 -0.13267461613E+03  0.30860041772E+03 -0.11244478766E+04  0.11860876016E+04  0.17200000000E+03 0. -1.
         -6    1    1    2    0  501  0.13267461613E+03 -0.30860041772E+03 -0.22813684366E+04  0.23123716645E+04  0.17200000000E+03 0.  1.
</event>
<event>
 4    1  0.3191769E-002  0.2673368E+03  0.7818608E-02  0.1102814E+00
          2   -1    0    0  502    0  0.00000000000E+00  0.00000000000E+00  0.77535951609E+03  0.77535951609E+03  0.00000000000E+00 0. -1.
         -2   -1    0    0    0  501 -0.00000000000E+00 -0.00000000000E+00 -0.12021307670E+03  0.12021307670E+03  0.00000000000E+00 0.  1.
          6    1    1    2  502    0 -0.17761924815E+03  0.10166782869E+03  0.54382875930E+03  0.60598569632E+03  0.17200000000E+03 0. -1.
         -6    1    1    2    0  501  0.17761924815E+03 -0.10166782869E+03  0.11131768009E+03  0.28958689647E+03  0.17200000000E+03 0.  1.
</event>
<event>
 4    1  0.3191769E-002  0.2660953E+03  0.7818608E-02  0.1103535E+00
          1   -1    0    0  502    0  0.00000000000E+00  0.00000000000E+00  0.48072707471E+03  0.48072707471E+03  0.00000000000E+00 0. -1.
         -1   -1    0    0    0  501 -0.00000000000E+00 -0.00000000000E+00 -0.15212035279E+03  0.15212035279E+03  0.00000000000E+00 0.  1.
          6    1    1    2  502    0 -0.19993039163E+03  0.35363388883E+02  0.22068317545E+03  0.34569899436E+03  0.17200000000E+03 0. -1.
         -6    1    1    2    0  501  0.19993039163E+03 -0.35363388883E+02  0.10792354646E+03  0.28714843314E+03  0.17200000000E+03 0.  1.
</event>
<event>
 4    1  0.3191769E-002  0.2727266E+03  0.7818608E-02  0.1099729E+00
          2   -1    0    0  502    0  0.00000000000E+00  0.00000000000E+00  0.49544775821E+03  0.49544775821E+03  0.00000000000E+00 0. -1.
         -2   -1    0    0    0  501 -0.00000000000E+00 -0.00000000000E+00 -0.49209682648E+03  0.49209682648E+03  0.00000000000E+00 0.  1.
          6    1    1    2  502    0  0.87900271955E+02 -0.19253401519E+03  0.41329472619E+03  0.49516899692E+03  0.17200000000E+03 0. -1.
         -6    1    1    2    0  501 -0.87900271955E+02  0.19253401519E+03 -0.40994379446E+03  0.49237558777E+03  0.17200000000E+03 0.  1.
</event>
<event>
 4    1  0.3191769E-002  0.2144492E+03  0.7818608E-02  0.1138090E+00
         -1   -1    0    0    0  501 -0.00000000000E+00  0.00000000000E+00  0.20722659059E+04  0.20722659059E+04  0.00000000000E+00 0.  1.
          1   -1    0    0  502    0  0.00000000000E+00 -0.00000000000E+00 -0.24309622165E+02  0.24309622165E+02  0.00000000000E+00 0. -1.
          6    1    1    2  502    0 -0.43954984839E+02 -0.12030130633E+03  0.71460684523E+03  0.74609073728E+03  0.17200000000E+03 0. -1.
         -6    1    1    2    0  501  0.43954984839E+02  0.12030130633E+03  0.13333494385E+04  0.13504847908E+04  0.17200000000E+03 0.  1.
</event>
<event>
 4    1  0.3191769E-002  0.4878935E+03  0.7818608E-02  0.1016988E+00
         -2   -1    0    0    0  501 -0.00000000000E+00  0.00000000000E+00  0.40122060340E+03  0.40122060340E+03  0.00000000000E+00 0.  1.
          2   -1    0    0  502    0  0.00000000000E+00 -0.00000000000E+00 -0.60127182328E+03  0.60127182328E+03  0.00000000000E+00 0. -1.
          6    1    1    2  502    0 -0.44738805223E+03  0.91104138875E+02 -0.15777881837E+03  0.51277108823E+03  0.17200000000E+03 0. -1.
         -6    1    1    2    0  501  0.44738805223E+03 -0.91104138875E+02 -0.42272401513E+02  0.48972133845E+03  0.17200000000E+03 0.  1.
</event>
<event>
 4    1  0.3191769E-002  0.1864519E+03  0.7818608E-02  0.1161701E+00
          2   -1    0    0  502    0  0.00000000000E+00  0.00000000000E+00  0.28251049579E+04  0.28251049579E+04  0.00000000000E+00 0. -1.
         -2   -1    0    0    0  501 -0.00000000000E+00 -0.00000000000E+00 -0.24492978515E+02  0.24492978515E+02  0.00000000000E+00 0.  1.
          6    1    1    2  502    0  0.53978224687E+02 -0.47609538888E+02  0.24053609219E+04  0.24125765235E+04  0.17200000000E+03 0. -1.
         -6    1    1    2    0  501 -0.53978224687E+02  0.47609538888E+02  0.39525105740E+03  0.43702141288E+03  0.17200000000E+03 0.  1.
</event>
<event>
 4    1  0.3191769E-002  0.4344139E+03  0.7818608E-02  0.1032475E+00
          1   -1    0    0  502    0  0.00000000000E+00  0.00000000000E+00  0.15062999958E+04  0.15062999958E+04  0.00000000000E+00 0. -1.
         -1   -1    0    0    0  501 -0.00000000000E+00 -0.00000000000E+00 -0.15815060282E+03  0.15815060282E+03  0.00000000000E+00 0.  1.
          6    1    1    2  502    0  0.32788055131E+03 -0.22721309182E+03  0.10534614915E+04  0.11395159319E+04  0.17200000000E+03 0. -1.
         -6    1    1    2    0  501 -0.32788055131E+03  0.22721309182E+03  0.29468790148E+03  0.52493466670E+03  0.17200000000E+03 0.  1.
</event>
<event>
 4    1  0.3191769E-002  0.1927461E+03  0.7818608E-02  0.1156008E+00
          2   -1    0    0  502    0  0.00000000000E+00  0.00000000000E+00  0.10468491580E+04  0.10468491580E+04  0.00000000000E+00 0. -1.
         -2   -1    0    0    0  501 -0.00000000000E+00 -0.00000000000E+00 -0.46135391277E+02  0.46135391277E+02  0.00000000000E+00 0.  1.
          6    1    1    2  502    0  0.80217030001E+02  0.33649681441E+02  0.76288691015E+03  0.78685926991E+03  0.17200000000E+03 0. -1.
         -6    1    1    2    0  501 -0.80217030001E+02 -0.33649681441E+02  0.23782685659E+03  0.30612527939E+03  0.17200000000E+03 0.  1.
</event>
<event>
 4    1  0.3191769E-002  0.1800910E+03  0.7818608E-02  0.1167715E+00
         -2   -1    0    0    0  501 -0.00000000000E+00  0.00000000000E+00  0.12117043657E+03  0.12117043657E+03  0.00000000000E+00 0.  1.
          2   -1    0    0  502    0  0.00000000000E+00 -0.00000000000E+00 -0.47614310073E+03  0.47614310073E+03  0.00000000000E+00 0. -1.
          6    1    1    2  502    0 -0.48357364485E+02  0.22590302600E+02 -0.37510895454E+03  0.41610032955E+03  0.17200000000E+03 0. -1.
         -6    1    1    2    0  501  0.48357364485E+02 -0.22590302600E+02  0.20136290387E+02  0.18121320775E+03  0.17200000000E+03 0.  1.
</event>
<event>
 4    1  0.3191769E-002  0.2579989E+03  0.7818608E-02  0.1108352E+00
          2   -1    0    0  502    0  0.00000000000E+00  0.00000000000E+00  0.15270856871E+04  0.15270856871E+04  0.00000000000E+00 0. -1.
         -2   -1    0    0    0  501 -0.00000000000E+00 -0.00000000000E+00 -0.48299042156E+02  0.48299042156E+02  0.00000000000E+00 0.  1.
          6    1    1    2  502    0  0.19065406164E+03  0.25109171893E+02  0.98538521499E+03  0.10186007381E+04  0.17200000000E+03 0. -1.
         -6    1    1    2    0  501 -0.19065406164E+03 -0.25109171893E+02  0.49340142997E+03  0.55678399118E+03  0.17200000000E+03 0.  1.
</event>
<event>
 4    1  0.3191769E-002  0.1749509E+03  0.7818608E-02  0.1172781E+00
          1   -1    0    0  502    0  0.00000000000E+00  0.00000000000E+00  0.44176719765E+03  0.44176719765E+03  0.00000000000E+00 0. -1.
         -1   -1    0    0    0  501 -0.00000000000E+00 -0.00000000000E+00 -0.72675267576E+02  0.72675267576E+02  0.00000000000E+00 0.  1.
          6    1    1    2  502    0 -0.29784724480E+02 -0.11691722825E+02  0.12898976578E+03  0.21736187768E+03  0.17200000000E+03 0.  1.
         -6    1    1    2    0  501  0.29784724480E+02  0.11691722825E+02  0.24010216430E+03  0.29708058754E+03  0.17200000000E+03 0. -1.
</event>
<event>
 4    1  0.3191769E-002  0.4713180E+03  0.7818608E-02  0.1021549E+00
          2   -1    0    0  502    0  0.00000000000E+00  0.00000000000E+00  0.18434060987E+04  0.18434060987E+04  0.00000000000E+00 0. -1.
         -2   -1    0    0    0  501 -0.00000000000E+00 -0.00000000000E+00 -0.14303813132E+03  0.14303813132E+03  0.00000000000E+00 0.  1.
          6    1    1    2  502    0 -0.43843062624E+03  0.18308815472E+02  0.12443926293E+04  0.13306591008E+04  0.17200000000E+03 0. -1.
         -6    1    1    2    0  501  0.43843062624E+03 -0.18308815472E+02  0.45597533809E+03  0.65578512921E+03  0.17200000000E+03 0.  1.
</event>
<event>
 4    1  0.3191769E-002  0.2677476E+03  0.7818608E-02  0.1102576E+00
         -2   -1    0    0    0  501 -0.00000000000E+00  0.00000000000E+00  0.20959935824E+03  0.20959935824E+03  0.00000000000E+00 0.  1.
          2   -1    0    0  502    0  0.00000000000E+00 -0.00000000000E+00 -0.38302194096E+03  0.38302194096E+03  0.00000000000E+00 0. -1.
          6    1    1    2  502    0 -0.19905458279E+03  0.49820356234E+02 -0.18364986976E+03  0.32467840934E+03  0.17200000000E+03 0. -1.
         -6    1    1    2    0  501  0.19905458279E+03 -0.49820356234E+02  0.10227287049E+02  0.26794288986E+03  0.17200000000E+03 0.  1.
</event>
<event>
 4    1  0.3191769E-002  0.2381476E+03  0.7818608E-02  0.1121033E+00
         -2   -1    0    0    0  501 -0.00000000000E+00  0.00000000000E+00  0.24481054856E+03  0.24481054856E+03  0.00000000000E+00 0.  1.
          2   -1    0    0  502    0  0.00000000000E+00 -0.00000000000E+00 -0.33349483851E+03  0.33349483851E+03  0.00000000000E+00 0. -1.
          6    1    1    2  502    0  0.12613998330E+03  0.10591963632E+03  0.11543630971E+03  0.26465034733E+03  0.17200000000E+03 0.  1.
         -6    1    1    2    0  501 -0.12613998330E+03 -0.10591963632E+03 -0.20412059966E+03  0.31365503974E+03  0.17200000000E+03 0.  1.
</event>
<event>
 4    1  0.3191769E-002  0.2861391E+03  0.7818608E-02  0.1092382E+00
          2   -1    0    0  502    0  0.00000000000E+00  0.00000000000E+00  0.17959340590E+03  0.17959340590E+03  0.00000000000E+00 0. -1.
         -2   -1    0    0    0  501 -0.00000000000E+00 -0.00000000000E+00 -0.63827710301E+03  0.63827710301E+03  0.00000000000E+00 0.  1.
          6    1    1    2  502    0  0.14919806804E+02  0.22818631911E+03 -0.10745979385E+02  0.28634083351E+03  0.17200000000E+03 0. -1.
         -6    1    1    2    0  501 -0.14919806804E+02 -0.22818631911E+03 -0.44793771773E+03  0.53152967540E+03  0.17200000000E+03 0.  1.
</event>
<event>
 4    1  0.3191769E-002  0.2116353E+03  0.7818608E-02  0.1140278E+00
         -2   -1    0    0    0  501 -0.00000000000E+00  0.00000000000E+00  0.15715108539E+03  0.15715108539E+03  0.00000000000E+00 0.  1.
          2   -1    0    0  502    0  0.00000000000E+00 -0.00000000000E+00 -0.45475017037E+03  0.45475017037E+03  0.00000000000E+00 0. -1.
          6    1    1    2  502    0  0.11576511570E+03  0.42472626796E+02  0.38121592439E+02  0.21504125616E+03  0.17200000000E+03 0. -1.
         -6    1    1    2    0  501 -0.11576511570E+03 -0.42472626796E+02 -0.33572067741E+03  0.39685999960E+03  0.17200000000E+03 0. -1.
</event>
<event>
 4    1  0.3191769E-002  0.2368245E+03  0.7818608E-02  0.1121927E+00
         -2   -1    0    0    0  501 -0.00000000000E+00  0.00000000000E+00  0.53735620903E+02  0.53735620903E+02  0.00000000000E+00 0.  1.
          2   -1    0    0  502    0  0.00000000000E+00 -0.00000000000E+00 -0.10443126685E+04  0.10443126685E+04  0.00000000000E+00 0. -1.
          6    1    1    2  502    0  0.15407668893E+03 -0.52556712516E+02 -0.50818331575E+03  0.56065686164E+03  0.17200000000E+03 0. -1.
         -6    1    1    2    0  501 -0.15407668893E+03  0.52556712516E+02 -0.48239373186E+03  0.53739142777E+03  0.17200000000E+03 0. -1.
</event>
<event>
 4    1  0.3191769E-002  0.1808306E+03  0.7818608E-02  0.1167002E+00
         -2   -1    0    0    0  501 -0.00000000000E+00  0.00000000000E+00  0.23378431583E+02  0.23378431583E+02  0.00000000000E+00 0.  1.
          2   -1    0    0  502    0  0.00000000000E+00 -0.00000000000E+00 -0.15236157356E+04  0.15236157356E+04  0.00000000000E+00 0. -1.
          6    1    1    2  502    0 -0.49561101745E+02 -0.25678732557E+02 -0.97158519443E+03  0.98826994801E+03  0.17200000000E+03 0. -1.
         -6    1    1    2    0  501  0.49561101745E+02  0.25678732557E+02 -0.52865210954E+03  0.55872421912E+03  0.17200000000E+03 0.  1.
</event>
<event>
 4    1  0.3191769E-002  0.2186582E+03  0.7818608E-02  0.1134887E+00
         -1   -1    0    0    0  501 -0.00000000000E+00  0.00000000000E+00  0.30538049958E+02  0.30538049958E+02  0.00000000000E+00 0.  1.
          1   -1    0    0  502    0  0.00000000000E+00 -0.00000000000E+00 -0.15718303440E+04  0.15718303440E+04  0.00000000000E+00 0. -1.
          6    1    1    2  502    0  0.81956471457E+02  0.10728713099E+03 -0.82095188414E+03  0.84957247352E+03  0.17200000000E+03 0. -1.
         -6    1    1    2    0  501 -0.81956471457E+02 -0.10728713099E+03 -0.72034040990E+03  0.75279592043E+03  0.17200000000E+03 0.  1.
</event>
<event>
 4    1  0.3191769E-002  0.3647980E+03  0.7818608E-02  0.1056700E+00
         -1   -1    0    0    0  501 -0.00000000000E+00  0.00000000000E+00  0.56914083466E+03  0.56914083466E+03  0.00000000000E+00 0.  1.
          1   -1    0    0  502    0  0.00000000000E+00 -0.00000000000E+00 -0.45515183755E+03  0.45515183755E+03  0.00000000000E+00 0. -1.
          6    1    1    2  502    0  0.48021642629E+02  0.31809978802E+03 -0.30014350473E+03  0.47240202871E+03  0.17200000000E+03 0. -1.
         -6    1    1    2    0  501 -0.48021642629E+02 -0.31809978802E+03  0.41413250184E+03  0.55189064349E+03  0.17200000000E+03 0.  1.
</event>
<event>
 4    1  0.3191769E-002  0.3822430E+03  0.7818608E-02  0.1050108E+00
          2   -1    0    0  502    0  0.00000000000E+00  0.00000000000E+00  0.39736980985E+03  0.39736980985E+03  0.00000000000E+00 0. -1.
         -2   -1    0    0    0  501 -0.00000000000E+00 -0.00000000000E+00 -0.44977226609E+03  0.44977226609E+03  0.00000000000E+00 0.  1.
          6    1    1    2  502    0 -0.17186264139E+03 -0.29493891270E+03 -0.20714727590E+03  0.43476398614E+03  0.17200000000E+03 0. -1.
         -6    1    1    2    0  501  0.17186264139E+03  0.29493891270E+03  0.15474481966E+03  0.41237808980E+03  0.17200000000E+03 0.  1.
</event>
<event>
 4    1  0.3191769E-002  0.2275930E+03  0.7818608E-02  0.1128346E+00
          1   -1    0    0  502    0  0.00000000000E+00  0.00000000000E+00  0.68602709602E+02  0.68602709602E+02  0.00000000000E+00 0. -1.
         -1   -1    0    0    0  501 -0.00000000000E+00 -0.00000000000E+00 -0.75784148805E+03  0.75784148805E+03  0.00000000000E+00 0.  1.
          6    1    1    2  502    0  0.51021480521E+02  0.14004056665E+03 -0.31954524263E+03  0.39231073637E+03  0.17200000000E+03 0. -1.
         -6    1    1    2    0  501 -0.51021480521E+02 -0.14004056665E+03 -0.36969353581E+03  0.43413346128E+03  0.17200000000E+03 0.  1.
</event>
<event>
 4    1  0.3191769E-002  0.3348739E+03  0.7818608E-02  0.1069000E+00
         -2   -1    0    0    0  501 -0.00000000000E+00  0.00000000000E+00  0.51434949825E+03  0.51434949825E+03  0.00000000000E+00 0.  1.
          2   -1    0    0  502    0  0.00000000000E+00 -0.00000000000E+00 -0.24692294823E+03  0.24692294823E+03  0.00000000000E+00 0. -1.
          6    1    1    2  502    0  0.28696235785E+03  0.14461525689E+02  0.34954394661E+01  0.33489214479E+03  0.17200000000E+03 0. -1.
         -6    1    1    2    0  501 -0.28696235785E+03 -0.14461525689E+02  0.26393111056E+03  0.42638030169E+03  0.17200000000E+03 0. -1.
</event>
<event>
 4    1  0.3191769E-002  0.3527458E+03  0.7818608E-02  0.1061494E+00
          2   -1    0    0  502    0  0.00000000000E+00  0.00000000000E+00  0.13519916049E+04  0.13519916049E+04  0.00000000000E+00 0. -1.
         -2   -1    0    0    0  501 -0.00000000000E+00 -0.00000000000E+00 -0.93522430119E+02  0.93522430119E+02  0.00000000000E+00 0.  1.
          6    1    1    2  502    0 -0.24860567356E+03  0.18177136419E+03  0.53806417307E+03  0.64338376115E+03  0.17200000000E+03 0. -1.
         -6    1    1    2    0  501  0.24860567356E+03 -0.18177136419E+03  0.72040500167E+03  0.80213027383E+03  0.17200000000E+03 0.  1.
</event>
<event>
 4    1  0.3191769E-002  0.2408505E+03  0.7818608E-02  0.1119228E+00
          2   -1    0    0  502    0  0.00000000000E+00  0.00000000000E+00  0.28335505142E+03  0.28335505142E+03  0.00000000000E+00 0. -1.
         -2   -1    0    0    0  501 -0.00000000000E+00 -0.00000000000E+00 -0.21178192138E+03  0.21178192138E+03  0.00000000000E+00 0.  1.
          6    1    1    2  502    0  0.47521274049E+00 -0.16859641114E+03  0.80988277192E+02  0.25410249254E+03  0.17200000000E+03 0.  1.
         -6    1    1    2    0  501 -0.47521274049E+00  0.16859641114E+03 -0.94151471491E+01  0.24103448025E+03  0.17200000000E+03 0.  1.
</event>
<event>
 4    1  0.3191769E-002  0.2369725E+03  0.7818608E-02  0.1121826E+00
         -2   -1    0    0    0  501 -0.00000000000E+00  0.00000000000E+00  0.68508433299E+03  0.68508433299E+03  0.00000000000E+00 0.  1.
          2   -1    0    0  502    0  0.00000000000E+00 -0.00000000000E+00 -0.82479168012E+02  0.82479168012E+02  0.00000000000E+00 0. -1.
          6    1    1    2  502    0 -0.16119465963E+03  0.24253922991E+02  0.33147335589E+03  0.40746847331E+03  0.17200000000E+03 0.  1.
         -6    1    1    2    0  501  0.16119465963E+03 -0.24253922991E+02  0.27113180908E+03  0.36009502769E+03  0.17200000000E+03 0. -1.
</event>
<event>
 4    1  0.3191769E-002  0.1834903E+03  0.7818608E-02  0.1164467E+00
          2   -1    0    0  502    0  0.00000000000E+00  0.00000000000E+00  0.42734921108E+03  0.42734921108E+03  0.00000000000E+00 0. -1.
         -2   -1    0    0    0  501 -0.00000000000E+00 -0.00000000000E+00 -0.88842134612E+02  0.88842134612E+02  0.00000000000E+00 0.  1.
          6    1    1    2  502    0 -0.24545465833E+02  0.59010131069E+02  0.25609157292E+03  0.31504217048E+03  0.17200000000E+03 0. -1.
         -6    1    1    2    0  501  0.24545465833E+02 -0.59010131069E+02  0.82415503547E+02  0.20114917521E+03  0.17200000000E+03 0.  1.
</event>
<event>
 4    1  0.3191769E-002  0.1974941E+03  0.7818608E-02  0.1151871E+00
          2   -1    0    0  502    0  0.00000000000E+00  0.00000000000E+00  0.35653111671E+02  0.35653111671E+02  0.00000000000E+00 0. -1.
         -2   -1    0    0    0  501 -0.00000000000E+00 -0.00000000000E+00 -0.11109224699E+04  0.11109224699E+04  0.00000000000E+00 0.  1.
          6    1    1    2  502    0  0.66314142984E+02 -0.70868692404E+02 -0.46684553178E+03  0.50690106299E+03  0.17200000000E+03 0. -1.
         -6    1    1    2    0  501 -0.66314142984E+02  0.70868692404E+02 -0.60842382643E+03  0.63967451856E+03  0.17200000000E+03 0.  1.
</event>
<event>
 4    1  0.3191769E-002  0.5119988E+03  0.7818608E-02  0.1010694E+00
          2   -1    0    0  502    0  0.00000000000E+00  0.00000000000E+00  0.15434764413E+04  0.15434764413E+04  0.00000000000E+00 0. -1.
         -2   -1    0    0    0  501 -0.00000000000E+00 -0.00000000000E+00 -0.17116605093E+03  0.17116605093E+03  0.00000000000E+00 0.  1.
          6    1    1    2  502    0 -0.19653565757E+03 -0.44037765391E+03  0.76163874784E+03  0.91773434336E+03  0.17200000000E+03 0. -1.
         -6    1    1    2    0  501  0.19653565757E+03  0.44037765391E+03  0.61067164252E+03  0.79690814887E+03  0.17200000000E+03 0.  1.
</event>
<event>
 4    1  0.3191769E-002  0.1789676E+03  0.7818608E-02  0.1168806E+00
          2   -1    0    0  502    0  0.00000000000E+00  0.00000000000E+00  0.74755722315E+03  0.74755722315E+03  0.00000000000E+00 0. -1.
         -2   -1    0    0    0  501 -0.00000000000E+00 -0.00000000000E+00 -0.47278755063E+02  0.47278755063E+02  0.00000000000E+00 0.  1.
          6    1    1    2  502    0  0.23652358960E+02  0.43427795891E+02  0.22844233871E+03  0.29019874165E+03  0.17200000000E+03 0.  1.
         -6    1    1    2    0  501 -0.23652358960E+02 -0.43427795891E+02  0.47183612938E+03  0.50463723656E+03  0.17200000000E+03 0. -1.
</event>
<event>
 4    1  0.3191769E-002  0.3401837E+03  0.7818608E-02  0.1066718E+00
         -1   -1    0    0    0  501 -0.00000000000E+00  0.00000000000E+00  0.43593566188E+03  0.43593566188E+03  0.00000000000E+00 0.  1.
          1   -1    0    0  502    0  0.00000000000E+00 -0.00000000000E+00 -0.37030837330E+03  0.37030837330E+03  0.00000000000E+00 0. -1.
          6    1    1    2  502    0 -0.24630104793E+03 -0.15961430333E+03 -0.18168705212E+03  0.38566192053E+03  0.17200000000E+03 0. -1.
         -6    1    1    2    0  501  0.24630104793E+03  0.15961430333E+03  0.24731434070E+03  0.42058211464E+03  0.17200000000E+03 0.  1.
</event>
<event>
 4    1  0.3191769E-002  0.4796249E+03  0.7818608E-02  0.1019238E+00
         -2   -1    0    0    0  501 -0.00000000000E+00  0.00000000000E+00  0.18167534768E+03  0.18167534768E+03  0.00000000000E+00 0.  1.
          2   -1    0    0  502    0  0.00000000000E+00 -0.00000000000E+00 -0.15047023719E+04  0.15047023719E+04  0.00000000000E+00 0. -1.
          6    1    1    2  502    0  0.34071139135E+03  0.29046820604E+03 -0.99719883148E+03  0.11065466734E+04  0.17200000000E+03 0. -1.
         -6    1    1    2    0  501 -0.34071139135E+03 -0.29046820604E+03 -0.32582819275E+03  0.57983104618E+03  0.17200000000E+03 0.  1.
</event>
<event>
 4    1  0.3191769E-002  0.1874351E+03  0.7818608E-02  0.1160795E+00
          2   -1    0    0  502    0  0.00000000000E+00  0.00000000000E+00  0.95202288443E+03  0.95202288443E+03  0.00000000000E+00 0. -1.
         -2   -1    0    0    0  501 -0.00000000000E+00 -0.00000000000E+00 -0.16394874640E+03  0.16394874640E+03  0.00000000000E+00 0.  1.
          6    1    1    2  502    0 -0.66923888776E+02  0.32697163926E+02  0.88522787692E+03  0.90485374812E+03  0.17200000000E+03 0. -1.
         -6    1    1    2    0  501  0.66923888776E+02 -0.32697163926E+02 -0.97153738887E+02  0.21111788270E+03  0.17200000000E+03 0.  1.
</event>
<event>
 4    1  0.3191769E-002  0.2804219E+03  0.7818608E-02  0.1095459E+00
          2   -1    0    0  502    0  0.00000000000E+00  0.00000000000E+00  0.19848746026E+04  0.19848746026E+04  0.00000000000E+00 0. -1.
         -2   -1    0    0    0  501 -0.00000000000E+00 -0.00000000000E+00 -0.63767558700E+02  0.63767558700E+02  0.00000000000E+00 0.  1.
          6    1    1    2  502    0  0.21896138464E+03 -0.33291657659E+02  0.15909189016E+04  0.16154440175E+04  0.17200000000E+03 0. -1.
         -6    1    1    2    0  501 -0.21896138464E+03  0.33291657659E+02  0.33018814238E+03  0.43319814381E+03  0.17200000000E+03 0.  1.
</event>
<event>
 4    1  0.3191769E-002  0.2388708E+03  0.7818608E-02  0.1120547E+00
         -1   -1    0    0    0  501 -0.00000000000E+00  0.00000000000E+00  0.38416531346E+03  0.38416531346E+03  0.00000000000E+00 0.  1.
          1   -1    0    0  502    0  0.00000000000E+00 -0.00000000000E+00 -0.29681126615E+03  0.29681126615E+03  0.00000000000E+00 0. -1.
          6    1    1    2  502    0  0.51015726753E+02 -0.15771064130E+03  0.28433943863E+03  0.37135988894E+03  0.17200000000E+03 0.  1.
         -6    1    1    2    0  501 -0.51015726753E+02  0.15771064130E+03 -0.19698539132E+03  0.30961669068E+03  0.17200000000E+03 0. -1.
</event>
<event>
 4    1  0.3191769E-002  0.2565283E+03  0.7818608E-02  0.1109247E+00
         -2   -1    0    0    0  501 -0.00000000000E+00  0.00000000000E+00  0.14521191516E+03  0.14521191516E+03  0.00000000000E+00 0.  1.
          2   -1    0    0  502    0  0.00000000000E+00 -0.00000000000E+00 -0.53010309737E+03  0.53010309737E+03  0.00000000000E+00 0. -1.
          6    1    1    2  502    0 -0.18994327231E+03 -0.12013506258E+02 -0.32107246318E+03  0.41096751410E+03  0.17200000000E+03 0. -1.
         -6    1    1    2    0  501  0.18994327231E+03  0.12013506258E+02 -0.63818719024E+02  0.26434749843E+03  0.17200000000E+03 0.  1.
</event>
<event>
 4    1  0.3191769E-002  0.2265674E+03  0.7818608E-02  0.1129079E+00
         -2   -1    0    0    0  501 -0.00000000000E+00  0.00000000000E+00  0.55181319455E+02  0.55181319455E+02  0.00000000000E+00 0.  1.
          2   -1    0    0  502    0  0.00000000000E+00 -0.00000000000E+00 -0.15677648461E+04  0.15677648461E+04  0.00000000000E+00 0. -1.
          6    1    1    2  502    0  0.11016712340E+03  0.98040765420E+02 -0.12737514962E+04  0.12937448206E+04  0.17200000000E+03 0. -1.
         -6    1    1    2    0  501 -0.11016712340E+03 -0.98040765420E+02 -0.23883203050E+03  0.32920134501E+03  0.17200000000E+03 0.  1.
</event>
<event>
 4    1  0.3191769E-002  0.1956611E+03  0.7818608E-02  0.1153452E+00
         -1   -1    0    0    0  501 -0.00000000000E+00  0.00000000000E+00  0.32706479607E+03  0.32706479607E+03  0.00000000000E+00 0.  1.
          1   -1    0    0  502    0  0.00000000000E+00 -0.00000000000E+00 -0.11956872212E+03  0.11956872212E+03  0.00000000000E+00 0. -1.
          6    1    1    2  502    0  0.19835374373E+02  0.91136221823E+02  0.71342543019E+02  0.20826188189E+03  0.17200000000E+03 0. -1.
         -6    1    1    2    0  501 -0.19835374373E+02 -0.91136221823E+02  0.13615353093E+03  0.23837163630E+03  0.17200000000E+03 0. -1.
</event>
<event>
 4    1  0.3191769E-002  0.1729014E+03  0.7818608E-02  0.1174856E+00
          2   -1    0    0  502    0  0.00000000000E+00  0.00000000000E+00  0.10961722703E+03  0.10961722703E+03  0.00000000000E+00 0. -1.
         -2   -1    0    0    0  501 -0.00000000000E+00 -0.00000000000E+00 -0.27317596564E+03  0.27317596564E+03  0.00000000000E+00 0.  1.
          6    1    1    2  502    0 -0.15833915518E+02  0.77569587580E+01 -0.89593147016E+02  0.19473524407E+03  0.17200000000E+03 0.  1.
         -6    1    1    2    0  501  0.15833915518E+02 -0.77569587580E+01 -0.73965591596E+02  0.18805794860E+03  0.17200000000E+03 0.  1.
</event>
<event>
 4    1  0.3191769E-002  0.4089161E+03  0.7818608E-02  0.1040735E+00
         -2   -1    0    0    0  501 -0.00000000000E+00  0.00000000000E+00  0.21438944085E+03  0.21438944085E+03  0.00000000000E+00 0.  1.
          2   -1    0    0  502    0  0.00000000000E+00 -0.00000000000E+00 -0.15627867625E+04  0.15627867625E+04  0.00000000000E+00 0. -1.
          6    1    1    2  502    0  0.32968228554E+03  0.17011165146E+03 -0.13031066230E+04  0.13657595888E+04  0.17200000000E+03 0. -1.
         -6    1    1    2    0  501 -0.32968228554E+03 -0.17011165146E+03 -0.45290698629E+02  0.41141661457E+03  0.17200000000E+03 0.  1.
</event>
<event>
 4    1  0.3191769E-002  0.1954410E+03  0.7818608E-02  0.1153643E+00
         -1   -1    0    0    0  501 -0.00000000000E+00  0.00000000000E+00  0.39377614941E+03  0.39377614941E+03  0.00000000000E+00 0.  1.
          1   -1    0    0  502    0  0.00000000000E+00 -0.00000000000E+00 -0.97302527640E+02  0.97302527640E+02  0.00000000000E+00 0. -1.
          6    1    1    2  502    0  0.34457859608E+02 -0.86173290783E+02  0.13459705874E+03  0.23730475839E+03  0.17200000000E+03 0. -1.
         -6    1    1    2    0  501 -0.34457859608E+02  0.86173290783E+02  0.16187656303E+03  0.25377391866E+03  0.17200000000E+03 0.  1.
</event>
<event>
 4    1  0.3191769E-002  0.2512641E+03  0.7818608E-02  0.1112509E+00
          2   -1    0    0  502    0  0.00000000000E+00  0.00000000000E+00  0.35774812938E+04  0.35774812938E+04  0.00000000000E+00 0. -1.
         -2   -1    0    0    0  501 -0.00000000000E+00 -0.00000000000E+00 -0.18024391249E+02  0.18024391249E+02  0.00000000000E+00 0.  1.
          6    1    1    2  502    0 -0.79551554362E+02 -0.16498847352E+03  0.20396848131E+04  0.20551028643E+04  0.17200000000E+03 0. -1.
         -6    1    1    2    0  501  0.79551554362E+02  0.16498847352E+03  0.15197720895E+04  0.15404028207E+04  0.17200000000E+03 0.  1.
</event>
<event>
 4    1  0.3191769E-002  0.1796651E+03  0.7818608E-02  0.1168128E+00
         -2   -1    0    0    0  501 -0.00000000000E+00  0.00000000000E+00  0.24824814054E+02  0.24824814054E+02  0.00000000000E+00 0.  1.
          2   -1    0    0  502    0  0.00000000000E+00 -0.00000000000E+00 -0.13148624311E+04  0.13148624311E+04  0.00000000000E+00 0. -1.
          6    1    1    2  502    0  0.51225551527E+02 -0.84552674010E+01 -0.57450981456E+03  0.60194773503E+03  0.17200000000E+03 0.  1.
         -6    1    1    2    0  501 -0.51225551527E+02  0.84552674010E+01 -0.71552780250E+03  0.73773951015E+03  0.17200000000E+03 0. -1.
</event>
<event>
 4    1  0.3191769E-002  0.1821192E+03  0.7818608E-02  0.1165768E+00
         -1   -1    0    0    0  501 -0.00000000000E+00  0.00000000000E+00  0.23891165740E+02  0.23891165740E+02  0.00000000000E+00 0.  1.
          1   -1    0    0  502    0  0.00000000000E+00 -0.00000000000E+00 -0.19323050895E+04  0.19323050895E+04  0.00000000000E+00 0. -1.
          6    1    1    2  502    0 -0.37237636536E+02  0.46869531001E+02 -0.14731957036E+04  0.14844099756E+04  0.17200000000E+03 0. -1.
         -6    1    1    2    0  501  0.37237636536E+02 -0.46869531001E+02 -0.43521822015E+03  0.47178627964E+03  0.17200000000E+03 0.  1.
</event>
<event>
 4    1  0.3191769E-002  0.2723729E+03  0.7818608E-02  0.1099929E+00
         -1   -1    0    0    0  501 -0.00000000000E+00  0.00000000000E+00  0.44537658357E+03  0.44537658357E+03  0.00000000000E+00 0.  1.
          1   -1    0    0  502    0  0.00000000000E+00 -0.00000000000E+00 -0.20019035205E+03  0.20019035205E+03  0.00000000000E+00 0. -1.
          6    1    1    2  502    0  0.10034219293E+03  0.18583443994E+03 -0.96831386317E+01  0.27254496496E+03  0.17200000000E+03 0. -1.
         -6    1    1    2    0  501 -0.10034219293E+03 -0.18583443994E+03  0.25486937016E+03  0.37302197066E+03  0.17200000000E+03 0.  1.
</event>
<event>
 4    1  0.3191769E-002  0.2770403E+03  0.7818608E-02  0.1097317E+00
         -2   -1    0    0    0  501 -0.00000000000E+00  0.00000000000E+00  0.51047274206E+02  0.51047274206E+02  0.00000000000E+00 0.  1.
          2   -1    0    0  502    0  0.00000000000E+00 -0.00000000000E+00 -0.27732701713E+04  0.27732701713E+04  0.00000000000E+00 0. -1.
          6    1    1    2  502    0 -0.68877667736E+02  0.20596896149E+03 -0.23166408509E+04  0.23331472689E+04  0.17200000000E+03 0. -1.
         -6    1    1    2    0  501  0.68877667736E+02 -0.20596896149E+03 -0.40558204618E+03  0.49117017661E+03  0.17200000000E+03 0.  1.
</event>
<event>
 4    1  0.3191769E-002  0.1809046E+03  0.7818608E-02  0.1166930E+00
          2   -1    0    0  502    0  0.00000000000E+00  0.00000000000E+00  0.13554893249E+04  0.13554893249E+04  0.00000000000E+00 0. -1.
         -2   -1    0    0    0  501 -0.00000000000E+00 -0.00000000000E+00 -0.32445320435E+02  0.32445320435E+02  0.00000000000E+00 0.  1.
          6    1    1    2  502    0 -0.56051279170E+02  0.85772506965E+00  0.10125528733E+04  0.10285863127E+04  0.17200000000E+03 0. -1.
         -6    1    1    2    0  501  0.56051279170E+02 -0.85772506965E+00  0.31049113121E+03  0.35934833261E+03  0.17200000000E+03 0.  1.
</event>
<event>
 4    1  0.3191769E-002  0.2337068E+03  0.7818608E-02  0.1124058E+00
          1   -1    0    0  502    0  0.00000000000E+00  0.00000000000E+00  0.20732389813E+04  0.20732389813E+04  0.00000000000E+00 0. -1.
         -1   -1    0    0    0  501 -0.00000000000E+00 -0.00000000000E+00 -0.26344789155E+02  0.26344789155E+02  0.00000000000E+00 0.  1.
          6    1    1    2  502    0  0.13395244019E+03  0.84211580900E+02  0.10214521562E+04  0.10478470089E+04  0.17200000000E+03 0. -1.
         -6    1    1    2    0  501 -0.13395244019E+03 -0.84211580900E+02  0.10254420360E+04  0.10517367616E+04  0.17200000000E+03 0. -1.
</event>
<event>
 4    1  0.3191769E-002  0.2566582E+03  0.7818608E-02  0.1109168E+00
          1   -1    0    0  502    0  0.00000000000E+00  0.00000000000E+00  0.18540019394E+04  0.18540019394E+04  0.00000000000E+00 0. -1.
         -1   -1    0    0    0  501 -0.00000000000E+00 -0.00000000000E+00 -0.35579900479E+02  0.35579900479E+02  0.00000000000E+00 0.  1.
          6    1    1    2  502    0  0.18918430763E+03  0.22332673159E+02  0.87397469215E+03  0.91088155819E+03  0.17200000000E+03 0. -1.
         -6    1    1    2    0  501 -0.18918430763E+03 -0.22332673159E+02  0.94444734679E+03  0.97870028170E+03  0.17200000000E+03 0.  1.
</event>
<event>
 4    1  0.3191769E-002  0.2278165E+03  0.7818608E-02  0.1128186E+00
          1   -1    0    0  502    0  0.00000000000E+00  0.00000000000E+00  0.78353783510E+02  0.78353783510E+02  0.00000000000E+00 0. -1.
         -1   -1    0    0    0  501 -0.00000000000E+00 -0.00000000000E+00 -0.11589852075E+04  0.11589852075E+04  0.00000000000E+00 0.  1.
          6    1    1    2  502    0  0.57495263473E+02 -0.13787908584E+03 -0.13534526204E+03  0.26498808953E+03  0.17200000000E+03 0. -1.
         -6    1    1    2    0  501 -0.57495263473E+02  0.13787908584E+03 -0.94528616191E+03  0.97235090144E+03  0.17200000000E+03 0.  1.
</event>
<event>
 4    1  0.3191769E-002  0.1742922E+03  0.7818608E-02  0.1173444E+00
         -2   -1    0    0    0  501 -0.00000000000E+00  0.00000000000E+00  0.12622364182E+03  0.12622364182E+03  0.00000000000E+00 0.  1.
          2   -1    0    0  502    0  0.00000000000E+00 -0.00000000000E+00 -0.42693844034E+03  0.42693844034E+03  0.00000000000E+00 0. -1.
          6    1    1    2  502    0 -0.30919963743E+01  0.28004020059E+02 -0.33304692534E+03  0.37589631557E+03  0.17200000000E+03 0. -1.
         -6    1    1    2    0  501  0.30919963743E+01 -0.28004020059E+02  0.32332126825E+02  0.17726576659E+03  0.17200000000E+03 0.  1.
</event>
<event>
 4    1  0.3191769E-002  0.3341255E+03  0.7818608E-02  0.1069326E+00
         -1   -1    0    0    0  501 -0.00000000000E+00  0.00000000000E+00  0.19671384833E+03  0.19671384833E+03  0.00000000000E+00 0.  1.
          1   -1    0    0  502    0  0.00000000000E+00 -0.00000000000E+00 -0.63875706805E+03  0.63875706805E+03  0.00000000000E+00 0. -1.
          6    1    1    2  502    0  0.35990838431E+02  0.28418393320E+03 -0.36052155056E+03  0.49154413511E+03  0.17200000000E+03 0. -1.
         -6    1    1    2    0  501 -0.35990838431E+02 -0.28418393320E+03 -0.81521669154E+02  0.34392678128E+03  0.17200000000E+03 0.  1.
</event>
<event>
 4    1  0.3191769E-002  0.2628748E+03  0.7818608E-02  0.1105428E+00
         -2   -1    0    0    0  501 -0.00000000000E+00  0.00000000000E+00  0.12735242243E+04  0.12735242243E+04  0.00000000000E+00 0.  1.
          2   -1    0    0  502    0  0.00000000000E+00 -0.00000000000E+00 -0.84534120903E+02  0.84534120903E+02  0.00000000000E+00 0. -1.
          6    1    1    2  502    0  0.16834894488E+03 -0.10572509547E+03  0.18814680468E+03  0.32326828358E+03  0.17200000000E+03 0. -1.
         -6    1    1    2    0  501 -0.16834894488E+03  0.10572509547E+03  0.10008432988E+04  0.10347900617E+04  0.17200000000E+03 0.  1.
</event>
<event>
 4    1  0.3191769E-002  0.2806473E+03  0.7818608E-02  0.1095336E+00
         -1   -1    0    0    0  501 -0.00000000000E+00  0.00000000000E+00  0.45422420023E+03  0.45422420023E+03  0.00000000000E+00 0.  1.
          1   -1    0    0  502    0  0.00000000000E+00 -0.00000000000E+00 -0.18286475152E+03  0.18286475152E+03  0.00000000000E+00 0. -1.
          6    1    1    2  502    0 -0.12557453028E+03  0.18278384729E+03  0.63213036427E+02  0.28767826727E+03  0.17200000000E+03 0.  1.
         -6    1    1    2    0  501  0.12557453028E+03 -0.18278384729E+03  0.20814641228E+03  0.34941068448E+03  0.17200000000E+03 0. -1.
</event>
<event>
 4    1  0.3191769E-002  0.2075507E+03  0.7818608E-02  0.1143520E+00
         -2   -1    0    0    0  501 -0.00000000000E+00  0.00000000000E+00  0.77713435728E+02  0.77713435728E+02  0.00000000000E+00 0.  1.
          2   -1    0    0  502    0  0.00000000000E+00 -0.00000000000E+00 -0.55433714725E+03  0.55433714725E+03  0.00000000000E+00 0. -1.
          6    1    1    2  502    0  0.68218450777E+02 -0.94018797873E+02 -0.24054592751E+03  0.31770998509E+03  0.17200000000E+03 0. -1.
         -6    1    1    2    0  501 -0.68218450777E+02  0.94018797873E+02 -0.23607778400E+03  0.31434059789E+03  0.17200000000E+03 0.  1.
</event>
<event>
 4    1  0.3191769E-002  0.1927117E+03  0.7818608E-02  0.1156038E+00
          2   -1    0    0  502    0  0.00000000000E+00  0.00000000000E+00  0.17081508119E+04  0.17081508119E+04  0.00000000000E+00 0. -1.
         -2   -1    0    0    0  501 -0.00000000000E+00 -0.00000000000E+00 -0.28606340255E+02  0.28606340255E+02  0.00000000000E+00 0.  1.
          6    1    1    2  502    0  0.32963115085E+02  0.80419084835E+02  0.12651673669E+04  0.12797602363E+04  0.17200000000E+03 0. -1.
         -6    1    1    2    0  501 -0.32963115085E+02 -0.80419084835E+02  0.41437710478E+03  0.45699691588E+03  0.17200000000E+03 0.  1.
</event>
<event>
 4    1  0.3191769E-002  0.1853239E+03  0.7818608E-02  0.1162748E+00
         -2   -1    0    0    0  501 -0.00000000000E+00  0.00000000000E+00  0.33132359035E+03  0.33132359035E+03  0.00000000000E+00 0.  1.
          2   -1    0    0  502    0  0.00000000000E+00 -0.00000000000E+00 -0.10557642130E+03  0.10557642130E+03  0.00000000000E+00 0. -1.
          6    1    1    2  502    0 -0.66515102302E+02 -0.18348619995E+02  0.14230688360E+03  0.23365825432E+03  0.17200000000E+03 0. -1.
         -6    1    1    2    0  501  0.66515102302E+02  0.18348619995E+02  0.83440285447E+02  0.20324175734E+03  0.17200000000E+03 0.  1.
</event>
<event>
 4    1  0.3191769E-002  0.3464195E+03  0.7818608E-02  0.1064094E+00
         -1   -1    0    0    0  501 -0.00000000000E+00  0.00000000000E+00  0.71722139534E+02  0.71722139534E+02  0.00000000000E+00 0.  1.
          1   -1    0    0  502    0  0.00000000000E+00 -0.00000000000E+00 -0.16743970924E+04  0.16743970924E+04  0.00000000000E+00 0. -1.
          6    1    1    2  502    0  0.27737581041E+03 -0.11612558940E+03 -0.82454409654E+03  0.89435980447E+03  0.17200000000E+03 0. -1.
         -6    1    1    2    0  501 -0.27737581041E+03  0.11612558940E+03 -0.77813085633E+03  0.85175942747E+03  0.17200000000E+03 0. -1.
</event>
<event>
 4    1  0.3191769E-002  0.2387171E+03  0.7818608E-02  0.1120650E+00
          4   -1    0    0  502    0  0.00000000000E+00  0.00000000000E+00  0.11106885522E+03  0.11106885522E+03  0.00000000000E+00 0. -1.
         -4   -1    0    0    0  501 -0.00000000000E+00 -0.00000000000E+00 -0.14894276470E+04  0.14894276470E+04  0.00000000000E+00 0.  1.
          6    1    1    2  502    0  0.10185184076E+03 -0.13049156924E+03 -0.41261469986E+02  0.24225679766E+03  0.17200000000E+03 0. -1.
         -6    1    1    2    0  501 -0.10185184076E+03  0.13049156924E+03 -0.13370973218E+04  0.13582397046E+04  0.17200000000E+03 0.  1.
</event>
<event>
 4    1  0.3191769E-002  0.2085365E+03  0.7818608E-02  0.1142730E+00
          1   -1    0    0  502    0  0.00000000000E+00  0.00000000000E+00  0.29256589978E+03  0.29256589978E+03  0.00000000000E+00 0. -1.
         -1   -1    0    0    0  501 -0.00000000000E+00 -0.00000000000E+00 -0.42710891673E+03  0.42710891673E+03  0.00000000000E+00 0.  1.
          6    1    1    2  502    0 -0.11772517044E+03 -0.66515320677E+01  0.22328065849E+03  0.30551875734E+03  0.17200000000E+03 0. -1.
         -6    1    1    2    0  501  0.11772517044E+03  0.66515320677E+01 -0.35782367545E+03  0.41415605916E+03  0.17200000000E+03 0.  1.
</event>
<event>
 4    1  0.3191769E-002  0.1778074E+03  0.7818608E-02  0.1169942E+00
         -2   -1    0    0    0  501 -0.00000000000E+00  0.00000000000E+00  0.40547959065E+02  0.40547959065E+02  0.00000000000E+00 0.  1.
          2   -1    0    0  502    0  0.00000000000E+00 -0.00000000000E+00 -0.13495939491E+04  0.13495939491E+04  0.00000000000E+00 0. -1.
          6    1    1    2  502    0 -0.23547053539E+01  0.45010195655E+02 -0.11061943488E+04  0.11203934129E+04  0.17200000000E+03 0. -1.
         -6    1    1    2    0  501  0.23547053539E+01 -0.45010195655E+02 -0.20285164127E+03  0.26974849530E+03  0.17200000000E+03 0. -1.
</event>
<event>
 4    1  0.3191769E-002  0.3565062E+03  0.7818608E-02  0.1059976E+00
          1   -1    0    0  502    0  0.00000000000E+00  0.00000000000E+00  0.17362446145E+04  0.17362446145E+04  0.00000000000E+00 0. -1.
         -1   -1    0    0    0  501 -0.00000000000E+00 -0.00000000000E+00 -0.13170345513E+03  0.13170345513E+03  0.00000000000E+00 0.  1.
          6    1    1    2  502    0  0.14093133876E+03  0.27865930632E+03  0.14247419719E+04  0.14686682191E+04  0.17200000000E+03 0. -1.
         -6    1    1    2    0  501 -0.14093133876E+03 -0.27865930632E+03  0.17979918748E+03  0.39927985056E+03  0.17200000000E+03 0.  1.
</event>
<event>
 4    1  0.3191769E-002  0.2027198E+03  0.7818608E-02  0.1147464E+00
         -4   -1    0    0    0  501 -0.00000000000E+00  0.00000000000E+00  0.52768502779E+02  0.52768502779E+02  0.00000000000E+00 0.  1.
          4   -1    0    0  502    0  0.00000000000E+00 -0.00000000000E+00 -0.13494603933E+04  0.13494603933E+04  0.00000000000E+00 0. -1.
          6    1    1    2  502    0  0.87845448553E+02  0.61599436077E+02 -0.11042814947E+04  0.11227345781E+04  0.17200000000E+03 0. -1.
         -6    1    1    2    0  501 -0.87845448553E+02 -0.61599436077E+02 -0.19241039583E+03  0.27949431798E+03  0.17200000000E+03 0.  1.
</event>
<event>
 4    1  0.3191769E-002  0.4012326E+03  0.7818608E-02  0.1043354E+00
         -2   -1    0    0    0  501 -0.00000000000E+00  0.00000000000E+00  0.36385889357E+02  0.36385889357E+02  0.00000000000E+00 0.  1.
          2   -1    0    0  502    0  0.00000000000E+00 -0.00000000000E+00 -0.45227529905E+04  0.45227529905E+04  0.00000000000E+00 0. -1.
          6    1    1    2  502    0  0.35730647165E+03 -0.61120397336E+02 -0.25792541632E+04  0.26102757816E+04  0.17200000000E+03 0. -1.
         -6    1    1    2    0  501 -0.35730647165E+03  0.61120397336E+02 -0.19071129379E+04  0.19488630983E+04  0.17200000000E+03 0.  1.
</event>
<event>
 4    1  0.3191769E-002  0.2129780E+03  0.7818608E-02  0.1139229E+00
          2   -1    0    0  502    0  0.00000000000E+00  0.00000000000E+00  0.81637496920E+03  0.81637496920E+03  0.00000000000E+00 0. -1.
         -2   -1    0    0    0  501 -0.00000000000E+00 -0.00000000000E+00 -0.62492719018E+02  0.62492719018E+02  0.00000000000E+00 0.  1.
          6    1    1    2  502    0  0.99238411326E+02 -0.76989368104E+02  0.52328019777E+03  0.56496176017E+03  0.17200000000E+03 0. -1.
         -6    1    1    2    0  501 -0.99238411326E+02  0.76989368104E+02  0.23060205242E+03  0.31390592805E+03  0.17200000000E+03 0. -1.
</event>
<event>
 4    1  0.3191769E-002  0.1820231E+03  0.7818608E-02  0.1165859E+00
          2   -1    0    0  502    0  0.00000000000E+00  0.00000000000E+00  0.87971461115E+03  0.87971461115E+03  0.00000000000E+00 0. -1.
         -2   -1    0    0    0  501 -0.00000000000E+00 -0.00000000000E+00 -0.10590575508E+03  0.10590575508E+03  0.00000000000E+00 0.  1.
          6    1    1    2  502    0 -0.10817867181E+02  0.58578151272E+02 -0.86890549333E+01  0.18223041934E+03  0.17200000000E+03 0.  1.
         -6    1    1    2    0  501  0.10817867181E+02 -0.58578151272E+02  0.78249791100E+03  0.80338994690E+03  0.17200000000E+03 0. -1.
</event>
<event>
 4    1  0.3191769E-002  0.2316063E+03  0.7818608E-02  0.1125514E+00
          1   -1    0    0  502    0  0.00000000000E+00  0.00000000000E+00  0.18177734615E+03  0.18177734615E+03  0.00000000000E+00 0. -1.
         -1   -1    0    0    0  501 -0.00000000000E+00 -0.00000000000E+00 -0.33461828265E+03  0.33461828265E+03  0.00000000000E+00 0.  1.
          6    1    1    2  502    0 -0.66705657114E+02 -0.14002796718E+03  0.12317105017E+02  0.23193358394E+03  0.17200000000E+03 0. -1.
         -6    1    1    2    0  501  0.66705657114E+02  0.14002796718E+03 -0.16515804152E+03  0.28446204485E+03  0.17200000000E+03 0.  1.
</event>
<event>
 4    1  0.3191769E-002  0.3149855E+03  0.7818608E-02  0.1077981E+00
          1   -1    0    0  502    0  0.00000000000E+00  0.00000000000E+00  0.11112116279E+04  0.11112116279E+04  0.00000000000E+00 0. -1.
         -1   -1    0    0    0  501 -0.00000000000E+00 -0.00000000000E+00 -0.25879332831E+03  0.25879332831E+03  0.00000000000E+00 0.  1.
          6    1    1    2  502    0 -0.81383455715E+02 -0.25101514283E+03  0.98059173820E+03  0.10299398166E+04  0.17200000000E+03 0. -1.
         -6    1    1    2    0  501  0.81383455715E+02  0.25101514283E+03 -0.12817343863E+03  0.34006513959E+03  0.17200000000E+03 0.  1.
</event>
<event>
 4    1  0.3191769E-002  0.1989420E+03  0.7818608E-02  0.1150635E+00
         -2   -1    0    0    0  501 -0.00000000000E+00  0.00000000000E+00  0.42071437212E+02  0.42071437212E+02  0.00000000000E+00 0.  1.
          2   -1    0    0  502    0  0.00000000000E+00 -0.00000000000E+00 -0.95891429481E+03  0.95891429481E+03  0.00000000000E+00 0. -1.
          6    1    1    2  502    0 -0.90514683041E+02  0.42438209557E+02 -0.38950177752E+03  0.43736660157E+03  0.17200000000E+03 0.  1.
         -6    1    1    2    0  501  0.90514683041E+02 -0.42438209557E+02 -0.52734108008E+03  0.56361913045E+03  0.17200000000E+03 0. -1.
</event>
<event>
 4    1  0.3191769E-002  0.1727923E+03  0.7818608E-02  0.1174967E+00
         -1   -1    0    0    0  501 -0.00000000000E+00  0.00000000000E+00  0.11858576307E+03  0.11858576307E+03  0.00000000000E+00 0.  1.
          1   -1    0    0  502    0  0.00000000000E+00 -0.00000000000E+00 -0.26020232174E+03  0.26020232174E+03  0.00000000000E+00 0. -1.
          6    1    1    2  502    0  0.35933632342E+01 -0.16133237221E+02 -0.36728377062E+02  0.17665267415E+03  0.17200000000E+03 0.  1.
         -6    1    1    2    0  501 -0.35933632342E+01  0.16133237221E+02 -0.10488818161E+03  0.20213541066E+03  0.17200000000E+03 0. -1.
</event>
<event>
 4    1  0.3191769E-002  0.2151065E+03  0.7818608E-02  0.1137585E+00
          1   -1    0    0  502    0  0.00000000000E+00  0.00000000000E+00  0.15471962514E+04  0.15471962514E+04  0.00000000000E+00 0. -1.
         -1   -1    0    0    0  501 -0.00000000000E+00 -0.00000000000E+00 -0.46835035390E+02  0.46835035390E+02  0.00000000000E+00 0.  1.
          6    1    1    2  502    0 -0.93926985369E+02 -0.88682108333E+02  0.12293561858E+04  0.12480334236E+04  0.17200000000E+03 0. -1.
         -6    1    1    2    0  501  0.93926985369E+02  0.88682108333E+02  0.27100503023E+03  0.34599786319E+03  0.17200000000E+03 0.  1.
</event>
<event>
 4    1  0.3191769E-002  0.5058999E+03  0.7818608E-02  0.1012250E+00
         -2   -1    0    0    0  501 -0.00000000000E+00  0.00000000000E+00  0.20195093125E+03  0.20195093125E+03  0.00000000000E+00 0.  1.
          2   -1    0    0  502    0  0.00000000000E+00 -0.00000000000E+00 -0.14228939684E+04  0.14228939684E+04  0.00000000000E+00 0. -1.
          6    1    1    2  502    0  0.35696308255E+03  0.31452826553E+03 -0.87911507489E+03  0.10142869353E+04  0.17200000000E+03 0. -1.
         -6    1    1    2    0  501 -0.35696308255E+03 -0.31452826553E+03 -0.34182796226E+03  0.61055796441E+03  0.17200000000E+03 0.  1.
</event>
<event>
 4    1  0.3191769E-002  0.1773382E+03  0.7818608E-02  0.1170404E+00
          2   -1    0    0  502    0  0.00000000000E+00  0.00000000000E+00  0.15107944957E+03  0.15107944957E+03  0.00000000000E+00 0. -1.
         -2   -1    0    0    0  501 -0.00000000000E+00 -0.00000000000E+00 -0.28763598297E+03  0.28763598297E+03  0.00000000000E+00 0.  1.
          6    1    1    2  502    0  0.21804985414E+02 -0.37274396624E+02  0.47026360021E+02  0.18346748096E+03  0.17200000000E+03 0. -1.
         -6    1    1    2    0  501 -0.21804985414E+02  0.37274396624E+02 -0.18358289342E+03  0.25524795159E+03  0.17200000000E+03 0.  1.
</event>
<event>
 4    1  0.3191769E-002  0.1828522E+03  0.7818608E-02  0.1165071E+00
         -2   -1    0    0    0  501 -0.00000000000E+00  0.00000000000E+00  0.46168568170E+02  0.46168568170E+02  0.00000000000E+00 0.  1.
          2   -1    0    0  502    0  0.00000000000E+00 -0.00000000000E+00 -0.85482132929E+03  0.85482132929E+03  0.00000000000E+00 0. -1.
          6    1    1    2  502    0 -0.60627191618E+02  0.13239467732E+02 -0.22822147993E+03  0.29243799987E+03  0.17200000000E+03 0.  1.
         -6    1    1    2    0  501  0.60627191618E+02 -0.13239467732E+02 -0.58043128119E+03  0.60855189758E+03  0.17200000000E+03 0. -1.
</event>
<event>
 4    1  0.3191769E-002  0.2189093E+03  0.7818608E-02  0.1134699E+00
         -1   -1    0    0    0  501 -0.00000000000E+00  0.00000000000E+00  0.14671489438E+03  0.14671489438E+03  0.00000000000E+00 0.  1.
          1   -1    0    0  502    0  0.00000000000E+00 -0.00000000000E+00 -0.35016115921E+03  0.35016115921E+03  0.00000000000E+00 0. -1.
          6    1    1    2  502    0 -0.11839574322E+03  0.65724492493E+02 -0.16612817919E+03  0.27480872047E+03  0.17200000000E+03 0. -1.
         -6    1    1    2    0  501  0.11839574322E+03 -0.65724492493E+02 -0.37318085643E+02  0.22206733313E+03  0.17200000000E+03 0.  1.
</event>
<event>
 4    1  0.3191769E-002  0.1728746E+03  0.7818608E-02  0.1174883E+00
         -1   -1    0    0    0  501 -0.00000000000E+00  0.00000000000E+00  0.35952550455E+03  0.35952550455E+03  0.00000000000E+00 0.  1.
          1   -1    0    0  502    0  0.00000000000E+00 -0.00000000000E+00 -0.10546807459E+04  0.10546807459E+04  0.00000000000E+00 0. -1.
          6    1    1    2  502    0 -0.84016223917E+01  0.15199816936E+02 -0.10262435863E+04  0.10407024167E+04  0.17200000000E+03 0. -1.
         -6    1    1    2    0  501  0.84016223917E+01 -0.15199816936E+02  0.33108834493E+03  0.37350383377E+03  0.17200000000E+03 0.  1.
</event>
<event>
 4    1  0.3191769E-002  0.1966933E+03  0.7818608E-02  0.1152559E+00
         -1   -1    0    0    0  501 -0.00000000000E+00  0.00000000000E+00  0.25176513622E+03  0.25176513622E+03  0.00000000000E+00 0.  1.
          1   -1    0    0  502    0  0.00000000000E+00 -0.00000000000E+00 -0.21948680644E+03  0.21948680644E+03  0.00000000000E+00 0. -1.
          6    1    1    2  502    0 -0.76635097378E+02 -0.56844651146E+02 -0.11289177188E+03  0.22678801704E+03  0.17200000000E+03 0. -1.
         -6    1    1    2    0  501  0.76635097378E+02  0.56844651146E+02  0.14517010166E+03  0.24446392562E+03  0.17200000000E+03 0.  1.
</event>
<event>
 4    1  0.3191769E-002  0.6101736E+03  0.7818608E-02  0.9884521E-01
          2   -1    0    0  502    0  0.00000000000E+00  0.00000000000E+00  0.34795053513E+04  0.34795053513E+04  0.00000000000E+00 0. -1.
         -2   -1    0    0    0  501 -0.00000000000E+00 -0.00000000000E+00 -0.10740859353E+03  0.10740859353E+03  0.00000000000E+00 0.  1.
          6    1    1    2  502    0 -0.25061839937E+02  0.58489295539E+03  0.15756191701E+04  0.16896412738E+04  0.17200000000E+03 0. -1.
         -6    1    1    2    0  501  0.25061839937E+02 -0.58489295539E+03  0.17964775877E+04  0.18972726710E+04  0.17200000000E+03 0.  1.
</event>
<event>
 4    1  0.3191769E-002  0.2957176E+03  0.7818608E-02  0.1087401E+00
         -2   -1    0    0    0  501 -0.00000000000E+00  0.00000000000E+00  0.52334333213E+03  0.52334333213E+03  0.00000000000E+00 0.  1.
          2   -1    0    0  502    0  0.00000000000E+00 -0.00000000000E+00 -0.42720884583E+03  0.42720884583E+03  0.00000000000E+00 0. -1.
          6    1    1    2  502    0 -0.12438305889E+03  0.20589747549E+03 -0.32278952378E+03  0.43776933700E+03  0.17200000000E+03 0. -1.
         -6    1    1    2    0  501  0.12438305889E+03 -0.20589747549E+03  0.41892401009E+03  0.51278284096E+03  0.17200000000E+03 0.  1.
</event>
<event>
 4    1  0.3191769E-002  0.3165778E+03  0.7818608E-02  0.1077235E+00
          2   -1    0    0  502    0  0.00000000000E+00  0.00000000000E+00  0.14246830039E+04  0.14246830039E+04  0.00000000000E+00 0. -1.
         -2   -1    0    0    0  501 -0.00000000000E+00 -0.00000000000E+00 -0.75786313012E+02  0.75786313012E+02  0.00000000000E+00 0.  1.
          6    1    1    2  502    0 -0.10839473618E+03 -0.24266868155E+03  0.47345000976E+03  0.56954053374E+03  0.17200000000E+03 0. -1.
         -6    1    1    2    0  501  0.10839473618E+03  0.24266868155E+03  0.87544668113E+03  0.93092878317E+03  0.17200000000E+03 0. -1.
</event>
<event>
 4    1  0.3191769E-002  0.2263980E+03  0.7818608E-02  0.1129201E+00
         -2   -1    0    0    0  501 -0.00000000000E+00  0.00000000000E+00  0.27120892736E+02  0.27120892736E+02  0.00000000000E+00 0.  1.
          2   -1    0    0  502    0  0.00000000000E+00 -0.00000000000E+00 -0.25647503055E+04  0.25647503055E+04  0.00000000000E+00 0. -1.
          6    1    1    2  502    0  0.74589109022E+02 -0.12691940551E+03 -0.19335689117E+04  0.19467780580E+04  0.17200000000E+03 0. -1.
         -6    1    1    2    0  501 -0.74589109022E+02  0.12691940551E+03 -0.60406050105E+03  0.64509314026E+03  0.17200000000E+03 0.  1.
</event>
<event>
 4    1  0.3191769E-002  0.2797609E+03  0.7818608E-02  0.1095820E+00
         -2   -1    0    0    0  501 -0.00000000000E+00  0.00000000000E+00  0.69727355112E+02  0.69727355112E+02  0.00000000000E+00 0.  1.
          2   -1    0    0  502    0  0.00000000000E+00 -0.00000000000E+00 -0.11995815865E+04  0.11995815865E+04  0.00000000000E+00 0. -1.
          6    1    1    2  502    0 -0.19403933221E+03  0.10502816053E+03 -0.72584711614E+03  0.77789473128E+03  0.17200000000E+03 0. -1.
         -6    1    1    2    0  501  0.19403933221E+03 -0.10502816053E+03 -0.40400711527E+03  0.49141421035E+03  0.17200000000E+03 0.  1.
</event>
<event>
 4    1  0.3191769E-002  0.2698631E+03  0.7818608E-02  0.1101358E+00
          2   -1    0    0  502    0  0.00000000000E+00  0.00000000000E+00  0.22634798984E+04  0.22634798984E+04  0.00000000000E+00 0. -1.
         -2   -1    0    0    0  501 -0.00000000000E+00 -0.00000000000E+00 -0.10263602137E+03  0.10263602137E+03  0.00000000000E+00 0.  1.
          6    1    1    2  502    0 -0.79150617108E+02 -0.19229470401E+03  0.20606620739E+04  0.20782575048E+04  0.17200000000E+03 0. -1.
         -6    1    1    2    0  501  0.79150617108E+02  0.19229470401E+03  0.10018180307E+03  0.28785841493E+03  0.17200000000E+03 0.  1.
</event>
<event>
 4    1  0.3191769E-002  0.2916850E+03  0.7818608E-02  0.1089473E+00
          1   -1    0    0  502    0  0.00000000000E+00  0.00000000000E+00  0.96375829633E+02  0.96375829633E+02  0.00000000000E+00 0. -1.
         -1   -1    0    0    0  501 -0.00000000000E+00 -0.00000000000E+00 -0.11465398473E+04  0.11465398473E+04  0.00000000000E+00 0.  1.
          6    1    1    2  502    0  0.31671013791E+02 -0.23343750850E+03 -0.22701844538E+03  0.36961804344E+03  0.17200000000E+03 0. -1.
         -6    1    1    2    0  501 -0.31671013791E+02  0.23343750850E+03 -0.82314557226E+03  0.87329763347E+03  0.17200000000E+03 0.  1.
</event>
<event>
 4    1  0.3191769E-002  0.1958333E+03  0.7818608E-02  0.1153303E+00
         -1   -1    0    0    0  501 -0.00000000000E+00  0.00000000000E+00  0.51864793835E+02  0.51864793835E+02  0.00000000000E+00 0.  1.
          1   -1    0    0  502    0  0.00000000000E+00 -0.00000000000E+00 -0.74444891985E+03  0.74444891985E+03  0.00000000000E+00 0. -1.
          6    1    1    2  502    0 -0.84866154218E+02  0.39552626115E+02 -0.31361824079E+03  0.36973919906E+03  0.17200000000E+03 0. -1.
         -6    1    1    2    0  501  0.84866154218E+02 -0.39552626115E+02 -0.37896588522E+03  0.42657451462E+03  0.17200000000E+03 0. -1.
</event>
<event>
 4    1  0.3191769E-002  0.2597294E+03  0.7818608E-02  0.1107306E+00
         -2   -1    0    0    0  501 -0.00000000000E+00  0.00000000000E+00  0.81042895313E+03  0.81042895313E+03  0.00000000000E+00 0.  1.
          2   -1    0    0  502    0  0.00000000000E+00 -0.00000000000E+00 -0.87672693871E+02  0.87672693871E+02  0.00000000000E+00 0. -1.
          6    1    1    2  502    0  0.19392912644E+03  0.16336491626E+02  0.26039690133E+03  0.36778517271E+03  0.17200000000E+03 0. -1.
         -6    1    1    2    0  501 -0.19392912644E+03 -0.16336491626E+02  0.46235935793E+03  0.53031647429E+03  0.17200000000E+03 0.  1.
</event>
<event>
 4    1  0.3191769E-002  0.1795773E+03  0.7818608E-02  0.1168213E+00
          2   -1    0    0  502    0  0.00000000000E+00  0.00000000000E+00  0.88378788153E+03  0.88378788153E+03  0.00000000000E+00 0. -1.
         -2   -1    0    0    0  501 -0.00000000000E+00 -0.00000000000E+00 -0.41848031041E+02  0.41848031041E+02  0.00000000000E+00 0.  1.
          6    1    1    2  502    0  0.43314482587E+02 -0.28069044422E+02  0.58660018302E+03  0.61347191490E+03  0.17200000000E+03 0. -1.
         -6    1    1    2    0  501 -0.43314482587E+02  0.28069044422E+02  0.25533966747E+03  0.31216399767E+03  0.17200000000E+03 0.  1.
</event>
<event>
 4    1  0.3191769E-002  0.2166920E+03  0.7818608E-02  0.1136374E+00
         -2   -1    0    0    0  501 -0.00000000000E+00  0.00000000000E+00  0.14631906175E+03  0.14631906175E+03  0.00000000000E+00 0.  1.
          2   -1    0    0  502    0  0.00000000000E+00 -0.00000000000E+00 -0.52310239751E+03  0.52310239751E+03  0.00000000000E+00 0. -1.
          6    1    1    2  502    0  0.48365443447E+01  0.13171196641E+03 -0.39648460429E+03  0.45183567333E+03  0.17200000000E+03 0. -1.
         -6    1    1    2    0  501 -0.48365443447E+01 -0.13171196641E+03  0.19701268526E+02  0.21758578593E+03  0.17200000000E+03 0.  1.
</event>
<event>
 4    1  0.3191769E-002  0.3272343E+03  0.7818608E-02  0.1072367E+00
         -2   -1    0    0    0  501 -0.00000000000E+00  0.00000000000E+00  0.19742720336E+03  0.19742720336E+03  0.00000000000E+00 0.  1.
          2   -1    0    0  502    0  0.00000000000E+00 -0.00000000000E+00 -0.87698538965E+03  0.87698538965E+03  0.00000000000E+00 0. -1.
          6    1    1    2  502    0 -0.25835397025E+03  0.10368957231E+03 -0.67160147678E+03  0.74708155175E+03  0.17200000000E+03 0. -1.
         -6    1    1    2    0  501  0.25835397025E+03 -0.10368957231E+03 -0.79567095097E+01  0.32733104127E+03  0.17200000000E+03 0.  1.
</event>
<event>
 4    1  0.3191769E-002  0.1788313E+03  0.7818608E-02  0.1168939E+00
         -2   -1    0    0    0  501 -0.00000000000E+00  0.00000000000E+00  0.32461728877E+02  0.32461728877E+02  0.00000000000E+00 0.  1.
          2   -1    0    0  502    0  0.00000000000E+00 -0.00000000000E+00 -0.11589580326E+04  0.11589580326E+04  0.00000000000E+00 0. -1.
          6    1    1    2  502    0  0.46829113691E+02 -0.14270975500E+02 -0.33257389274E+03  0.37760564186E+03  0.17200000000E+03 0.  1.
         -6    1    1    2    0  501 -0.46829113691E+02  0.14270975500E+02 -0.79392241103E+03  0.81381411966E+03  0.17200000000E+03 0. -1.
</event>
<event>
 4    1  0.3191769E-002  0.1782365E+03  0.7818608E-02  0.1169521E+00
         -1   -1    0    0    0  501 -0.00000000000E+00  0.00000000000E+00  0.84002408474E+02  0.84002408474E+02  0.00000000000E+00 0.  1.
          1   -1    0    0  502    0  0.00000000000E+00 -0.00000000000E+00 -0.60935789658E+03  0.60935789658E+03  0.00000000000E+00 0. -1.
          6    1    1    2  502    0 -0.32964379525E+02 -0.33129940840E+02 -0.47621002316E+03  0.50847244709E+03  0.17200000000E+03 0. -1.
         -6    1    1    2    0  501  0.32964379525E+02  0.33129940840E+02 -0.49145464953E+02  0.18488785797E+03  0.17200000000E+03 0.  1.
</event>
<event>
 4    1  0.3191769E-002  0.4324064E+03  0.7818608E-02  0.1033103E+00
          2   -1    0    0  502    0  0.00000000000E+00  0.00000000000E+00  0.17678398154E+04  0.17678398154E+04  0.00000000000E+00 0. -1.
         -2   -1    0    0    0  501 -0.00000000000E+00 -0.00000000000E+00 -0.13876364134E+03  0.13876364134E+03  0.00000000000E+00 0.  1.
          6    1    1    2  502    0  0.20405394762E+03  0.34022528621E+03  0.12794190414E+04  0.13505141030E+04  0.17200000000E+03 0. -1.
         -6    1    1    2    0  501 -0.20405394762E+03 -0.34022528621E+03  0.34965713266E+03  0.55608935373E+03  0.17200000000E+03 0.  1.
</event>
<event>
 4    1  0.3191769E-002  0.1838322E+03  0.7818608E-02  0.1164145E+00
         -1   -1    0    0    0  501 -0.00000000000E+00  0.00000000000E+00  0.21560507309E+02  0.21560507309E+02  0.00000000000E+00 0.  1.
          1   -1    0    0  502    0  0.00000000000E+00 -0.00000000000E+00 -0.18916600913E+04  0.18916600913E+04  0.00000000000E+00 0. -1.
          6    1    1    2  502    0  0.60602385146E+02  0.23186900287E+02 -0.13310994299E+04  0.13437335947E+04  0.17200000000E+03 0. -1.
         -6    1    1    2    0  501 -0.60602385146E+02 -0.23186900287E+02 -0.53900015407E+03  0.56948700382E+03  0.17200000000E+03 0.  1.
</event>
<event>
 4    1  0.3191769E-002  0.1745190E+03  0.7818608E-02  0.1173216E+00
          1   -1    0    0  502    0  0.00000000000E+00  0.00000000000E+00  0.48321023373E+03  0.48321023373E+03  0.00000000000E+00 0. -1.
         -1   -1    0    0    0  501 -0.00000000000E+00 -0.00000000000E+00 -0.64361904091E+02  0.64361904091E+02  0.00000000000E+00 0.  1.
          6    1    1    2  502    0  0.80335281034E-01 -0.29544498511E+02  0.24880502425E+03  0.30390923635E+03  0.17200000000E+03 0.  1.
         -6    1    1    2    0  501 -0.80335281034E-01  0.29544498511E+02  0.17004330539E+03  0.24366290147E+03  0.17200000000E+03 0.  1.
</event>
<event>
 4    1  0.3191769E-002  0.3085770E+03  0.7818608E-02  0.1081030E+00
          2   -1    0    0  502    0  0.00000000000E+00  0.00000000000E+00  0.84355188650E+03  0.84355188650E+03  0.00000000000E+00 0. -1.
         -2   -1    0    0    0  501 -0.00000000000E+00 -0.00000000000E+00 -0.18119328537E+03  0.18119328537E+03  0.00000000000E+00 0.  1.
          6    1    1    2  502    0  0.25181708249E+03 -0.47158353131E+02  0.64578665237E+03  0.71572351763E+03  0.17200000000E+03 0. -1.
         -6    1    1    2    0  501 -0.25181708249E+03  0.47158353131E+02  0.16571948757E+02  0.30902165424E+03  0.17200000000E+03 0.  1.
</event>
<event>
 4    1  0.3191769E-002  0.2273248E+03  0.7818608E-02  0.1128537E+00
         -2   -1    0    0    0  501 -0.00000000000E+00  0.00000000000E+00  0.16844382096E+02  0.16844382096E+02  0.00000000000E+00 0.  1.
          2   -1    0    0  502    0  0.00000000000E+00 -0.00000000000E+00 -0.35990306885E+04  0.35990306885E+04  0.00000000000E+00 0. -1.
          6    1    1    2  502    0  0.13238374983E+03 -0.67580283648E+02 -0.24856364148E+04  0.24960098033E+04  0.17200000000E+03 0. -1.
         -6    1    1    2    0  501 -0.13238374983E+03  0.67580283648E+02 -0.10965498916E+04  0.11198652672E+04  0.17200000000E+03 0.  1.
</event>
<event>
 4    1  0.3191769E-002  0.2023892E+03  0.7818608E-02  0.1147739E+00
          2   -1    0    0  502    0  0.00000000000E+00  0.00000000000E+00  0.65795765410E+03  0.65795765410E+03  0.00000000000E+00 0. -1.
         -2   -1    0    0    0  501 -0.00000000000E+00 -0.00000000000E+00 -0.87078273748E+02  0.87078273748E+02  0.00000000000E+00 0.  1.
          6    1    1    2  502    0 -0.15504836857E+02 -0.10553185915E+03  0.86546952811E+02  0.22011757836E+03  0.17200000000E+03 0. -1.
         -6    1    1    2    0  501  0.15504836857E+02  0.10553185915E+03  0.48433242754E+03  0.52491834949E+03  0.17200000000E+03 0.  1.
</event>
<event>
 4    1  0.3191769E-002  0.1806745E+03  0.7818608E-02  0.1167152E+00
          2   -1    0    0  502    0  0.00000000000E+00  0.00000000000E+00  0.13486415587E+04  0.13486415587E+04  0.00000000000E+00 0. -1.
         -2   -1    0    0    0  501 -0.00000000000E+00 -0.00000000000E+00 -0.43275115364E+02  0.43275115364E+02  0.00000000000E+00 0.  1.
          6    1    1    2  502    0 -0.30944042953E+02 -0.45844633787E+02  0.11146873860E+04  0.11292347996E+04  0.17200000000E+03 0. -1.
         -6    1    1    2    0  501  0.30944042953E+02  0.45844633787E+02  0.19067905737E+03  0.26268187444E+03  0.17200000000E+03 0.  1.
</event>
<event>
 4    1  0.3191769E-002  0.1764574E+03  0.7818608E-02  0.1171276E+00
          2   -1    0    0  502    0  0.00000000000E+00  0.00000000000E+00  0.43083800110E+03  0.43083800110E+03  0.00000000000E+00 0. -1.
         -2   -1    0    0    0  501 -0.00000000000E+00 -0.00000000000E+00 -0.75793063814E+02  0.75793063814E+02  0.00000000000E+00 0.  1.
          6    1    1    2  502    0 -0.32121798150E+02 -0.22834046560E+02  0.23212715246E+03  0.29158226714E+03  0.17200000000E+03 0. -1.
         -6    1    1    2    0  501  0.32121798150E+02  0.22834046560E+02  0.12291778482E+03  0.21504879777E+03  0.17200000000E+03 0.  1.
</event>
<event>
 4    1  0.3191769E-002  0.1903089E+03  0.7818608E-02  0.1158183E+00
         -1   -1    0    0    0  501 -0.00000000000E+00  0.00000000000E+00  0.20527698645E+03  0.20527698645E+03  0.00000000000E+00 0.  1.
          1   -1    0    0  502    0  0.00000000000E+00 -0.00000000000E+00 -0.55425430045E+03  0.55425430045E+03  0.00000000000E+00 0. -1.
          6    1    1    2  502    0  0.13809456002E+02  0.80266809243E+02 -0.48803723815E+03  0.52382994146E+03  0.17200000000E+03 0. -1.
         -6    1    1    2    0  501 -0.13809456002E+02 -0.80266809243E+02  0.13905992415E+03  0.23570134545E+03  0.17200000000E+03 0.  1.
</event>
<event>
 4    1  0.3191769E-002  0.1740512E+03  0.7818608E-02  0.1173688E+00
         -2   -1    0    0    0  501 -0.00000000000E+00  0.00000000000E+00  0.64627270103E+02  0.64627270103E+02  0.00000000000E+00 0.  1.
          2   -1    0    0  502    0  0.00000000000E+00 -0.00000000000E+00 -0.62732035490E+03  0.62732035490E+03  0.00000000000E+00 0. -1.
          6    1    1    2  502    0  0.15323996728E+02 -0.21794502096E+02 -0.45529233836E+03  0.48742685458E+03  0.17200000000E+03 0. -1.
         -6    1    1    2    0  501 -0.15323996728E+02  0.21794502096E+02 -0.10740074643E+03  0.20452077041E+03  0.17200000000E+03 0.  1.
</event>
<event>
 4    1  0.3191769E-002  0.2349677E+03  0.7818608E-02  0.1123191E+00
          2   -1    0    0  502    0  0.00000000000E+00  0.00000000000E+00  0.10112444453E+04  0.10112444453E+04  0.00000000000E+00 0. -1.
         -2   -1    0    0    0  501 -0.00000000000E+00 -0.00000000000E+00 -0.94720452170E+02  0.94720452170E+02  0.00000000000E+00 0.  1.
          6    1    1    2  502    0 -0.15581376844E+03  0.36713540671E+02  0.81817247491E+03  0.85124380362E+03  0.17200000000E+03 0. -1.
         -6    1    1    2    0  501  0.15581376844E+03 -0.36713540671E+02  0.98351518182E+02  0.25472109381E+03  0.17200000000E+03 0.  1.
</event>
<event>
 4    1  0.3191769E-002  0.2357295E+03  0.7818608E-02  0.1122671E+00
          2   -1    0    0  502    0  0.00000000000E+00  0.00000000000E+00  0.49415240613E+03  0.49415240613E+03  0.00000000000E+00 0. -1.
         -2   -1    0    0    0  501 -0.00000000000E+00 -0.00000000000E+00 -0.12436580982E+03  0.12436580982E+03  0.00000000000E+00 0.  1.
          6    1    1    2  502    0 -0.11427804403E+03  0.11368779661E+03  0.89174155047E+02  0.25203257007E+03  0.17200000000E+03 0.  1.
         -6    1    1    2    0  501  0.11427804403E+03 -0.11368779661E+03  0.28061244126E+03  0.36648564588E+03  0.17200000000E+03 0.  1.
</event>
<event>
 4    1  0.3191769E-002  0.3676640E+03  0.7818608E-02  0.1055590E+00
          2   -1    0    0  502    0  0.00000000000E+00  0.00000000000E+00  0.48528390549E+03  0.48528390549E+03  0.00000000000E+00 0. -1.
         -2   -1    0    0    0  501 -0.00000000000E+00 -0.00000000000E+00 -0.30232422747E+03  0.30232422747E+03  0.00000000000E+00 0.  1.
          6    1    1    2  502    0 -0.12868546850E+03 -0.29838377612E+03 -0.18947901104E+02  0.36815193957E+03  0.17200000000E+03 0. -1.
         -6    1    1    2    0  501  0.12868546850E+03  0.29838377612E+03  0.20190757913E+03  0.41945619338E+03  0.17200000000E+03 0.  1.
</event>
<event>
 4    1  0.3191769E-002  0.2290412E+03  0.7818608E-02  0.1127316E+00
         -2   -1    0    0    0  501 -0.00000000000E+00  0.00000000000E+00  0.31652055642E+02  0.31652055642E+02  0.00000000000E+00 0.  1.
          2   -1    0    0  502    0  0.00000000000E+00 -0.00000000000E+00 -0.16600438490E+04  0.16600438490E+04  0.00000000000E+00 0. -1.
          6    1    1    2  502    0 -0.73912342587E+02 -0.13195779252E+03 -0.84799695917E+03  0.87838416206E+03  0.17200000000E+03 0. -1.
         -6    1    1    2    0  501  0.73912342587E+02  0.13195779252E+03 -0.78039483417E+03  0.81331174256E+03  0.17200000000E+03 0. -1.
</event>
<event>
 4    1  0.3191769E-002  0.2044364E+03  0.7818608E-02  0.1146049E+00
          2   -1    0    0  502    0  0.00000000000E+00  0.00000000000E+00  0.60828485805E+02  0.60828485805E+02  0.00000000000E+00 0. -1.
         -2   -1    0    0    0  501 -0.00000000000E+00 -0.00000000000E+00 -0.76565809388E+03  0.76565809388E+03  0.00000000000E+00 0.  1.
          6    1    1    2  502    0  0.70168230064E+02  0.85361861628E+02 -0.22003235908E+03  0.30034724399E+03  0.17200000000E+03 0. -1.
         -6    1    1    2    0  501 -0.70168230064E+02 -0.85361861628E+02 -0.48479724899E+03  0.52613933569E+03  0.17200000000E+03 0.  1.
</event>
<event>
 4    1  0.3191769E-002  0.2662028E+03  0.7818608E-02  0.1103473E+00
         -2   -1    0    0    0  501 -0.00000000000E+00  0.00000000000E+00  0.10379524791E+04  0.10379524791E+04  0.00000000000E+00 0.  1.
          2   -1    0    0  502    0  0.00000000000E+00 -0.00000000000E+00 -0.15004967333E+03  0.15004967333E+03  0.00000000000E+00 0. -1.
          6    1    1    2  502    0 -0.43790935803E+02  0.19839937318E+03  0.54359873113E+01  0.26625834690E+03  0.17200000000E+03 0. -1.
         -6    1    1    2    0  501  0.43790935803E+02 -0.19839937318E+03  0.88246681842E+03  0.92174380548E+03  0.17200000000E+03 0.  1.
</event>
<event>
 4    1  0.3191769E-002  0.2697161E+03  0.7818608E-02  0.1101442E+00
         -1   -1    0    0    0  501 -0.00000000000E+00  0.00000000000E+00  0.87090877210E+03  0.87090877210E+03  0.00000000000E+00 0.  1.
          1   -1    0    0  502    0  0.00000000000E+00 -0.00000000000E+00 -0.87287333259E+02  0.87287333259E+02  0.00000000000E+00 0. -1.
          6    1    1    2  502    0 -0.11249386582E+03 -0.17466510299E+03  0.49121490895E+03  0.56039169768E+03  0.17200000000E+03 0.  1.
         -6    1    1    2    0  501  0.11249386582E+03  0.17466510299E+03  0.29240652989E+03  0.39780440768E+03  0.17200000000E+03 0.  1.
</event>
<event>
 4    1  0.3191769E-002  0.4041741E+03  0.7818608E-02  0.1042344E+00
         -2   -1    0    0    0  501 -0.00000000000E+00  0.00000000000E+00  0.18801086980E+03  0.18801086980E+03  0.00000000000E+00 0.  1.
          2   -1    0    0  502    0  0.00000000000E+00 -0.00000000000E+00 -0.14376246603E+04  0.14376246603E+04  0.00000000000E+00 0. -1.
          6    1    1    2  502    0  0.33672485500E+03 -0.14279018846E+03 -0.11360572257E+04  0.12058120442E+04  0.17200000000E+03 0. -1.
         -6    1    1    2    0  501 -0.33672485500E+03  0.14279018846E+03 -0.11355656480E+03  0.41982348589E+03  0.17200000000E+03 0.  1.
</event>
<event>
 4    1  0.3191769E-002  0.1757953E+03  0.7818608E-02  0.1171936E+00
          2   -1    0    0  502    0  0.00000000000E+00  0.00000000000E+00  0.24332164014E+04  0.24332164014E+04  0.00000000000E+00 0. -1.
         -2   -1    0    0    0  501 -0.00000000000E+00 -0.00000000000E+00 -0.17899670556E+02  0.17899670556E+02  0.00000000000E+00 0.  1.
          6    1    1    2  502    0 -0.31345914897E+02 -0.18368582612E+02  0.54717354911E+03  0.57471981352E+03  0.17200000000E+03 0.  1.
         -6    1    1    2    0  501  0.31345914897E+02  0.18368582612E+02  0.18681431817E+04  0.18763962584E+04  0.17200000000E+03 0. -1.
</event>
<event>
 4    1  0.3191769E-002  0.2044835E+03  0.7818608E-02  0.1146010E+00
         -2   -1    0    0    0  501 -0.00000000000E+00  0.00000000000E+00  0.28087717638E+02  0.28087717638E+02  0.00000000000E+00 0.  1.
          2   -1    0    0  502    0  0.00000000000E+00 -0.00000000000E+00 -0.16773856268E+04  0.16773856268E+04  0.00000000000E+00 0. -1.
          6    1    1    2  502    0  0.12844387489E+02 -0.10983863965E+03 -0.53862937812E+03  0.57613810152E+03  0.17200000000E+03 0.  1.
         -6    1    1    2    0  501 -0.12844387489E+02  0.10983863965E+03 -0.11106685311E+04  0.11293352430E+04  0.17200000000E+03 0.  1.
</event>
<event>
 4    1  0.3191769E-002  0.2510703E+03  0.7818608E-02  0.1112630E+00
          1   -1    0    0  502    0  0.00000000000E+00  0.00000000000E+00  0.46807489821E+03  0.46807489821E+03  0.00000000000E+00 0. -1.
         -1   -1    0    0    0  501 -0.00000000000E+00 -0.00000000000E+00 -0.13685138518E+03  0.13685138518E+03  0.00000000000E+00 0.  1.
          6    1    1    2  502    0 -0.18263439648E+03 -0.98467660781E+01  0.20378674760E+03  0.32336561363E+03  0.17200000000E+03 0. -1.
         -6    1    1    2    0  501  0.18263439648E+03  0.98467660781E+01  0.12743676543E+03  0.28156066977E+03  0.17200000000E+03 0. -1.
</event>
<event>
 4    1  0.3191769E-002  0.1720703E+03  0.7818608E-02  0.1175706E+00
         -3   -1    0    0    0  501 -0.00000000000E+00  0.00000000000E+00  0.14284927108E+04  0.14284927108E+04  0.00000000000E+00 0.  1.
          3   -1    0    0  502    0  0.00000000000E+00 -0.00000000000E+00 -0.24250150505E+02  0.24250150505E+02  0.00000000000E+00 0. -1.
          6    1    1    2  502    0  0.43280092002E+01  0.23327532674E+01  0.42525150544E+03  0.45874504497E+03  0.17200000000E+03 0. -1.
         -6    1    1    2    0  501 -0.43280092002E+01 -0.23327532674E+01  0.97899105486E+03  0.99399781635E+03  0.17200000000E+03 0.  1.
</event>
<event>
 4    1  0.3191769E-002  0.1754095E+03  0.7818608E-02  0.1172321E+00
          1   -1    0    0  502    0  0.00000000000E+00  0.00000000000E+00  0.78621094934E+02  0.78621094934E+02  0.00000000000E+00 0. -1.
         -1   -1    0    0    0  501 -0.00000000000E+00 -0.00000000000E+00 -0.56354962688E+03  0.56354962688E+03  0.00000000000E+00 0.  1.
          6    1    1    2  502    0  0.17833315966E+02  0.29435625001E+02 -0.64976412228E+02  0.18705725681E+03  0.17200000000E+03 0. -1.
         -6    1    1    2    0  501 -0.17833315966E+02 -0.29435625001E+02 -0.41995211972E+03  0.45511346501E+03  0.17200000000E+03 0.  1.
</event>
<event>
 4    1  0.3191769E-002  0.2535745E+03  0.7818608E-02  0.1111066E+00
          2   -1    0    0  502    0  0.00000000000E+00  0.00000000000E+00  0.24291510461E+03  0.24291510461E+03  0.00000000000E+00 0. -1.
         -2   -1    0    0    0  501 -0.00000000000E+00 -0.00000000000E+00 -0.26799906124E+03  0.26799906124E+03  0.00000000000E+00 0.  1.
          6    1    1    2  502    0  0.27325644231E+02  0.18430766930E+03 -0.40878309338E+02  0.25684828979E+03  0.17200000000E+03 0.  1.
         -6    1    1    2    0  501 -0.27325644231E+02 -0.18430766930E+03  0.15794352704E+02  0.25406587605E+03  0.17200000000E+03 0. -1.
</event>
<event>
 4    1  0.3191769E-002  0.4010139E+03  0.7818608E-02  0.1043429E+00
         -1   -1    0    0    0  501 -0.00000000000E+00  0.00000000000E+00  0.15405150841E+03  0.15405150841E+03  0.00000000000E+00 0.  1.
          1   -1    0    0  502    0  0.00000000000E+00 -0.00000000000E+00 -0.14967657357E+04  0.14967657357E+04  0.00000000000E+00 0. -1.
          6    1    1    2  502    0 -0.20728906419E+03  0.29708485592E+03 -0.21732803384E+03  0.45611801329E+03  0.17200000000E+03 0. -1.
         -6    1    1    2    0  501  0.20728906419E+03 -0.29708485592E+03 -0.11253861935E+04  0.11946992309E+04  0.17200000000E+03 0.  1.
</event>
<event>
 4    1  0.3191769E-002  0.5041220E+03  0.7818608E-02  0.1012709E+00
          1   -1    0    0  502    0  0.00000000000E+00  0.00000000000E+00  0.90491608763E+03  0.90491608763E+03  0.00000000000E+00 0. -1.
         -1   -1    0    0    0  501 -0.00000000000E+00 -0.00000000000E+00 -0.35671423351E+03  0.35671423351E+03  0.00000000000E+00 0.  1.
          6    1    1    2  502    0  0.47199251769E+03 -0.42166547426E+02  0.56502638224E+03  0.75722768512E+03  0.17200000000E+03 0. -1.
         -6    1    1    2    0  501 -0.47199251769E+03  0.42166547426E+02 -0.16824528118E+02  0.50440263602E+03  0.17200000000E+03 0.  1.
</event>
<event>
 4    1  0.3191769E-002  0.3076354E+03  0.7818608E-02  0.1081485E+00
         -2   -1    0    0    0  501 -0.00000000000E+00  0.00000000000E+00  0.13557005319E+03  0.13557005319E+03  0.00000000000E+00 0.  1.
          2   -1    0    0  502    0  0.00000000000E+00 -0.00000000000E+00 -0.76366586568E+03  0.76366586568E+03  0.00000000000E+00 0. -1.
          6    1    1    2  502    0 -0.15053395006E+03 -0.20590060966E+03 -0.44580616051E+03  0.54164809972E+03  0.17200000000E+03 0. -1.
         -6    1    1    2    0  501  0.15053395006E+03  0.20590060966E+03 -0.18228965198E+03  0.35758781914E+03  0.17200000000E+03 0.  1.
</event>
<event>
 4    1  0.3191769E-002  0.1892932E+03  0.7818608E-02  0.1159100E+00
         -2   -1    0    0    0  501 -0.00000000000E+00  0.00000000000E+00  0.20537197201E+02  0.20537197201E+02  0.00000000000E+00 0.  1.
          2   -1    0    0  502    0  0.00000000000E+00 -0.00000000000E+00 -0.19534789845E+04  0.19534789845E+04  0.00000000000E+00 0. -1.
          6    1    1    2  502    0  0.77769468385E+02  0.14135889480E+02 -0.12891166958E+04  0.13029404318E+04  0.17200000000E+03 0. -1.
         -6    1    1    2    0  501 -0.77769468385E+02 -0.14135889480E+02 -0.64382509155E+03  0.67107574990E+03  0.17200000000E+03 0.  1.
</event>
<event>
 4    1  0.3191769E-002  0.2581547E+03  0.7818608E-02  0.1108257E+00
         -1   -1    0    0    0  501 -0.00000000000E+00  0.00000000000E+00  0.11288212840E+03  0.11288212840E+03  0.00000000000E+00 0.  1.
          1   -1    0    0  502    0  0.00000000000E+00 -0.00000000000E+00 -0.85214679054E+03  0.85214679054E+03  0.00000000000E+00 0. -1.
          6    1    1    2  502    0 -0.19018979601E+03 -0.29794109339E+02 -0.63706025415E+03  0.68737880014E+03  0.17200000000E+03 0. -1.
         -6    1    1    2    0  501  0.19018979601E+03  0.29794109339E+02 -0.10220440800E+03  0.27765011880E+03  0.17200000000E+03 0.  1.
</event>
<event>
 4    1  0.3191769E-002  0.1874950E+03  0.7818608E-02  0.1160740E+00
         -1   -1    0    0    0  501 -0.00000000000E+00  0.00000000000E+00  0.21057390437E+02  0.21057390437E+02  0.00000000000E+00 0.  1.
          1   -1    0    0  502    0  0.00000000000E+00 -0.00000000000E+00 -0.18654392465E+04  0.18654392465E+04  0.00000000000E+00 0. -1.
          6    1    1    2  502    0 -0.67751920883E+02 -0.31305864601E+02 -0.12279260415E+04  0.12421580992E+04  0.17200000000E+03 0. -1.
         -6    1    1    2    0  501  0.67751920883E+02  0.31305864601E+02 -0.61645581453E+03  0.64433853774E+03  0.17200000000E+03 0.  1.
</event>
<event>
 4    1  0.3191769E-002  0.2102134E+03  0.7818608E-02  0.1141397E+00
         -1   -1    0    0    0  501 -0.00000000000E+00  0.00000000000E+00  0.16480589390E+03  0.16480589390E+03  0.00000000000E+00 0.  1.
          1   -1    0    0  502    0  0.00000000000E+00 -0.00000000000E+00 -0.32797389851E+03  0.32797389851E+03  0.00000000000E+00 0. -1.
          6    1    1    2  502    0  0.43455688456E+02  0.11277099561E+03  0.23662290642E+02  0.21154100857E+03  0.17200000000E+03 0. -1.
         -6    1    1    2    0  501 -0.43455688456E+02 -0.11277099561E+03 -0.18683029526E+03  0.28123878384E+03  0.17200000000E+03 0.  1.
</event>
<event>
 4    1  0.3191769E-002  0.2579154E+03  0.7818608E-02  0.1108402E+00
          2   -1    0    0  502    0  0.00000000000E+00  0.00000000000E+00  0.25175257050E+03  0.25175257050E+03  0.00000000000E+00 0. -1.
         -2   -1    0    0    0  501 -0.00000000000E+00 -0.00000000000E+00 -0.28868972454E+03  0.28868972454E+03  0.00000000000E+00 0.  1.
          6    1    1    2  502    0 -0.57084671575E+02  0.18351481398E+03  0.60188488390E+02  0.26484523937E+03  0.17200000000E+03 0. -1.
         -6    1    1    2    0  501  0.57084671575E+02 -0.18351481398E+03 -0.97125642429E+02  0.27559705568E+03  0.17200000000E+03 0.  1.
</event>
<event>
 4    1  0.3191769E-002  0.1906099E+03  0.7818608E-02  0.1157912E+00
         -2   -1    0    0    0  501 -0.00000000000E+00  0.00000000000E+00  0.19018958785E+03  0.19018958785E+03  0.00000000000E+00 0.  1.
          2   -1    0    0  502    0  0.00000000000E+00 -0.00000000000E+00 -0.25680579570E+03  0.25680579570E+03  0.00000000000E+00 0. -1.
          6    1    1    2  502    0 -0.98175177625E+01  0.81558311246E+02 -0.14641778674E+03  0.24035455074E+03  0.17200000000E+03 0. -1.
         -6    1    1    2    0  501  0.98175177625E+01 -0.81558311246E+02  0.79801578896E+02  0.20664083281E+03  0.17200000000E+03 0.  1.
</event>
<event>
 4    1  0.3191769E-002  0.2036091E+03  0.7818608E-02  0.1146729E+00
          2   -1    0    0  502    0  0.00000000000E+00  0.00000000000E+00  0.13317127030E+04  0.13317127030E+04  0.00000000000E+00 0. -1.
         -2   -1    0    0    0  501 -0.00000000000E+00 -0.00000000000E+00 -0.34258153864E+02  0.34258153864E+02  0.00000000000E+00 0.  1.
          6    1    1    2  502    0  0.10140058793E+03 -0.39882177853E+02  0.85509891138E+03  0.87900558336E+03  0.17200000000E+03 0. -1.
         -6    1    1    2    0  501 -0.10140058793E+03  0.39882177853E+02  0.44235563778E+03  0.48696527352E+03  0.17200000000E+03 0. -1.
</event>
<event>
 4    1  0.3191769E-002  0.1725558E+03  0.7818608E-02  0.1175208E+00
         -2   -1    0    0    0  501 -0.00000000000E+00  0.00000000000E+00  0.10611424785E+02  0.10611424785E+02  0.00000000000E+00 0.  1.
          2   -1    0    0  502    0  0.00000000000E+00 -0.00000000000E+00 -0.35241974444E+04  0.35241974444E+04  0.00000000000E+00 0. -1.
          6    1    1    2  502    0  0.12857046379E+01  0.13778920527E+02 -0.25546626121E+04  0.25604836601E+04  0.17200000000E+03 0. -1.
         -6    1    1    2    0  501 -0.12857046379E+01 -0.13778920527E+02 -0.95892340746E+03  0.97432520909E+03  0.17200000000E+03 0.  1.
</event>
<event>
 4    1  0.3191769E-002  0.2401674E+03  0.7818608E-02  0.1119681E+00
         -1   -1    0    0    0  501 -0.00000000000E+00  0.00000000000E+00  0.60283433102E+02  0.60283433102E+02  0.00000000000E+00 0.  1.
          1   -1    0    0  502    0  0.00000000000E+00 -0.00000000000E+00 -0.10216112277E+04  0.10216112277E+04  0.00000000000E+00 0. -1.
          6    1    1    2  502    0  0.14746331103E+03  0.79692716741E+02 -0.61689376328E+03  0.66199567398E+03  0.17200000000E+03 0. -1.
         -6    1    1    2    0  501 -0.14746331103E+03 -0.79692716741E+02 -0.34443403131E+03  0.41989898681E+03  0.17200000000E+03 0.  1.
</event>
<event>
 4    1  0.3191769E-002  0.1895044E+03  0.7818608E-02  0.1158909E+00
         -1   -1    0    0    0  501 -0.00000000000E+00  0.00000000000E+00  0.11440182975E+03  0.11440182975E+03  0.00000000000E+00 0.  1.
          1   -1    0    0  502    0  0.00000000000E+00 -0.00000000000E+00 -0.37586255224E+03  0.37586255224E+03  0.00000000000E+00 0. -1.
          6    1    1    2  502    0 -0.89721950896E+01 -0.79040677850E+02 -0.23025116315E+03  0.29820718833E+03  0.17200000000E+03 0.  1.
         -6    1    1    2    0  501  0.89721950896E+01  0.79040677850E+02 -0.31209559335E+02  0.19205719365E+03  0.17200000000E+03 0.  1.
</event>
<event>
 4    1  0.3191769E-002  0.1763019E+03  0.7818608E-02  0.1171431E+00
          1   -1    0    0  502    0  0.00000000000E+00  0.00000000000E+00  0.29509772696E+03  0.29509772696E+03  0.00000000000E+00 0. -1.
         -1   -1    0    0    0  501 -0.00000000000E+00 -0.00000000000E+00 -0.17214985658E+03  0.17214985658E+03  0.00000000000E+00 0.  1.
          6    1    1    2  502    0 -0.31959678426E+02  0.21838677776E+02  0.20702646243E+03  0.27192334405E+03  0.17200000000E+03 0. -1.
         -6    1    1    2    0  501  0.31959678426E+02 -0.21838677776E+02 -0.84078592047E+02  0.19532423949E+03  0.17200000000E+03 0.  1.
</event>
<event>
 4    1  0.3191769E-002  0.4293442E+03  0.7818608E-02  0.1034067E+00
         -2   -1    0    0    0  501 -0.00000000000E+00  0.00000000000E+00  0.24929547067E+03  0.24929547067E+03  0.00000000000E+00 0.  1.
          2   -1    0    0  502    0  0.00000000000E+00 -0.00000000000E+00 -0.86514471349E+03  0.86514471349E+03  0.00000000000E+00 0. -1.
          6    1    1    2  502    0 -0.23913148415E+03  0.31235967778E+03 -0.52033524765E+03  0.67460003333E+03  0.17200000000E+03 0. -1.
         -6    1    1    2    0  501  0.23913148415E+03 -0.31235967778E+03 -0.95513995170E+02  0.43984015084E+03  0.17200000000E+03 0.  1.
</event>
<event>
 4    1  0.3191769E-002  0.2061170E+03  0.7818608E-02  0.1144678E+00
          2   -1    0    0  502    0  0.00000000000E+00  0.00000000000E+00  0.26265527651E+03  0.26265527651E+03  0.00000000000E+00 0. -1.
         -2   -1    0    0    0  501 -0.00000000000E+00 -0.00000000000E+00 -0.17932102585E+03  0.17932102585E+03  0.00000000000E+00 0.  1.
          6    1    1    2  502    0 -0.90271062738E+02  0.68929962815E+02  0.11084471353E+03  0.23403152578E+03  0.17200000000E+03 0.  1.
         -6    1    1    2    0  501  0.90271062738E+02 -0.68929962815E+02 -0.27510462865E+02  0.20794477658E+03  0.17200000000E+03 0.  1.
</event>
<event>
 4    1  0.3191769E-002  0.2785358E+03  0.7818608E-02  0.1096491E+00
         -2   -1    0    0    0  501 -0.00000000000E+00  0.00000000000E+00  0.10766842985E+03  0.10766842985E+03  0.00000000000E+00 0.  1.
          2   -1    0    0  502    0  0.00000000000E+00 -0.00000000000E+00 -0.72138136439E+03  0.72138136439E+03  0.00000000000E+00 0. -1.
          6    1    1    2  502    0 -0.19483837871E+03  0.10018083471E+03 -0.29291897939E+03  0.40420752337E+03  0.17200000000E+03 0. -1.
         -6    1    1    2    0  501  0.19483837871E+03 -0.10018083471E+03 -0.32079395515E+03  0.42484227087E+03  0.17200000000E+03 0.  1.
</event>
<event>
 4    1  0.3191769E-002  0.6936502E+03  0.7818608E-02  0.9728153E-01
          1   -1    0    0  502    0  0.00000000000E+00  0.00000000000E+00  0.14006800723E+04  0.14006800723E+04  0.00000000000E+00 0. -1.
         -1   -1    0    0    0  501 -0.00000000000E+00 -0.00000000000E+00 -0.35202316479E+03  0.35202316479E+03  0.00000000000E+00 0.  1.
          6    1    1    2  502    0  0.50330197747E+03  0.44525685338E+03  0.66059361937E+03  0.95788019917E+03  0.17200000000E+03 0. -1.
         -6    1    1    2    0  501 -0.50330197747E+03 -0.44525685338E+03  0.38806328814E+03  0.79482303792E+03  0.17200000000E+03 0.  1.
</event>
<event>
 4    1  0.3191769E-002  0.1737039E+03  0.7818608E-02  0.1174039E+00
         -2   -1    0    0    0  501 -0.00000000000E+00  0.00000000000E+00  0.12319595196E+02  0.12319595196E+02  0.00000000000E+00 0.  1.
          2   -1    0    0  502    0  0.00000000000E+00 -0.00000000000E+00 -0.39308122996E+04  0.39308122996E+04  0.00000000000E+00 0. -1.
          6    1    1    2  502    0 -0.23400463160E+02  0.64395774660E+01 -0.74881917915E+03  0.76870229146E+03  0.17200000000E+03 0.  1.
         -6    1    1    2    0  501  0.23400463160E+02 -0.64395774660E+01 -0.31696735253E+04  0.31744296034E+04  0.17200000000E+03 0. -1.
</event>
<event>
 4    1  0.3191769E-002  0.1943155E+03  0.7818608E-02  0.1154626E+00
          2   -1    0    0  502    0  0.00000000000E+00  0.00000000000E+00  0.40321568235E+04  0.40321568235E+04  0.00000000000E+00 0. -1.
         -2   -1    0    0    0  501 -0.00000000000E+00 -0.00000000000E+00 -0.10349760123E+02  0.10349760123E+02  0.00000000000E+00 0.  1.
          6    1    1    2  502    0 -0.57055976092E+02 -0.70136436746E+02  0.26345886716E+04  0.26417448727E+04  0.17200000000E+03 0. -1.
         -6    1    1    2    0  501  0.57055976092E+02  0.70136436746E+02  0.13872183918E+04  0.14007617109E+04  0.17200000000E+03 0.  1.
</event>
<event>
 4    1  0.3191769E-002  0.2328264E+03  0.7818608E-02  0.1124666E+00
          2   -1    0    0  502    0  0.00000000000E+00  0.00000000000E+00  0.18862898431E+04  0.18862898431E+04  0.00000000000E+00 0. -1.
         -2   -1    0    0    0  501 -0.00000000000E+00 -0.00000000000E+00 -0.30832923237E+02  0.30832923237E+02  0.00000000000E+00 0.  1.
          6    1    1    2  502    0 -0.15238386648E+03  0.37460636647E+02  0.11775901551E+04  0.12003860694E+04  0.17200000000E+03 0. -1.
         -6    1    1    2    0  501  0.15238386648E+03 -0.37460636647E+02  0.67786676474E+03  0.71673669698E+03  0.17200000000E+03 0. -1.
</event>
<event>
 4    1  0.3191769E-002  0.2678226E+03  0.7818608E-02  0.1102532E+00
          2   -1    0    0  502    0  0.00000000000E+00  0.00000000000E+00  0.20784168873E+03  0.20784168873E+03  0.00000000000E+00 0. -1.
         -2   -1    0    0    0  501 -0.00000000000E+00 -0.00000000000E+00 -0.34816888365E+03  0.34816888365E+03  0.00000000000E+00 0.  1.
          6    1    1    2  502    0 -0.19681641806E+03 -0.58380003901E+02 -0.44119670695E+02  0.27143226156E+03  0.17200000000E+03 0. -1.
         -6    1    1    2    0  501  0.19681641806E+03  0.58380003901E+02 -0.96207524219E+02  0.28457831082E+03  0.17200000000E+03 0. -1.
</event>
<event>
 4    1  0.3191769E-002  0.3102158E+03  0.7818608E-02  0.1080242E+00
         -1   -1    0    0    0  501 -0.00000000000E+00  0.00000000000E+00  0.54684867836E+02  0.54684867836E+02  0.00000000000E+00 0.  1.
          1   -1    0    0  502    0  0.00000000000E+00 -0.00000000000E+00 -0.25548956844E+04  0.25548956844E+04  0.00000000000E+00 0. -1.
          6    1    1    2  502    0  0.17638838433E+03 -0.18851255699E+03 -0.19779970636E+04  0.20021753744E+04  0.17200000000E+03 0. -1.
         -6    1    1    2    0  501 -0.17638838433E+03  0.18851255699E+03 -0.52221375297E+03  0.60740517783E+03  0.17200000000E+03 0.  1.
</event>
<event>
 4    1  0.3191769E-002  0.2629034E+03  0.7818608E-02  0.1105411E+00
         -4   -1    0    0    0  501 -0.00000000000E+00  0.00000000000E+00  0.64293789325E+02  0.64293789325E+02  0.00000000000E+00 0.  1.
          4   -1    0    0  502    0  0.00000000000E+00 -0.00000000000E+00 -0.11792657257E+04  0.11792657257E+04  0.00000000000E+00 0. -1.
          6    1    1    2  502    0 -0.19867139894E+03 -0.79923759087E+01 -0.74233809037E+03  0.78751764630E+03  0.17200000000E+03 0. -1.
         -6    1    1    2    0  501  0.19867139894E+03  0.79923759087E+01 -0.37263384596E+03  0.45604186867E+03  0.17200000000E+03 0.  1.
</event>
<event>
 4    1  0.3191769E-002  0.2054593E+03  0.7818608E-02  0.1145213E+00
          2   -1    0    0  502    0  0.00000000000E+00  0.00000000000E+00  0.16119943671E+04  0.16119943671E+04  0.00000000000E+00 0. -1.
         -2   -1    0    0    0  501 -0.00000000000E+00 -0.00000000000E+00 -0.39669849992E+02  0.39669849992E+02  0.00000000000E+00 0.  1.
          6    1    1    2  502    0 -0.57085215176E+02 -0.96802817148E+02  0.12676111947E+04  0.12841540594E+04  0.17200000000E+03 0. -1.
         -6    1    1    2    0  501  0.57085215176E+02  0.96802817148E+02  0.30471332244E+03  0.36751015778E+03  0.17200000000E+03 0.  1.
</event>
<event>
 4    1  0.3191769E-002  0.2512857E+03  0.7818608E-02  0.1112495E+00
         -2   -1    0    0    0  501 -0.00000000000E+00  0.00000000000E+00  0.39892918286E+02  0.39892918286E+02  0.00000000000E+00 0.  1.
          2   -1    0    0  502    0  0.00000000000E+00 -0.00000000000E+00 -0.21302067292E+04  0.21302067292E+04  0.00000000000E+00 0. -1.
          6    1    1    2  502    0 -0.15098663266E+03  0.10374743804E+03 -0.49514239081E+03  0.55525713081E+03  0.17200000000E+03 0.  1.
         -6    1    1    2    0  501  0.15098663266E+03 -0.10374743804E+03 -0.15951714201E+04  0.16148425167E+04  0.17200000000E+03 0. -1.
</event>
<event>
 4    1  0.3191769E-002  0.7288892E+03  0.7818608E-02  0.9669065E-01
         -1   -1    0    0    0  501 -0.00000000000E+00  0.00000000000E+00  0.12743264819E+04  0.12743264819E+04  0.00000000000E+00 0.  1.
          1   -1    0    0  502    0  0.00000000000E+00 -0.00000000000E+00 -0.60412058810E+03  0.60412058810E+03  0.00000000000E+00 0. -1.
          6    1    1    2  502    0  0.70560667307E+03 -0.61763175909E+02 -0.18774130753E+03  0.75267939093E+03  0.17200000000E+03 0. -1.
         -6    1    1    2    0  501 -0.70560667307E+03  0.61763175909E+02  0.85794720136E+03  0.11257676791E+04  0.17200000000E+03 0.  1.
</event>
<event>
 4    1  0.3191769E-002  0.2662212E+03  0.7818608E-02  0.1103462E+00
          2   -1    0    0  502    0  0.00000000000E+00  0.00000000000E+00  0.62100118316E+03  0.62100118316E+03  0.00000000000E+00 0. -1.
         -2   -1    0    0    0  501 -0.00000000000E+00 -0.00000000000E+00 -0.12088532248E+03  0.12088532248E+03  0.00000000000E+00 0.  1.
          6    1    1    2  502    0  0.14461273824E+03 -0.14274762656E+03  0.33775852354E+03  0.43006342459E+03  0.17200000000E+03 0. -1.
         -6    1    1    2    0  501 -0.14461273824E+03  0.14274762656E+03  0.16235733714E+03  0.31182308104E+03  0.17200000000E+03 0.  1.
</event>
<event>
 4    1  0.3191769E-002  0.1924221E+03  0.7818608E-02  0.1156295E+00
         -2   -1    0    0    0  501 -0.00000000000E+00  0.00000000000E+00  0.15592190409E+02  0.15592190409E+02  0.00000000000E+00 0.  1.
          2   -1    0    0  502    0  0.00000000000E+00 -0.00000000000E+00 -0.24155167588E+04  0.24155167588E+04  0.00000000000E+00 0. -1.
          6    1    1    2  502    0 -0.86268514965E+02  0.12618571018E+00 -0.10418884964E+04  0.10595083348E+04  0.17200000000E+03 0. -1.
         -6    1    1    2    0  501  0.86268514965E+02 -0.12618571018E+00 -0.13580360720E+04  0.13716006144E+04  0.17200000000E+03 0. -1.
</event>
<event>
 4    1  0.3191769E-002  0.2011150E+03  0.7818608E-02  0.1148802E+00
          1   -1    0    0  502    0  0.00000000000E+00  0.00000000000E+00  0.35836075173E+03  0.35836075173E+03  0.00000000000E+00 0. -1.
         -1   -1    0    0    0  501 -0.00000000000E+00 -0.00000000000E+00 -0.12334218757E+03  0.12334218757E+03  0.00000000000E+00 0.  1.
          6    1    1    2  502    0  0.99277102031E+02 -0.31737943325E+02  0.18769786148E+03  0.27509585100E+03  0.17200000000E+03 0. -1.
         -6    1    1    2    0  501 -0.99277102031E+02  0.31737943325E+02  0.47320702672E+02  0.20660708830E+03  0.17200000000E+03 0.  1.
</event>
<event>
 4    1  0.3191769E-002  0.3054851E+03  0.7818608E-02  0.1082530E+00
         -1   -1    0    0    0  501 -0.00000000000E+00  0.00000000000E+00  0.11872516379E+04  0.11872516379E+04  0.00000000000E+00 0.  1.
          1   -1    0    0  502    0  0.00000000000E+00 -0.00000000000E+00 -0.19971960291E+03  0.19971960291E+03  0.00000000000E+00 0. -1.
          6    1    1    2  502    0 -0.85893365710E+02  0.23740151050E+03 -0.46278482561E+02  0.30897062224E+03  0.17200000000E+03 0. -1.
         -6    1    1    2    0  501  0.85893365710E+02 -0.23740151050E+03  0.10338105176E+04  0.10780006186E+04  0.17200000000E+03 0.  1.
</event>
<event>
 4    1  0.3191769E-002  0.3182324E+03  0.7818608E-02  0.1076466E+00
          2   -1    0    0  502    0  0.00000000000E+00  0.00000000000E+00  0.61603385728E+03  0.61603385728E+03  0.00000000000E+00 0. -1.
         -2   -1    0    0    0  501 -0.00000000000E+00 -0.00000000000E+00 -0.16513078676E+03  0.16513078676E+03  0.00000000000E+00 0.  1.
          6    1    1    2  502    0  0.11674357519E+03  0.24095394714E+03  0.25155283610E+03  0.40564848865E+03  0.17200000000E+03 0. -1.
         -6    1    1    2    0  501 -0.11674357519E+03 -0.24095394714E+03  0.19935023443E+03  0.37551615539E+03  0.17200000000E+03 0.  1.
</event>
<event>
 4    1  0.3191769E-002  0.3178941E+03  0.7818608E-02  0.1076623E+00
         -1   -1    0    0    0  501 -0.00000000000E+00  0.00000000000E+00  0.11542967320E+03  0.11542967320E+03  0.00000000000E+00 0.  1.
          1   -1    0    0  502    0  0.00000000000E+00 -0.00000000000E+00 -0.11968235571E+04  0.11968235571E+04  0.00000000000E+00 0. -1.
          6    1    1    2  502    0  0.26016153526E+03  0.61552001205E+02 -0.88067869976E+03  0.93629677213E+03  0.17200000000E+03 0. -1.
         -6    1    1    2    0  501 -0.26016153526E+03 -0.61552001205E+02 -0.20071518409E+03  0.37595645812E+03  0.17200000000E+03 0.  1.
</event>
<event>
 4    1  0.3191769E-002  0.1794492E+03  0.7818608E-02  0.1168337E+00
          2   -1    0    0  502    0  0.00000000000E+00  0.00000000000E+00  0.68348118823E+03  0.68348118823E+03  0.00000000000E+00 0. -1.
         -2   -1    0    0    0  501 -0.00000000000E+00 -0.00000000000E+00 -0.50913886333E+02  0.50913886333E+02  0.00000000000E+00 0.  1.
          6    1    1    2  502    0  0.50271757455E+02 -0.95267543279E+01  0.41658970388E+03  0.45359562391E+03  0.17200000000E+03 0. -1.
         -6    1    1    2    0  501 -0.50271757455E+02  0.95267543279E+01  0.21597759802E+03  0.28079945066E+03  0.17200000000E+03 0.  1.
</event>
<event>
 4    1  0.3191769E-002  0.1724064E+03  0.7818608E-02  0.1175361E+00
          2   -1    0    0  502    0  0.00000000000E+00  0.00000000000E+00  0.84582768420E+03  0.84582768420E+03  0.00000000000E+00 0. -1.
         -2   -1    0    0    0  501 -0.00000000000E+00 -0.00000000000E+00 -0.41070710161E+02  0.41070710161E+02  0.00000000000E+00 0.  1.
          6    1    1    2  502    0  0.48445131980E+01 -0.10793192372E+02  0.57086409919E+03  0.59633026256E+03  0.17200000000E+03 0. -1.
         -6    1    1    2    0  501 -0.48445131980E+01  0.10793192372E+02  0.23389287486E+03  0.29056813180E+03  0.17200000000E+03 0.  1.
</event>
<event>
 4    1  0.3191769E-002  0.1772149E+03  0.7818608E-02  0.1170526E+00
          2   -1    0    0  502    0  0.00000000000E+00  0.00000000000E+00  0.67347567325E+03  0.67347567325E+03  0.00000000000E+00 0. -1.
         -2   -1    0    0    0  501 -0.00000000000E+00 -0.00000000000E+00 -0.48950057378E+02  0.48950057378E+02  0.00000000000E+00 0.  1.
          6    1    1    2  502    0  0.76749596361E+01 -0.41978702476E+02  0.39087763904E+03  0.42917414317E+03  0.17200000000E+03 0. -1.
         -6    1    1    2    0  501 -0.76749596361E+01  0.41978702476E+02  0.23364797683E+03  0.29325158745E+03  0.17200000000E+03 0.  1.
</event>
<event>
 4    1  0.3191769E-002  0.1848130E+03  0.7818608E-02  0.1163225E+00
          2   -1    0    0  502    0  0.00000000000E+00  0.00000000000E+00  0.29964825787E+04  0.29964825787E+04  0.00000000000E+00 0. -1.
         -2   -1    0    0    0  501 -0.00000000000E+00 -0.00000000000E+00 -0.13455918271E+02  0.13455918271E+02  0.00000000000E+00 0.  1.
          6    1    1    2  502    0 -0.63690273828E+02 -0.22701954026E+02  0.20799738775E+04  0.20881683746E+04  0.17200000000E+03 0. -1.
         -6    1    1    2    0  501  0.63690273828E+02  0.22701954026E+02  0.90305278293E+03  0.92177012235E+03  0.17200000000E+03 0.  1.
</event>
<event>
 4    1  0.3191769E-002  0.2354561E+03  0.7818608E-02  0.1122857E+00
          1   -1    0    0  502    0  0.00000000000E+00  0.00000000000E+00  0.12869347375E+03  0.12869347375E+03  0.00000000000E+00 0. -1.
         -1   -1    0    0    0  501 -0.00000000000E+00 -0.00000000000E+00 -0.43165343274E+03  0.43165343274E+03  0.00000000000E+00 0.  1.
          6    1    1    2  502    0  0.36166125578E+02  0.15667673453E+03 -0.13893390126E+03  0.27339022788E+03  0.17200000000E+03 0. -1.
         -6    1    1    2    0  501 -0.36166125578E+02 -0.15667673453E+03 -0.16402605773E+03  0.28695667861E+03  0.17200000000E+03 0.  1.
</event>
<event>
 4    1  0.3191769E-002  0.2009389E+03  0.7818608E-02  0.1148949E+00
         -2   -1    0    0    0  501 -0.00000000000E+00  0.00000000000E+00  0.43928589018E+02  0.43928589018E+02  0.00000000000E+00 0.  1.
          2   -1    0    0  502    0  0.00000000000E+00 -0.00000000000E+00 -0.17675768113E+04  0.17675768113E+04  0.00000000000E+00 0. -1.
          6    1    1    2  502    0  0.93294075157E+02 -0.45701669357E+02 -0.14893487784E+04  0.15028427099E+04  0.17200000000E+03 0. -1.
         -6    1    1    2    0  501 -0.93294075157E+02  0.45701669357E+02 -0.23429944389E+03  0.30866269041E+03  0.17200000000E+03 0.  1.
</event>
<event>
 4    1  0.3191769E-002  0.1826978E+03  0.7818608E-02  0.1165217E+00
          1   -1    0    0  502    0  0.00000000000E+00  0.00000000000E+00  0.17945991493E+03  0.17945991493E+03  0.00000000000E+00 0. -1.
         -1   -1    0    0    0  501 -0.00000000000E+00 -0.00000000000E+00 -0.26965177889E+03  0.26965177889E+03  0.00000000000E+00 0.  1.
          6    1    1    2  502    0  0.53269592588E+02 -0.30932893487E+02  0.79980508130E+02  0.19943764708E+03  0.17200000000E+03 0. -1.
         -6    1    1    2    0  501 -0.53269592588E+02  0.30932893487E+02 -0.17017237209E+03  0.24967404674E+03  0.17200000000E+03 0. -1.
</event>
<event>
 4    1  0.3191769E-002  0.9559919E+03  0.7818608E-02  0.9358174E-01
          2   -1    0    0  502    0  0.00000000000E+00  0.00000000000E+00  0.19928142752E+04  0.19928142752E+04  0.00000000000E+00 0. -1.
         -2   -1    0    0    0  501 -0.00000000000E+00 -0.00000000000E+00 -0.56450479809E+03  0.56450479809E+03  0.00000000000E+00 0.  1.
          6    1    1    2  502    0 -0.93885902842E+03  0.53668629435E+02  0.12679669007E+04  0.15879737587E+04  0.17200000000E+03 0. -1.
         -6    1    1    2    0  501  0.93885902842E+03 -0.53668629435E+02  0.16034257634E+03  0.96934531454E+03  0.17200000000E+03 0.  1.
</event>
<event>
 4    1  0.3191769E-002  0.2019597E+03  0.7818608E-02  0.1148096E+00
          4   -1    0    0  502    0  0.00000000000E+00  0.00000000000E+00  0.18898443989E+03  0.18898443989E+03  0.00000000000E+00 0. -1.
         -4   -1    0    0    0  501 -0.00000000000E+00 -0.00000000000E+00 -0.44011691017E+03  0.44011691017E+03  0.00000000000E+00 0.  1.
          6    1    1    2  502    0 -0.77332480686E+02  0.72273178808E+02  0.98983521220E+02  0.22491212154E+03  0.17200000000E+03 0. -1.
         -6    1    1    2    0  501  0.77332480686E+02 -0.72273178808E+02 -0.35011599150E+03  0.40418922852E+03  0.17200000000E+03 0.  1.
</event>
<event>
 4    1  0.3191769E-002  0.7824937E+03  0.7818608E-02  0.9585708E-01
          2   -1    0    0  502    0  0.00000000000E+00  0.00000000000E+00  0.19155298528E+04  0.19155298528E+04  0.00000000000E+00 0. -1.
         -2   -1    0    0    0  501 -0.00000000000E+00 -0.00000000000E+00 -0.34387213141E+03  0.34387213141E+03  0.00000000000E+00 0.  1.
          6    1    1    2  502    0 -0.67004060320E+03  0.36572937801E+03  0.10856649964E+04  0.13382693572E+04  0.17200000000E+03 0. -1.
         -6    1    1    2    0  501  0.67004060320E+03 -0.36572937801E+03  0.48599272497E+03  0.92113262704E+03  0.17200000000E+03 0.  1.
</event>
<event>
 4    1  0.3191769E-002  0.1772830E+03  0.7818608E-02  0.1170459E+00
         -2   -1    0    0    0  501 -0.00000000000E+00  0.00000000000E+00  0.31664338862E+02  0.31664338862E+02  0.00000000000E+00 0.  1.
          2   -1    0    0  502    0  0.00000000000E+00 -0.00000000000E+00 -0.26327146616E+04  0.26327146616E+04  0.00000000000E+00 0. -1.
          6    1    1    2  502    0 -0.21940124193E+02 -0.36930831262E+02 -0.23520134129E+04  0.23586853011E+04  0.17200000000E+03 0. -1.
         -6    1    1    2    0  501  0.21940124193E+02  0.36930831262E+02 -0.24903690987E+03  0.30569369935E+03  0.17200000000E+03 0.  1.
</event>
<event>
 4    1  0.3191769E-002  0.1826253E+03  0.7818608E-02  0.1165286E+00
         -1   -1    0    0    0  501 -0.00000000000E+00  0.00000000000E+00  0.89586919974E+02  0.89586919974E+02  0.00000000000E+00 0.  1.
          1   -1    0    0  502    0  0.00000000000E+00 -0.00000000000E+00 -0.55247194942E+03  0.55247194942E+03  0.00000000000E+00 0. -1.
          6    1    1    2  502    0 -0.52224132064E+02 -0.32258881185E+02 -0.41477932467E+03  0.45320401979E+03  0.17200000000E+03 0. -1.
         -6    1    1    2    0  501  0.52224132064E+02  0.32258881185E+02 -0.48105704777E+02  0.18885484960E+03  0.17200000000E+03 0.  1.
</event>
<event>
 4    1  0.3191769E-002  0.3443610E+03  0.7818608E-02  0.1064954E+00
          1   -1    0    0  502    0  0.00000000000E+00  0.00000000000E+00  0.55073237858E+03  0.55073237858E+03  0.00000000000E+00 0. -1.
         -1   -1    0    0    0  501 -0.00000000000E+00 -0.00000000000E+00 -0.24836280306E+03  0.24836280306E+03  0.00000000000E+00 0.  1.
          6    1    1    2  502    0  0.25168271696E+03  0.16017585247E+03  0.54530449280E+01  0.34440416581E+03  0.17200000000E+03 0. -1.
         -6    1    1    2    0  501 -0.25168271696E+03 -0.16017585247E+03  0.29691653060E+03  0.45469101582E+03  0.17200000000E+03 0. -1.
</event>
<event>
 4    1  0.3191769E-002  0.2004941E+03  0.7818608E-02  0.1149323E+00
         -1   -1    0    0    0  501 -0.00000000000E+00  0.00000000000E+00  0.28310890487E+02  0.28310890487E+02  0.00000000000E+00 0.  1.
          1   -1    0    0  502    0  0.00000000000E+00 -0.00000000000E+00 -0.15743166831E+04  0.15743166831E+04  0.00000000000E+00 0. -1.
          6    1    1    2  502    0  0.90241676426E+02 -0.49702504635E+02 -0.10239834916E+04  0.10434270890E+04  0.17200000000E+03 0. -1.
         -6    1    1    2    0  501 -0.90241676426E+02  0.49702504635E+02 -0.52202230102E+03  0.55920048452E+03  0.17200000000E+03 0.  1.
</event>
<event>
 4    1  0.3191769E-002  0.2778972E+03  0.7818608E-02  0.1096843E+00
          1   -1    0    0  502    0  0.00000000000E+00  0.00000000000E+00  0.20012091329E+04  0.20012091329E+04  0.00000000000E+00 0. -1.
         -1   -1    0    0    0  501 -0.00000000000E+00 -0.00000000000E+00 -0.28106917400E+03  0.28106917400E+03  0.00000000000E+00 0.  1.
          6    1    1    2  502    0 -0.20833637283E+03  0.65106104769E+02  0.19199803354E+04  0.19399874581E+04  0.17200000000E+03 0. -1.
         -6    1    1    2    0  501  0.20833637283E+03 -0.65106104769E+02 -0.19984037650E+03  0.34229084884E+03  0.17200000000E+03 0.  1.
</event>
<event>
 4    1  0.3191769E-002  0.1786266E+03  0.7818608E-02  0.1169139E+00
         -2   -1    0    0    0  501 -0.00000000000E+00  0.00000000000E+00  0.92556481813E+02  0.92556481813E+02  0.00000000000E+00 0.  1.
          2   -1    0    0  502    0  0.00000000000E+00 -0.00000000000E+00 -0.88485692254E+03  0.88485692254E+03  0.00000000000E+00 0. -1.
          6    1    1    2  502    0 -0.30052987801E+02  0.37686780303E+02 -0.77796927529E+03  0.79821279668E+03  0.17200000000E+03 0. -1.
         -6    1    1    2    0  501  0.30052987801E+02 -0.37686780303E+02 -0.14331165429E+02  0.17920060767E+03  0.17200000000E+03 0.  1.
</event>
<event>
 4    1  0.3191769E-002  0.3188220E+03  0.7818608E-02  0.1076193E+00
         -2   -1    0    0    0  501 -0.00000000000E+00  0.00000000000E+00  0.35610497806E+03  0.35610497806E+03  0.00000000000E+00 0.  1.
          2   -1    0    0  502    0  0.00000000000E+00 -0.00000000000E+00 -0.17856855830E+04  0.17856855830E+04  0.00000000000E+00 0. -1.
          6    1    1    2  502    0  0.26705588581E+03 -0.27287791126E+02 -0.16963694763E+04  0.17260697755E+04  0.17200000000E+03 0. -1.
         -6    1    1    2    0  501 -0.26705588581E+03  0.27287791126E+02  0.26678887135E+03  0.41572078559E+03  0.17200000000E+03 0.  1.
</event>
<event>
 4    1  0.3191769E-002  0.3931662E+03  0.7818608E-02  0.1046172E+00
          2   -1    0    0  502    0  0.00000000000E+00  0.00000000000E+00  0.23753843229E+04  0.23753843229E+04  0.00000000000E+00 0. -1.
         -2   -1    0    0    0  501 -0.00000000000E+00 -0.00000000000E+00 -0.81710198845E+02  0.81710198845E+02  0.00000000000E+00 0.  1.
          6    1    1    2  502    0  0.11021917889E+03  0.33592767087E+03  0.17011554815E+04  0.17459981786E+04  0.17200000000E+03 0. -1.
         -6    1    1    2    0  501 -0.11021917889E+03 -0.33592767087E+03  0.59251864256E+03  0.71109634315E+03  0.17200000000E+03 0.  1.
</event>
<event>
 4    1  0.3191769E-002  0.1944596E+03  0.7818608E-02  0.1154499E+00
         -2   -1    0    0    0  501 -0.00000000000E+00  0.00000000000E+00  0.14118693990E+02  0.14118693990E+02  0.00000000000E+00 0.  1.
          2   -1    0    0  502    0  0.00000000000E+00 -0.00000000000E+00 -0.27236896816E+04  0.27236896816E+04  0.00000000000E+00 0. -1.
          6    1    1    2  502    0  0.88084253685E+02 -0.21718535594E+02 -0.15314406157E+04  0.15437373125E+04  0.17200000000E+03 0. -1.
         -6    1    1    2    0  501 -0.88084253685E+02  0.21718535594E+02 -0.11781303720E+04  0.11940710632E+04  0.17200000000E+03 0.  1.
</event>
<event>
 4    1  0.3191769E-002  0.2747953E+03  0.7818608E-02  0.1098566E+00
          1   -1    0    0  502    0  0.00000000000E+00  0.00000000000E+00  0.30999660503E+04  0.30999660503E+04  0.00000000000E+00 0. -1.
         -1   -1    0    0    0  501 -0.00000000000E+00 -0.00000000000E+00 -0.25656293625E+02  0.25656293625E+02  0.00000000000E+00 0.  1.
          6    1    1    2  502    0 -0.99793664882E+02  0.18965681431E+03  0.11857509882E+04  0.12171761947E+04  0.17200000000E+03 0. -1.
         -6    1    1    2    0  501  0.99793664882E+02 -0.18965681431E+03  0.18885587684E+04  0.19084461492E+04  0.17200000000E+03 0.  1.
</event>
<event>
 4    1  0.3191769E-002  0.2064602E+03  0.7818608E-02  0.1144400E+00
          2   -1    0    0  502    0  0.00000000000E+00  0.00000000000E+00  0.24325788272E+04  0.24325788272E+04  0.00000000000E+00 0. -1.
         -2   -1    0    0    0  501 -0.00000000000E+00 -0.00000000000E+00 -0.17810721938E+02  0.17810721938E+02  0.00000000000E+00 0.  1.
          6    1    1    2  502    0  0.15391705264E+02 -0.11315881855E+03  0.13631348460E+04  0.13786814103E+04  0.17200000000E+03 0. -1.
         -6    1    1    2    0  501 -0.15391705264E+02  0.11315881855E+03  0.10516332593E+04  0.10717081388E+04  0.17200000000E+03 0.  1.
</event>
<event>
 4    1  0.3191769E-002  0.2454944E+03  0.7818608E-02  0.1116186E+00
         -1   -1    0    0    0  501 -0.00000000000E+00  0.00000000000E+00  0.56711096386E+03  0.56711096386E+03  0.00000000000E+00 0.  1.
          1   -1    0    0  502    0  0.00000000000E+00 -0.00000000000E+00 -0.13164674399E+03  0.13164674399E+03  0.00000000000E+00 0. -1.
          6    1    1    2  502    0  0.13372019831E+03  0.11314776533E+03  0.64341047089E+02  0.25378589121E+03  0.17200000000E+03 0. -1.
         -6    1    1    2    0  501 -0.13372019831E+03 -0.11314776533E+03  0.37112317278E+03  0.44497181664E+03  0.17200000000E+03 0.  1.
</event>
<event>
 4    1  0.3191769E-002  0.2052244E+03  0.7818608E-02  0.1145405E+00
         -2   -1    0    0    0  501 -0.00000000000E+00  0.00000000000E+00  0.15291779096E+02  0.15291779096E+02  0.00000000000E+00 0.  1.
          2   -1    0    0  502    0  0.00000000000E+00 -0.00000000000E+00 -0.27545335882E+04  0.27545335882E+04  0.00000000000E+00 0. -1.
          6    1    1    2  502    0  0.10772093388E+03 -0.30483347033E+02 -0.13550149871E+04  0.13704680402E+04  0.17200000000E+03 0.  1.
         -6    1    1    2    0  501 -0.10772093388E+03  0.30483347033E+02 -0.13842268220E+04  0.13993573271E+04  0.17200000000E+03 0. -1.
</event>
<event>
 4    1  0.3191769E-002  0.1854638E+03  0.7818608E-02  0.1162618E+00
          1   -1    0    0  502    0  0.00000000000E+00  0.00000000000E+00  0.16337403252E+04  0.16337403252E+04  0.00000000000E+00 0. -1.
         -1   -1    0    0    0  501 -0.00000000000E+00 -0.00000000000E+00 -0.21100407552E+02  0.21100407552E+02  0.00000000000E+00 0.  1.
          6    1    1    2  502    0  0.56306456086E+02 -0.40526483448E+02  0.76752735674E+03  0.78961703135E+03  0.17200000000E+03 0.  1.
         -6    1    1    2    0  501 -0.56306456086E+02  0.40526483448E+02  0.84511256091E+03  0.86522370140E+03  0.17200000000E+03 0. -1.
</event>
<event>
 4    1  0.3191769E-002  0.1786832E+03  0.7818608E-02  0.1169084E+00
         -4   -1    0    0    0  501 -0.00000000000E+00  0.00000000000E+00  0.54051993357E+02  0.54051993357E+02  0.00000000000E+00 0.  1.
          4   -1    0    0  502    0  0.00000000000E+00 -0.00000000000E+00 -0.61215121103E+03  0.61215121103E+03  0.00000000000E+00 0. -1.
          6    1    1    2  502    0  0.48385143950E+02 -0.16047159971E+01 -0.34142681097E+03  0.38535693132E+03  0.17200000000E+03 0. -1.
         -6    1    1    2    0  501 -0.48385143950E+02  0.16047159971E+01 -0.21667240670E+03  0.28084627307E+03  0.17200000000E+03 0.  1.
</event>
<event>
 4    1  0.3191769E-002  0.5207426E+03  0.7818608E-02  0.1008502E+00
          2   -1    0    0  502    0  0.00000000000E+00  0.00000000000E+00  0.15830616963E+04  0.15830616963E+04  0.00000000000E+00 0. -1.
         -2   -1    0    0    0  501 -0.00000000000E+00 -0.00000000000E+00 -0.17996933899E+03  0.17996933899E+03  0.00000000000E+00 0.  1.
          6    1    1    2  502    0  0.21727611226E+03 -0.44088546050E+03  0.89505992071E+03  0.10355216849E+04  0.17200000000E+03 0. -1.
         -6    1    1    2    0  501 -0.21727611226E+03  0.44088546050E+03  0.50803243656E+03  0.72750935034E+03  0.17200000000E+03 0.  1.
</event>
<event>
 4    1  0.3191769E-002  0.3395633E+03  0.7818608E-02  0.1066982E+00
          1   -1    0    0  502    0  0.00000000000E+00  0.00000000000E+00  0.11137094678E+03  0.11137094678E+03  0.00000000000E+00 0. -1.
         -1   -1    0    0    0  501 -0.00000000000E+00 -0.00000000000E+00 -0.23521914030E+04  0.23521914030E+04  0.00000000000E+00 0.  1.
          6    1    1    2  502    0 -0.24239982422E+02 -0.29177326856E+03 -0.19874984948E+03  0.39345230926E+03  0.17200000000E+03 0. -1.
         -6    1    1    2    0  501  0.24239982422E+02  0.29177326856E+03 -0.20420706068E+04  0.20701100406E+04  0.17200000000E+03 0.  1.
</event>
<event>
 4    1  0.3191769E-002  0.5370668E+03  0.7818608E-02  0.1004533E+00
         -2   -1    0    0    0  501 -0.00000000000E+00  0.00000000000E+00  0.22481976923E+03  0.22481976923E+03  0.00000000000E+00 0.  1.
          2   -1    0    0  502    0  0.00000000000E+00 -0.00000000000E+00 -0.17761124055E+04  0.17761124055E+04  0.00000000000E+00 0. -1.
          6    1    1    2  502    0 -0.47452828075E+03 -0.18352031228E+03 -0.13028105421E+04  0.14091685856E+04  0.17200000000E+03 0. -1.
         -6    1    1    2    0  501  0.47452828075E+03  0.18352031228E+03 -0.24848209423E+03  0.59176358912E+03  0.17200000000E+03 0.  1.
</event>
<event>
 4    1  0.3191769E-002  0.3275863E+03  0.7818608E-02  0.1072210E+00
          4   -1    0    0  502    0  0.00000000000E+00  0.00000000000E+00  0.23524410123E+03  0.23524410123E+03  0.00000000000E+00 0. -1.
         -4   -1    0    0    0  501 -0.00000000000E+00 -0.00000000000E+00 -0.48541404060E+03  0.48541404060E+03  0.00000000000E+00 0.  1.
          6    1    1    2  502    0  0.48260431126E+02  0.27459006301E+03 -0.21351818405E+03  0.39102785942E+03  0.17200000000E+03 0. -1.
         -6    1    1    2    0  501 -0.48260431126E+02 -0.27459006301E+03 -0.36651755312E+02  0.32963028242E+03  0.17200000000E+03 0.  1.
</event>
<event>
 4    1  0.3191769E-002  0.2653348E+03  0.7818608E-02  0.1103980E+00
         -1   -1    0    0    0  501 -0.00000000000E+00  0.00000000000E+00  0.84123458092E+02  0.84123458092E+02  0.00000000000E+00 0.  1.
          1   -1    0    0  502    0  0.00000000000E+00 -0.00000000000E+00 -0.11586377334E+04  0.11586377334E+04  0.00000000000E+00 0. -1.
          6    1    1    2  502    0  0.69910276067E+02  0.18955504846E+03 -0.86470166184E+03  0.90449517804E+03  0.17200000000E+03 0. -1.
         -6    1    1    2    0  501 -0.69910276067E+02 -0.18955504846E+03 -0.20981261349E+03  0.33826601348E+03  0.17200000000E+03 0.  1.
</event>
<event>
 4    1  0.3191769E-002  0.2102609E+03  0.7818608E-02  0.1141360E+00
         -1   -1    0    0    0  501 -0.00000000000E+00  0.00000000000E+00  0.68702413604E+02  0.68702413604E+02  0.00000000000E+00 0.  1.
          1   -1    0    0  502    0  0.00000000000E+00 -0.00000000000E+00 -0.16473669773E+04  0.16473669773E+04  0.00000000000E+00 0. -1.
          6    1    1    2  502    0  0.11317723944E+03  0.42621343993E+02 -0.14591379454E+04  0.14742093508E+04  0.17200000000E+03 0. -1.
         -6    1    1    2    0  501 -0.11317723944E+03 -0.42621343993E+02 -0.11952661833E+03  0.24186004006E+03  0.17200000000E+03 0.  1.
</event>
<event>
 4    1  0.3191769E-002  0.3807219E+03  0.7818608E-02  0.1050667E+00
         -2   -1    0    0    0  501 -0.00000000000E+00  0.00000000000E+00  0.18696755831E+03  0.18696755831E+03  0.00000000000E+00 0.  1.
          2   -1    0    0  502    0  0.00000000000E+00 -0.00000000000E+00 -0.77933447536E+03  0.77933447536E+03  0.00000000000E+00 0. -1.
          6    1    1    2  502    0 -0.33916947947E+03  0.18145481272E+02 -0.33110151266E+03  0.50455664298E+03  0.17200000000E+03 0. -1.
         -6    1    1    2    0  501  0.33916947947E+03 -0.18145481272E+02 -0.26126540439E+03  0.46174539069E+03  0.17200000000E+03 0.  1.
</event>
<event>
 4    1  0.3191769E-002  0.8030865E+03  0.7818608E-02  0.9555560E-01
         -4   -1    0    0    0  501 -0.00000000000E+00  0.00000000000E+00  0.39119160486E+03  0.39119160486E+03  0.00000000000E+00 0.  1.
          4   -1    0    0  502    0  0.00000000000E+00 -0.00000000000E+00 -0.21333805294E+04  0.21333805294E+04  0.00000000000E+00 0. -1.
          6    1    1    2  502    0  0.45162861010E+03  0.64140126486E+03 -0.14727700948E+04  0.16774980585E+04  0.17200000000E+03 0. -1.
         -6    1    1    2    0  501 -0.45162861010E+03 -0.64140126486E+03 -0.26941882970E+03  0.84707407576E+03  0.17200000000E+03 0.  1.
</event>
<event>
 4    1  0.3191769E-002  0.1862428E+03  0.7818608E-02  0.1161894E+00
          2   -1    0    0  502    0  0.00000000000E+00  0.00000000000E+00  0.30292177574E+03  0.30292177574E+03  0.00000000000E+00 0. -1.
         -2   -1    0    0    0  501 -0.00000000000E+00 -0.00000000000E+00 -0.13753466337E+03  0.13753466337E+03  0.00000000000E+00 0.  1.
          6    1    1    2  502    0  0.35240637770E+02  0.62132604128E+02 -0.74222932634E+01  0.18639059387E+03  0.17200000000E+03 0.  1.
         -6    1    1    2    0  501 -0.35240637770E+02 -0.62132604128E+02  0.17280940563E+03  0.25406584525E+03  0.17200000000E+03 0. -1.
</event>
<event>
 4    1  0.3191769E-002  0.1792686E+03  0.7818608E-02  0.1168513E+00
          2   -1    0    0  502    0  0.00000000000E+00  0.00000000000E+00  0.33717553622E+03  0.33717553622E+03  0.00000000000E+00 0. -1.
         -2   -1    0    0    0  501 -0.00000000000E+00 -0.00000000000E+00 -0.22649680782E+03  0.22649680782E+03  0.00000000000E+00 0.  1.
          6    1    1    2  502    0  0.48330640248E+02 -0.14743236442E+02  0.26982874510E+03  0.32395179501E+03  0.17200000000E+03 0. -1.
         -6    1    1    2    0  501 -0.48330640248E+02  0.14743236442E+02 -0.15915001671E+03  0.23972054903E+03  0.17200000000E+03 0.  1.
</event>
<event>
 4    1  0.3191769E-002  0.5440454E+03  0.7818608E-02  0.1002882E+00
          1   -1    0    0  502    0  0.00000000000E+00  0.00000000000E+00  0.98940298669E+03  0.98940298669E+03  0.00000000000E+00 0. -1.
         -1   -1    0    0    0  501 -0.00000000000E+00 -0.00000000000E+00 -0.29926345767E+03  0.29926345767E+03  0.00000000000E+00 0.  1.
          6    1    1    2  502    0  0.47364614503E+03 -0.20508712617E+03  0.35730462185E+03  0.65088554510E+03  0.17200000000E+03 0. -1.
         -6    1    1    2    0  501 -0.47364614503E+03  0.20508712617E+03  0.33283490717E+03  0.63778089926E+03  0.17200000000E+03 0.  1.
</event>
<event>
 4    1  0.3191769E-002  0.2760592E+03  0.7818608E-02  0.1097861E+00
          2   -1    0    0  502    0  0.00000000000E+00  0.00000000000E+00  0.24032964605E+04  0.24032964605E+04  0.00000000000E+00 0. -1.
         -2   -1    0    0    0  501 -0.00000000000E+00 -0.00000000000E+00 -0.35397911435E+02  0.35397911435E+02  0.00000000000E+00 0.  1.
          6    1    1    2  502    0  0.93844118534E+02  0.19446847348E+03  0.15775215658E+04  0.16014939888E+04  0.17200000000E+03 0. -1.
         -6    1    1    2    0  501 -0.93844118534E+02 -0.19446847348E+03  0.79037698324E+03  0.83720038306E+03  0.17200000000E+03 0.  1.
</event>
<event>
 4    1  0.3191769E-002  0.5552016E+03  0.7818608E-02  0.1000297E+00
         -2   -1    0    0    0  501 -0.00000000000E+00  0.00000000000E+00  0.21168944088E+03  0.21168944088E+03  0.00000000000E+00 0.  1.
          2   -1    0    0  502    0  0.00000000000E+00 -0.00000000000E+00 -0.35821990938E+04  0.35821990938E+04  0.00000000000E+00 0. -1.
          6    1    1    2  502    0  0.41593335368E+03  0.32506041642E+03 -0.31466500480E+04  0.31952551312E+04  0.17200000000E+03 0. -1.
         -6    1    1    2    0  501 -0.41593335368E+03 -0.32506041642E+03 -0.22385960493E+03  0.59863340346E+03  0.17200000000E+03 0.  1.
</event>
<event>
 4    1  0.3191769E-002  0.2617447E+03  0.7818608E-02  0.1106100E+00
         -2   -1    0    0    0  501 -0.00000000000E+00  0.00000000000E+00  0.11336767785E+03  0.11336767785E+03  0.00000000000E+00 0.  1.
          2   -1    0    0  502    0  0.00000000000E+00 -0.00000000000E+00 -0.61972654748E+03  0.61972654748E+03  0.00000000000E+00 0. -1.
          6    1    1    2  502    0 -0.11001630721E+03  0.16377633365E+03 -0.31097470948E+03  0.40646715150E+03  0.17200000000E+03 0. -1.
         -6    1    1    2    0  501  0.11001630721E+03 -0.16377633365E+03 -0.19538416015E+03  0.32662707382E+03  0.17200000000E+03 0. -1.
</event>
<event>
 4    1  0.3191769E-002  0.1912250E+03  0.7818608E-02  0.1157361E+00
         -2   -1    0    0    0  501 -0.00000000000E+00  0.00000000000E+00  0.18443504882E+02  0.18443504882E+02  0.00000000000E+00 0.  1.
          2   -1    0    0  502    0  0.00000000000E+00 -0.00000000000E+00 -0.19983811649E+04  0.19983811649E+04  0.00000000000E+00 0. -1.
          6    1    1    2  502    0 -0.57446315038E+02  0.60687050761E+02 -0.10794419709E+04  0.10962490437E+04  0.17200000000E+03 0. -1.
         -6    1    1    2    0  501  0.57446315038E+02 -0.60687050761E+02 -0.90049568906E+03  0.92057562604E+03  0.17200000000E+03 0.  1.
</event>
<event>
 4    1  0.3191769E-002  0.2583373E+03  0.7818608E-02  0.1108146E+00
          1   -1    0    0  502    0  0.00000000000E+00  0.00000000000E+00  0.59089555429E+03  0.59089555429E+03  0.00000000000E+00 0. -1.
         -1   -1    0    0    0  501 -0.00000000000E+00 -0.00000000000E+00 -0.11677217641E+03  0.11677217641E+03  0.00000000000E+00 0.  1.
          6    1    1    2  502    0  0.19069445426E+03  0.28103183169E+02  0.30112660707E+03  0.39675609293E+03  0.17200000000E+03 0. -1.
         -6    1    1    2    0  501 -0.19069445426E+03 -0.28103183169E+02  0.17299677081E+03  0.31091163777E+03  0.17200000000E+03 0.  1.
</event>
<event>
 4    1  0.3191769E-002  0.2161807E+03  0.7818608E-02  0.1136763E+00
         -2   -1    0    0    0  501 -0.00000000000E+00  0.00000000000E+00  0.67351280449E+02  0.67351280449E+02  0.00000000000E+00 0.  1.
          2   -1    0    0  502    0  0.00000000000E+00 -0.00000000000E+00 -0.81487195165E+03  0.81487195165E+03  0.00000000000E+00 0. -1.
          6    1    1    2  502    0 -0.41892445553E+02  0.12407707778E+03 -0.20379059501E+03  0.29709376439E+03  0.17200000000E+03 0. -1.
         -6    1    1    2    0  501  0.41892445553E+02 -0.12407707778E+03 -0.54373007620E+03  0.58512946771E+03  0.17200000000E+03 0.  1.
</event>
<event>
 4    1  0.3191769E-002  0.2199833E+03  0.7818608E-02  0.1133896E+00
          2   -1    0    0  502    0  0.00000000000E+00  0.00000000000E+00  0.88660039149E+03  0.88660039149E+03  0.00000000000E+00 0. -1.
         -2   -1    0    0    0  501 -0.00000000000E+00 -0.00000000000E+00 -0.56417380130E+02  0.56417380130E+02  0.00000000000E+00 0.  1.
          6    1    1    2  502    0  0.62450602284E+02 -0.12210062095E+03  0.50013038048E+03  0.54637261721E+03  0.17200000000E+03 0. -1.
         -6    1    1    2    0  501 -0.62450602284E+02  0.12210062095E+03  0.33005263088E+03  0.39664515441E+03  0.17200000000E+03 0.  1.
</event>
<event>
 4    1  0.3191769E-002  0.1944556E+03  0.7818608E-02  0.1154503E+00
          1   -1    0    0  502    0  0.00000000000E+00  0.00000000000E+00  0.32020721834E+02  0.32020721834E+02  0.00000000000E+00 0. -1.
         -1   -1    0    0    0  501 -0.00000000000E+00 -0.00000000000E+00 -0.14182296563E+04  0.14182296563E+04  0.00000000000E+00 0.  1.
          6    1    1    2  502    0 -0.89658252610E+02 -0.13797432885E+02 -0.98974074231E+03  0.10086623362E+04  0.17200000000E+03 0. -1.
         -6    1    1    2    0  501  0.89658252610E+02  0.13797432885E+02 -0.39646819216E+03  0.44158804197E+03  0.17200000000E+03 0. -1.
</event>
<event>
 4    1  0.3191769E-002  0.2502389E+03  0.7818608E-02  0.1113154E+00
          1   -1    0    0  502    0  0.00000000000E+00  0.00000000000E+00  0.20433787735E+04  0.20433787735E+04  0.00000000000E+00 0. -1.
         -1   -1    0    0    0  501 -0.00000000000E+00 -0.00000000000E+00 -0.69604123325E+02  0.69604123325E+02  0.00000000000E+00 0.  1.
          6    1    1    2  502    0  0.14037629205E+03  0.11545568395E+03  0.17772976604E+04  0.17948277054E+04  0.17200000000E+03 0. -1.
         -6    1    1    2    0  501 -0.14037629205E+03 -0.11545568395E+03  0.19647698974E+03  0.31815519141E+03  0.17200000000E+03 0.  1.
</event>
<event>
 4    1  0.3191769E-002  0.1789793E+03  0.7818608E-02  0.1168795E+00
         -3   -1    0    0    0  501 -0.00000000000E+00  0.00000000000E+00  0.18304640754E+03  0.18304640754E+03  0.00000000000E+00 0.  1.
          3   -1    0    0  502    0  0.00000000000E+00 -0.00000000000E+00 -0.99119400731E+03  0.99119400731E+03  0.00000000000E+00 0. -1.
          6    1    1    2  502    0 -0.34197400718E+02 -0.35778764786E+02 -0.93684866189E+03  0.95379190472E+03  0.17200000000E+03 0. -1.
         -6    1    1    2    0  501  0.34197400718E+02  0.35778764786E+02  0.12870106212E+03  0.22044851012E+03  0.17200000000E+03 0.  1.
</event>
<event>
 4    1  0.3191769E-002  0.1795162E+03  0.7818608E-02  0.1168272E+00
         -1   -1    0    0    0  501 -0.00000000000E+00  0.00000000000E+00  0.44477240155E+02  0.44477240155E+02  0.00000000000E+00 0.  1.
          1   -1    0    0  502    0  0.00000000000E+00 -0.00000000000E+00 -0.85286379391E+03  0.85286379391E+03  0.00000000000E+00 0. -1.
          6    1    1    2  502    0 -0.41472666828E+02  0.30365825182E+02 -0.57822213929E+03  0.60544769204E+03  0.17200000000E+03 0. -1.
         -6    1    1    2    0  501  0.41472666828E+02 -0.30365825182E+02 -0.23016441447E+03  0.29189334203E+03  0.17200000000E+03 0.  1.
</event>
<event>
 4    1  0.3191769E-002  0.5822862E+03  0.7818608E-02  0.9942854E-01
          1   -1    0    0  502    0  0.00000000000E+00  0.00000000000E+00  0.81358635272E+03  0.81358635272E+03  0.00000000000E+00 0. -1.
         -1   -1    0    0    0  501 -0.00000000000E+00 -0.00000000000E+00 -0.46715808101E+03  0.46715808101E+03  0.00000000000E+00 0.  1.
          6    1    1    2  502    0  0.55619004761E+03 -0.11220409583E+02  0.38358049332E+03  0.69727416523E+03  0.17200000000E+03 0. -1.
         -6    1    1    2    0  501 -0.55619004761E+03  0.11220409583E+02 -0.37152221617E+02  0.58347026850E+03  0.17200000000E+03 0.  1.
</event>
<event>
 4    1  0.3191769E-002  0.1993810E+03  0.7818608E-02  0.1150262E+00
         -1   -1    0    0    0  501 -0.00000000000E+00  0.00000000000E+00  0.22668730664E+03  0.22668730664E+03  0.00000000000E+00 0.  1.
          1   -1    0    0  502    0  0.00000000000E+00 -0.00000000000E+00 -0.27268988467E+03  0.27268988467E+03  0.00000000000E+00 0. -1.
          6    1    1    2  502    0  0.18242618555E+02  0.99176534301E+02 -0.17217026825E+03  0.26343002744E+03  0.17200000000E+03 0. -1.
         -6    1    1    2    0  501 -0.18242618555E+02 -0.99176534301E+02  0.12616769021E+03  0.23594716388E+03  0.17200000000E+03 0.  1.
</event>
<event>
 4    1  0.3191769E-002  0.2102629E+03  0.7818608E-02  0.1141358E+00
          1   -1    0    0  502    0  0.00000000000E+00  0.00000000000E+00  0.19313323671E+04  0.19313323671E+04  0.00000000000E+00 0. -1.
         -1   -1    0    0    0  501 -0.00000000000E+00 -0.00000000000E+00 -0.23928538251E+02  0.23928538251E+02  0.00000000000E+00 0.  1.
          6    1    1    2  502    0 -0.40321202570E+02 -0.11402047968E+03  0.75014687768E+03  0.77905764052E+03  0.17200000000E+03 0.  1.
         -6    1    1    2    0  501  0.40321202570E+02  0.11402047968E+03  0.11572569511E+04  0.11762032648E+04  0.17200000000E+03 0.  1.
</event>
<event>
 4    1  0.3191769E-002  0.1802860E+03  0.7818608E-02  0.1167527E+00
         -1   -1    0    0    0  501 -0.00000000000E+00  0.00000000000E+00  0.36850779916E+03  0.36850779916E+03  0.00000000000E+00 0.  1.
          1   -1    0    0  502    0  0.00000000000E+00 -0.00000000000E+00 -0.97307562435E+02  0.97307562435E+02  0.00000000000E+00 0. -1.
          6    1    1    2  502    0 -0.31054336390E+02 -0.44211798893E+02  0.64352815573E+02  0.19142711365E+03  0.17200000000E+03 0.  1.
         -6    1    1    2    0  501  0.31054336390E+02  0.44211798893E+02  0.20684742115E+03  0.27438824794E+03  0.17200000000E+03 0.  1.
</event>
<event>
 4    1  0.3191769E-002  0.2968942E+03  0.7818608E-02  0.1086804E+00
          1   -1    0    0  502    0  0.00000000000E+00  0.00000000000E+00  0.13302707470E+03  0.13302707470E+03  0.00000000000E+00 0. -1.
         -1   -1    0    0    0  501 -0.00000000000E+00 -0.00000000000E+00 -0.12695380418E+04  0.12695380418E+04  0.00000000000E+00 0.  1.
          6    1    1    2  502    0 -0.23582552754E+03  0.54299765826E+02 -0.83373674661E+02  0.30837852330E+03  0.17200000000E+03 0. -1.
         -6    1    1    2    0  501  0.23582552754E+03 -0.54299765826E+02 -0.10531372924E+04  0.10941865932E+04  0.17200000000E+03 0.  1.
</event>
<event>
 4    1  0.3191769E-002  0.2292973E+03  0.7818608E-02  0.1127135E+00
         -1   -1    0    0    0  501 -0.00000000000E+00  0.00000000000E+00  0.53687169123E+03  0.53687169123E+03  0.00000000000E+00 0.  1.
          1   -1    0    0  502    0  0.00000000000E+00 -0.00000000000E+00 -0.99810539378E+02  0.99810539378E+02  0.00000000000E+00 0. -1.
          6    1    1    2  502    0  0.14838057551E+03 -0.31248426719E+02  0.26219636107E+03  0.34831622287E+03  0.17200000000E+03 0. -1.
         -6    1    1    2    0  501 -0.14838057551E+03  0.31248426719E+02  0.17486479079E+03  0.28836600774E+03  0.17200000000E+03 0.  1.
</event>
<event>
 4    1  0.3191769E-002  0.2268033E+03  0.7818608E-02  0.1128910E+00
         -1   -1    0    0    0  501 -0.00000000000E+00  0.00000000000E+00  0.13209776525E+03  0.13209776525E+03  0.00000000000E+00 0.  1.
          1   -1    0    0  502    0  0.00000000000E+00 -0.00000000000E+00 -0.50842640680E+03  0.50842640680E+03  0.00000000000E+00 0. -1.
          6    1    1    2  502    0 -0.24758251705E+02 -0.14574891094E+03 -0.34311784286E+03  0.41130228562E+03  0.17200000000E+03 0. -1.
         -6    1    1    2    0  501  0.24758251705E+02  0.14574891094E+03 -0.33210798695E+02  0.22922188643E+03  0.17200000000E+03 0.  1.
</event>
<event>
 4    1  0.3191769E-002  0.2556845E+03  0.7818608E-02  0.1109764E+00
          4   -1    0    0  502    0  0.00000000000E+00  0.00000000000E+00  0.37445874455E+03  0.37445874455E+03  0.00000000000E+00 0. -1.
         -4   -1    0    0    0  501 -0.00000000000E+00 -0.00000000000E+00 -0.42244476745E+03  0.42244476745E+03  0.00000000000E+00 0.  1.
          6    1    1    2  502    0  0.85234335143E+02 -0.16889552110E+03  0.28121397958E+03  0.38007353399E+03  0.17200000000E+03 0. -1.
         -6    1    1    2    0  501 -0.85234335143E+02  0.16889552110E+03 -0.32920000248E+03  0.41682997801E+03  0.17200000000E+03 0.  1.
</event>
<event>
 4    1  0.3191769E-002  0.2602248E+03  0.7818608E-02  0.1107008E+00
          1   -1    0    0  502    0  0.00000000000E+00  0.00000000000E+00  0.26040169309E+03  0.26040169309E+03  0.00000000000E+00 0. -1.
         -1   -1    0    0    0  501 -0.00000000000E+00 -0.00000000000E+00 -0.27764850783E+03  0.27764850783E+03  0.00000000000E+00 0.  1.
          6    1    1    2  502    0  0.16631335320E+02  0.19456705027E+03 -0.76357572581E+02  0.27119627072E+03  0.17200000000E+03 0.  1.
         -6    1    1    2    0  501 -0.16631335320E+02 -0.19456705027E+03  0.59110757840E+02  0.26685393019E+03  0.17200000000E+03 0. -1.
</event>
<event>
 4    1  0.3191769E-002  0.4314333E+03  0.7818608E-02  0.1033408E+00
         -2   -1    0    0    0  501 -0.00000000000E+00  0.00000000000E+00  0.11085404780E+03  0.11085404780E+03  0.00000000000E+00 0.  1.
          2   -1    0    0  502    0  0.00000000000E+00 -0.00000000000E+00 -0.40604381613E+04  0.40604381613E+04  0.00000000000E+00 0. -1.
          6    1    1    2  502    0 -0.16724461618E+03  0.35858049044E+03 -0.35720128390E+04  0.35979731033E+04  0.17200000000E+03 0. -1.
         -6    1    1    2    0  501  0.16724461618E+03 -0.35858049044E+03 -0.37757127443E+03  0.57331910577E+03  0.17200000000E+03 0.  1.
</event>
<event>
 4    1  0.3191769E-002  0.2232458E+03  0.7818608E-02  0.1131486E+00
          1   -1    0    0  502    0  0.00000000000E+00  0.00000000000E+00  0.10059085652E+03  0.10059085652E+03  0.00000000000E+00 0. -1.
         -1   -1    0    0    0  501 -0.00000000000E+00 -0.00000000000E+00 -0.50172835636E+03  0.50172835636E+03  0.00000000000E+00 0.  1.
          6    1    1    2  502    0 -0.13881541747E+03 -0.31384028568E+02 -0.23423252285E+03  0.32357928261E+03  0.17200000000E+03 0. -1.
         -6    1    1    2    0  501  0.13881541747E+03  0.31384028568E+02 -0.16690497699E+03  0.27873993026E+03  0.17200000000E+03 0.  1.
</event>
<event>
 4    1  0.3191769E-002  0.2515587E+03  0.7818608E-02  0.1112324E+00
          2   -1    0    0  502    0  0.00000000000E+00  0.00000000000E+00  0.67855893686E+03  0.67855893686E+03  0.00000000000E+00 0. -1.
         -2   -1    0    0    0  501 -0.00000000000E+00 -0.00000000000E+00 -0.10243454574E+03  0.10243454574E+03  0.00000000000E+00 0.  1.
          6    1    1    2  502    0 -0.15530857885E+03  0.97862377502E+02  0.40493343307E+03  0.47671048322E+03  0.17200000000E+03 0. -1.
         -6    1    1    2    0  501  0.15530857885E+03 -0.97862377502E+02  0.17119095805E+03  0.30428299938E+03  0.17200000000E+03 0. -1.
</event>
<event>
 4    1  0.3191769E-002  0.2725527E+03  0.7818608E-02  0.1099827E+00
         -1   -1    0    0    0  501 -0.00000000000E+00  0.00000000000E+00  0.11719624928E+04  0.11719624928E+04  0.00000000000E+00 0.  1.
          1   -1    0    0  502    0  0.00000000000E+00 -0.00000000000E+00 -0.70500627544E+02  0.70500627544E+02  0.00000000000E+00 0. -1.
          6    1    1    2  502    0  0.13135311956E+03 -0.16567238561E+03  0.35337053572E+03  0.44626865999E+03  0.17200000000E+03 0.  1.
         -6    1    1    2    0  501 -0.13135311956E+03  0.16567238561E+03  0.74809132952E+03  0.79619446034E+03  0.17200000000E+03 0.  1.
</event>
<event>
 4    1  0.3191769E-002  0.2048403E+03  0.7818608E-02  0.1145718E+00
         -4   -1    0    0    0  501 -0.00000000000E+00  0.00000000000E+00  0.23462866834E+03  0.23462866834E+03  0.00000000000E+00 0.  1.
          4   -1    0    0  502    0  0.00000000000E+00 -0.00000000000E+00 -0.18339976604E+03  0.18339976604E+03  0.00000000000E+00 0. -1.
          6    1    1    2  502    0 -0.10706293958E+03  0.30216910874E+02 -0.73649757792E+01  0.20497262647E+03  0.17200000000E+03 0.  1.
         -6    1    1    2    0  501  0.10706293958E+03 -0.30216910874E+02  0.58593878077E+02  0.21305580790E+03  0.17200000000E+03 0. -1.
</event>
<event>
 4    1  0.3191769E-002  0.3280755E+03  0.7818608E-02  0.1071992E+00
          2   -1    0    0  502    0  0.00000000000E+00  0.00000000000E+00  0.65744670116E+03  0.65744670116E+03  0.00000000000E+00 0. -1.
         -2   -1    0    0    0  501 -0.00000000000E+00 -0.00000000000E+00 -0.28662907605E+03  0.28662907605E+03  0.00000000000E+00 0.  1.
          6    1    1    2  502    0  0.20046316619E+03  0.19458681938E+03  0.49452272818E+03  0.59345281191E+03  0.17200000000E+03 0. -1.
         -6    1    1    2    0  501 -0.20046316619E+03 -0.19458681938E+03 -0.12370510308E+03  0.35062296531E+03  0.17200000000E+03 0.  1.
</event>
<event>
 4    1  0.3191769E-002  0.6254534E+03  0.7818608E-02  0.9853962E-01
          1   -1    0    0  502    0  0.00000000000E+00  0.00000000000E+00  0.35179460451E+03  0.35179460451E+03  0.00000000000E+00 0. -1.
         -1   -1    0    0    0  501 -0.00000000000E+00 -0.00000000000E+00 -0.23336335755E+04  0.23336335755E+04  0.00000000000E+00 0.  1.
          6    1    1    2  502    0  0.52091204228E+03 -0.30043059661E+03 -0.19426734879E+02  0.62575498176E+03  0.17200000000E+03 0. -1.
         -6    1    1    2    0  501 -0.52091204228E+03  0.30043059661E+03 -0.19624122361E+04  0.20596731982E+04  0.17200000000E+03 0.  1.
</event>
<event>
 4    1  0.3191769E-002  0.1940453E+03  0.7818608E-02  0.1154863E+00
         -2   -1    0    0    0  501 -0.00000000000E+00  0.00000000000E+00  0.71974814076E+02  0.71974814076E+02  0.00000000000E+00 0.  1.
          2   -1    0    0  502    0  0.00000000000E+00 -0.00000000000E+00 -0.61175947569E+03  0.61175947569E+03  0.00000000000E+00 0. -1.
          6    1    1    2  502    0 -0.44213334977E+02 -0.78196924339E+02 -0.40000172738E+03  0.44458403016E+03  0.17200000000E+03 0.  1.
         -6    1    1    2    0  501  0.44213334977E+02  0.78196924339E+02 -0.13978293423E+03  0.23915025960E+03  0.17200000000E+03 0.  1.
</event>
<event>
 4    1  0.3191769E-002  0.2081444E+03  0.7818608E-02  0.1143044E+00
         -1   -1    0    0    0  501 -0.00000000000E+00  0.00000000000E+00  0.11576399349E+03  0.11576399349E+03  0.00000000000E+00 0.  1.
          1   -1    0    0  502    0  0.00000000000E+00 -0.00000000000E+00 -0.37425431290E+03  0.37425431290E+03  0.00000000000E+00 0. -1.
          6    1    1    2  502    0 -0.61068643074E+02 -0.10005357294E+03 -0.13046685843E+03  0.24565361339E+03  0.17200000000E+03 0.  1.
         -6    1    1    2    0  501  0.61068643074E+02  0.10005357294E+03 -0.12802346098E+03  0.24436469300E+03  0.17200000000E+03 0.  1.
</event>
<event>
 4    1  0.3191769E-002  0.2086415E+03  0.7818608E-02  0.1142646E+00
          2   -1    0    0  502    0  0.00000000000E+00  0.00000000000E+00  0.15252813288E+03  0.15252813288E+03  0.00000000000E+00 0. -1.
         -2   -1    0    0    0  501 -0.00000000000E+00 -0.00000000000E+00 -0.11670521609E+04  0.11670521609E+04  0.00000000000E+00 0.  1.
          6    1    1    2  502    0  0.10906508483E+03  0.45300072367E+02  0.66206683990E+02  0.21889407093E+03  0.17200000000E+03 0. -1.
         -6    1    1    2    0  501 -0.10906508483E+03 -0.45300072367E+02 -0.10807307120E+04  0.11006862228E+04  0.17200000000E+03 0.  1.
</event>
<event>
 4    1  0.3191769E-002  0.2174735E+03  0.7818608E-02  0.1135781E+00
          2   -1    0    0  502    0  0.00000000000E+00  0.00000000000E+00  0.14881180298E+03  0.14881180298E+03  0.00000000000E+00 0. -1.
         -2   -1    0    0    0  501 -0.00000000000E+00 -0.00000000000E+00 -0.42354386337E+03  0.42354386337E+03  0.00000000000E+00 0.  1.
          6    1    1    2  502    0  0.61297347931E+02  0.11812438118E+03  0.56161918985E+01  0.21754603169E+03  0.17200000000E+03 0. -1.
         -6    1    1    2    0  501 -0.61297347931E+02 -0.11812438118E+03 -0.28034825229E+03  0.35480963467E+03  0.17200000000E+03 0.  1.
</event>
<event>
 4    1  0.3191769E-002  0.2774798E+03  0.7818608E-02  0.1097073E+00
         -2   -1    0    0    0  501 -0.00000000000E+00  0.00000000000E+00  0.56686941269E+02  0.56686941269E+02  0.00000000000E+00 0.  1.
          2   -1    0    0  502    0  0.00000000000E+00 -0.00000000000E+00 -0.20548172417E+04  0.20548172417E+04  0.00000000000E+00 0. -1.
          6    1    1    2  502    0 -0.76878723773E+02  0.20371722987E+03 -0.16137560993E+04  0.16374381808E+04  0.17200000000E+03 0. -1.
         -6    1    1    2    0  501  0.76878723773E+02 -0.20371722987E+03 -0.38437420113E+03  0.47406600216E+03  0.17200000000E+03 0.  1.
</event>
<event>
 4    1  0.3191769E-002  0.2337960E+03  0.7818608E-02  0.1123996E+00
         -1   -1    0    0    0  501 -0.00000000000E+00  0.00000000000E+00  0.17993473571E+02  0.17993473571E+02  0.00000000000E+00 0.  1.
          1   -1    0    0  502    0  0.00000000000E+00 -0.00000000000E+00 -0.31392317477E+04  0.31392317477E+04  0.00000000000E+00 0. -1.
          6    1    1    2  502    0 -0.49930256317E+02 -0.15027817246E+03 -0.18443800328E+04  0.18591391194E+04  0.17200000000E+03 0. -1.
         -6    1    1    2    0  501  0.49930256317E+02  0.15027817246E+03 -0.12768582413E+04  0.12980861019E+04  0.17200000000E+03 0.  1.
</event>
<event>
 4    1  0.3191769E-002  0.1802115E+03  0.7818608E-02  0.1167599E+00
          2   -1    0    0  502    0  0.00000000000E+00  0.00000000000E+00  0.25873631516E+04  0.25873631516E+04  0.00000000000E+00 0. -1.
         -2   -1    0    0    0  501 -0.00000000000E+00 -0.00000000000E+00 -0.16732046889E+02  0.16732046889E+02  0.00000000000E+00 0.  1.
          6    1    1    2  502    0  0.18727730826E+02  0.50412858137E+02  0.19361205726E+04  0.19444894075E+04  0.17200000000E+03 0. -1.
         -6    1    1    2    0  501 -0.18727730826E+02 -0.50412858137E+02  0.63451053205E+03  0.65960579095E+03  0.17200000000E+03 0.  1.
</event>
<event>
 4    1  0.3191769E-002  0.2474356E+03  0.7818608E-02  0.1114936E+00
          2   -1    0    0  502    0  0.00000000000E+00  0.00000000000E+00  0.25494244665E+04  0.25494244665E+04  0.00000000000E+00 0. -1.
         -2   -1    0    0    0  501 -0.00000000000E+00 -0.00000000000E+00 -0.24151710163E+02  0.24151710163E+02  0.00000000000E+00 0.  1.
          6    1    1    2  502    0 -0.16991005813E+03 -0.52639988006E+02  0.13594538317E+04  0.13817883763E+04  0.17200000000E+03 0. -1.
         -6    1    1    2    0  501  0.16991005813E+03  0.52639988006E+02  0.11658189246E+04  0.11917878004E+04  0.17200000000E+03 0.  1.
</event>
<event>
 4    1  0.3191769E-002  0.1828355E+03  0.7818608E-02  0.1165087E+00
          1   -1    0    0  502    0  0.00000000000E+00  0.00000000000E+00  0.21202557730E+02  0.21202557730E+02  0.00000000000E+00 0. -1.
         -1   -1    0    0    0  501 -0.00000000000E+00 -0.00000000000E+00 -0.18721271681E+04  0.18721271681E+04  0.00000000000E+00 0.  1.
          6    1    1    2  502    0 -0.36464180251E+02  0.50151685659E+02 -0.54936783469E+03  0.57899382190E+03  0.17200000000E+03 0. -1.
         -6    1    1    2    0  501  0.36464180251E+02 -0.50151685659E+02 -0.13015567757E+04  0.13143359039E+04  0.17200000000E+03 0.  1.
</event>
<event>
 4    1  0.3191769E-002  0.2955596E+03  0.7818608E-02  0.1087482E+00
         -2   -1    0    0    0  501 -0.00000000000E+00  0.00000000000E+00  0.18868754720E+03  0.18868754720E+03  0.00000000000E+00 0.  1.
          2   -1    0    0  502    0  0.00000000000E+00 -0.00000000000E+00 -0.71939854514E+03  0.71939854514E+03  0.00000000000E+00 0. -1.
          6    1    1    2  502    0 -0.20573681806E+03  0.12427319507E+03 -0.53643760964E+03  0.61247103961E+03  0.17200000000E+03 0. -1.
         -6    1    1    2    0  501  0.20573681806E+03 -0.12427319507E+03  0.57266116998E+01  0.29561505273E+03  0.17200000000E+03 0.  1.
</event>
<event>
 4    1  0.3191769E-002  0.6755270E+03  0.7818608E-02  0.9760024E-01
         -2   -1    0    0    0  501 -0.00000000000E+00  0.00000000000E+00  0.18718921538E+03  0.18718921538E+03  0.00000000000E+00 0.  1.
          2   -1    0    0  502    0  0.00000000000E+00 -0.00000000000E+00 -0.33683084584E+04  0.33683084584E+04  0.00000000000E+00 0. -1.
          6    1    1    2  502    0 -0.48312131292E+03  0.43971190965E+03 -0.25249234964E+04  0.26137282623E+04  0.17200000000E+03 0. -1.
         -6    1    1    2    0  501  0.48312131292E+03 -0.43971190965E+03 -0.65619574659E+03  0.94176941144E+03  0.17200000000E+03 0.  1.
</event>
<event>
 4    1  0.3191769E-002  0.1987282E+03  0.7818608E-02  0.1150816E+00
         -2   -1    0    0    0  501 -0.00000000000E+00  0.00000000000E+00  0.49594137816E+02  0.49594137816E+02  0.00000000000E+00 0.  1.
          2   -1    0    0  502    0  0.00000000000E+00 -0.00000000000E+00 -0.90204688099E+03  0.90204688099E+03  0.00000000000E+00 0. -1.
          6    1    1    2  502    0  0.41205292806E+02 -0.90614673956E+02 -0.26332770653E+03  0.32990055519E+03  0.17200000000E+03 0.  1.
         -6    1    1    2    0  501 -0.41205292806E+02  0.90614673956E+02 -0.58912503665E+03  0.62174046362E+03  0.17200000000E+03 0.  1.
</event>
<event>
 4    1  0.3191769E-002  0.4763570E+03  0.7818608E-02  0.1020141E+00
          2   -1    0    0  502    0  0.00000000000E+00  0.00000000000E+00  0.16112976470E+04  0.16112976470E+04  0.00000000000E+00 0. -1.
         -2   -1    0    0    0  501 -0.00000000000E+00 -0.00000000000E+00 -0.23433087812E+03  0.23433087812E+03  0.00000000000E+00 0.  1.
          6    1    1    2  502    0  0.41242631820E+03 -0.16503488732E+03  0.12714072034E+04  0.13577158241E+04  0.17200000000E+03 0. -1.
         -6    1    1    2    0  501 -0.41242631820E+03  0.16503488732E+03  0.10555956542E+03  0.48791270103E+03  0.17200000000E+03 0.  1.
</event>
<event>
 4    1  0.3191769E-002  0.2205050E+03  0.7818608E-02  0.1133507E+00
         -2   -1    0    0    0  501 -0.00000000000E+00  0.00000000000E+00  0.21127024721E+02  0.21127024721E+02  0.00000000000E+00 0.  1.
          2   -1    0    0  502    0  0.00000000000E+00 -0.00000000000E+00 -0.23780932406E+04  0.23780932406E+04  0.00000000000E+00 0. -1.
          6    1    1    2  502    0  0.10205559132E+03  0.92860748327E+02 -0.13938637650E+04  0.14111975970E+04  0.17200000000E+03 0. -1.
         -6    1    1    2    0  501 -0.10205559132E+03 -0.92860748327E+02 -0.96310245090E+03  0.98802266838E+03  0.17200000000E+03 0. -1.
</event>
<event>
 4    1  0.3191769E-002  0.2494785E+03  0.7818608E-02  0.1113635E+00
         -2   -1    0    0    0  501 -0.00000000000E+00  0.00000000000E+00  0.49454641659E+02  0.49454641659E+02  0.00000000000E+00 0.  1.
          2   -1    0    0  502    0  0.00000000000E+00 -0.00000000000E+00 -0.13027179294E+04  0.13027179294E+04  0.00000000000E+00 0. -1.
          6    1    1    2  502    0  0.11935936044E+02  0.18031372492E+03 -0.75116702659E+03  0.79151210212E+03  0.17200000000E+03 0. -1.
         -6    1    1    2    0  501 -0.11935936044E+02 -0.18031372492E+03 -0.50209626110E+03  0.56066046889E+03  0.17200000000E+03 0.  1.
</event>
<event>
 4    1  0.3191769E-002  0.4218614E+03  0.7818608E-02  0.1036462E+00
         -1   -1    0    0    0  501 -0.00000000000E+00  0.00000000000E+00  0.84509701416E+03  0.84509701416E+03  0.00000000000E+00 0.  1.
          1   -1    0    0  502    0  0.00000000000E+00 -0.00000000000E+00 -0.30887610745E+03  0.30887610745E+03  0.00000000000E+00 0. -1.
          6    1    1    2  502    0 -0.35841744613E+03  0.14113819945E+03 -0.57369792486E+02  0.42574446576E+03  0.17200000000E+03 0. -1.
         -6    1    1    2    0  501  0.35841744613E+03 -0.14113819945E+03  0.59359069920E+03  0.72822865586E+03  0.17200000000E+03 0.  1.
</event>
<event>
 4    1  0.3191769E-002  0.2038994E+03  0.7818608E-02  0.1146490E+00
         -1   -1    0    0    0  501 -0.00000000000E+00  0.00000000000E+00  0.38800447677E+03  0.38800447677E+03  0.00000000000E+00 0.  1.
          1   -1    0    0  502    0  0.00000000000E+00 -0.00000000000E+00 -0.12377207049E+03  0.12377207049E+03  0.00000000000E+00 0. -1.
          6    1    1    2  502    0  0.86023056578E+02  0.67756775427E+02  0.22588808243E+03  0.30430309341E+03  0.17200000000E+03 0.  1.
         -6    1    1    2    0  501 -0.86023056578E+02 -0.67756775427E+02  0.38344323854E+02  0.20747345385E+03  0.17200000000E+03 0. -1.
</event>
<event>
 4    1  0.3191769E-002  0.1989302E+03  0.7818608E-02  0.1150645E+00
          1   -1    0    0  502    0  0.00000000000E+00  0.00000000000E+00  0.12001636131E+04  0.12001636131E+04  0.00000000000E+00 0. -1.
         -1   -1    0    0    0  501 -0.00000000000E+00 -0.00000000000E+00 -0.42088178357E+02  0.42088178357E+02  0.00000000000E+00 0.  1.
          6    1    1    2  502    0  0.26719112201E+02  0.96308482742E+02  0.86809065882E+03  0.89059228985E+03  0.17200000000E+03 0. -1.
         -6    1    1    2    0  501 -0.26719112201E+02 -0.96308482742E+02  0.28998477592E+03  0.35165950160E+03  0.17200000000E+03 0.  1.
</event>
<event>
 4    1  0.3191769E-002  0.2076757E+03  0.7818608E-02  0.1143420E+00
          1   -1    0    0  502    0  0.00000000000E+00  0.00000000000E+00  0.13654396167E+04  0.13654396167E+04  0.00000000000E+00 0. -1.
         -1   -1    0    0    0  501 -0.00000000000E+00 -0.00000000000E+00 -0.33866038729E+02  0.33866038729E+02  0.00000000000E+00 0.  1.
          6    1    1    2  502    0 -0.20355392078E+02  0.11458996244E+03  0.48425954764E+03  0.52691224218E+03  0.17200000000E+03 0. -1.
         -6    1    1    2    0  501  0.20355392078E+02 -0.11458996244E+03  0.84731403028E+03  0.87239341320E+03  0.17200000000E+03 0. -1.
</event>
<event>
 4    1  0.3191769E-002  0.2054719E+03  0.7818608E-02  0.1145203E+00
         -1   -1    0    0    0  501 -0.00000000000E+00  0.00000000000E+00  0.82130264290E+02  0.82130264290E+02  0.00000000000E+00 0.  1.
          1   -1    0    0  502    0  0.00000000000E+00 -0.00000000000E+00 -0.68060394545E+03  0.68060394545E+03  0.00000000000E+00 0. -1.
          6    1    1    2  502    0 -0.10607774902E+03  0.37178344969E+02 -0.11057723380E+03  0.23333675837E+03  0.17200000000E+03 0. -1.
         -6    1    1    2    0  501  0.10607774902E+03 -0.37178344969E+02 -0.48789644736E+03  0.52939745137E+03  0.17200000000E+03 0. -1.
</event>
<event>
 4    1  0.3191769E-002  0.2443793E+03  0.7818608E-02  0.1116909E+00
         -3   -1    0    0    0  501 -0.00000000000E+00  0.00000000000E+00  0.22703405831E+03  0.22703405831E+03  0.00000000000E+00 0.  1.
          3   -1    0    0  502    0  0.00000000000E+00 -0.00000000000E+00 -0.27814240331E+03  0.27814240331E+03  0.00000000000E+00 0. -1.
          6    1    1    2  502    0  0.26231144903E+02  0.17160762334E+03  0.33284449527E+02  0.24663556907E+03  0.17200000000E+03 0. -1.
         -6    1    1    2    0  501 -0.26231144903E+02 -0.17160762334E+03 -0.84392794523E+02  0.25854089255E+03  0.17200000000E+03 0. -1.
</event>
<event>
 4    1  0.3191769E-002  0.2642126E+03  0.7818608E-02  0.1104638E+00
          2   -1    0    0  502    0  0.00000000000E+00  0.00000000000E+00  0.39352723722E+03  0.39352723722E+03  0.00000000000E+00 0. -1.
         -2   -1    0    0    0  501 -0.00000000000E+00 -0.00000000000E+00 -0.28295156256E+03  0.28295156256E+03  0.00000000000E+00 0.  1.
          6    1    1    2  502    0 -0.10613935500E+03 -0.17017272042E+03  0.26188213460E+03  0.37200883037E+03  0.17200000000E+03 0. -1.
         -6    1    1    2    0  501  0.10613935500E+03  0.17017272042E+03 -0.15130645994E+03  0.30446996941E+03  0.17200000000E+03 0.  1.
</event>
<event>
 4    1  0.3191769E-002  0.2018572E+03  0.7818608E-02  0.1148181E+00
         -2   -1    0    0    0  501 -0.00000000000E+00  0.00000000000E+00  0.60368539782E+02  0.60368539782E+02  0.00000000000E+00 0.  1.
          2   -1    0    0  502    0  0.00000000000E+00 -0.00000000000E+00 -0.68481866821E+03  0.68481866821E+03  0.00000000000E+00 0. -1.
          6    1    1    2  502    0  0.48320299623E+02 -0.93954638166E+02 -0.26751909000E+03  0.33513100260E+03  0.17200000000E+03 0.  1.
         -6    1    1    2    0  501 -0.48320299623E+02  0.93954638166E+02 -0.35693103843E+03  0.41005620540E+03  0.17200000000E+03 0. -1.
</event>
<event>
 4    1  0.3191769E-002  0.1825164E+03  0.7818608E-02  0.1165390E+00
         -1   -1    0    0    0  501 -0.00000000000E+00  0.00000000000E+00  0.14833572777E+03  0.14833572777E+03  0.00000000000E+00 0.  1.
          1   -1    0    0  502    0  0.00000000000E+00 -0.00000000000E+00 -0.27998859350E+03  0.27998859350E+03  0.00000000000E+00 0. -1.
          6    1    1    2  502    0  0.19376521850E+02  0.57903291160E+02 -0.16110330096E+03  0.24344714890E+03  0.17200000000E+03 0.  1.
         -6    1    1    2    0  501 -0.19376521850E+02 -0.57903291160E+02  0.29450435232E+02  0.18487717236E+03  0.17200000000E+03 0.  1.
</event>
<event>
 4    1  0.3191769E-002  0.5242704E+03  0.7818608E-02  0.1007631E+00
          2   -1    0    0  502    0  0.00000000000E+00  0.00000000000E+00  0.96058816819E+03  0.96058816819E+03  0.00000000000E+00 0. -1.
         -2   -1    0    0    0  501 -0.00000000000E+00 -0.00000000000E+00 -0.29613229534E+03  0.29613229534E+03  0.00000000000E+00 0.  1.
          6    1    1    2  502    0 -0.46956144345E+03  0.15744048955E+03  0.21678383266E+03  0.56732238369E+03  0.17200000000E+03 0. -1.
         -6    1    1    2    0  501  0.46956144345E+03 -0.15744048955E+03  0.44767204019E+03  0.68939807985E+03  0.17200000000E+03 0.  1.
</event>
<event>
 4    1  0.3191769E-002  0.1798755E+03  0.7818608E-02  0.1167924E+00
         -2   -1    0    0    0  501 -0.00000000000E+00  0.00000000000E+00  0.29827217530E+02  0.29827217530E+02  0.00000000000E+00 0.  1.
          2   -1    0    0  502    0  0.00000000000E+00 -0.00000000000E+00 -0.18567334304E+04  0.18567334304E+04  0.00000000000E+00 0. -1.
          6    1    1    2  502    0 -0.36138960848E+02 -0.38277453846E+02 -0.15216846142E+04  0.15322791042E+04  0.17200000000E+03 0. -1.
         -6    1    1    2    0  501  0.36138960848E+02  0.38277453846E+02 -0.30522159872E+03  0.35428154382E+03  0.17200000000E+03 0.  1.
</event>
<event>
 4    1  0.3191769E-002  0.2138572E+03  0.7818608E-02  0.1138547E+00
         -2   -1    0    0    0  501 -0.00000000000E+00  0.00000000000E+00  0.62853955482E+02  0.62853955482E+02  0.00000000000E+00 0.  1.
          2   -1    0    0  502    0  0.00000000000E+00 -0.00000000000E+00 -0.88292994636E+03  0.88292994636E+03  0.00000000000E+00 0. -1.
          6    1    1    2  502    0 -0.98751795464E+02 -0.79993646959E+02 -0.21171465035E+03  0.30092855271E+03  0.17200000000E+03 0. -1.
         -6    1    1    2    0  501  0.98751795464E+02  0.79993646959E+02 -0.60836134053E+03  0.64485534914E+03  0.17200000000E+03 0. -1.
</event>
<event>
 4    1  0.3191769E-002  0.3047436E+03  0.7818608E-02  0.1082893E+00
         -2   -1    0    0    0  501 -0.00000000000E+00  0.00000000000E+00  0.67706964954E+02  0.67706964954E+02  0.00000000000E+00 0.  1.
          2   -1    0    0  502    0  0.00000000000E+00 -0.00000000000E+00 -0.13716377234E+04  0.13716377234E+04  0.00000000000E+00 0. -1.
          6    1    1    2  502    0  0.24740718539E+03  0.45544824402E+02 -0.65405219397E+03  0.72156283084E+03  0.17200000000E+03 0. -1.
         -6    1    1    2    0  501 -0.24740718539E+03 -0.45544824402E+02 -0.64987856448E+03  0.71778185752E+03  0.17200000000E+03 0.  1.
</event>
<event>
 4    1  0.3191769E-002  0.1933482E+03  0.7818608E-02  0.1155476E+00
         -2   -1    0    0    0  501 -0.00000000000E+00  0.00000000000E+00  0.51290286631E+02  0.51290286631E+02  0.00000000000E+00 0.  1.
          2   -1    0    0  502    0  0.00000000000E+00 -0.00000000000E+00 -0.73574056750E+03  0.73574056750E+03  0.00000000000E+00 0. -1.
          6    1    1    2  502    0 -0.10100738690E+02 -0.87735459022E+02 -0.38027487359E+03  0.42660580771E+03  0.17200000000E+03 0. -1.
         -6    1    1    2    0  501  0.10100738690E+02  0.87735459022E+02 -0.30417540728E+03  0.36042504642E+03  0.17200000000E+03 0.  1.
</event>
<event>
 4    1  0.3191769E-002  0.1766885E+03  0.7818608E-02  0.1171047E+00
         -2   -1    0    0    0  501 -0.00000000000E+00  0.00000000000E+00  0.23960107999E+03  0.23960107999E+03  0.00000000000E+00 0.  1.
          2   -1    0    0  502    0  0.00000000000E+00 -0.00000000000E+00 -0.13323564450E+03  0.13323564450E+03  0.00000000000E+00 0. -1.
          6    1    1    2  502    0 -0.37987488548E+02 -0.13848799656E+02  0.80877302715E+02  0.19431926470E+03  0.17200000000E+03 0.  1.
         -6    1    1    2    0  501  0.37987488548E+02  0.13848799656E+02  0.25488132778E+02  0.17851745979E+03  0.17200000000E+03 0. -1.
</event>
<event>
 4    1  0.3191769E-002  0.3312933E+03  0.7818608E-02  0.1070566E+00
          2   -1    0    0  502    0  0.00000000000E+00  0.00000000000E+00  0.34003113576E+04  0.34003113576E+04  0.00000000000E+00 0. -1.
         -2   -1    0    0    0  501 -0.00000000000E+00 -0.00000000000E+00 -0.61528251317E+02  0.61528251317E+02  0.00000000000E+00 0.  1.
          6    1    1    2  502    0  0.88456388634E+02  0.26897348061E+03  0.28628420976E+04  0.28819472829E+04  0.17200000000E+03 0. -1.
         -6    1    1    2    0  501 -0.88456388634E+02 -0.26897348061E+03  0.47594100869E+03  0.57989232596E+03  0.17200000000E+03 0.  1.
</event>
<event>
 4    1  0.3191769E-002  0.2159123E+03  0.7818608E-02  0.1136968E+00
         -2   -1    0    0    0  501 -0.00000000000E+00  0.00000000000E+00  0.29568205210E+02  0.29568205210E+02  0.00000000000E+00 0.  1.
          2   -1    0    0  502    0  0.00000000000E+00 -0.00000000000E+00 -0.29168754336E+04  0.29168754336E+04  0.00000000000E+00 0. -1.
          6    1    1    2  502    0  0.12264467941E+03 -0.44636238493E+02 -0.24422762686E+04  0.24518016811E+04  0.17200000000E+03 0. -1.
         -6    1    1    2    0  501 -0.12264467941E+03  0.44636238493E+02 -0.44503095977E+03  0.49464195771E+03  0.17200000000E+03 0.  1.
</event>
<event>
 4    1  0.3191769E-002  0.1753561E+03  0.7818608E-02  0.1172375E+00
          2   -1    0    0  502    0  0.00000000000E+00  0.00000000000E+00  0.26217895784E+03  0.26217895784E+03  0.00000000000E+00 0. -1.
         -2   -1    0    0    0  501 -0.00000000000E+00 -0.00000000000E+00 -0.14050867432E+03  0.14050867432E+03  0.00000000000E+00 0.  1.
          6    1    1    2  502    0  0.32971546668E+02  0.88680177723E+01  0.14269074794E+03  0.22607612474E+03  0.17200000000E+03 0. -1.
         -6    1    1    2    0  501 -0.32971546668E+02 -0.88680177723E+01 -0.21020464415E+02  0.17661150742E+03  0.17200000000E+03 0.  1.
</event>
<event>
 4    1  0.3191769E-002  0.2020941E+03  0.7818608E-02  0.1147984E+00
          2   -1    0    0  502    0  0.00000000000E+00  0.00000000000E+00  0.52511783445E+03  0.52511783445E+03  0.00000000000E+00 0. -1.
         -2   -1    0    0    0  501 -0.00000000000E+00 -0.00000000000E+00 -0.92003872787E+02  0.92003872787E+02  0.00000000000E+00 0.  1.
          6    1    1    2  502    0 -0.95829375041E+02 -0.45549361227E+02  0.33789438988E+03  0.39371897610E+03  0.17200000000E+03 0. -1.
         -6    1    1    2    0  501  0.95829375041E+02  0.45549361227E+02  0.95219571784E+02  0.22340273114E+03  0.17200000000E+03 0.  1.
</event>
<event>
 4    1  0.3191769E-002  0.1813266E+03  0.7818608E-02  0.1166525E+00
         -2   -1    0    0    0  501 -0.00000000000E+00  0.00000000000E+00  0.28481542494E+03  0.28481542494E+03  0.00000000000E+00 0.  1.
          2   -1    0    0  502    0  0.00000000000E+00 -0.00000000000E+00 -0.17317758618E+03  0.17317758618E+03  0.00000000000E+00 0. -1.
          6    1    1    2  502    0 -0.45013335283E+02 -0.35624841576E+02  0.18804258591E+03  0.26122661389E+03  0.17200000000E+03 0.  1.
         -6    1    1    2    0  501  0.45013335283E+02  0.35624841576E+02 -0.76404747147E+02  0.19676639723E+03  0.17200000000E+03 0. -1.
</event>
<event>
 4    1  0.3191769E-002  0.2121544E+03  0.7818608E-02  0.1139871E+00
         -1   -1    0    0    0  501 -0.00000000000E+00  0.00000000000E+00  0.40800034638E+02  0.40800034638E+02  0.00000000000E+00 0.  1.
          1   -1    0    0  502    0  0.00000000000E+00 -0.00000000000E+00 -0.11032265546E+04  0.11032265546E+04  0.00000000000E+00 0. -1.
          6    1    1    2  502    0  0.71259126508E+02  0.10172327686E+03 -0.53520635652E+03  0.57572157526E+03  0.17200000000E+03 0. -1.
         -6    1    1    2    0  501 -0.71259126508E+02 -0.10172327686E+03 -0.52722016343E+03  0.56830501396E+03  0.17200000000E+03 0. -1.
</event>
<event>
 4    1  0.3191769E-002  0.4115257E+03  0.7818608E-02  0.1039860E+00
          2   -1    0    0  502    0  0.00000000000E+00  0.00000000000E+00  0.40085633094E+04  0.40085633094E+04  0.00000000000E+00 0. -1.
         -2   -1    0    0    0  501 -0.00000000000E+00 -0.00000000000E+00 -0.42431631972E+02  0.42431631972E+02  0.00000000000E+00 0.  1.
          6    1    1    2  502    0  0.19775980524E+03 -0.31727029414E+03  0.18497813177E+04  0.18950050932E+04  0.17200000000E+03 0. -1.
         -6    1    1    2    0  501 -0.19775980524E+03  0.31727029414E+03  0.21163503598E+04  0.21559898482E+04  0.17200000000E+03 0.  1.
</event>
<event>
 4    1  0.3191769E-002  0.1897432E+03  0.7818608E-02  0.1158693E+00
         -2   -1    0    0    0  501 -0.00000000000E+00  0.00000000000E+00  0.43363811593E+02  0.43363811593E+02  0.00000000000E+00 0.  1.
          2   -1    0    0  502    0  0.00000000000E+00 -0.00000000000E+00 -0.99622537504E+03  0.99622537504E+03  0.00000000000E+00 0. -1.
          6    1    1    2  502    0  0.79216334869E+02  0.11968717493E+02 -0.68860110735E+03  0.71426463090E+03  0.17200000000E+03 0. -1.
         -6    1    1    2    0  501 -0.79216334869E+02 -0.11968717493E+02 -0.26426045610E+03  0.32532455574E+03  0.17200000000E+03 0.  1.
</event>
<event>
 4    1  0.3191769E-002  0.2818352E+03  0.7818608E-02  0.1094691E+00
          1   -1    0    0  502    0  0.00000000000E+00  0.00000000000E+00  0.25136712718E+04  0.25136712718E+04  0.00000000000E+00 0. -1.
         -1   -1    0    0    0  501 -0.00000000000E+00 -0.00000000000E+00 -0.42931786381E+02  0.42931786381E+02  0.00000000000E+00 0.  1.
          6    1    1    2  502    0 -0.12200122836E+01 -0.22326121907E+03  0.18921200338E+04  0.19129948465E+04  0.17200000000E+03 0. -1.
         -6    1    1    2    0  501  0.12200122836E+01  0.22326121907E+03  0.57861945163E+03  0.64360821171E+03  0.17200000000E+03 0.  1.
</event>
<event>
 4    1  0.3191769E-002  0.1816649E+03  0.7818608E-02  0.1166201E+00
          3   -1    0    0  502    0  0.00000000000E+00  0.00000000000E+00  0.45487329778E+02  0.45487329778E+02  0.00000000000E+00 0. -1.
         -3   -1    0    0    0  501 -0.00000000000E+00 -0.00000000000E+00 -0.72598119135E+03  0.72598119135E+03  0.00000000000E+00 0.  1.
          6    1    1    2  502    0 -0.54088553998E+02  0.22193819700E+02 -0.33056412336E+03  0.37719328859E+03  0.17200000000E+03 0.  1.
         -6    1    1    2    0  501  0.54088553998E+02 -0.22193819700E+02 -0.34992973821E+03  0.39427523254E+03  0.17200000000E+03 0. -1.
</event>
<event>
 4    1  0.3191769E-002  0.2509651E+03  0.7818608E-02  0.1112696E+00
         -1   -1    0    0    0  501 -0.00000000000E+00  0.00000000000E+00  0.64821622705E+02  0.64821622705E+02  0.00000000000E+00 0.  1.
          1   -1    0    0  502    0  0.00000000000E+00 -0.00000000000E+00 -0.12214845795E+04  0.12214845795E+04  0.00000000000E+00 0. -1.
          6    1    1    2  502    0 -0.15566872898E+03  0.95743110535E+02 -0.86920384065E+03  0.90470924224E+03  0.17200000000E+03 0. -1.
         -6    1    1    2    0  501  0.15566872898E+03 -0.95743110535E+02 -0.28745911615E+03  0.38159695996E+03  0.17200000000E+03 0.  1.
</event>
<event>
 4    1  0.3191769E-002  0.2452577E+03  0.7818608E-02  0.1116339E+00
          1   -1    0    0  502    0  0.00000000000E+00  0.00000000000E+00  0.15657190762E+04  0.15657190762E+04  0.00000000000E+00 0. -1.
         -1   -1    0    0    0  501 -0.00000000000E+00 -0.00000000000E+00 -0.84271052530E+02  0.84271052530E+02  0.00000000000E+00 0.  1.
          6    1    1    2  502    0 -0.24814509741E+02 -0.17306520991E+03  0.13492759995E+04  0.13713850844E+04  0.17200000000E+03 0. -1.
         -6    1    1    2    0  501  0.24814509741E+02  0.17306520991E+03  0.13217202416E+03  0.27860504436E+03  0.17200000000E+03 0.  1.
</event>
<event>
 4    1  0.3191769E-002  0.4153679E+03  0.7818608E-02  0.1038585E+00
          2   -1    0    0  502    0  0.00000000000E+00  0.00000000000E+00  0.27728183918E+04  0.27728183918E+04  0.00000000000E+00 0. -1.
         -2   -1    0    0    0  501 -0.00000000000E+00 -0.00000000000E+00 -0.16323279111E+03  0.16323279111E+03  0.00000000000E+00 0.  1.
          6    1    1    2  502    0  0.22045178824E+03  0.30716041515E+03  0.24596110807E+04  0.24944372472E+04  0.17200000000E+03 0. -1.
         -6    1    1    2    0  501 -0.22045178824E+03 -0.30716041515E+03  0.14997451990E+03  0.44161393569E+03  0.17200000000E+03 0.  1.
</event>
<event>
 4    1  0.3191769E-002  0.3088908E+03  0.7818608E-02  0.1080879E+00
         -2   -1    0    0    0  501 -0.00000000000E+00  0.00000000000E+00  0.33630548583E+03  0.33630548583E+03  0.00000000000E+00 0.  1.
          2   -1    0    0  502    0  0.00000000000E+00 -0.00000000000E+00 -0.28381284999E+03  0.28381284999E+03  0.00000000000E+00 0. -1.
          6    1    1    2  502    0 -0.81302567054E+02 -0.24335045989E+03  0.20371629994E+02  0.30956187919E+03  0.17200000000E+03 0. -1.
         -6    1    1    2    0  501  0.81302567054E+02  0.24335045989E+03  0.32121005847E+02  0.31055645663E+03  0.17200000000E+03 0.  1.
</event>
<event>
 4    1  0.3191769E-002  0.4451092E+03  0.7818608E-02  0.1029191E+00
         -1   -1    0    0    0  501 -0.00000000000E+00  0.00000000000E+00  0.15611995472E+04  0.15611995472E+04  0.00000000000E+00 0.  1.
          1   -1    0    0  502    0  0.00000000000E+00 -0.00000000000E+00 -0.36089556827E+03  0.36089556827E+03  0.00000000000E+00 0. -1.
          6    1    1    2  502    0  0.19213542785E+03  0.36279771445E+03 -0.17369369565E+03  0.47779881138E+03  0.17200000000E+03 0. -1.
         -6    1    1    2    0  501 -0.19213542785E+03 -0.36279771445E+03  0.13739976746E+04  0.14442963041E+04  0.17200000000E+03 0.  1.
</event>
<event>
 4    1  0.3191769E-002  0.1937670E+03  0.7818608E-02  0.1155107E+00
          1   -1    0    0  502    0  0.00000000000E+00  0.00000000000E+00  0.28530403617E+03  0.28530403617E+03  0.00000000000E+00 0. -1.
         -1   -1    0    0    0  501 -0.00000000000E+00 -0.00000000000E+00 -0.13482619965E+03  0.13482619965E+03  0.00000000000E+00 0.  1.
          6    1    1    2  502    0  0.57337882979E+02 -0.68366810329E+02  0.10773992082E+03  0.22170598575E+03  0.17200000000E+03 0. -1.
         -6    1    1    2    0  501 -0.57337882979E+02  0.68366810329E+02  0.42737915702E+02  0.19842425007E+03  0.17200000000E+03 0.  1.
</event>
<event>
 4    1  0.3191769E-002  0.3007651E+03  0.7818608E-02  0.1084859E+00
         -2   -1    0    0    0  501 -0.00000000000E+00  0.00000000000E+00  0.28202127460E+03  0.28202127460E+03  0.00000000000E+00 0.  1.
          2   -1    0    0  502    0  0.00000000000E+00 -0.00000000000E+00 -0.44731745110E+03  0.44731745110E+03  0.00000000000E+00 0. -1.
          6    1    1    2  502    0 -0.16403757612E+03  0.18430231494E+03  0.11132620894E+03  0.32070733460E+03  0.17200000000E+03 0. -1.
         -6    1    1    2    0  501  0.16403757612E+03 -0.18430231494E+03 -0.27662238544E+03  0.40863139111E+03  0.17200000000E+03 0.  1.
</event>
<event>
 4    1  0.3191769E-002  0.1927531E+03  0.7818608E-02  0.1156001E+00
          4   -1    0    0  502    0  0.00000000000E+00  0.00000000000E+00  0.18513038622E+03  0.18513038622E+03  0.00000000000E+00 0. -1.
         -4   -1    0    0    0  501 -0.00000000000E+00 -0.00000000000E+00 -0.20990056674E+03  0.20990056674E+03  0.00000000000E+00 0.  1.
          6    1    1    2  502    0 -0.67173387947E+02  0.55294681585E+02 -0.53760665186E+02  0.20010990725E+03  0.17200000000E+03 0.  1.
         -6    1    1    2    0  501  0.67173387947E+02 -0.55294681585E+02  0.28990484670E+02  0.19492104571E+03  0.17200000000E+03 0.  1.
</event>
<event>
 4    1  0.3191769E-002  0.1901998E+03  0.7818608E-02  0.1158281E+00
         -2   -1    0    0    0  501 -0.00000000000E+00  0.00000000000E+00  0.10850904913E+03  0.10850904913E+03  0.00000000000E+00 0.  1.
          2   -1    0    0  502    0  0.00000000000E+00 -0.00000000000E+00 -0.11720171328E+04  0.11720171328E+04  0.00000000000E+00 0. -1.
          6    1    1    2  502    0 -0.14552667610E+02 -0.79876036818E+02 -0.10733502716E+04  0.10900719091E+04  0.17200000000E+03 0. -1.
         -6    1    1    2    0  501  0.14552667610E+02  0.79876036818E+02  0.98421879239E+01  0.19045427287E+03  0.17200000000E+03 0.  1.
</event>
<event>
 4    1  0.3191769E-002  0.3741299E+03  0.7818608E-02  0.1053125E+00
         -2   -1    0    0    0  501 -0.00000000000E+00  0.00000000000E+00  0.35276977719E+03  0.35276977719E+03  0.00000000000E+00 0.  1.
          2   -1    0    0  502    0  0.00000000000E+00 -0.00000000000E+00 -0.43061757886E+03  0.43061757886E+03  0.00000000000E+00 0. -1.
          6    1    1    2  502    0 -0.19159408044E+03  0.27144223810E+03 -0.14871792702E+03  0.40260427482E+03  0.17200000000E+03 0. -1.
         -6    1    1    2    0  501  0.19159408044E+03 -0.27144223810E+03  0.70870125352E+02  0.38078308123E+03  0.17200000000E+03 0.  1.
</event>
<event>
 4    1  0.3191769E-002  0.2011250E+03  0.7818608E-02  0.1148793E+00
         -1   -1    0    0    0  501 -0.00000000000E+00  0.00000000000E+00  0.10628797663E+03  0.10628797663E+03  0.00000000000E+00 0.  1.
          1   -1    0    0  502    0  0.00000000000E+00 -0.00000000000E+00 -0.70942030947E+03  0.70942030947E+03  0.00000000000E+00 0. -1.
          6    1    1    2  502    0 -0.32263055837E+02  0.99127974398E+02 -0.57924607866E+03  0.61316986205E+03  0.17200000000E+03 0. -1.
         -6    1    1    2    0  501  0.32263055837E+02 -0.99127974398E+02 -0.23886254173E+02  0.20253842405E+03  0.17200000000E+03 0.  1.
</event>
<event>
 4    1  0.3191769E-002  0.1967450E+03  0.7818608E-02  0.1152515E+00
         -4   -1    0    0    0  501 -0.00000000000E+00  0.00000000000E+00  0.24175479572E+03  0.24175479572E+03  0.00000000000E+00 0.  1.
          4   -1    0    0  502    0  0.00000000000E+00 -0.00000000000E+00 -0.24768139643E+03  0.24768139643E+03  0.00000000000E+00 0. -1.
          6    1    1    2  502    0  0.75604083334E+02 -0.58383334011E+02 -0.14847164655E+03  0.24648006195E+03  0.17200000000E+03 0. -1.
         -6    1    1    2    0  501 -0.75604083334E+02  0.58383334011E+02  0.14254504584E+03  0.24295613020E+03  0.17200000000E+03 0.  1.
</event>
<event>
 4    1  0.3191769E-002  0.2305611E+03  0.7818608E-02  0.1126245E+00
          2   -1    0    0  502    0  0.00000000000E+00  0.00000000000E+00  0.19898062907E+04  0.19898062907E+04  0.00000000000E+00 0. -1.
         -2   -1    0    0    0  501 -0.00000000000E+00 -0.00000000000E+00 -0.56004657779E+02  0.56004657779E+02  0.00000000000E+00 0.  1.
          6    1    1    2  502    0 -0.12535059295E+03 -0.88666010660E+02  0.17066385206E+04  0.17221421175E+04  0.17200000000E+03 0. -1.
         -6    1    1    2    0  501  0.12535059295E+03  0.88666010660E+02  0.22716311233E+03  0.32366883106E+03  0.17200000000E+03 0.  1.
</event>
<event>
 4    1  0.3191769E-002  0.3513907E+03  0.7818608E-02  0.1062046E+00
          4   -1    0    0  502    0  0.00000000000E+00  0.00000000000E+00  0.24993818409E+03  0.24993818409E+03  0.00000000000E+00 0. -1.
         -4   -1    0    0    0  501 -0.00000000000E+00 -0.00000000000E+00 -0.54737698680E+03  0.54737698680E+03  0.00000000000E+00 0.  1.
          6    1    1    2  502    0  0.30309586632E+03  0.44992626913E+02 -0.24257488327E+02  0.35222700975E+03  0.17200000000E+03 0. -1.
         -6    1    1    2    0  501 -0.30309586632E+03 -0.44992626913E+02 -0.27318131438E+03  0.44508816114E+03  0.17200000000E+03 0.  1.
</event>
<event>
 4    1  0.3191769E-002  0.2333643E+03  0.7818608E-02  0.1124294E+00
         -2   -1    0    0    0  501 -0.00000000000E+00  0.00000000000E+00  0.78186855684E+03  0.78186855684E+03  0.00000000000E+00 0.  1.
          2   -1    0    0  502    0  0.00000000000E+00 -0.00000000000E+00 -0.14952325896E+03  0.14952325896E+03  0.00000000000E+00 0. -1.
          6    1    1    2  502    0 -0.10243708883E+03 -0.11992307647E+03 -0.24190583527E+02  0.23461476034E+03  0.17200000000E+03 0. -1.
         -6    1    1    2    0  501  0.10243708883E+03  0.11992307647E+03  0.65653588141E+03  0.69677705546E+03  0.17200000000E+03 0.  1.
</event>
<event>
 4    1  0.3191769E-002  0.3933436E+03  0.7818608E-02  0.1046109E+00
          2   -1    0    0  502    0  0.00000000000E+00  0.00000000000E+00  0.19505990595E+03  0.19505990595E+03  0.00000000000E+00 0. -1.
         -2   -1    0    0    0  501 -0.00000000000E+00 -0.00000000000E+00 -0.79421470019E+03  0.79421470019E+03  0.00000000000E+00 0.  1.
          6    1    1    2  502    0 -0.31512419397E+03 -0.16072314613E+03 -0.28179344909E+03  0.48386644364E+03  0.17200000000E+03 0.  1.
         -6    1    1    2    0  501  0.31512419397E+03  0.16072314613E+03 -0.31736134515E+03  0.50540816250E+03  0.17200000000E+03 0.  1.
</event>
<event>
 4    1  0.3191769E-002  0.2381174E+03  0.7818608E-02  0.1121053E+00
         -2   -1    0    0    0  501 -0.00000000000E+00  0.00000000000E+00  0.40414321607E+03  0.40414321607E+03  0.00000000000E+00 0.  1.
          2   -1    0    0  502    0  0.00000000000E+00 -0.00000000000E+00 -0.14617893606E+03  0.14617893606E+03  0.00000000000E+00 0. -1.
          6    1    1    2  502    0  0.14200820146E+03 -0.83364121361E+02  0.18417980609E+03  0.30103505939E+03  0.17200000000E+03 0. -1.
         -6    1    1    2    0  501 -0.14200820146E+03  0.83364121361E+02  0.73784473917E+02  0.24928709273E+03  0.17200000000E+03 0. -1.
</event>
<event>
 4    1  0.3191769E-002  0.2353360E+03  0.7818608E-02  0.1122939E+00
          1   -1    0    0  502    0  0.00000000000E+00  0.00000000000E+00  0.15706361679E+03  0.15706361679E+03  0.00000000000E+00 0. -1.
         -1   -1    0    0    0  501 -0.00000000000E+00 -0.00000000000E+00 -0.54251921422E+03  0.54251921422E+03  0.00000000000E+00 0.  1.
          6    1    1    2  502    0 -0.53795397683E+02 -0.15134431493E+03  0.14223642324E+02  0.23576547346E+03  0.17200000000E+03 0. -1.
         -6    1    1    2    0  501  0.53795397683E+02  0.15134431493E+03 -0.39967923975E+03  0.46381735755E+03  0.17200000000E+03 0.  1.
</event>
<event>
 4    1  0.3191769E-002  0.3013437E+03  0.7818608E-02  0.1084571E+00
         -1   -1    0    0    0  501 -0.00000000000E+00  0.00000000000E+00  0.27402723048E+03  0.27402723048E+03  0.00000000000E+00 0.  1.
          1   -1    0    0  502    0  0.00000000000E+00 -0.00000000000E+00 -0.50745598225E+03  0.50745598225E+03  0.00000000000E+00 0. -1.
          6    1    1    2  502    0  0.24729332968E+03 -0.83685926189E+01 -0.34687793571E+03  0.45949137808E+03  0.17200000000E+03 0. -1.
         -6    1    1    2    0  501 -0.24729332968E+03  0.83685926189E+01  0.11344918394E+03  0.32199183465E+03  0.17200000000E+03 0.  1.
</event>
<event>
 4    1  0.3191769E-002  0.2140403E+03  0.7818608E-02  0.1138406E+00
         -2   -1    0    0    0  501 -0.00000000000E+00  0.00000000000E+00  0.36587775105E+02  0.36587775105E+02  0.00000000000E+00 0.  1.
          2   -1    0    0  502    0  0.00000000000E+00 -0.00000000000E+00 -0.13337748148E+04  0.13337748148E+04  0.00000000000E+00 0. -1.
          6    1    1    2  502    0  0.10196571835E+03 -0.76369085959E+02 -0.81809962724E+03  0.84563600036E+03  0.17200000000E+03 0. -1.
         -6    1    1    2    0  501 -0.10196571835E+03  0.76369085959E+02 -0.47908741249E+03  0.52472658958E+03  0.17200000000E+03 0.  1.
</event>
<event>
 4    1  0.3191769E-002  0.1905113E+03  0.7818608E-02  0.1158001E+00
         -2   -1    0    0    0  501 -0.00000000000E+00  0.00000000000E+00  0.10609030124E+03  0.10609030124E+03  0.00000000000E+00 0.  1.
          2   -1    0    0  502    0  0.00000000000E+00 -0.00000000000E+00 -0.34763029980E+03  0.34763029980E+03  0.00000000000E+00 0. -1.
          6    1    1    2  502    0  0.77591822633E+01 -0.81549605020E+02 -0.14935806161E+03  0.24207927122E+03  0.17200000000E+03 0. -1.
         -6    1    1    2    0  501 -0.77591822633E+01  0.81549605020E+02 -0.92181936952E+02  0.21164132982E+03  0.17200000000E+03 0.  1.
</event>
<event>
 4    1  0.3191769E-002  0.2663787E+03  0.7818608E-02  0.1103370E+00
          2   -1    0    0  502    0  0.00000000000E+00  0.00000000000E+00  0.22164306627E+04  0.22164306627E+04  0.00000000000E+00 0. -1.
         -2   -1    0    0    0  501 -0.00000000000E+00 -0.00000000000E+00 -0.32732504019E+02  0.32732504019E+02  0.00000000000E+00 0.  1.
          6    1    1    2  502    0 -0.10009665465E+03  0.17707136445E+03  0.12584230855E+04  0.12863072224E+04  0.17200000000E+03 0. -1.
         -6    1    1    2    0  501  0.10009665465E+03 -0.17707136445E+03  0.92527507316E+03  0.96285594425E+03  0.17200000000E+03 0.  1.
</event>
<event>
 4    1  0.3191769E-002  0.1874503E+03  0.7818608E-02  0.1160781E+00
          1   -1    0    0  502    0  0.00000000000E+00  0.00000000000E+00  0.34191028839E+03  0.34191028839E+03  0.00000000000E+00 0. -1.
         -1   -1    0    0    0  501 -0.00000000000E+00 -0.00000000000E+00 -0.83580589117E+03  0.83580589117E+03  0.00000000000E+00 0.  1.
          6    1    1    2  502    0  0.50133903665E+02  0.55137968455E+02  0.30452106487E+03  0.35759010447E+03  0.17200000000E+03 0. -1.
         -6    1    1    2    0  501 -0.50133903665E+02 -0.55137968455E+02 -0.79841666766E+03  0.82012607510E+03  0.17200000000E+03 0.  1.
</event>
<event>
 4    1  0.3191769E-002  0.2112329E+03  0.7818608E-02  0.1140593E+00
          3   -1    0    0  502    0  0.00000000000E+00  0.00000000000E+00  0.17097211631E+03  0.17097211631E+03  0.00000000000E+00 0. -1.
         -3   -1    0    0    0  501 -0.00000000000E+00 -0.00000000000E+00 -0.36085241553E+03  0.36085241553E+03  0.00000000000E+00 0.  1.
          6    1    1    2  502    0 -0.11072432985E+03  0.52682707607E+02  0.44956889245E+02  0.21596404051E+03  0.17200000000E+03 0. -1.
         -6    1    1    2    0  501  0.11072432985E+03 -0.52682707607E+02 -0.23483718846E+03  0.31586049134E+03  0.17200000000E+03 0.  1.
</event>
<event>
 4    1  0.3191769E-002  0.2662147E+03  0.7818608E-02  0.1103466E+00
         -2   -1    0    0    0  501 -0.00000000000E+00  0.00000000000E+00  0.49488840231E+02  0.49488840231E+02  0.00000000000E+00 0.  1.
          2   -1    0    0  502    0  0.00000000000E+00 -0.00000000000E+00 -0.18402545091E+04  0.18402545091E+04  0.00000000000E+00 0. -1.
          6    1    1    2  502    0 -0.14978034484E+03 -0.13730309229E+03 -0.45036751321E+03  0.52316458960E+03  0.17200000000E+03 0. -1.
         -6    1    1    2    0  501  0.14978034484E+03  0.13730309229E+03 -0.13403981557E+04  0.13665787597E+04  0.17200000000E+03 0. -1.
</event>
<event>
 4    1  0.3191769E-002  0.2954142E+03  0.7818608E-02  0.1087556E+00
         -1   -1    0    0    0  501 -0.00000000000E+00  0.00000000000E+00  0.10812661310E+03  0.10812661310E+03  0.00000000000E+00 0.  1.
          1   -1    0    0  502    0  0.00000000000E+00 -0.00000000000E+00 -0.10147189438E+04  0.10147189438E+04  0.00000000000E+00 0. -1.
          6    1    1    2  502    0 -0.14020532289E+03 -0.19500766727E+03 -0.70724456120E+03  0.76646225752E+03  0.17200000000E+03 0. -1.
         -6    1    1    2    0  501  0.14020532289E+03  0.19500766727E+03 -0.19934776947E+03  0.35638329935E+03  0.17200000000E+03 0.  1.
</event>
<event>
 4    1  0.3191769E-002  0.2136774E+03  0.7818608E-02  0.1138687E+00
         -2   -1    0    0    0  501 -0.00000000000E+00  0.00000000000E+00  0.10874911210E+03  0.10874911210E+03  0.00000000000E+00 0.  1.
          2   -1    0    0  502    0  0.00000000000E+00 -0.00000000000E+00 -0.42375523076E+03  0.42375523076E+03  0.00000000000E+00 0. -1.
          6    1    1    2  502    0 -0.37218302198E+02  0.12119741120E+03 -0.18307198149E+03  0.28137761976E+03  0.17200000000E+03 0. -1.
         -6    1    1    2    0  501  0.37218302198E+02 -0.12119741120E+03 -0.13193413717E+03  0.25112672309E+03  0.17200000000E+03 0.  1.
</event>
<event>
 4    1  0.3191769E-002  0.2019962E+03  0.7818608E-02  0.1148066E+00
          1   -1    0    0  502    0  0.00000000000E+00  0.00000000000E+00  0.77448362266E+03  0.77448362266E+03  0.00000000000E+00 0. -1.
         -1   -1    0    0    0  501 -0.00000000000E+00 -0.00000000000E+00 -0.64460142913E+02  0.64460142913E+02  0.00000000000E+00 0.  1.
          6    1    1    2  502    0  0.10439273524E+03  0.17906378616E+02  0.53430691571E+03  0.57121481226E+03  0.17200000000E+03 0. -1.
         -6    1    1    2    0  501 -0.10439273524E+03 -0.17906378616E+02  0.17571656403E+03  0.26772895331E+03  0.17200000000E+03 0.  1.
</event>
<event>
 4    1  0.3191769E-002  0.2160259E+03  0.7818608E-02  0.1136881E+00
         -1   -1    0    0    0  501 -0.00000000000E+00  0.00000000000E+00  0.10728434561E+03  0.10728434561E+03  0.00000000000E+00 0.  1.
          1   -1    0    0  502    0  0.00000000000E+00 -0.00000000000E+00 -0.44610379411E+03  0.44610379411E+03  0.00000000000E+00 0. -1.
          6    1    1    2  502    0  0.70376563638E+02  0.11013779549E+03 -0.21309047071E+03  0.30343820361E+03  0.17200000000E+03 0. -1.
         -6    1    1    2    0  501 -0.70376563638E+02 -0.11013779549E+03 -0.12572897780E+03  0.24994993611E+03  0.17200000000E+03 0. -1.
</event>
<event>
 4    1  0.3191769E-002  0.2558935E+03  0.7818608E-02  0.1109636E+00
         -2   -1    0    0    0  501 -0.00000000000E+00  0.00000000000E+00  0.26882033545E+02  0.26882033545E+02  0.00000000000E+00 0.  1.
          2   -1    0    0  502    0  0.00000000000E+00 -0.00000000000E+00 -0.28091153538E+04  0.28091153538E+04  0.00000000000E+00 0. -1.
          6    1    1    2  502    0 -0.18682115986E+03  0.31548953844E+02 -0.87424726044E+03  0.91092796347E+03  0.17200000000E+03 0.  1.
         -6    1    1    2    0  501  0.18682115986E+03 -0.31548953844E+02 -0.19079860599E+04  0.19250694239E+04  0.17200000000E+03 0. -1.
</event>
<event>
 4    1  0.3191769E-002  0.2230333E+03  0.7818608E-02  0.1131642E+00
          2   -1    0    0  502    0  0.00000000000E+00  0.00000000000E+00  0.20401002540E+04  0.20401002540E+04  0.00000000000E+00 0. -1.
         -2   -1    0    0    0  501 -0.00000000000E+00 -0.00000000000E+00 -0.28488905299E+02  0.28488905299E+02  0.00000000000E+00 0.  1.
          6    1    1    2  502    0 -0.14189978053E+03 -0.49298043453E+01  0.13984583830E+04  0.14161319500E+04  0.17200000000E+03 0. -1.
         -6    1    1    2    0  501  0.14189978053E+03  0.49298043453E+01  0.61315296572E+03  0.65245720937E+03  0.17200000000E+03 0.  1.
</event>
<event>
 4    1  0.3191769E-002  0.5109858E+03  0.7818608E-02  0.1010951E+00
          2   -1    0    0  502    0  0.00000000000E+00  0.00000000000E+00  0.30335697641E+04  0.30335697641E+04  0.00000000000E+00 0. -1.
         -2   -1    0    0    0  501 -0.00000000000E+00 -0.00000000000E+00 -0.15447282291E+03  0.15447282291E+03  0.00000000000E+00 0.  1.
          6    1    1    2  502    0  0.48081319952E+03 -0.18469465925E+02  0.25002608923E+04  0.25519425902E+04  0.17200000000E+03 0. -1.
         -6    1    1    2    0  501 -0.48081319952E+03  0.18469465925E+02  0.37883604881E+03  0.63609999676E+03  0.17200000000E+03 0.  1.
</event>
<event>
 4    1  0.3191769E-002  0.2480110E+03  0.7818608E-02  0.1114568E+00
         -2   -1    0    0    0  501 -0.00000000000E+00  0.00000000000E+00  0.63184487197E+02  0.63184487197E+02  0.00000000000E+00 0.  1.
          2   -1    0    0  502    0  0.00000000000E+00 -0.00000000000E+00 -0.12176607868E+04  0.12176607868E+04  0.00000000000E+00 0. -1.
          6    1    1    2  502    0  0.17859378721E+03  0.54517898449E+01 -0.86401917721E+03  0.89890967368E+03  0.17200000000E+03 0. -1.
         -6    1    1    2    0  501 -0.17859378721E+03 -0.54517898449E+01 -0.29045712238E+03  0.38193560031E+03  0.17200000000E+03 0.  1.
</event>
<event>
 4    1  0.3191769E-002  0.1972740E+03  0.7818608E-02  0.1152060E+00
          1   -1    0    0  502    0  0.00000000000E+00  0.00000000000E+00  0.56588194788E+03  0.56588194788E+03  0.00000000000E+00 0. -1.
         -1   -1    0    0    0  501 -0.00000000000E+00 -0.00000000000E+00 -0.14117509615E+03  0.14117509615E+03  0.00000000000E+00 0.  1.
          6    1    1    2  502    0 -0.61236722518E+01  0.96413235812E+02  0.46552971894E+03  0.50560353106E+03  0.17200000000E+03 0. -1.
         -6    1    1    2    0  501  0.61236722518E+01 -0.96413235812E+02 -0.40822867213E+02  0.20145351297E+03  0.17200000000E+03 0.  1.
</event>
<event>
 4    1  0.3191769E-002  0.3448715E+03  0.7818608E-02  0.1064740E+00
         -1   -1    0    0    0  501 -0.00000000000E+00  0.00000000000E+00  0.12372320876E+03  0.12372320876E+03  0.00000000000E+00 0.  1.
          1   -1    0    0  502    0  0.00000000000E+00 -0.00000000000E+00 -0.96333312461E+03  0.96333312461E+03  0.00000000000E+00 0. -1.
          6    1    1    2  502    0  0.29652027529E+03 -0.37790340017E+02 -0.44471204162E+03  0.56276565586E+03  0.17200000000E+03 0. -1.
         -6    1    1    2    0  501 -0.29652027529E+03  0.37790340017E+02 -0.39489787422E+03  0.52429067751E+03  0.17200000000E+03 0.  1.
</event>
<event>
 4    1  0.3191769E-002  0.1886046E+03  0.7818608E-02  0.1159726E+00
          1   -1    0    0  502    0  0.00000000000E+00  0.00000000000E+00  0.21694316984E+03  0.21694316984E+03  0.00000000000E+00 0. -1.
         -1   -1    0    0    0  501 -0.00000000000E+00 -0.00000000000E+00 -0.27293587327E+03  0.27293587327E+03  0.00000000000E+00 0.  1.
          6    1    1    2  502    0 -0.77192471989E+02  0.53884366664E+01  0.12677052523E+03  0.22724981639E+03  0.17200000000E+03 0. -1.
         -6    1    1    2    0  501  0.77192471989E+02 -0.53884366664E+01 -0.18276322865E+03  0.26262922672E+03  0.17200000000E+03 0.  1.
</event>
<event>
 4    1  0.3191769E-002  0.2006135E+03  0.7818608E-02  0.1149222E+00
          1   -1    0    0  502    0  0.00000000000E+00  0.00000000000E+00  0.18601336018E+04  0.18601336018E+04  0.00000000000E+00 0. -1.
         -1   -1    0    0    0  501 -0.00000000000E+00 -0.00000000000E+00 -0.11336282428E+03  0.11336282428E+03  0.00000000000E+00 0.  1.
          6    1    1    2  502    0 -0.19193422774E+02  0.10145638521E+03  0.17609894520E+04  0.17723796534E+04  0.17200000000E+03 0. -1.
         -6    1    1    2    0  501  0.19193422774E+02 -0.10145638521E+03 -0.14218674448E+02  0.20111677275E+03  0.17200000000E+03 0.  1.
</event>
<event>
 4    1  0.3191769E-002  0.3031707E+03  0.7818608E-02  0.1083666E+00
          1   -1    0    0  502    0  0.00000000000E+00  0.00000000000E+00  0.12210243435E+04  0.12210243435E+04  0.00000000000E+00 0. -1.
         -1   -1    0    0    0  501 -0.00000000000E+00 -0.00000000000E+00 -0.93976085305E+02  0.93976085305E+02  0.00000000000E+00 0.  1.
          6    1    1    2  502    0  0.78246939124E+02 -0.23707775783E+03  0.27021731151E+03  0.40611555274E+03  0.17200000000E+03 0. -1.
         -6    1    1    2    0  501 -0.78246939124E+02  0.23707775783E+03  0.85683094668E+03  0.90888487606E+03  0.17200000000E+03 0.  1.
</event>
<event>
 4    1  0.3191769E-002  0.1864675E+03  0.7818608E-02  0.1161687E+00
         -1   -1    0    0    0  501 -0.00000000000E+00  0.00000000000E+00  0.77790065707E+02  0.77790065707E+02  0.00000000000E+00 0.  1.
          1   -1    0    0  502    0  0.00000000000E+00 -0.00000000000E+00 -0.63540295665E+03  0.63540295665E+03  0.00000000000E+00 0. -1.
          6    1    1    2  502    0 -0.45611758680E+02  0.55728702016E+02 -0.47299629892E+03  0.50842464491E+03  0.17200000000E+03 0. -1.
         -6    1    1    2    0  501  0.45611758680E+02 -0.55728702016E+02 -0.84616592027E+02  0.20476837745E+03  0.17200000000E+03 0.  1.
</event>
<event>
 4    1  0.3191769E-002  0.7193480E+03  0.7818608E-02  0.9684705E-01
          2   -1    0    0  502    0  0.00000000000E+00  0.00000000000E+00  0.17129288494E+04  0.17129288494E+04  0.00000000000E+00 0. -1.
         -2   -1    0    0    0  501 -0.00000000000E+00 -0.00000000000E+00 -0.30244241867E+03  0.30244241867E+03  0.00000000000E+00 0.  1.
          6    1    1    2  502    0 -0.42706061960E+03 -0.55271768380E+03  0.73955749998E+03  0.10317009773E+04  0.17200000000E+03 0. -1.
         -6    1    1    2    0  501  0.42706061960E+03  0.55271768380E+03  0.67092893072E+03  0.98367029074E+03  0.17200000000E+03 0.  1.
</event>
<event>
 4    1  0.3191769E-002  0.2057142E+03  0.7818608E-02  0.1145006E+00
          2   -1    0    0  502    0  0.00000000000E+00  0.00000000000E+00  0.27253406883E+03  0.27253406883E+03  0.00000000000E+00 0. -1.
         -2   -1    0    0    0  501 -0.00000000000E+00 -0.00000000000E+00 -0.17358435244E+03  0.17358435244E+03  0.00000000000E+00 0.  1.
          6    1    1    2  502    0  0.10100293389E+03 -0.50326304148E+02  0.12191431203E+03  0.23912638713E+03  0.17200000000E+03 0. -1.
         -6    1    1    2    0  501 -0.10100293389E+03  0.50326304148E+02 -0.22964595640E+02  0.20699203414E+03  0.17200000000E+03 0.  1.
</event>
<event>
 4    1  0.3191769E-002  0.1910239E+03  0.7818608E-02  0.1157541E+00
          4   -1    0    0  502    0  0.00000000000E+00  0.00000000000E+00  0.20488593816E+03  0.20488593816E+03  0.00000000000E+00 0. -1.
         -4   -1    0    0    0  501 -0.00000000000E+00 -0.00000000000E+00 -0.18866764108E+03  0.18866764108E+03  0.00000000000E+00 0.  1.
          6    1    1    2  502    0  0.29191672047E+02  0.77807353609E+02  0.54680512939E+02  0.19869599011E+03  0.17200000000E+03 0.  1.
         -6    1    1    2    0  501 -0.29191672047E+02 -0.77807353609E+02 -0.38462215852E+02  0.19485758913E+03  0.17200000000E+03 0.  1.
</event>
<event>
 4    1  0.3191769E-002  0.2159801E+03  0.7818608E-02  0.1136916E+00
          1   -1    0    0  502    0  0.00000000000E+00  0.00000000000E+00  0.54582268003E+02  0.54582268003E+02  0.00000000000E+00 0. -1.
         -1   -1    0    0    0  501 -0.00000000000E+00 -0.00000000000E+00 -0.10437978727E+04  0.10437978727E+04  0.00000000000E+00 0.  1.
          6    1    1    2  502    0 -0.56489798506E+02  0.11778078835E+03 -0.72840701660E+03  0.75975271850E+03  0.17200000000E+03 0.  1.
         -6    1    1    2    0  501  0.56489798506E+02 -0.11778078835E+03 -0.26080858808E+03  0.33862742218E+03  0.17200000000E+03 0. -1.
</event>
<event>
 4    1  0.3191769E-002  0.2384498E+03  0.7818608E-02  0.1120830E+00
         -2   -1    0    0    0  501 -0.00000000000E+00  0.00000000000E+00  0.67652383691E+02  0.67652383691E+02  0.00000000000E+00 0.  1.
          2   -1    0    0  502    0  0.00000000000E+00 -0.00000000000E+00 -0.84464229462E+03  0.84464229462E+03  0.00000000000E+00 0. -1.
          6    1    1    2  502    0 -0.14981032407E+03 -0.69506541729E+02 -0.35635006160E+03  0.42876993708E+03  0.17200000000E+03 0.  1.
         -6    1    1    2    0  501  0.14981032407E+03  0.69506541729E+02 -0.42063984933E+03  0.48352474123E+03  0.17200000000E+03 0. -1.
</event>
<event>
 4    1  0.3191769E-002  0.1729990E+03  0.7818608E-02  0.1174756E+00
         -1   -1    0    0    0  501 -0.00000000000E+00  0.00000000000E+00  0.18429946139E+03  0.18429946139E+03  0.00000000000E+00 0.  1.
          1   -1    0    0  502    0  0.00000000000E+00 -0.00000000000E+00 -0.27870763914E+03  0.27870763914E+03  0.00000000000E+00 0. -1.
          6    1    1    2  502    0 -0.12899708114E+02 -0.13351200601E+02  0.10235172453E+03  0.20100878722E+03  0.17200000000E+03 0.  1.
         -6    1    1    2    0  501  0.12899708114E+02  0.13351200601E+02 -0.19675990228E+03  0.26199831330E+03  0.17200000000E+03 0. -1.
</event>
<event>
 4    1  0.3191769E-002  0.2167291E+03  0.7818608E-02  0.1136345E+00
         -3   -1    0    0    0  501 -0.00000000000E+00  0.00000000000E+00  0.84347287935E+02  0.84347287935E+02  0.00000000000E+00 0.  1.
          3   -1    0    0  502    0  0.00000000000E+00 -0.00000000000E+00 -0.56691967656E+03  0.56691967656E+03  0.00000000000E+00 0. -1.
          6    1    1    2  502    0 -0.93576452454E+02  0.92902853876E+02 -0.19795673517E+03  0.29352744627E+03  0.17200000000E+03 0. -1.
         -6    1    1    2    0  501  0.93576452454E+02 -0.92902853876E+02 -0.28461565346E+03  0.35773951823E+03  0.17200000000E+03 0.  1.
</event>
<event>
 4    1  0.3191769E-002  0.4789110E+03  0.7818608E-02  0.1019435E+00
          2   -1    0    0  502    0  0.00000000000E+00  0.00000000000E+00  0.11050623709E+04  0.11050623709E+04  0.00000000000E+00 0. -1.
         -2   -1    0    0    0  501 -0.00000000000E+00 -0.00000000000E+00 -0.53099621414E+03  0.53099621414E+03  0.00000000000E+00 0.  1.
          6    1    1    2  502    0 -0.32034839949E+03  0.31168683063E+03  0.92547901781E+03  0.10420495141E+04  0.17200000000E+03 0. -1.
         -6    1    1    2    0  501  0.32034839949E+03 -0.31168683063E+03 -0.35141286105E+03  0.59400907093E+03  0.17200000000E+03 0.  1.
</event>
<event>
 4    1  0.3191769E-002  0.4527976E+03  0.7818608E-02  0.1026891E+00
          1   -1    0    0  502    0  0.00000000000E+00  0.00000000000E+00  0.76445384990E+03  0.76445384990E+03  0.00000000000E+00 0. -1.
         -1   -1    0    0    0  501 -0.00000000000E+00 -0.00000000000E+00 -0.26824164103E+03  0.26824164103E+03  0.00000000000E+00 0.  1.
          6    1    1    2  502    0  0.36544642884E+03  0.20467183695E+03  0.25462675166E+03  0.51948092925E+03  0.17200000000E+03 0. -1.
         -6    1    1    2    0  501 -0.36544642884E+03 -0.20467183695E+03  0.24158545721E+03  0.51321456169E+03  0.17200000000E+03 0.  1.
</event>
<event>
 4    1  0.3191769E-002  0.2120844E+03  0.7818608E-02  0.1139926E+00
          2   -1    0    0  502    0  0.00000000000E+00  0.00000000000E+00  0.24953095035E+03  0.24953095035E+03  0.00000000000E+00 0. -1.
         -2   -1    0    0    0  501 -0.00000000000E+00 -0.00000000000E+00 -0.21790572554E+03  0.21790572554E+03  0.00000000000E+00 0.  1.
          6    1    1    2  502    0  0.12396975987E+03 -0.52253730375E+01  0.11296001033E+03  0.24029101069E+03  0.17200000000E+03 0. -1.
         -6    1    1    2    0  501 -0.12396975987E+03  0.52253730375E+01 -0.81334785525E+02  0.22714566520E+03  0.17200000000E+03 0.  1.
</event>
<event>
 4    1  0.3191769E-002  0.3197873E+03  0.7818608E-02  0.1075747E+00
          2   -1    0    0  502    0  0.00000000000E+00  0.00000000000E+00  0.89657156916E+03  0.89657156916E+03  0.00000000000E+00 0. -1.
         -2   -1    0    0    0  501 -0.00000000000E+00 -0.00000000000E+00 -0.11723778108E+03  0.11723778108E+03  0.00000000000E+00 0.  1.
          6    1    1    2  502    0 -0.20744725058E+03  0.17217893039E+03  0.30622602495E+03  0.44276215308E+03  0.17200000000E+03 0. -1.
         -6    1    1    2    0  501  0.20744725058E+03 -0.17217893039E+03  0.47310776314E+03  0.57104719716E+03  0.17200000000E+03 0.  1.
</event>
<event>
 4    1  0.3191769E-002  0.6013424E+03  0.7818608E-02  0.9902625E-01
          2   -1    0    0  502    0  0.00000000000E+00  0.00000000000E+00  0.22874922871E+03  0.22874922871E+03  0.00000000000E+00 0. -1.
         -2   -1    0    0    0  501 -0.00000000000E+00 -0.00000000000E+00 -0.27055561603E+04  0.27055561603E+04  0.00000000000E+00 0.  1.
          6    1    1    2  502    0  0.26529953444E+03  0.51151228003E+03 -0.29244673683E+03  0.66868359444E+03  0.17200000000E+03 0. -1.
         -6    1    1    2    0  501 -0.26529953444E+03 -0.51151228003E+03 -0.21843601948E+04  0.22656217946E+04  0.17200000000E+03 0.  1.
</event>
<event>
 4    1  0.3191769E-002  0.2470436E+03  0.7818608E-02  0.1115188E+00
         -2   -1    0    0    0  501 -0.00000000000E+00  0.00000000000E+00  0.38417720916E+02  0.38417720916E+02  0.00000000000E+00 0.  1.
          2   -1    0    0  502    0  0.00000000000E+00 -0.00000000000E+00 -0.17583757747E+04  0.17583757747E+04  0.00000000000E+00 0. -1.
          6    1    1    2  502    0 -0.19967957029E+02  0.17620398848E+03 -0.58082466899E+03  0.63117973745E+03  0.17200000000E+03 0. -1.
         -6    1    1    2    0  501  0.19967957029E+02 -0.17620398848E+03 -0.11391333848E+04  0.11656137582E+04  0.17200000000E+03 0. -1.
</event>
<event>
 4    1  0.3191769E-002  0.2474699E+03  0.7818608E-02  0.1114914E+00
          1   -1    0    0  502    0  0.00000000000E+00  0.00000000000E+00  0.22798123690E+04  0.22798123690E+04  0.00000000000E+00 0. -1.
         -1   -1    0    0    0  501 -0.00000000000E+00 -0.00000000000E+00 -0.27198439898E+02  0.27198439898E+02  0.00000000000E+00 0.  1.
          6    1    1    2  502    0  0.17695288069E+03  0.18574848879E+02  0.12545135696E+04  0.12786890331E+04  0.17200000000E+03 0. -1.
         -6    1    1    2    0  501 -0.17695288069E+03 -0.18574848879E+02  0.99810035949E+03  0.10283217758E+04  0.17200000000E+03 0.  1.
</event>
<event>
 4    1  0.3191769E-002  0.1986770E+03  0.7818608E-02  0.1150860E+00
         -2   -1    0    0    0  501 -0.00000000000E+00  0.00000000000E+00  0.58625374366E+02  0.58625374366E+02  0.00000000000E+00 0.  1.
          2   -1    0    0  502    0  0.00000000000E+00 -0.00000000000E+00 -0.70791207373E+03  0.70791207373E+03  0.00000000000E+00 0. -1.
          6    1    1    2  502    0 -0.18144215024E+01  0.99424553739E+02 -0.40938952340E+03  0.45505199250E+03  0.17200000000E+03 0. -1.
         -6    1    1    2    0  501  0.18144215024E+01 -0.99424553739E+02 -0.23989717597E+03  0.31148545560E+03  0.17200000000E+03 0.  1.
</event>
<event>
 4    1  0.3191769E-002  0.2406783E+03  0.7818608E-02  0.1119342E+00
         -1   -1    0    0    0  501 -0.00000000000E+00  0.00000000000E+00  0.60427881526E+02  0.60427881526E+02  0.00000000000E+00 0.  1.
          1   -1    0    0  502    0  0.00000000000E+00 -0.00000000000E+00 -0.15795397837E+04  0.15795397837E+04  0.00000000000E+00 0. -1.
          6    1    1    2  502    0 -0.84160183200E+02  0.14580499729E+03 -0.12736771612E+04  0.12962173987E+04  0.17200000000E+03 0. -1.
         -6    1    1    2    0  501  0.84160183200E+02 -0.14580499729E+03 -0.24543474094E+03  0.34375026652E+03  0.17200000000E+03 0.  1.
</event>
<event>
 4    1  0.3191769E-002  0.1961866E+03  0.7818608E-02  0.1152997E+00
          2   -1    0    0  502    0  0.00000000000E+00  0.00000000000E+00  0.16546516848E+04  0.16546516848E+04  0.00000000000E+00 0. -1.
         -2   -1    0    0    0  501 -0.00000000000E+00 -0.00000000000E+00 -0.23373100193E+02  0.23373100193E+02  0.00000000000E+00 0.  1.
          6    1    1    2  502    0  0.92782577714E+02  0.17221686974E+02  0.75758764612E+03  0.78257794167E+03  0.17200000000E+03 0.  1.
         -6    1    1    2    0  501 -0.92782577714E+02 -0.17221686974E+02  0.87369093847E+03  0.89544684331E+03  0.17200000000E+03 0.  1.
</event>
<event>
 4    1  0.3191769E-002  0.1735958E+03  0.7818608E-02  0.1174149E+00
         -2   -1    0    0    0  501 -0.00000000000E+00  0.00000000000E+00  0.37567111366E+03  0.37567111366E+03  0.00000000000E+00 0.  1.
          2   -1    0    0  502    0  0.00000000000E+00 -0.00000000000E+00 -0.37675520183E+03  0.37675520183E+03  0.00000000000E+00 0. -1.
          6    1    1    2  502    0 -0.15335835836E+02 -0.17785260826E+02 -0.33430958915E+03  0.37669404662E+03  0.17200000000E+03 0. -1.
         -6    1    1    2    0  501  0.15335835836E+02  0.17785260826E+02  0.33322550099E+03  0.37573226887E+03  0.17200000000E+03 0.  1.
</event>
<event>
 4    1  0.3191769E-002  0.2911270E+03  0.7818608E-02  0.1089762E+00
         -1   -1    0    0    0  501 -0.00000000000E+00  0.00000000000E+00  0.56343851058E+03  0.56343851058E+03  0.00000000000E+00 0.  1.
          1   -1    0    0  502    0  0.00000000000E+00 -0.00000000000E+00 -0.22290255878E+03  0.22290255878E+03  0.00000000000E+00 0. -1.
          6    1    1    2  502    0  0.17559796319E+03  0.15600098380E+03  0.39446339630E+03  0.49026148395E+03  0.17200000000E+03 0.  1.
         -6    1    1    2    0  501 -0.17559796319E+03 -0.15600098380E+03 -0.53927444502E+02  0.29607958540E+03  0.17200000000E+03 0. -1.
</event>
<event>
 4    1  0.3191769E-002  0.1901515E+03  0.7818608E-02  0.1158325E+00
          2   -1    0    0  502    0  0.00000000000E+00  0.00000000000E+00  0.43151816590E+03  0.43151816590E+03  0.00000000000E+00 0. -1.
         -2   -1    0    0    0  501 -0.00000000000E+00 -0.00000000000E+00 -0.84094740494E+02  0.84094740494E+02  0.00000000000E+00 0.  1.
          6    1    1    2  502    0  0.78200256574E+02  0.21408342744E+02  0.18919031752E+03  0.26823604066E+03  0.17200000000E+03 0. -1.
         -6    1    1    2    0  501 -0.78200256574E+02 -0.21408342744E+02  0.15823310789E+03  0.24737686573E+03  0.17200000000E+03 0. -1.
</event>
<event>
 4    1  0.3191769E-002  0.3630425E+03  0.7818608E-02  0.1057386E+00
         -2   -1    0    0    0  501 -0.00000000000E+00  0.00000000000E+00  0.72335189704E+02  0.72335189704E+02  0.00000000000E+00 0.  1.
          2   -1    0    0  502    0  0.00000000000E+00 -0.00000000000E+00 -0.25181025674E+04  0.25181025674E+04  0.00000000000E+00 0. -1.
          6    1    1    2  502    0 -0.30989429435E+03 -0.78621886018E+02 -0.19038424727E+04  0.19381475784E+04  0.17200000000E+03 0. -1.
         -6    1    1    2    0  501  0.30989429435E+03  0.78621886018E+02 -0.54192490499E+03  0.65229017874E+03  0.17200000000E+03 0.  1.
</event>
<event>
 4    1  0.3191769E-002  0.3194850E+03  0.7818608E-02  0.1075887E+00
         -1   -1    0    0    0  501 -0.00000000000E+00  0.00000000000E+00  0.34280950477E+03  0.34280950477E+03  0.00000000000E+00 0.  1.
          1   -1    0    0  502    0  0.00000000000E+00 -0.00000000000E+00 -0.74240389164E+03  0.74240389164E+03  0.00000000000E+00 0. -1.
          6    1    1    2  502    0  0.88920240657E+02 -0.25412566728E+03 -0.61972759119E+03  0.69723235098E+03  0.17200000000E+03 0. -1.
         -6    1    1    2    0  501 -0.88920240657E+02  0.25412566728E+03  0.22013320433E+03  0.38798104543E+03  0.17200000000E+03 0.  1.
</event>
<event>
 4    1  0.3191769E-002  0.2135143E+03  0.7818608E-02  0.1138813E+00
         -2   -1    0    0    0  501 -0.00000000000E+00  0.00000000000E+00  0.16936056673E+02  0.16936056673E+02  0.00000000000E+00 0.  1.
          2   -1    0    0  502    0  0.00000000000E+00 -0.00000000000E+00 -0.27003613546E+04  0.27003613546E+04  0.00000000000E+00 0. -1.
          6    1    1    2  502    0  0.11971796917E+03 -0.40889914255E+02 -0.14182401217E+04  0.14342222353E+04  0.17200000000E+03 0. -1.
         -6    1    1    2    0  501 -0.11971796917E+03  0.40889914255E+02 -0.12651851762E+04  0.12830751760E+04  0.17200000000E+03 0. -1.
</event>
<event>
 4    1  0.3191769E-002  0.1935452E+03  0.7818608E-02  0.1155302E+00
         -1   -1    0    0    0  501 -0.00000000000E+00  0.00000000000E+00  0.15510853187E+02  0.15510853187E+02  0.00000000000E+00 0.  1.
          1   -1    0    0  502    0  0.00000000000E+00 -0.00000000000E+00 -0.27163002759E+04  0.27163002759E+04  0.00000000000E+00 0. -1.
          6    1    1    2  502    0  0.77198509705E+02  0.43773474257E+02 -0.18052615893E+04  0.18156070976E+04  0.17200000000E+03 0. -1.
         -6    1    1    2    0  501 -0.77198509705E+02 -0.43773474257E+02 -0.89552783340E+03  0.91620403151E+03  0.17200000000E+03 0.  1.
</event>
<event>
 4    1  0.3191769E-002  0.3222794E+03  0.7818608E-02  0.1074605E+00
          1   -1    0    0  502    0  0.00000000000E+00  0.00000000000E+00  0.19391663133E+04  0.19391663133E+04  0.00000000000E+00 0. -1.
         -1   -1    0    0    0  501 -0.00000000000E+00 -0.00000000000E+00 -0.66651361039E+02  0.66651361039E+02  0.00000000000E+00 0.  1.
          6    1    1    2  502    0 -0.14236280961E+03  0.23240658690E+03  0.13807148915E+04  0.14178284815E+04  0.17200000000E+03 0. -1.
         -6    1    1    2    0  501  0.14236280961E+03 -0.23240658690E+03  0.49180006076E+03  0.58798919289E+03  0.17200000000E+03 0.  1.
</event>
<event>
 4    1  0.3191769E-002  0.2098284E+03  0.7818608E-02  0.1141702E+00
          2   -1    0    0  502    0  0.00000000000E+00  0.00000000000E+00  0.36068464815E+04  0.36068464815E+04  0.00000000000E+00 0. -1.
         -2   -1    0    0    0  501 -0.00000000000E+00 -0.00000000000E+00 -0.21870258621E+02  0.21870258621E+02  0.00000000000E+00 0.  1.
          6    1    1    2  502    0  0.27256006868E+02 -0.11705150570E+03  0.29985319278E+04  0.30058645457E+04  0.17200000000E+03 0. -1.
         -6    1    1    2    0  501 -0.27256006868E+02  0.11705150570E+03  0.58644429505E+03  0.62285219442E+03  0.17200000000E+03 0.  1.
</event>
<event>
 4    1  0.3191769E-002  0.2120534E+03  0.7818608E-02  0.1139950E+00
         -2   -1    0    0    0  501 -0.00000000000E+00  0.00000000000E+00  0.53697391642E+02  0.53697391642E+02  0.00000000000E+00 0.  1.
          2   -1    0    0  502    0  0.00000000000E+00 -0.00000000000E+00 -0.93542603387E+03  0.93542603387E+03  0.00000000000E+00 0. -1.
          6    1    1    2  502    0 -0.25452525103E+02  0.12138696232E+03 -0.60095599512E+03  0.63727131877E+03  0.17200000000E+03 0.  1.
         -6    1    1    2    0  501  0.25452525103E+02 -0.12138696232E+03 -0.28077264710E+03  0.35185210674E+03  0.17200000000E+03 0.  1.
</event>
<event>
 4    1  0.3191769E-002  0.1748410E+03  0.7818608E-02  0.1172891E+00
         -2   -1    0    0    0  501 -0.00000000000E+00  0.00000000000E+00  0.73390151122E+02  0.73390151122E+02  0.00000000000E+00 0.  1.
          2   -1    0    0  502    0  0.00000000000E+00 -0.00000000000E+00 -0.10902625422E+04  0.10902625422E+04  0.00000000000E+00 0. -1.
          6    1    1    2  502    0  0.85103009730E+01 -0.30215254204E+02 -0.96580946385E+03  0.98150767051E+03  0.17200000000E+03 0. -1.
         -6    1    1    2    0  501 -0.85103009730E+01  0.30215254204E+02 -0.51062927273E+02  0.18214502286E+03  0.17200000000E+03 0.  1.
</event>
<event>
 4    1  0.3191769E-002  0.2619536E+03  0.7818608E-02  0.1105975E+00
          2   -1    0    0  502    0  0.00000000000E+00  0.00000000000E+00  0.11437671536E+04  0.11437671536E+04  0.00000000000E+00 0. -1.
         -2   -1    0    0    0  501 -0.00000000000E+00 -0.00000000000E+00 -0.73509736715E+02  0.73509736715E+02  0.00000000000E+00 0.  1.
          6    1    1    2  502    0  0.72814374769E+02  0.18366756226E+03  0.79610389946E+03  0.83809374496E+03  0.17200000000E+03 0. -1.
         -6    1    1    2    0  501 -0.72814374769E+02 -0.18366756226E+03  0.27415351738E+03  0.37918314531E+03  0.17200000000E+03 0.  1.
</event>
<event>
 4    1  0.3191769E-002  0.2723845E+03  0.7818608E-02  0.1099923E+00
          1   -1    0    0  502    0  0.00000000000E+00  0.00000000000E+00  0.19688646760E+03  0.19688646760E+03  0.00000000000E+00 0. -1.
         -1   -1    0    0    0  501 -0.00000000000E+00 -0.00000000000E+00 -0.37720693472E+03  0.37720693472E+03  0.00000000000E+00 0.  1.
          6    1    1    2  502    0 -0.19032785677E+03 -0.91567552394E+02 -0.81121953952E+02  0.28420781328E+03  0.17200000000E+03 0. -1.
         -6    1    1    2    0  501  0.19032785677E+03  0.91567552394E+02 -0.99198513167E+02  0.28988558904E+03  0.17200000000E+03 0.  1.
</event>
<event>
 4    1  0.3191769E-002  0.1736197E+03  0.7818608E-02  0.1174125E+00
         -1   -1    0    0    0  501 -0.00000000000E+00  0.00000000000E+00  0.34356858913E+03  0.34356858913E+03  0.00000000000E+00 0.  1.
          1   -1    0    0  502    0  0.00000000000E+00 -0.00000000000E+00 -0.96524575631E+02  0.96524575631E+02  0.00000000000E+00 0. -1.
          6    1    1    2  502    0  0.63109230258E+01  0.22802759616E+02  0.18991493918E+03  0.25731591035E+03  0.17200000000E+03 0.  1.
         -6    1    1    2    0  501 -0.63109230258E+01 -0.22802759616E+02  0.57129074311E+02  0.18277725440E+03  0.17200000000E+03 0. -1.
</event>
<event>
 4    1  0.3191769E-002  0.1726847E+03  0.7818608E-02  0.1175077E+00
          2   -1    0    0  502    0  0.00000000000E+00  0.00000000000E+00  0.14966234207E+03  0.14966234207E+03  0.00000000000E+00 0. -1.
         -2   -1    0    0    0  501 -0.00000000000E+00 -0.00000000000E+00 -0.23566879331E+03  0.23566879331E+03  0.00000000000E+00 0.  1.
          6    1    1    2  502    0 -0.14419846468E+02 -0.52996138119E+01 -0.11874299208E+03  0.20957079006E+03  0.17200000000E+03 0.  1.
         -6    1    1    2    0  501  0.14419846468E+02  0.52996138119E+01  0.32736540839E+02  0.17576034531E+03  0.17200000000E+03 0. -1.
</event>
<event>
 4    1  0.3191769E-002  0.2572544E+03  0.7818608E-02  0.1108804E+00
         -1   -1    0    0    0  501 -0.00000000000E+00  0.00000000000E+00  0.30406431848E+02  0.30406431848E+02  0.00000000000E+00 0.  1.
          1   -1    0    0  502    0  0.00000000000E+00 -0.00000000000E+00 -0.24259580324E+04  0.24259580324E+04  0.00000000000E+00 0. -1.
          6    1    1    2  502    0  0.88618796131E+02 -0.16953625867E+03 -0.15916097798E+04  0.16122659598E+04  0.17200000000E+03 0. -1.
         -6    1    1    2    0  501 -0.88618796131E+02  0.16953625867E+03 -0.80394182078E+03  0.84409850446E+03  0.17200000000E+03 0.  1.
</event>
<event>
 4    1  0.3191769E-002  0.3452506E+03  0.7818608E-02  0.1064581E+00
          2   -1    0    0  502    0  0.00000000000E+00  0.00000000000E+00  0.42822852280E+03  0.42822852280E+03  0.00000000000E+00 0. -1.
         -2   -1    0    0    0  501 -0.00000000000E+00 -0.00000000000E+00 -0.29499805315E+03  0.29499805315E+03  0.00000000000E+00 0.  1.
          6    1    1    2  502    0 -0.24808576882E+03 -0.16753328032E+03  0.15251660735E+03  0.37743776205E+03  0.17200000000E+03 0. -1.
         -6    1    1    2    0  501  0.24808576882E+03  0.16753328032E+03 -0.19286137700E+02  0.34578881389E+03  0.17200000000E+03 0.  1.
</event>
<event>
 4    1  0.3191769E-002  0.1994188E+03  0.7818608E-02  0.1150230E+00
         -2   -1    0    0    0  501 -0.00000000000E+00  0.00000000000E+00  0.19863578890E+04  0.19863578890E+04  0.00000000000E+00 0.  1.
          2   -1    0    0  502    0  0.00000000000E+00 -0.00000000000E+00 -0.21190744326E+02  0.21190744326E+02  0.00000000000E+00 0. -1.
          6    1    1    2  502    0 -0.68674832183E+02 -0.73943292104E+02  0.12184708531E+04  0.12346817658E+04  0.17200000000E+03 0. -1.
         -6    1    1    2    0  501  0.68674832183E+02  0.73943292104E+02  0.74669629158E+03  0.77286686750E+03  0.17200000000E+03 0. -1.
</event>
<event>
 4    1  0.3191769E-002  0.4716503E+03  0.7818608E-02  0.1021455E+00
         -2   -1    0    0    0  501 -0.00000000000E+00  0.00000000000E+00  0.94833425279E+03  0.94833425279E+03  0.00000000000E+00 0.  1.
          2   -1    0    0  502    0  0.00000000000E+00 -0.00000000000E+00 -0.38773084708E+03  0.38773084708E+03  0.00000000000E+00 0. -1.
          6    1    1    2  502    0  0.29646018252E+03 -0.32400824631E+03 -0.13955541105E+03  0.49186349351E+03  0.17200000000E+03 0. -1.
         -6    1    1    2    0  501 -0.29646018252E+03  0.32400824631E+03  0.70015881675E+03  0.84420160636E+03  0.17200000000E+03 0.  1.
</event>
<event>
 4    1  0.3191769E-002  0.1852454E+03  0.7818608E-02  0.1162821E+00
         -2   -1    0    0    0  501 -0.00000000000E+00  0.00000000000E+00  0.74079705648E+03  0.74079705648E+03  0.00000000000E+00 0.  1.
          2   -1    0    0  502    0  0.00000000000E+00 -0.00000000000E+00 -0.46468244287E+02  0.46468244287E+02  0.00000000000E+00 0. -1.
          6    1    1    2  502    0  0.47262542685E+02 -0.49981117806E+02  0.32514894039E+03  0.37421610537E+03  0.17200000000E+03 0.  1.
         -6    1    1    2    0  501 -0.47262542685E+02  0.49981117806E+02  0.36917987180E+03  0.41304919540E+03  0.17200000000E+03 0.  1.
</event>
<event>
 4    1  0.3191769E-002  0.2079422E+03  0.7818608E-02  0.1143206E+00
         -2   -1    0    0    0  501 -0.00000000000E+00  0.00000000000E+00  0.28623236169E+02  0.28623236169E+02  0.00000000000E+00 0.  1.
          2   -1    0    0  502    0  0.00000000000E+00 -0.00000000000E+00 -0.16652824416E+04  0.16652824416E+04  0.00000000000E+00 0. -1.
          6    1    1    2  502    0 -0.10449917104E+03 -0.52305854581E+02 -0.56025130818E+03  0.59759644199E+03  0.17200000000E+03 0.  1.
         -6    1    1    2    0  501  0.10449917104E+03  0.52305854581E+02 -0.10764078973E+04  0.10963092358E+04  0.17200000000E+03 0. -1.
</event>
<event>
 4    1  0.3191769E-002  0.1908715E+03  0.7818608E-02  0.1157678E+00
          2   -1    0    0  502    0  0.00000000000E+00  0.00000000000E+00  0.35526607874E+03  0.35526607874E+03  0.00000000000E+00 0. -1.
         -2   -1    0    0    0  501 -0.00000000000E+00 -0.00000000000E+00 -0.18142697716E+03  0.18142697716E+03  0.00000000000E+00 0.  1.
          6    1    1    2  502    0 -0.97172790390E+01  0.82179784581E+02  0.26385904411E+03  0.32565862136E+03  0.17200000000E+03 0. -1.
         -6    1    1    2    0  501  0.97172790390E+01 -0.82179784581E+02 -0.90019942532E+02  0.21103443453E+03  0.17200000000E+03 0.  1.
</event>
<event>
 4    1  0.3191769E-002  0.2016945E+03  0.7818608E-02  0.1148317E+00
         -2   -1    0    0    0  501 -0.00000000000E+00  0.00000000000E+00  0.57515615628E+02  0.57515615628E+02  0.00000000000E+00 0.  1.
          2   -1    0    0  502    0  0.00000000000E+00 -0.00000000000E+00 -0.12998721737E+04  0.12998721737E+04  0.00000000000E+00 0. -1.
          6    1    1    2  502    0 -0.19418468333E+01 -0.10532287409E+03 -0.10794203797E+04  0.10981024700E+04  0.17200000000E+03 0. -1.
         -6    1    1    2    0  501  0.19418468333E+01  0.10532287409E+03 -0.16293617835E+03  0.25928531927E+03  0.17200000000E+03 0.  1.
</event>
<event>
 4    1  0.3191769E-002  0.1890271E+03  0.7818608E-02  0.1159342E+00
         -2   -1    0    0    0  501 -0.00000000000E+00  0.00000000000E+00  0.42696160060E+03  0.42696160060E+03  0.00000000000E+00 0.  1.
          2   -1    0    0  502    0  0.00000000000E+00 -0.00000000000E+00 -0.14995512363E+03  0.14995512363E+03  0.00000000000E+00 0. -1.
          6    1    1    2  502    0 -0.24123650823E+01  0.78367225931E+02  0.33026146346E+03  0.38053104453E+03  0.17200000000E+03 0.  1.
         -6    1    1    2    0  501  0.24123650823E+01 -0.78367225931E+02 -0.53254986484E+02  0.19638567970E+03  0.17200000000E+03 0. -1.
</event>
<event>
 4    1  0.3191769E-002  0.3601038E+03  0.7818608E-02  0.1058543E+00
          2   -1    0    0  502    0  0.00000000000E+00  0.00000000000E+00  0.16733544329E+04  0.16733544329E+04  0.00000000000E+00 0. -1.
         -2   -1    0    0    0  501 -0.00000000000E+00 -0.00000000000E+00 -0.80051933502E+02  0.80051933502E+02  0.00000000000E+00 0.  1.
          6    1    1    2  502    0  0.23027408988E+03 -0.21694367174E+03  0.95337045285E+03  0.10191123263E+04  0.17200000000E+03 0. -1.
         -6    1    1    2    0  501 -0.23027408988E+03  0.21694367174E+03  0.63993204654E+03  0.73429404013E+03  0.17200000000E+03 0.  1.
</event>
<event>
 4    1  0.3191769E-002  0.4762915E+03  0.7818608E-02  0.1020159E+00
         -2   -1    0    0    0  501 -0.00000000000E+00  0.00000000000E+00  0.50151251754E+03  0.50151251754E+03  0.00000000000E+00 0.  1.
          2   -1    0    0  502    0  0.00000000000E+00 -0.00000000000E+00 -0.11848095543E+04  0.11848095543E+04  0.00000000000E+00 0. -1.
          6    1    1    2  502    0 -0.43660765707E+03  0.81506451076E+02 -0.10045994921E+04  0.11117885084E+04  0.17200000000E+03 0. -1.
         -6    1    1    2    0  501  0.43660765707E+03 -0.81506451076E+02  0.32130245534E+03  0.57453356350E+03  0.17200000000E+03 0.  1.
</event>
<event>
 4    1  0.3191769E-002  0.3623128E+03  0.7818608E-02  0.1057672E+00
          2   -1    0    0  502    0  0.00000000000E+00  0.00000000000E+00  0.63327460874E+03  0.63327460874E+03  0.00000000000E+00 0. -1.
         -2   -1    0    0    0  501 -0.00000000000E+00 -0.00000000000E+00 -0.34648185142E+03  0.34648185142E+03  0.00000000000E+00 0.  1.
          6    1    1    2  502    0 -0.37614191570E+02 -0.31665709961E+03  0.45389318269E+03  0.58076636217E+03  0.17200000000E+03 0. -1.
         -6    1    1    2    0  501  0.37614191570E+02  0.31665709961E+03 -0.16710042537E+03  0.39899009799E+03  0.17200000000E+03 0.  1.
</event>
<event>
 4    1  0.3191769E-002  0.2187000E+03  0.7818608E-02  0.1134856E+00
         -4   -1    0    0    0  501 -0.00000000000E+00  0.00000000000E+00  0.59608678631E+02  0.59608678631E+02  0.00000000000E+00 0.  1.
          4   -1    0    0  502    0  0.00000000000E+00 -0.00000000000E+00 -0.10518955861E+04  0.10518955861E+04  0.00000000000E+00 0. -1.
          6    1    1    2  502    0 -0.12271538956E+03 -0.56450272364E+02 -0.76680757374E+03  0.79738544960E+03  0.17200000000E+03 0. -1.
         -6    1    1    2    0  501  0.12271538956E+03  0.56450272364E+02 -0.22547933375E+03  0.31411881515E+03  0.17200000000E+03 0.  1.
</event>
<event>
 4    1  0.3191769E-002  0.3766760E+03  0.7818608E-02  0.1052169E+00
         -2   -1    0    0    0  501 -0.00000000000E+00  0.00000000000E+00  0.14057820105E+03  0.14057820105E+03  0.00000000000E+00 0.  1.
          2   -1    0    0  502    0  0.00000000000E+00 -0.00000000000E+00 -0.10888591273E+04  0.10888591273E+04  0.00000000000E+00 0. -1.
          6    1    1    2  502    0  0.25738907557E+03 -0.21459655227E+03 -0.30797133246E+03  0.48655026265E+03  0.17200000000E+03 0. -1.
         -6    1    1    2    0  501 -0.25738907557E+03  0.21459655227E+03 -0.64030959374E+03  0.74288706565E+03  0.17200000000E+03 0.  1.
</event>
<event>
 4    1  0.3191769E-002  0.2767975E+03  0.7818608E-02  0.1097451E+00
         -2   -1    0    0    0  501 -0.00000000000E+00  0.00000000000E+00  0.79851034987E+02  0.79851034987E+02  0.00000000000E+00 0.  1.
          2   -1    0    0  502    0  0.00000000000E+00 -0.00000000000E+00 -0.97737213675E+03  0.97737213675E+03  0.00000000000E+00 0. -1.
          6    1    1    2  502    0  0.20772159598E+03 -0.62326411528E+02 -0.37727320353E+03  0.46792297775E+03  0.17200000000E+03 0. -1.
         -6    1    1    2    0  501 -0.20772159598E+03  0.62326411528E+02 -0.52024789824E+03  0.58930019398E+03  0.17200000000E+03 0.  1.
</event>
<event>
 4    1  0.3191769E-002  0.2046559E+03  0.7818608E-02  0.1145869E+00
          3   -1    0    0  502    0  0.00000000000E+00  0.00000000000E+00  0.18011391738E+04  0.18011391738E+04  0.00000000000E+00 0. -1.
         -3   -1    0    0    0  501 -0.00000000000E+00 -0.00000000000E+00 -0.36780480723E+02  0.36780480723E+02  0.00000000000E+00 0.  1.
          6    1    1    2  502    0  0.24945409776E+02  0.10806369463E+03  0.14394640953E+04  0.14539397914E+04  0.17200000000E+03 0. -1.
         -6    1    1    2    0  501 -0.24945409776E+02 -0.10806369463E+03  0.32489459780E+03  0.38397986307E+03  0.17200000000E+03 0.  1.
</event>
<event>
 4    1  0.3191769E-002  0.2879875E+03  0.7818608E-02  0.1091405E+00
          3   -1    0    0  502    0  0.00000000000E+00  0.00000000000E+00  0.15374304616E+03  0.15374304616E+03  0.00000000000E+00 0. -1.
         -3   -1    0    0    0  501 -0.00000000000E+00 -0.00000000000E+00 -0.57184729342E+03  0.57184729342E+03  0.00000000000E+00 0.  1.
          6    1    1    2  502    0  0.23075415088E+03  0.10262501330E+02 -0.12270040333E+03  0.31303703624E+03  0.17200000000E+03 0. -1.
         -6    1    1    2    0  501 -0.23075415088E+03 -0.10262501330E+02 -0.29540384393E+03  0.41255330334E+03  0.17200000000E+03 0.  1.
</event>
<event>
 4    1  0.3191769E-002  0.4102766E+03  0.7818608E-02  0.1040278E+00
         -1   -1    0    0    0  501 -0.00000000000E+00  0.00000000000E+00  0.33792951116E+03  0.33792951116E+03  0.00000000000E+00 0.  1.
          1   -1    0    0  502    0  0.00000000000E+00 -0.00000000000E+00 -0.51550907432E+03  0.51550907432E+03  0.00000000000E+00 0. -1.
          6    1    1    2  502    0  0.37248003032E+03  0.12258613225E+01 -0.10400372678E+02  0.41040838622E+03  0.17200000000E+03 0. -1.
         -6    1    1    2    0  501 -0.37248003032E+03 -0.12258613225E+01 -0.16717919048E+03  0.44303019926E+03  0.17200000000E+03 0.  1.
</event>
<event>
 4    1  0.3191769E-002  0.4966663E+03  0.7818608E-02  0.1014653E+00
          1   -1    0    0  502    0  0.00000000000E+00  0.00000000000E+00  0.31385444826E+04  0.31385444826E+04  0.00000000000E+00 0. -1.
         -1   -1    0    0    0  501 -0.00000000000E+00 -0.00000000000E+00 -0.97144738842E+02  0.97144738842E+02  0.00000000000E+00 0.  1.
          6    1    1    2  502    0 -0.44819692864E+03  0.12733006236E+03  0.81375930376E+03  0.95335283924E+03  0.17200000000E+03 0. -1.
         -6    1    1    2    0  501  0.44819692864E+03 -0.12733006236E+03  0.22276404399E+04  0.22823363822E+04  0.17200000000E+03 0.  1.
</event>
<event>
 4    1  0.3191769E-002  0.1823625E+03  0.7818608E-02  0.1165536E+00
         -2   -1    0    0    0  501 -0.00000000000E+00  0.00000000000E+00  0.62855080869E+02  0.62855080869E+02  0.00000000000E+00 0.  1.
          2   -1    0    0  502    0  0.00000000000E+00 -0.00000000000E+00 -0.15001724269E+04  0.15001724269E+04  0.00000000000E+00 0. -1.
          6    1    1    2  502    0  0.57306584574E+02 -0.19698199967E+02 -0.13474316061E+04  0.13597161457E+04  0.17200000000E+03 0. -1.
         -6    1    1    2    0  501 -0.57306584574E+02  0.19698199967E+02 -0.89885739967E+02  0.20331136212E+03  0.17200000000E+03 0.  1.
</event>
<event>
 4    1  0.3191769E-002  0.2290623E+03  0.7818608E-02  0.1127302E+00
          1   -1    0    0  502    0  0.00000000000E+00  0.00000000000E+00  0.11248850963E+04  0.11248850963E+04  0.00000000000E+00 0. -1.
         -1   -1    0    0    0  501 -0.00000000000E+00 -0.00000000000E+00 -0.50162040486E+02  0.50162040486E+02  0.00000000000E+00 0.  1.
          6    1    1    2  502    0 -0.14413440168E+03 -0.45943412301E+02  0.69294631349E+03  0.72982471612E+03  0.17200000000E+03 0. -1.
         -6    1    1    2    0  501  0.14413440168E+03  0.45943412301E+02  0.38177674231E+03  0.44522242065E+03  0.17200000000E+03 0.  1.
</event>
<event>
 4    1  0.3191769E-002  0.2042413E+03  0.7818608E-02  0.1146209E+00
         -2   -1    0    0    0  501 -0.00000000000E+00  0.00000000000E+00  0.67011275317E+02  0.67011275317E+02  0.00000000000E+00 0.  1.
          2   -1    0    0  502    0  0.00000000000E+00 -0.00000000000E+00 -0.69294479992E+03  0.69294479992E+03  0.00000000000E+00 0. -1.
          6    1    1    2  502    0  0.44069176394E+02 -0.10093776891E+03 -0.43411953036E+03  0.47976483003E+03  0.17200000000E+03 0. -1.
         -6    1    1    2    0  501 -0.44069176394E+02  0.10093776891E+03 -0.19181399425E+03  0.28019124521E+03  0.17200000000E+03 0.  1.
</event>
<event>
 4    1  0.3191769E-002  0.2181910E+03  0.7818608E-02  0.1135239E+00
         -2   -1    0    0    0  501 -0.00000000000E+00  0.00000000000E+00  0.50513307972E+02  0.50513307972E+02  0.00000000000E+00 0.  1.
          2   -1    0    0  502    0  0.00000000000E+00 -0.00000000000E+00 -0.10467922531E+04  0.10467922531E+04  0.00000000000E+00 0. -1.
          6    1    1    2  502    0  0.68798420286E+02 -0.11528273318E+03 -0.67134174879E+03  0.70590868734E+03  0.17200000000E+03 0. -1.
         -6    1    1    2    0  501 -0.68798420286E+02  0.11528273318E+03 -0.32493719637E+03  0.39139687376E+03  0.17200000000E+03 0.  1.
</event>
<event>
 4    1  0.3191769E-002  0.2425378E+03  0.7818608E-02  0.1118114E+00
         -2   -1    0    0    0  501 -0.00000000000E+00  0.00000000000E+00  0.32623739667E+02  0.32623739667E+02  0.00000000000E+00 0.  1.
          2   -1    0    0  502    0  0.00000000000E+00 -0.00000000000E+00 -0.24618411094E+04  0.24618411094E+04  0.00000000000E+00 0. -1.
          6    1    1    2  502    0 -0.16979610928E+03  0.20245720055E+02 -0.18597684270E+04  0.18755167848E+04  0.17200000000E+03 0. -1.
         -6    1    1    2    0  501  0.16979610928E+03 -0.20245720055E+02 -0.56944894269E+03  0.61894806425E+03  0.17200000000E+03 0.  1.
</event>
<event>
 4    1  0.3191769E-002  0.2252531E+03  0.7818608E-02  0.1130026E+00
         -2   -1    0    0    0  501 -0.00000000000E+00  0.00000000000E+00  0.31209136160E+02  0.31209136160E+02  0.00000000000E+00 0.  1.
          2   -1    0    0  502    0  0.00000000000E+00 -0.00000000000E+00 -0.17246102185E+04  0.17246102185E+04  0.00000000000E+00 0. -1.
          6    1    1    2  502    0 -0.59535301247E+02  0.13270457678E+03 -0.10568680668E+04  0.10806058797E+04  0.17200000000E+03 0.  1.
         -6    1    1    2    0  501  0.59535301247E+02 -0.13270457678E+03 -0.63653301561E+03  0.67521347495E+03  0.17200000000E+03 0.  1.
</event>
<event>
 4    1  0.3191769E-002  0.1974942E+03  0.7818608E-02  0.1151871E+00
          2   -1    0    0  502    0  0.00000000000E+00  0.00000000000E+00  0.30134908761E+03  0.30134908761E+03  0.00000000000E+00 0. -1.
         -2   -1    0    0    0  501 -0.00000000000E+00 -0.00000000000E+00 -0.17313825257E+03  0.17313825257E+03  0.00000000000E+00 0.  1.
          6    1    1    2  502    0 -0.84964377500E+02  0.46914917003E+02 -0.55094016883E+02  0.20503488868E+03  0.17200000000E+03 0.  1.
         -6    1    1    2    0  501  0.84964377500E+02 -0.46914917003E+02  0.18330485193E+03  0.26945245150E+03  0.17200000000E+03 0. -1.
</event>
<event>
 4    1  0.3191769E-002  0.1753268E+03  0.7818608E-02  0.1172404E+00
          1   -1    0    0  502    0  0.00000000000E+00  0.00000000000E+00  0.66231546629E+03  0.66231546629E+03  0.00000000000E+00 0. -1.
         -1   -1    0    0    0  501 -0.00000000000E+00 -0.00000000000E+00 -0.22946071010E+03  0.22946071010E+03  0.00000000000E+00 0.  1.
          6    1    1    2  502    0 -0.97926304455E+01 -0.32551239161E+02  0.61467654228E+03  0.63919224839E+03  0.17200000000E+03 0. -1.
         -6    1    1    2    0  501  0.97926304455E+01  0.32551239161E+02 -0.18182178609E+03  0.25258392799E+03  0.17200000000E+03 0.  1.
</event>
<event>
 4    1  0.3191769E-002  0.3044034E+03  0.7818608E-02  0.1083060E+00
          2   -1    0    0  502    0  0.00000000000E+00  0.00000000000E+00  0.17581794208E+04  0.17581794208E+04  0.00000000000E+00 0. -1.
         -2   -1    0    0    0  501 -0.00000000000E+00 -0.00000000000E+00 -0.68843456477E+02  0.68843456477E+02  0.00000000000E+00 0.  1.
          6    1    1    2  502    0 -0.19315873298E+03 -0.16052147212E+03  0.12869911912E+04  0.13225005729E+04  0.17200000000E+03 0. -1.
         -6    1    1    2    0  501  0.19315873298E+03  0.16052147212E+03  0.40234477312E+03  0.50452230436E+03  0.17200000000E+03 0.  1.
</event>
<event>
 4    1  0.3191769E-002  0.2508628E+03  0.7818608E-02  0.1112761E+00
          1   -1    0    0  502    0  0.00000000000E+00  0.00000000000E+00  0.60002388836E+03  0.60002388836E+03  0.00000000000E+00 0. -1.
         -1   -1    0    0    0  501 -0.00000000000E+00 -0.00000000000E+00 -0.17389897447E+03  0.17389897447E+03  0.00000000000E+00 0.  1.
          6    1    1    2  502    0  0.18164421222E+03  0.18802198964E+02  0.45684064076E+03  0.52118663987E+03  0.17200000000E+03 0. -1.
         -6    1    1    2    0  501 -0.18164421222E+03 -0.18802198964E+02 -0.30715726879E+02  0.25273622296E+03  0.17200000000E+03 0.  1.
</event>
<event>
 4    1  0.3191769E-002  0.2790856E+03  0.7818608E-02  0.1096189E+00
         -1   -1    0    0    0  501 -0.00000000000E+00  0.00000000000E+00  0.98970142060E+02  0.98970142060E+02  0.00000000000E+00 0.  1.
          1   -1    0    0  502    0  0.00000000000E+00 -0.00000000000E+00 -0.18183193283E+04  0.18183193283E+04  0.00000000000E+00 0. -1.
          6    1    1    2  502    0  0.21921896101E+03 -0.15741851727E+02 -0.15816472886E+04  0.16060812260E+04  0.17200000000E+03 0. -1.
         -6    1    1    2    0  501 -0.21921896101E+03  0.15741851727E+02 -0.13770189757E+03  0.31120824436E+03  0.17200000000E+03 0.  1.
</event>
<event>
 4    1  0.3191769E-002  0.1724016E+03  0.7818608E-02  0.1175366E+00
          2   -1    0    0  502    0  0.00000000000E+00  0.00000000000E+00  0.11922010737E+04  0.11922010737E+04  0.00000000000E+00 0. -1.
         -2   -1    0    0    0  501 -0.00000000000E+00 -0.00000000000E+00 -0.28925476821E+02  0.28925476821E+02  0.00000000000E+00 0.  1.
          6    1    1    2  502    0 -0.11650773139E+02  0.15987168408E+01  0.80854157902E+03  0.82671747375E+03  0.17200000000E+03 0. -1.
         -6    1    1    2    0  501  0.11650773139E+02 -0.15987168408E+01  0.35473401789E+03  0.39440907680E+03  0.17200000000E+03 0.  1.
</event>
<event>
 4    1  0.3191769E-002  0.3110527E+03  0.7818608E-02  0.1079842E+00
         -2   -1    0    0    0  501 -0.00000000000E+00  0.00000000000E+00  0.32995492229E+03  0.32995492229E+03  0.00000000000E+00 0.  1.
          2   -1    0    0  502    0  0.00000000000E+00 -0.00000000000E+00 -0.42846171962E+03  0.42846171962E+03  0.00000000000E+00 0. -1.
          6    1    1    2  502    0 -0.25165827399E+03  0.61950582776E+02  0.16378401254E+03  0.35153799843E+03  0.17200000000E+03 0.  1.
         -6    1    1    2    0  501  0.25165827399E+03 -0.61950582776E+02 -0.26229080988E+03  0.40687864348E+03  0.17200000000E+03 0.  1.
</event>
<event>
 4    1  0.3191769E-002  0.1981189E+03  0.7818608E-02  0.1151336E+00
         -2   -1    0    0    0  501 -0.00000000000E+00  0.00000000000E+00  0.51064354418E+02  0.51064354418E+02  0.00000000000E+00 0.  1.
          2   -1    0    0  502    0  0.00000000000E+00 -0.00000000000E+00 -0.86555389535E+03  0.86555389535E+03  0.00000000000E+00 0. -1.
          6    1    1    2  502    0 -0.98319739702E+02 -0.57282794132E+00 -0.56058667516E+03  0.59456582454E+03  0.17200000000E+03 0. -1.
         -6    1    1    2    0  501  0.98319739702E+02  0.57282794132E+00 -0.25390286578E+03  0.32205242523E+03  0.17200000000E+03 0.  1.
</event>
<event>
 4    1  0.3191769E-002  0.3011446E+03  0.7818608E-02  0.1084670E+00
          1   -1    0    0  502    0  0.00000000000E+00  0.00000000000E+00  0.29689662105E+03  0.29689662105E+03  0.00000000000E+00 0. -1.
         -1   -1    0    0    0  501 -0.00000000000E+00 -0.00000000000E+00 -0.30556875183E+03  0.30556875183E+03  0.00000000000E+00 0.  1.
          6    1    1    2  502    0 -0.23803454844E+03  0.66660587532E+02  0.15168684519E+01  0.30114843694E+03  0.17200000000E+03 0. -1.
         -6    1    1    2    0  501  0.23803454844E+03 -0.66660587532E+02 -0.10188999232E+02  0.30131693594E+03  0.17200000000E+03 0.  1.
</event>
<event>
 4    1  0.3191769E-002  0.4554078E+03  0.7818608E-02  0.1026122E+00
          2   -1    0    0  502    0  0.00000000000E+00  0.00000000000E+00  0.21016912309E+04  0.21016912309E+04  0.00000000000E+00 0. -1.
         -2   -1    0    0    0  501 -0.00000000000E+00 -0.00000000000E+00 -0.99158854103E+02  0.99158854103E+02  0.00000000000E+00 0.  1.
          6    1    1    2  502    0 -0.34106208444E+03  0.24796961787E+03  0.10776844280E+04  0.11699572655E+04  0.17200000000E+03 0.  1.
         -6    1    1    2    0  501  0.34106208444E+03 -0.24796961787E+03  0.92484794881E+03  0.10308928195E+04  0.17200000000E+03 0. -1.
</event>
<event>
 4    1  0.3191769E-002  0.1858089E+03  0.7818608E-02  0.1162297E+00
         -2   -1    0    0    0  501 -0.00000000000E+00  0.00000000000E+00  0.29018196416E+02  0.29018196416E+02  0.00000000000E+00 0.  1.
          2   -1    0    0  502    0  0.00000000000E+00 -0.00000000000E+00 -0.13246184056E+04  0.13246184056E+04  0.00000000000E+00 0. -1.
          6    1    1    2  502    0  0.66256299308E+02 -0.23474696819E+02 -0.43185131611E+03  0.47012819296E+03  0.17200000000E+03 0.  1.
         -6    1    1    2    0  501 -0.66256299308E+02  0.23474696819E+02 -0.86374889304E+03  0.88350840903E+03  0.17200000000E+03 0. -1.
</event>
<event>
 4    1  0.3191769E-002  0.2644937E+03  0.7818608E-02  0.1104473E+00
         -1   -1    0    0    0  501 -0.00000000000E+00  0.00000000000E+00  0.54846854331E+03  0.54846854331E+03  0.00000000000E+00 0.  1.
          1   -1    0    0  502    0  0.00000000000E+00 -0.00000000000E+00 -0.17936978066E+03  0.17936978066E+03  0.00000000000E+00 0. -1.
          6    1    1    2  502    0 -0.19005115895E+03 -0.65218683641E+02 -0.11055607397E+02  0.26472466105E+03  0.17200000000E+03 0. -1.
         -6    1    1    2    0  501  0.19005115895E+03  0.65218683641E+02  0.38015437005E+03  0.46311366292E+03  0.17200000000E+03 0.  1.
</event>
<event>
 4    1  0.3191769E-002  0.1878677E+03  0.7818608E-02  0.1160399E+00
          1   -1    0    0  502    0  0.00000000000E+00  0.00000000000E+00  0.25581957984E+03  0.25581957984E+03  0.00000000000E+00 0. -1.
         -1   -1    0    0    0  501 -0.00000000000E+00 -0.00000000000E+00 -0.21475285855E+03  0.21475285855E+03  0.00000000000E+00 0.  1.
          6    1    1    2  502    0 -0.75563077698E+02 -0.69521465736E+00  0.16122621338E+03  0.24756444397E+03  0.17200000000E+03 0. -1.
         -6    1    1    2    0  501  0.75563077698E+02  0.69521465736E+00 -0.12015949210E+03  0.22300799442E+03  0.17200000000E+03 0.  1.
</event>
<event>
 4    1  0.3191769E-002  0.3776929E+03  0.7818608E-02  0.1051790E+00
          2   -1    0    0  502    0  0.00000000000E+00  0.00000000000E+00  0.24416387106E+04  0.24416387106E+04  0.00000000000E+00 0. -1.
         -2   -1    0    0    0  501 -0.00000000000E+00 -0.00000000000E+00 -0.66528145084E+02  0.66528145084E+02  0.00000000000E+00 0.  1.
          6    1    1    2  502    0  0.14529315230E+03  0.30324542722E+03  0.16252384902E+04  0.16685478835E+04  0.17200000000E+03 0. -1.
         -6    1    1    2    0  501 -0.14529315230E+03 -0.30324542722E+03  0.74987207524E+03  0.83961897219E+03  0.17200000000E+03 0.  1.
</event>
<event>
 4    1  0.3191769E-002  0.5223326E+03  0.7818608E-02  0.1008109E+00
         -2   -1    0    0    0  501 -0.00000000000E+00  0.00000000000E+00  0.10415100999E+04  0.10415100999E+04  0.00000000000E+00 0.  1.
          2   -1    0    0  502    0  0.00000000000E+00 -0.00000000000E+00 -0.46173205723E+03  0.46173205723E+03  0.00000000000E+00 0. -1.
          6    1    1    2  502    0  0.40720002016E+03 -0.27827241582E+03 -0.20450591400E+03  0.56094033790E+03  0.17200000000E+03 0. -1.
         -6    1    1    2    0  501 -0.40720002016E+03  0.27827241582E+03  0.78428395665E+03  0.94230181920E+03  0.17200000000E+03 0.  1.
</event>
<event>
 4    1  0.3191769E-002  0.2043919E+03  0.7818608E-02  0.1146086E+00
         -2   -1    0    0    0  501 -0.00000000000E+00  0.00000000000E+00  0.34606978230E+02  0.34606978230E+02  0.00000000000E+00 0.  1.
          2   -1    0    0  502    0  0.00000000000E+00 -0.00000000000E+00 -0.14175978176E+04  0.14175978176E+04  0.00000000000E+00 0. -1.
          6    1    1    2  502    0  0.69109412258E+02 -0.86115756749E+02 -0.97125630081E+03  0.99252951406E+03  0.17200000000E+03 0. -1.
         -6    1    1    2    0  501 -0.69109412258E+02  0.86115756749E+02 -0.41173453855E+03  0.45967528175E+03  0.17200000000E+03 0. -1.
</event>
<event>
 4    1  0.3191769E-002  0.2605319E+03  0.7818608E-02  0.1106824E+00
         -1   -1    0    0    0  501 -0.00000000000E+00  0.00000000000E+00  0.51538405887E+03  0.51538405887E+03  0.00000000000E+00 0.  1.
          1   -1    0    0  502    0  0.00000000000E+00 -0.00000000000E+00 -0.19806352045E+03  0.19806352045E+03  0.00000000000E+00 0. -1.
          6    1    1    2  502    0 -0.14188857066E+03 -0.13476089417E+03 -0.47825227794E+02  0.26488510244E+03  0.17200000000E+03 0. -1.
         -6    1    1    2    0  501  0.14188857066E+03  0.13476089417E+03  0.36514576621E+03  0.44856247688E+03  0.17200000000E+03 0.  1.
</event>
<event>
 4    1  0.3191769E-002  0.3600647E+03  0.7818608E-02  0.1058558E+00
         -2   -1    0    0    0  501 -0.00000000000E+00  0.00000000000E+00  0.23529209928E+03  0.23529209928E+03  0.00000000000E+00 0.  1.
          2   -1    0    0  502    0  0.00000000000E+00 -0.00000000000E+00 -0.55291931427E+03  0.55291931427E+03  0.00000000000E+00 0. -1.
          6    1    1    2  502    0 -0.45415896281E+02  0.31304947886E+03 -0.18201693293E+03  0.40345599974E+03  0.17200000000E+03 0. -1.
         -6    1    1    2    0  501  0.45415896281E+02 -0.31304947886E+03 -0.13561028207E+03  0.38475541381E+03  0.17200000000E+03 0.  1.
</event>
<event>
 4    1  0.3191769E-002  0.1862931E+03  0.7818608E-02  0.1161848E+00
          1   -1    0    0  502    0  0.00000000000E+00  0.00000000000E+00  0.76028523414E+02  0.76028523414E+02  0.00000000000E+00 0. -1.
         -1   -1    0    0    0  501 -0.00000000000E+00 -0.00000000000E+00 -0.85061060461E+03  0.85061060461E+03  0.00000000000E+00 0.  1.
          6    1    1    2  502    0  0.40478247276E+02  0.59013829082E+02 -0.71908189484E+02  0.19968952962E+03  0.17200000000E+03 0. -1.
         -6    1    1    2    0  501 -0.40478247276E+02 -0.59013829082E+02 -0.70267389171E+03  0.72694959841E+03  0.17200000000E+03 0.  1.
</event>
<event>
 4    1  0.3191769E-002  0.1875132E+03  0.7818608E-02  0.1160724E+00
          1   -1    0    0  502    0  0.00000000000E+00  0.00000000000E+00  0.44527015998E+03  0.44527015998E+03  0.00000000000E+00 0. -1.
         -1   -1    0    0    0  501 -0.00000000000E+00 -0.00000000000E+00 -0.11353848291E+03  0.11353848291E+03  0.00000000000E+00 0.  1.
          6    1    1    2  502    0  0.43321025457E+02 -0.60831569711E+02  0.32004548117E+03  0.37093166640E+03  0.17200000000E+03 0. -1.
         -6    1    1    2    0  501 -0.43321025457E+02  0.60831569711E+02  0.11686195888E+02  0.18787697649E+03  0.17200000000E+03 0.  1.
</event>
<event>
 4    1  0.3191769E-002  0.1946112E+03  0.7818608E-02  0.1154367E+00
         -2   -1    0    0    0  501 -0.00000000000E+00  0.00000000000E+00  0.47597792643E+03  0.47597792643E+03  0.00000000000E+00 0.  1.
          2   -1    0    0  502    0  0.00000000000E+00 -0.00000000000E+00 -0.88297821002E+03  0.88297821002E+03  0.00000000000E+00 0. -1.
          6    1    1    2  502    0  0.58448918839E+02  0.69808696198E+02 -0.85163980929E+03  0.87359252226E+03  0.17200000000E+03 0. -1.
         -6    1    1    2    0  501 -0.58448918839E+02 -0.69808696198E+02  0.44463952570E+03  0.48536361420E+03  0.17200000000E+03 0.  1.
</event>
<event>
 4    1  0.3191769E-002  0.1829550E+03  0.7818608E-02  0.1164973E+00
          2   -1    0    0  502    0  0.00000000000E+00  0.00000000000E+00  0.66414635531E+03  0.66414635531E+03  0.00000000000E+00 0. -1.
         -2   -1    0    0    0  501 -0.00000000000E+00 -0.00000000000E+00 -0.65898522542E+02  0.65898522542E+02  0.00000000000E+00 0.  1.
          6    1    1    2  502    0 -0.59524837694E+02 -0.18582484058E+02  0.12209810056E+03  0.21995558910E+03  0.17200000000E+03 0.  1.
         -6    1    1    2    0  501  0.59524837694E+02  0.18582484058E+02  0.47614973221E+03  0.51008928875E+03  0.17200000000E+03 0. -1.
</event>
<event>
 4    1  0.3191769E-002  0.2481779E+03  0.7818608E-02  0.1114462E+00
         -2   -1    0    0    0  501 -0.00000000000E+00  0.00000000000E+00  0.20364753232E+02  0.20364753232E+02  0.00000000000E+00 0.  1.
          2   -1    0    0  502    0  0.00000000000E+00 -0.00000000000E+00 -0.30567508191E+04  0.30567508191E+04  0.00000000000E+00 0. -1.
          6    1    1    2  502    0 -0.12389555545E+03 -0.12906652805E+03 -0.13600472038E+04  0.13825052166E+04  0.17200000000E+03 0.  1.
         -6    1    1    2    0  501  0.12389555545E+03  0.12906652805E+03 -0.16763388620E+04  0.16946103557E+04  0.17200000000E+03 0. -1.
</event>
<event>
 4    1  0.3191769E-002  0.2561051E+03  0.7818608E-02  0.1109506E+00
          2   -1    0    0  502    0  0.00000000000E+00  0.00000000000E+00  0.40571154566E+04  0.40571154566E+04  0.00000000000E+00 0. -1.
         -2   -1    0    0    0  501 -0.00000000000E+00 -0.00000000000E+00 -0.37670172060E+02  0.37670172060E+02  0.00000000000E+00 0.  1.
          6    1    1    2  502    0  0.10860304012E+02  0.18944099812E+03  0.46283955967E+03  0.52897097838E+03  0.17200000000E+03 0.  1.
         -6    1    1    2    0  501 -0.10860304012E+02 -0.18944099812E+03  0.35566057249E+04  0.35658146503E+04  0.17200000000E+03 0. -1.
</event>
<event>
 4    1  0.3191769E-002  0.4560006E+03  0.7818608E-02  0.1025948E+00
         -1   -1    0    0    0  501 -0.00000000000E+00  0.00000000000E+00  0.17457290778E+03  0.17457290778E+03  0.00000000000E+00 0.  1.
          1   -1    0    0  502    0  0.00000000000E+00 -0.00000000000E+00 -0.13380722691E+04  0.13380722691E+04  0.00000000000E+00 0. -1.
          6    1    1    2  502    0  0.41553172505E+03 -0.75405232824E+02 -0.83239610520E+03  0.94911529311E+03  0.17200000000E+03 0.  1.
         -6    1    1    2    0  501 -0.41553172505E+03  0.75405232824E+02 -0.33110325608E+03  0.56352988373E+03  0.17200000000E+03 0.  1.
</event>
<event>
 4    1  0.3191769E-002  0.2243520E+03  0.7818608E-02  0.1130679E+00
          2   -1    0    0  502    0  0.00000000000E+00  0.00000000000E+00  0.36059691906E+04  0.36059691906E+04  0.00000000000E+00 0. -1.
         -2   -1    0    0    0  501 -0.00000000000E+00 -0.00000000000E+00 -0.49818376078E+02  0.49818376078E+02  0.00000000000E+00 0.  1.
          6    1    1    2  502    0  0.72171434036E+02  0.12466393132E+03  0.33288931039E+04  0.33364446809E+04  0.17200000000E+03 0. -1.
         -6    1    1    2    0  501 -0.72171434036E+02 -0.12466393132E+03  0.22725771071E+03  0.31934288585E+03  0.17200000000E+03 0.  1.
</event>
<event>
 4    1  0.3191769E-002  0.1945445E+03  0.7818608E-02  0.1154425E+00
          2   -1    0    0  502    0  0.00000000000E+00  0.00000000000E+00  0.71755513505E+03  0.71755513505E+03  0.00000000000E+00 0. -1.
         -2   -1    0    0    0  501 -0.00000000000E+00 -0.00000000000E+00 -0.72003770916E+02  0.72003770916E+02  0.00000000000E+00 0.  1.
          6    1    1    2  502    0 -0.89438955164E+02 -0.16255571968E+02  0.52694441990E+03  0.56170988240E+03  0.17200000000E+03 0. -1.
         -6    1    1    2    0  501  0.89438955164E+02  0.16255571968E+02  0.11860694424E+03  0.22784902357E+03  0.17200000000E+03 0.  1.
</event>
<event>
 4    1  0.3191769E-002  0.2205156E+03  0.7818608E-02  0.1133499E+00
         -1   -1    0    0    0  501 -0.00000000000E+00  0.00000000000E+00  0.15665812492E+03  0.15665812492E+03  0.00000000000E+00 0.  1.
          1   -1    0    0  502    0  0.00000000000E+00 -0.00000000000E+00 -0.31185731449E+03  0.31185731449E+03  0.00000000000E+00 0. -1.
          6    1    1    2  502    0 -0.10114643972E+03  0.93875115249E+02 -0.61601917008E+02  0.22895837113E+03  0.17200000000E+03 0. -1.
         -6    1    1    2    0  501  0.10114643972E+03 -0.93875115249E+02 -0.93597272561E+02  0.23955706828E+03  0.17200000000E+03 0. -1.
</event>
<event>
 4    1  0.3191769E-002  0.1994140E+03  0.7818608E-02  0.1150234E+00
          2   -1    0    0  502    0  0.00000000000E+00  0.00000000000E+00  0.45806561203E+03  0.45806561203E+03  0.00000000000E+00 0. -1.
         -2   -1    0    0    0  501 -0.00000000000E+00 -0.00000000000E+00 -0.10075811966E+03  0.10075811966E+03  0.00000000000E+00 0.  1.
          6    1    1    2  502    0  0.67955298769E+02 -0.74592399571E+02  0.28260252308E+03  0.34587589502E+03  0.17200000000E+03 0. -1.
         -6    1    1    2    0  501 -0.67955298769E+02  0.74592399571E+02  0.74704969297E+02  0.21294783667E+03  0.17200000000E+03 0.  1.
</event>
<event>
 4    1  0.3191769E-002  0.1869603E+03  0.7818608E-02  0.1161232E+00
          2   -1    0    0  502    0  0.00000000000E+00  0.00000000000E+00  0.13741539622E+04  0.13741539622E+04  0.00000000000E+00 0. -1.
         -2   -1    0    0    0  501 -0.00000000000E+00 -0.00000000000E+00 -0.25447660651E+02  0.25447660651E+02  0.00000000000E+00 0.  1.
          6    1    1    2  502    0  0.39945491306E+02  0.61437184746E+02  0.65994001353E+03  0.68591179565E+03  0.17200000000E+03 0.  1.
         -6    1    1    2    0  501 -0.39945491306E+02 -0.61437184746E+02  0.68876628799E+03  0.71368982717E+03  0.17200000000E+03 0.  1.
</event>
<event>
 4    1  0.3191769E-002  0.3861001E+03  0.7818608E-02  0.1048702E+00
          3   -1    0    0  502    0  0.00000000000E+00  0.00000000000E+00  0.20415516617E+03  0.20415516617E+03  0.00000000000E+00 0. -1.
         -3   -1    0    0    0  501 -0.00000000000E+00 -0.00000000000E+00 -0.75085010722E+03  0.75085010722E+03  0.00000000000E+00 0.  1.
          6    1    1    2  502    0 -0.21748103005E+03 -0.26868443017E+03 -0.19415196710E+03  0.43216699061E+03  0.17200000000E+03 0. -1.
         -6    1    1    2    0  501  0.21748103005E+03  0.26868443017E+03 -0.35254297395E+03  0.52283828277E+03  0.17200000000E+03 0.  1.
</event>
<event>
 4    1  0.3191769E-002  0.2028325E+03  0.7818608E-02  0.1147371E+00
         -2   -1    0    0    0  501 -0.00000000000E+00  0.00000000000E+00  0.10568214921E+03  0.10568214921E+03  0.00000000000E+00 0.  1.
          2   -1    0    0  502    0  0.00000000000E+00 -0.00000000000E+00 -0.41045155237E+03  0.41045155237E+03  0.00000000000E+00 0. -1.
          6    1    1    2  502    0 -0.59485410107E+02  0.89546087319E+02 -0.93787904655E+02  0.22346629909E+03  0.17200000000E+03 0.  1.
         -6    1    1    2    0  501  0.59485410107E+02 -0.89546087319E+02 -0.21098149850E+03  0.29266740249E+03  0.17200000000E+03 0. -1.
</event>
<event>
 4    1  0.3191769E-002  0.1791485E+03  0.7818608E-02  0.1168630E+00
         -2   -1    0    0    0  501 -0.00000000000E+00  0.00000000000E+00  0.22449837885E+02  0.22449837885E+02  0.00000000000E+00 0.  1.
          2   -1    0    0  502    0  0.00000000000E+00 -0.00000000000E+00 -0.14807797714E+04  0.14807797714E+04  0.00000000000E+00 0. -1.
          6    1    1    2  502    0 -0.42238089185E+01  0.49923521093E+02 -0.58942642213E+03  0.61605008370E+03  0.17200000000E+03 0.  1.
         -6    1    1    2    0  501  0.42238089185E+01 -0.49923521093E+02 -0.86890351136E+03  0.88717952556E+03  0.17200000000E+03 0. -1.
</event>
<event>
 4    1  0.3191769E-002  0.2433468E+03  0.7818608E-02  0.1117583E+00
         -2   -1    0    0    0  501 -0.00000000000E+00  0.00000000000E+00  0.53179887200E+02  0.53179887200E+02  0.00000000000E+00 0.  1.
          2   -1    0    0  502    0  0.00000000000E+00 -0.00000000000E+00 -0.11474157284E+04  0.11474157284E+04  0.00000000000E+00 0. -1.
          6    1    1    2  502    0  0.21402401491E+02 -0.17080871279E+03 -0.44396510059E+03  0.50628321096E+03  0.17200000000E+03 0.  1.
         -6    1    1    2    0  501 -0.21402401491E+02  0.17080871279E+03 -0.65027074064E+03  0.69431240468E+03  0.17200000000E+03 0.  1.
</event>
<event>
 4    1  0.3191769E-002  0.1949951E+03  0.7818608E-02  0.1154032E+00
         -2   -1    0    0    0  501 -0.00000000000E+00  0.00000000000E+00  0.74498856908E+02  0.74498856908E+02  0.00000000000E+00 0.  1.
          2   -1    0    0  502    0  0.00000000000E+00 -0.00000000000E+00 -0.51218570575E+03  0.51218570575E+03  0.00000000000E+00 0. -1.
          6    1    1    2  502    0  0.37168325030E+02 -0.84009600927E+02 -0.20145000443E+03  0.28036619218E+03  0.17200000000E+03 0.  1.
         -6    1    1    2    0  501 -0.37168325030E+02  0.84009600927E+02 -0.23623684441E+03  0.30631837047E+03  0.17200000000E+03 0.  1.
</event>
<event>
 4    1  0.3191769E-002  0.2306264E+03  0.7818608E-02  0.1126200E+00
          2   -1    0    0  502    0  0.00000000000E+00  0.00000000000E+00  0.71549656823E+03  0.71549656823E+03  0.00000000000E+00 0. -1.
         -2   -1    0    0    0  501 -0.00000000000E+00 -0.00000000000E+00 -0.92543229878E+02  0.92543229878E+02  0.00000000000E+00 0.  1.
          6    1    1    2  502    0  0.13779476174E+03  0.67949663220E+02  0.49067296426E+03  0.54217018633E+03  0.17200000000E+03 0. -1.
         -6    1    1    2    0  501 -0.13779476174E+03 -0.67949663220E+02  0.13228037410E+03  0.26586961178E+03  0.17200000000E+03 0.  1.
</event>
<event>
 4    1  0.3191769E-002  0.2258590E+03  0.7818608E-02  0.1129589E+00
          2   -1    0    0  502    0  0.00000000000E+00  0.00000000000E+00  0.21678333838E+04  0.21678333838E+04  0.00000000000E+00 0. -1.
         -2   -1    0    0    0  501 -0.00000000000E+00 -0.00000000000E+00 -0.24105525343E+02  0.24105525343E+02  0.00000000000E+00 0.  1.
          6    1    1    2  502    0 -0.41883687800E+01 -0.14632408659E+03  0.12409942523E+04  0.12613798060E+04  0.17200000000E+03 0. -1.
         -6    1    1    2    0  501  0.41883687800E+01  0.14632408659E+03  0.90273360612E+03  0.93055910311E+03  0.17200000000E+03 0.  1.
</event>
<event>
 4    1  0.3191769E-002  0.2688667E+03  0.7818608E-02  0.1101930E+00
          2   -1    0    0  502    0  0.00000000000E+00  0.00000000000E+00  0.24982363488E+04  0.24982363488E+04  0.00000000000E+00 0. -1.
         -2   -1    0    0    0  501 -0.00000000000E+00 -0.00000000000E+00 -0.54791846156E+02  0.54791846156E+02  0.00000000000E+00 0.  1.
          6    1    1    2  502    0  0.15901389780E+03  0.13198434793E+03  0.20986139274E+04  0.21157669305E+04  0.17200000000E+03 0. -1.
         -6    1    1    2    0  501 -0.15901389780E+03 -0.13198434793E+03  0.34483057523E+03  0.43726126447E+03  0.17200000000E+03 0.  1.
</event>
<event>
 4    1  0.3191769E-002  0.8533389E+03  0.7818608E-02  0.9485867E-01
         -2   -1    0    0    0  501 -0.00000000000E+00  0.00000000000E+00  0.31224008110E+03  0.31224008110E+03  0.00000000000E+00 0.  1.
          2   -1    0    0  502    0  0.00000000000E+00 -0.00000000000E+00 -0.23993279352E+04  0.23993279352E+04  0.00000000000E+00 0. -1.
          6    1    1    2  502    0 -0.80050490696E+03 -0.24040621757E+03 -0.12704231553E+04  0.15304124441E+04  0.17200000000E+03 0. -1.
         -6    1    1    2    0  501  0.80050490696E+03  0.24040621757E+03 -0.81666469878E+03  0.11811555722E+04  0.17200000000E+03 0.  1.
</event>
<event>
 4    1  0.3191769E-002  0.2088800E+03  0.7818608E-02  0.1142456E+00
          4   -1    0    0  502    0  0.00000000000E+00  0.00000000000E+00  0.48398564491E+02  0.48398564491E+02  0.00000000000E+00 0. -1.
         -4   -1    0    0    0  501 -0.00000000000E+00 -0.00000000000E+00 -0.94276115595E+03  0.94276115595E+03  0.00000000000E+00 0.  1.
          6    1    1    2  502    0 -0.11380861502E+01  0.11851394159E+03 -0.34349219326E+03  0.40201708474E+03  0.17200000000E+03 0. -1.
         -6    1    1    2    0  501  0.11380861502E+01 -0.11851394159E+03 -0.55087039819E+03  0.58914263570E+03  0.17200000000E+03 0.  1.
</event>
<event>
 4    1  0.3191769E-002  0.2790211E+03  0.7818608E-02  0.1096225E+00
         -2   -1    0    0    0  501 -0.00000000000E+00  0.00000000000E+00  0.92030732543E+02  0.92030732543E+02  0.00000000000E+00 0.  1.
          2   -1    0    0  502    0  0.00000000000E+00 -0.00000000000E+00 -0.27968254840E+04  0.27968254840E+04  0.00000000000E+00 0. -1.
          6    1    1    2  502    0 -0.86458698421E+02 -0.20197447703E+03 -0.25587624381E+04  0.25739304595E+04  0.17200000000E+03 0. -1.
         -6    1    1    2    0  501  0.86458698421E+02  0.20197447703E+03 -0.14603231342E+03  0.31492575707E+03  0.17200000000E+03 0.  1.
</event>
<event>
 4    1  0.3191769E-002  0.2145064E+03  0.7818608E-02  0.1138046E+00
         -1   -1    0    0    0  501 -0.00000000000E+00  0.00000000000E+00  0.30840145939E+02  0.30840145939E+02  0.00000000000E+00 0.  1.
          1   -1    0    0  502    0  0.00000000000E+00 -0.00000000000E+00 -0.15506638081E+04  0.15506638081E+04  0.00000000000E+00 0. -1.
          6    1    1    2  502    0 -0.42588296058E+02  0.12089343142E+03 -0.91373726624E+03  0.93857806092E+03  0.17200000000E+03 0. -1.
         -6    1    1    2    0  501  0.42588296058E+02 -0.12089343142E+03 -0.60608639590E+03  0.64292589310E+03  0.17200000000E+03 0.  1.
</event>
<event>
 4    1  0.3191769E-002  0.2848678E+03  0.7818608E-02  0.1093060E+00
          2   -1    0    0  502    0  0.00000000000E+00  0.00000000000E+00  0.90551498591E+02  0.90551498591E+02  0.00000000000E+00 0. -1.
         -2   -1    0    0    0  501 -0.00000000000E+00 -0.00000000000E+00 -0.89730116045E+03  0.89730116045E+03  0.00000000000E+00 0.  1.
          6    1    1    2  502    0  0.22633388860E+03 -0.18401673012E+02 -0.42090204609E+03  0.50824028087E+03  0.17200000000E+03 0.  1.
         -6    1    1    2    0  501 -0.22633388860E+03  0.18401673012E+02 -0.38584761577E+03  0.47961237817E+03  0.17200000000E+03 0.  1.
</event>
<event>
 4    1  0.3191769E-002  0.1961405E+03  0.7818608E-02  0.1153037E+00
         -2   -1    0    0    0  501 -0.00000000000E+00  0.00000000000E+00  0.68447447886E+02  0.68447447886E+02  0.00000000000E+00 0.  1.
          2   -1    0    0  502    0  0.00000000000E+00 -0.00000000000E+00 -0.81484925511E+03  0.81484925511E+03  0.00000000000E+00 0. -1.
          6    1    1    2  502    0 -0.24070854882E+02 -0.91146609429E+02 -0.12720771525E+03  0.23377962547E+03  0.17200000000E+03 0.  1.
         -6    1    1    2    0  501  0.24070854882E+02  0.91146609429E+02 -0.61919409197E+03  0.64951707752E+03  0.17200000000E+03 0. -1.
</event>
<event>
 4    1  0.3191769E-002  0.1759037E+03  0.7818608E-02  0.1171827E+00
         -1   -1    0    0    0  501 -0.00000000000E+00  0.00000000000E+00  0.15676037951E+03  0.15676037951E+03  0.00000000000E+00 0.  1.
          1   -1    0    0  502    0  0.00000000000E+00 -0.00000000000E+00 -0.26219973578E+03  0.26219973578E+03  0.00000000000E+00 0. -1.
          6    1    1    2  502    0  0.33619862463E+02  0.15094061025E+02 -0.15687078762E+03  0.23569168386E+03  0.17200000000E+03 0. -1.
         -6    1    1    2    0  501 -0.33619862463E+02 -0.15094061025E+02  0.51431431356E+02  0.18326843144E+03  0.17200000000E+03 0.  1.
</event>
<event>
 4    1  0.3191769E-002  0.2358508E+03  0.7818608E-02  0.1122588E+00
          1   -1    0    0  502    0  0.00000000000E+00  0.00000000000E+00  0.14141434351E+04  0.14141434351E+04  0.00000000000E+00 0. -1.
         -1   -1    0    0    0  501 -0.00000000000E+00 -0.00000000000E+00 -0.45410286821E+02  0.45410286821E+02  0.00000000000E+00 0.  1.
          6    1    1    2  502    0 -0.25986419808E+02  0.15926802090E+03  0.95129183445E+03  0.98009272560E+03  0.17200000000E+03 0. -1.
         -6    1    1    2    0  501  0.25986419808E+02 -0.15926802090E+03  0.41744131381E+03  0.47946099629E+03  0.17200000000E+03 0.  1.
</event>
<event>
 4    1  0.3191769E-002  0.1784631E+03  0.7818608E-02  0.1169299E+00
          2   -1    0    0  502    0  0.00000000000E+00  0.00000000000E+00  0.14726725473E+04  0.14726725473E+04  0.00000000000E+00 0. -1.
         -2   -1    0    0    0  501 -0.00000000000E+00 -0.00000000000E+00 -0.22632063561E+02  0.22632063561E+02  0.00000000000E+00 0.  1.
          6    1    1    2  502    0  0.45195106076E+02 -0.14915698161E+02  0.88259803767E+03  0.90046008894E+03  0.17200000000E+03 0. -1.
         -6    1    1    2    0  501 -0.45195106076E+02  0.14915698161E+02  0.56744244608E+03  0.59484452193E+03  0.17200000000E+03 0.  1.
</event>
<event>
 4    1  0.3191769E-002  0.1930719E+03  0.7818608E-02  0.1155719E+00
         -2   -1    0    0    0  501 -0.00000000000E+00  0.00000000000E+00  0.67849617617E+02  0.67849617617E+02  0.00000000000E+00 0.  1.
          2   -1    0    0  502    0  0.00000000000E+00 -0.00000000000E+00 -0.67152333982E+03  0.67152333982E+03  0.00000000000E+00 0. -1.
          6    1    1    2  502    0  0.15797185905E+02 -0.86274107320E+02 -0.45948806643E+03  0.49840350707E+03  0.17200000000E+03 0. -1.
         -6    1    1    2    0  501 -0.15797185905E+02  0.86274107320E+02 -0.14418565578E+03  0.24096945036E+03  0.17200000000E+03 0.  1.
</event>
<event>
 4    1  0.3191769E-002  0.4900280E+03  0.7818608E-02  0.1016415E+00
          2   -1    0    0  502    0  0.00000000000E+00  0.00000000000E+00  0.14384196328E+04  0.14384196328E+04  0.00000000000E+00 0. -1.
         -2   -1    0    0    0  501 -0.00000000000E+00 -0.00000000000E+00 -0.25262417539E+03  0.25262417539E+03  0.00000000000E+00 0.  1.
          6    1    1    2  502    0  0.36754311609E+03 -0.27469165212E+03  0.10853246862E+04  0.11908220356E+04  0.17200000000E+03 0. -1.
         -6    1    1    2    0  501 -0.36754311609E+03  0.27469165212E+03  0.10047077121E+03  0.50022177261E+03  0.17200000000E+03 0.  1.
</event>
<event>
 4    1  0.3191769E-002  0.1769876E+03  0.7818608E-02  0.1170751E+00
          1   -1    0    0  502    0  0.00000000000E+00  0.00000000000E+00  0.23214843430E+04  0.23214843430E+04  0.00000000000E+00 0. -1.
         -1   -1    0    0    0  501 -0.00000000000E+00 -0.00000000000E+00 -0.42526636279E+02  0.42526636279E+02  0.00000000000E+00 0.  1.
          6    1    1    2  502    0  0.76966041178E+01  0.41004404268E+02  0.21161246414E+04  0.21235131497E+04  0.17200000000E+03 0. -1.
         -6    1    1    2    0  501 -0.76966041178E+01 -0.41004404268E+02  0.16283306532E+03  0.24049782961E+03  0.17200000000E+03 0.  1.
</event>
<event>
 4    1  0.3191769E-002  0.3585770E+03  0.7818608E-02  0.1059149E+00
         -2   -1    0    0    0  501 -0.00000000000E+00  0.00000000000E+00  0.67660695352E+02  0.67660695352E+02  0.00000000000E+00 0.  1.
          2   -1    0    0  502    0  0.00000000000E+00 -0.00000000000E+00 -0.20869790233E+04  0.20869790233E+04  0.00000000000E+00 0. -1.
          6    1    1    2  502    0 -0.68975015431E+02  0.30697873848E+03 -0.13318410158E+04  0.13792671931E+04  0.17200000000E+03 0. -1.
         -6    1    1    2    0  501  0.68975015431E+02 -0.30697873848E+03 -0.68747731210E+03  0.77537252549E+03  0.17200000000E+03 0. -1.
</event>
<event>
 4    1  0.3191769E-002  0.4207221E+03  0.7818608E-02  0.1036832E+00
         -1   -1    0    0    0  501 -0.00000000000E+00  0.00000000000E+00  0.70534888863E+03  0.70534888863E+03  0.00000000000E+00 0.  1.
          1   -1    0    0  502    0  0.00000000000E+00 -0.00000000000E+00 -0.36610887646E+03  0.36610887646E+03  0.00000000000E+00 0. -1.
          6    1    1    2  502    0 -0.23325483898E+02  0.38324795845E+03 -0.13084178376E+03  0.44059805745E+03  0.17200000000E+03 0. -1.
         -6    1    1    2    0  501  0.23325483898E+02 -0.38324795845E+03  0.47008179593E+03  0.63085970764E+03  0.17200000000E+03 0.  1.
</event>
<event>
 4    1  0.3191769E-002  0.2164008E+03  0.7818608E-02  0.1136595E+00
          2   -1    0    0  502    0  0.00000000000E+00  0.00000000000E+00  0.45833902581E+04  0.45833902581E+04  0.00000000000E+00 0. -1.
         -2   -1    0    0    0  501 -0.00000000000E+00 -0.00000000000E+00 -0.10237444114E+02  0.10237444114E+02  0.00000000000E+00 0.  1.
          6    1    1    2  502    0 -0.12321348581E+03  0.45428562529E+02  0.21843865897E+04  0.21950795181E+04  0.17200000000E+03 0.  1.
         -6    1    1    2    0  501  0.12321348581E+03 -0.45428562529E+02  0.23887662243E+04  0.23985481842E+04  0.17200000000E+03 0.  1.
</event>
<event>
 4    1  0.3191769E-002  0.2189994E+03  0.7818608E-02  0.1134631E+00
          2   -1    0    0  502    0  0.00000000000E+00  0.00000000000E+00  0.23805212310E+04  0.23805212310E+04  0.00000000000E+00 0. -1.
         -2   -1    0    0    0  501 -0.00000000000E+00 -0.00000000000E+00 -0.30657990534E+02  0.30657990534E+02  0.00000000000E+00 0.  1.
          6    1    1    2  502    0 -0.88320499493E+02 -0.10284078647E+03  0.18808365368E+04  0.18935434550E+04  0.17200000000E+03 0. -1.
         -6    1    1    2    0  501  0.88320499493E+02  0.10284078647E+03  0.46902670366E+03  0.51763576648E+03  0.17200000000E+03 0.  1.
</event>
<event>
 4    1  0.3191769E-002  0.6322178E+03  0.7818608E-02  0.9840730E-01
         -2   -1    0    0    0  501 -0.00000000000E+00  0.00000000000E+00  0.69657515181E+03  0.69657515181E+03  0.00000000000E+00 0.  1.
          2   -1    0    0  502    0  0.00000000000E+00 -0.00000000000E+00 -0.66325338145E+03  0.66325338145E+03  0.00000000000E+00 0. -1.
          6    1    1    2  502    0 -0.28673714323E+03  0.53656053101E+03  0.26634842482E+03  0.68603270778E+03  0.17200000000E+03 0. -1.
         -6    1    1    2    0  501  0.28673714323E+03 -0.53656053101E+03 -0.23302665446E+03  0.67379582548E+03  0.17200000000E+03 0. -1.
</event>
<event>
 4    1  0.3191769E-002  0.2816773E+03  0.7818608E-02  0.1094776E+00
          1   -1    0    0  502    0  0.00000000000E+00  0.00000000000E+00  0.20280219835E+04  0.20280219835E+04  0.00000000000E+00 0. -1.
         -1   -1    0    0    0  501 -0.00000000000E+00 -0.00000000000E+00 -0.55309352069E+02  0.55309352069E+02  0.00000000000E+00 0.  1.
          6    1    1    2  502    0  0.79908714928E+02  0.20826118997E+03  0.15498703471E+04  0.15752587784E+04  0.17200000000E+03 0. -1.
         -6    1    1    2    0  501 -0.79908714928E+02 -0.20826118997E+03  0.42284228431E+03  0.50807255719E+03  0.17200000000E+03 0.  1.
</event>
<event>
 4    1  0.3191769E-002  0.3482861E+03  0.7818608E-02  0.1063321E+00
         -2   -1    0    0    0  501 -0.00000000000E+00  0.00000000000E+00  0.61841222814E+02  0.61841222814E+02  0.00000000000E+00 0.  1.
          2   -1    0    0  502    0  0.00000000000E+00 -0.00000000000E+00 -0.20601244762E+04  0.20601244762E+04  0.00000000000E+00 0. -1.
          6    1    1    2  502    0 -0.30071687684E+03  0.35897043520E+02 -0.76703144360E+03  0.84240161041E+03  0.17200000000E+03 0. -1.
         -6    1    1    2    0  501  0.30071687684E+03 -0.35897043520E+02 -0.12312518098E+04  0.12795640886E+04  0.17200000000E+03 0. -1.
</event>
<event>
 4    1  0.3191769E-002  0.2351974E+03  0.7818608E-02  0.1123034E+00
         -2   -1    0    0    0  501 -0.00000000000E+00  0.00000000000E+00  0.55989749546E+02  0.55989749546E+02  0.00000000000E+00 0.  1.
          2   -1    0    0  502    0  0.00000000000E+00 -0.00000000000E+00 -0.10987871305E+04  0.10987871305E+04  0.00000000000E+00 0. -1.
          6    1    1    2  502    0 -0.96198120714E+00 -0.16041479253E+03 -0.70473876840E+03  0.74294990596E+03  0.17200000000E+03 0. -1.
         -6    1    1    2    0  501  0.96198120714E+00  0.16041479253E+03 -0.33805861258E+03  0.41182697412E+03  0.17200000000E+03 0. -1.
</event>
<event>
 4    1  0.3191769E-002  0.4058538E+03  0.7818608E-02  0.1041771E+00
          1   -1    0    0  502    0  0.00000000000E+00  0.00000000000E+00  0.41511115016E+04  0.41511115016E+04  0.00000000000E+00 0. -1.
         -1   -1    0    0    0  501 -0.00000000000E+00 -0.00000000000E+00 -0.43280987424E+02  0.43280987424E+02  0.00000000000E+00 0.  1.
          6    1    1    2  502    0  0.35948140284E+03 -0.76853234579E+02  0.26588157578E+04  0.26896130823E+04  0.17200000000E+03 0. -1.
         -6    1    1    2    0  501 -0.35948140284E+03  0.76853234579E+02  0.14490147564E+04  0.15047794067E+04  0.17200000000E+03 0.  1.
</event>
<event>
 4    1  0.3191769E-002  0.1943402E+03  0.7818608E-02  0.1154604E+00
         -2   -1    0    0    0  501 -0.00000000000E+00  0.00000000000E+00  0.34175517009E+02  0.34175517009E+02  0.00000000000E+00 0.  1.
          2   -1    0    0  502    0  0.00000000000E+00 -0.00000000000E+00 -0.12176039470E+04  0.12176039470E+04  0.00000000000E+00 0. -1.
          6    1    1    2  502    0 -0.63157830262E+02  0.64770346389E+02 -0.78194753090E+03  0.80573571993E+03  0.17200000000E+03 0. -1.
         -6    1    1    2    0  501  0.63157830262E+02 -0.64770346389E+02 -0.40148089910E+03  0.44604374408E+03  0.17200000000E+03 0.  1.
</event>
<event>
 4    1  0.3191769E-002  0.6001652E+03  0.7818608E-02  0.9905063E-01
         -2   -1    0    0    0  501 -0.00000000000E+00  0.00000000000E+00  0.49515452000E+03  0.49515452000E+03  0.00000000000E+00 0.  1.
          2   -1    0    0  502    0  0.00000000000E+00 -0.00000000000E+00 -0.96360182573E+03  0.96360182573E+03  0.00000000000E+00 0. -1.
          6    1    1    2  502    0 -0.57024484078E+03  0.73723353251E+02 -0.59530332069E+03  0.84533091442E+03  0.17200000000E+03 0. -1.
         -6    1    1    2    0  501  0.57024484078E+03 -0.73723353251E+02  0.12685601496E+03  0.61342543131E+03  0.17200000000E+03 0.  1.
</event>
<event>
 4    1  0.3191769E-002  0.2612749E+03  0.7818608E-02  0.1106380E+00
          1   -1    0    0  502    0  0.00000000000E+00  0.00000000000E+00  0.12451127489E+03  0.12451127489E+03  0.00000000000E+00 0. -1.
         -1   -1    0    0    0  501 -0.00000000000E+00 -0.00000000000E+00 -0.54892221526E+03  0.54892221526E+03  0.00000000000E+00 0.  1.
          6    1    1    2  502    0  0.73583341796E+02  0.18238986638E+03 -0.22389928691E+03  0.34408641680E+03  0.17200000000E+03 0.  1.
         -6    1    1    2    0  501 -0.73583341796E+02 -0.18238986638E+03 -0.20051165346E+03  0.32934707335E+03  0.17200000000E+03 0. -1.
</event>
<event>
 4    1  0.3191769E-002  0.2597589E+03  0.7818608E-02  0.1107288E+00
          2   -1    0    0  502    0  0.00000000000E+00  0.00000000000E+00  0.93762852066E+03  0.93762852066E+03  0.00000000000E+00 0. -1.
         -2   -1    0    0    0  501 -0.00000000000E+00 -0.00000000000E+00 -0.10592140086E+03  0.10592140086E+03  0.00000000000E+00 0.  1.
          6    1    1    2  502    0  0.59465636179E+02 -0.18534973037E+03  0.71129006099E+03  0.75723723845E+03  0.17200000000E+03 0. -1.
         -6    1    1    2    0  501 -0.59465636179E+02  0.18534973037E+03  0.12041705881E+03  0.28631268307E+03  0.17200000000E+03 0.  1.
</event>
<event>
 4    1  0.3191769E-002  0.2879905E+03  0.7818608E-02  0.1091403E+00
         -1   -1    0    0    0  501 -0.00000000000E+00  0.00000000000E+00  0.54758668916E+02  0.54758668916E+02  0.00000000000E+00 0.  1.
          1   -1    0    0  502    0  0.00000000000E+00 -0.00000000000E+00 -0.18020110931E+04  0.18020110931E+04  0.00000000000E+00 0. -1.
          6    1    1    2  502    0  0.10244016165E+03  0.20702785038E+03 -0.50287141794E+03  0.57949821444E+03  0.17200000000E+03 0.  1.
         -6    1    1    2    0  501 -0.10244016165E+03 -0.20702785038E+03 -0.12443810062E+04  0.12772715475E+04  0.17200000000E+03 0. -1.
</event>
<event>
 4    1  0.3191769E-002  0.1773616E+03  0.7818608E-02  0.1170381E+00
         -2   -1    0    0    0  501 -0.00000000000E+00  0.00000000000E+00  0.26053828527E+03  0.26053828527E+03  0.00000000000E+00 0.  1.
          2   -1    0    0  502    0  0.00000000000E+00 -0.00000000000E+00 -0.12693958419E+03  0.12693958419E+03  0.00000000000E+00 0. -1.
          6    1    1    2  502    0  0.25415967445E+02  0.35030947018E+02  0.23980620195E+02  0.17897544188E+03  0.17200000000E+03 0. -1.
         -6    1    1    2    0  501 -0.25415967445E+02 -0.35030947018E+02  0.10961808088E+03  0.20850242758E+03  0.17200000000E+03 0.  1.
</event>
<event>
 4    1  0.3191769E-002  0.1760747E+03  0.7818608E-02  0.1171657E+00
          2   -1    0    0  502    0  0.00000000000E+00  0.00000000000E+00  0.26101226916E+03  0.26101226916E+03  0.00000000000E+00 0. -1.
         -2   -1    0    0    0  501 -0.00000000000E+00 -0.00000000000E+00 -0.34135207811E+03  0.34135207811E+03  0.00000000000E+00 0.  1.
          6    1    1    2  502    0 -0.37640328488E+02  0.12232049676E+01  0.20303152282E+03  0.26874539962E+03  0.17200000000E+03 0. -1.
         -6    1    1    2    0  501  0.37640328488E+02 -0.12232049676E+01 -0.28337133177E+03  0.33361894764E+03  0.17200000000E+03 0.  1.
</event>
<event>
 4    1  0.3191769E-002  0.1819346E+03  0.7818608E-02  0.1165944E+00
          1   -1    0    0  502    0  0.00000000000E+00  0.00000000000E+00  0.59847741470E+03  0.59847741470E+03  0.00000000000E+00 0. -1.
         -1   -1    0    0    0  501 -0.00000000000E+00 -0.00000000000E+00 -0.16743954293E+03  0.16743954293E+03  0.00000000000E+00 0.  1.
          6    1    1    2  502    0  0.37912650838E+02  0.45594170014E+02  0.52891088831E+03  0.55932720764E+03  0.17200000000E+03 0. -1.
         -6    1    1    2    0  501 -0.37912650838E+02 -0.45594170014E+02 -0.97873016541E+02  0.20658974999E+03  0.17200000000E+03 0.  1.
</event>
<event>
 4    1  0.3191769E-002  0.1749590E+03  0.7818608E-02  0.1172773E+00
          1   -1    0    0  502    0  0.00000000000E+00  0.00000000000E+00  0.69389274434E+02  0.69389274434E+02  0.00000000000E+00 0. -1.
         -1   -1    0    0    0  501 -0.00000000000E+00 -0.00000000000E+00 -0.46369330237E+03  0.46369330237E+03  0.00000000000E+00 0.  1.
          6    1    1    2  502    0  0.31717424578E+02 -0.45437683878E+01 -0.13837350267E+03  0.22306471504E+03  0.17200000000E+03 0. -1.
         -6    1    1    2    0  501 -0.31717424578E+02  0.45437683878E+01 -0.25593052526E+03  0.31001786177E+03  0.17200000000E+03 0.  1.
</event>
<event>
 4    1  0.3191769E-002  0.2553487E+03  0.7818608E-02  0.1109970E+00
          1   -1    0    0  502    0  0.00000000000E+00  0.00000000000E+00  0.21351675880E+03  0.21351675880E+03  0.00000000000E+00 0. -1.
         -1   -1    0    0    0  501 -0.00000000000E+00 -0.00000000000E+00 -0.31179759552E+03  0.31179759552E+03  0.00000000000E+00 0.  1.
          6    1    1    2  502    0  0.15491039142E+03 -0.10780418941E+03 -0.11447317120E+02  0.25560519105E+03  0.17200000000E+03 0. -1.
         -6    1    1    2    0  501 -0.15491039142E+03  0.10780418941E+03 -0.86833519606E+02  0.26970916327E+03  0.17200000000E+03 0.  1.
</event>
<event>
 4    1  0.3191769E-002  0.3996576E+03  0.7818608E-02  0.1043898E+00
         -1   -1    0    0    0  501 -0.00000000000E+00  0.00000000000E+00  0.31869855628E+03  0.31869855628E+03  0.00000000000E+00 0.  1.
          1   -1    0    0  502    0  0.00000000000E+00 -0.00000000000E+00 -0.91272849481E+03  0.91272849481E+03  0.00000000000E+00 0. -1.
          6    1    1    2  502    0 -0.31363698837E+03 -0.17825267326E+03 -0.71045927813E+03  0.81515554460E+03  0.17200000000E+03 0. -1.
         -6    1    1    2    0  501  0.31363698837E+03  0.17825267326E+03  0.11642933961E+03  0.41627150650E+03  0.17200000000E+03 0.  1.
</event>
<event>
 4    1  0.3191769E-002  0.1893993E+03  0.7818608E-02  0.1159004E+00
         -2   -1    0    0    0  501 -0.00000000000E+00  0.00000000000E+00  0.60161569974E+02  0.60161569974E+02  0.00000000000E+00 0.  1.
          2   -1    0    0  502    0  0.00000000000E+00 -0.00000000000E+00 -0.60627196003E+03  0.60627196003E+03  0.00000000000E+00 0. -1.
          6    1    1    2  502    0  0.70857199715E+02 -0.35599761023E+02 -0.23023986603E+03  0.29813165154E+03  0.17200000000E+03 0. -1.
         -6    1    1    2    0  501 -0.70857199715E+02  0.35599761023E+02 -0.31587052402E+03  0.36830187847E+03  0.17200000000E+03 0. -1.
</event>
<event>
 4    1  0.3191769E-002  0.3858324E+03  0.7818608E-02  0.1048799E+00
          2   -1    0    0  502    0  0.00000000000E+00  0.00000000000E+00  0.46937558423E+03  0.46937558423E+03  0.00000000000E+00 0. -1.
         -2   -1    0    0    0  501 -0.00000000000E+00 -0.00000000000E+00 -0.33370306396E+03  0.33370306396E+03  0.00000000000E+00 0.  1.
          6    1    1    2  502    0  0.25358649218E+03  0.23447079731E+03  0.15724291474E+03  0.41664373036E+03  0.17200000000E+03 0. -1.
         -6    1    1    2    0  501 -0.25358649218E+03 -0.23447079731E+03 -0.21570394473E+02  0.38643491784E+03  0.17200000000E+03 0.  1.
</event>
<event>
 4    1  0.3191769E-002  0.4020878E+03  0.7818608E-02  0.1043059E+00
          2   -1    0    0  502    0  0.00000000000E+00  0.00000000000E+00  0.11460758436E+04  0.11460758436E+04  0.00000000000E+00 0. -1.
         -2   -1    0    0    0  501 -0.00000000000E+00 -0.00000000000E+00 -0.14523436378E+03  0.14523436378E+03  0.00000000000E+00 0.  1.
          6    1    1    2  502    0  0.26429301509E+03 -0.24947907109E+03  0.39106401234E+03  0.56089719778E+03  0.17200000000E+03 0. -1.
         -6    1    1    2    0  501 -0.26429301509E+03  0.24947907109E+03  0.60977746752E+03  0.73041300962E+03  0.17200000000E+03 0.  1.
</event>
<event>
 4    1  0.3191769E-002  0.1887734E+03  0.7818608E-02  0.1159572E+00
         -1   -1    0    0    0  501 -0.00000000000E+00  0.00000000000E+00  0.57372265573E+02  0.57372265573E+02  0.00000000000E+00 0.  1.
          1   -1    0    0  502    0  0.00000000000E+00 -0.00000000000E+00 -0.32050771870E+04  0.32050771870E+04  0.00000000000E+00 0. -1.
          6    1    1    2  502    0 -0.69852682574E+02 -0.34234295611E+02 -0.30385121657E+04  0.30443704711E+04  0.17200000000E+03 0. -1.
         -6    1    1    2    0  501  0.69852682574E+02  0.34234295611E+02 -0.10919275575E+03  0.21807898149E+03  0.17200000000E+03 0.  1.
</event>
<event>
 4    1  0.3191769E-002  0.6831806E+03  0.7818608E-02  0.9746436E-01
          2   -1    0    0  502    0  0.00000000000E+00  0.00000000000E+00  0.20620561977E+04  0.20620561977E+04  0.00000000000E+00 0. -1.
         -2   -1    0    0    0  501 -0.00000000000E+00 -0.00000000000E+00 -0.25272499864E+03  0.25272499864E+03  0.00000000000E+00 0.  1.
          6    1    1    2  502    0  0.59735364796E+03 -0.28340835335E+03  0.53073158861E+03  0.86510790924E+03  0.17200000000E+03 0. -1.
         -6    1    1    2    0  501 -0.59735364796E+03  0.28340835335E+03  0.12785996105E+04  0.14496732871E+04  0.17200000000E+03 0.  1.
</event>
<event>
 4    1  0.3191769E-002  0.2032050E+03  0.7818608E-02  0.1147063E+00
          2   -1    0    0  502    0  0.00000000000E+00  0.00000000000E+00  0.73447880190E+03  0.73447880190E+03  0.00000000000E+00 0. -1.
         -2   -1    0    0    0  501 -0.00000000000E+00 -0.00000000000E+00 -0.64980695395E+02  0.64980695395E+02  0.00000000000E+00 0.  1.
          6    1    1    2  502    0 -0.99577067839E+02  0.42339938858E+02  0.18797538381E+03  0.27681583730E+03  0.17200000000E+03 0.  1.
         -6    1    1    2    0  501  0.99577067839E+02 -0.42339938858E+02  0.48152272269E+03  0.52264365999E+03  0.17200000000E+03 0. -1.
</event>
<event>
 4    1  0.3191769E-002  0.3194610E+03  0.7818608E-02  0.1075898E+00
         -2   -1    0    0    0  501 -0.00000000000E+00  0.00000000000E+00  0.15767454278E+03  0.15767454278E+03  0.00000000000E+00 0.  1.
          2   -1    0    0  502    0  0.00000000000E+00 -0.00000000000E+00 -0.68892097028E+03  0.68892097028E+03  0.00000000000E+00 0. -1.
          6    1    1    2  502    0 -0.23639804822E+03  0.12879176251E+03 -0.36972574713E+03  0.48862304835E+03  0.17200000000E+03 0. -1.
         -6    1    1    2    0  501  0.23639804822E+03 -0.12879176251E+03 -0.16152068038E+03  0.35797246470E+03  0.17200000000E+03 0.  1.
</event>
<event>
 4    1  0.3191769E-002  0.2485949E+03  0.7818608E-02  0.1114196E+00
          1   -1    0    0  502    0  0.00000000000E+00  0.00000000000E+00  0.12031569630E+03  0.12031569630E+03  0.00000000000E+00 0. -1.
         -1   -1    0    0    0  501 -0.00000000000E+00 -0.00000000000E+00 -0.51541845673E+03  0.51541845673E+03  0.00000000000E+00 0.  1.
          6    1    1    2  502    0  0.17707081499E+03 -0.29348781155E+02 -0.17890006358E+03  0.30627545972E+03  0.17200000000E+03 0. -1.
         -6    1    1    2    0  501 -0.17707081499E+03  0.29348781155E+02 -0.21620269685E+03  0.32945869332E+03  0.17200000000E+03 0. -1.
</event>
<event>
 4    1  0.3191769E-002  0.4287451E+03  0.7818608E-02  0.1034257E+00
          1   -1    0    0  502    0  0.00000000000E+00  0.00000000000E+00  0.87300063454E+03  0.87300063454E+03  0.00000000000E+00 0. -1.
         -1   -1    0    0    0  501 -0.00000000000E+00 -0.00000000000E+00 -0.21144747706E+03  0.21144747706E+03  0.00000000000E+00 0.  1.
          6    1    1    2  502    0 -0.32371897173E+03  0.22236098808E+03  0.36582835696E+03  0.56360692724E+03  0.17200000000E+03 0. -1.
         -6    1    1    2    0  501  0.32371897173E+03 -0.22236098808E+03  0.29572480052E+03  0.52084118436E+03  0.17200000000E+03 0.  1.
</event>
<event>
 4    1  0.3191769E-002  0.3346320E+03  0.7818608E-02  0.1069106E+00
         -2   -1    0    0    0  501 -0.00000000000E+00  0.00000000000E+00  0.28818607463E+03  0.28818607463E+03  0.00000000000E+00 0.  1.
          2   -1    0    0  502    0  0.00000000000E+00 -0.00000000000E+00 -0.64166996629E+03  0.64166996629E+03  0.00000000000E+00 0. -1.
          6    1    1    2  502    0  0.28543028287E+03 -0.30399028757E+02 -0.46874111231E+03  0.57593122653E+03  0.17200000000E+03 0. -1.
         -6    1    1    2    0  501 -0.28543028287E+03  0.30399028757E+02  0.11525722064E+03  0.35392481439E+03  0.17200000000E+03 0.  1.
</event>
<event>
 4    1  0.3191769E-002  0.2101697E+03  0.7818608E-02  0.1141432E+00
          1   -1    0    0  502    0  0.00000000000E+00  0.00000000000E+00  0.12355432870E+04  0.12355432870E+04  0.00000000000E+00 0. -1.
         -1   -1    0    0    0  501 -0.00000000000E+00 -0.00000000000E+00 -0.35960711322E+02  0.35960711322E+02  0.00000000000E+00 0.  1.
          6    1    1    2  502    0  0.96242020992E+02  0.72971022298E+02  0.64839800424E+03  0.68160932256E+03  0.17200000000E+03 0. -1.
         -6    1    1    2    0  501 -0.96242020992E+02 -0.72971022298E+02  0.55118457145E+03  0.58989467577E+03  0.17200000000E+03 0.  1.
</event>
<event>
 4    1  0.3191769E-002  0.1813978E+03  0.7818608E-02  0.1166457E+00
         -1   -1    0    0    0  501 -0.00000000000E+00  0.00000000000E+00  0.58740018422E+02  0.58740018422E+02  0.00000000000E+00 0.  1.
          1   -1    0    0  502    0  0.00000000000E+00 -0.00000000000E+00 -0.30694930285E+04  0.30694930285E+04  0.00000000000E+00 0. -1.
          6    1    1    2  502    0 -0.27697923416E+02 -0.50536887534E+02 -0.29195834019E+04  0.29252132218E+04  0.17200000000E+03 0. -1.
         -6    1    1    2    0  501  0.27697923416E+02  0.50536887534E+02 -0.91169608176E+02  0.20301982519E+03  0.17200000000E+03 0.  1.
</event>
<event>
 4    1  0.3191769E-002  0.1995290E+03  0.7818608E-02  0.1150137E+00
         -2   -1    0    0    0  501 -0.00000000000E+00  0.00000000000E+00  0.27197398141E+02  0.27197398141E+02  0.00000000000E+00 0.  1.
          2   -1    0    0  502    0  0.00000000000E+00 -0.00000000000E+00 -0.14638799628E+04  0.14638799628E+04  0.00000000000E+00 0. -1.
          6    1    1    2  502    0  0.81136520852E+02  0.60371196553E+02 -0.72350481148E+03  0.75051384306E+03  0.17200000000E+03 0.  1.
         -6    1    1    2    0  501 -0.81136520852E+02 -0.60371196553E+02 -0.71317775321E+03  0.74056351791E+03  0.17200000000E+03 0.  1.
</event>
<event>
 4    1  0.3191769E-002  0.1194709E+04  0.7818608E-02  0.9117501E-01
         -2   -1    0    0    0  501 -0.00000000000E+00  0.00000000000E+00  0.81697619722E+03  0.81697619722E+03  0.00000000000E+00 0.  1.
          2   -1    0    0  502    0  0.00000000000E+00 -0.00000000000E+00 -0.18700238236E+04  0.18700238236E+04  0.00000000000E+00 0. -1.
          6    1    1    2  502    0  0.52572915886E+02 -0.11810932246E+04 -0.18205195262E+03  0.12084999091E+04  0.17200000000E+03 0. -1.
         -6    1    1    2    0  501 -0.52572915886E+02  0.11810932246E+04 -0.87099567375E+03  0.14785001117E+04  0.17200000000E+03 0.  1.
</event>
<event>
 4    1  0.3191769E-002  0.1865167E+03  0.7818608E-02  0.1161641E+00
          2   -1    0    0  502    0  0.00000000000E+00  0.00000000000E+00  0.71112347657E+03  0.71112347657E+03  0.00000000000E+00 0. -1.
         -2   -1    0    0    0  501 -0.00000000000E+00 -0.00000000000E+00 -0.98588584729E+02  0.98588584729E+02  0.00000000000E+00 0.  1.
          6    1    1    2  502    0  0.54124553994E+02  0.47696916846E+02  0.59362745457E+03  0.62223951822E+03  0.17200000000E+03 0. -1.
         -6    1    1    2    0  501 -0.54124553994E+02 -0.47696916846E+02  0.18907437267E+02  0.18747254307E+03  0.17200000000E+03 0.  1.
</event>
<event>
 4    1  0.3191769E-002  0.2125077E+03  0.7818608E-02  0.1139595E+00
          2   -1    0    0  502    0  0.00000000000E+00  0.00000000000E+00  0.18493813216E+04  0.18493813216E+04  0.00000000000E+00 0. -1.
         -2   -1    0    0    0  501 -0.00000000000E+00 -0.00000000000E+00 -0.72236262747E+02  0.72236262747E+02  0.00000000000E+00 0.  1.
          6    1    1    2  502    0 -0.74069133000E+02 -0.10044546144E+03  0.16702956469E+04  0.16837598033E+04  0.17200000000E+03 0. -1.
         -6    1    1    2    0  501  0.74069133000E+02  0.10044546144E+03  0.10684941204E+03  0.23785778112E+03  0.17200000000E+03 0.  1.
</event>
<event>
 4    1  0.3191769E-002  0.2449149E+03  0.7818608E-02  0.1116561E+00
          2   -1    0    0  502    0  0.00000000000E+00  0.00000000000E+00  0.63897947634E+03  0.63897947634E+03  0.00000000000E+00 0. -1.
         -2   -1    0    0    0  501 -0.00000000000E+00 -0.00000000000E+00 -0.94718504170E+02  0.94718504170E+02  0.00000000000E+00 0.  1.
          6    1    1    2  502    0  0.16811902319E+03  0.46209072377E+02  0.30677874841E+03  0.39255125118E+03  0.17200000000E+03 0. -1.
         -6    1    1    2    0  501 -0.16811902319E+03 -0.46209072377E+02  0.23748222376E+03  0.34114672933E+03  0.17200000000E+03 0.  1.
</event>
<event>
 4    1  0.3191769E-002  0.1826799E+03  0.7818608E-02  0.1165234E+00
          1   -1    0    0  502    0  0.00000000000E+00  0.00000000000E+00  0.47806908735E+03  0.47806908735E+03  0.00000000000E+00 0. -1.
         -1   -1    0    0    0  501 -0.00000000000E+00 -0.00000000000E+00 -0.71842199456E+02  0.71842199456E+02  0.00000000000E+00 0.  1.
          6    1    1    2  502    0 -0.46737489002E+02 -0.40044336052E+02  0.24940653901E+03  0.30915297739E+03  0.17200000000E+03 0. -1.
         -6    1    1    2    0  501  0.46737489002E+02  0.40044336052E+02  0.15682034888E+03  0.24075830941E+03  0.17200000000E+03 0.  1.
</event>
<event>
 4    1  0.3191769E-002  0.2657925E+03  0.7818608E-02  0.1103712E+00
         -2   -1    0    0    0  501 -0.00000000000E+00  0.00000000000E+00  0.17218719449E+03  0.17218719449E+03  0.00000000000E+00 0.  1.
          2   -1    0    0  502    0  0.00000000000E+00 -0.00000000000E+00 -0.50876728713E+03  0.50876728713E+03  0.00000000000E+00 0. -1.
          6    1    1    2  502    0  0.12426423963E+03 -0.16006265780E+03 -0.18490773866E+02  0.26643491587E+03  0.17200000000E+03 0.  1.
         -6    1    1    2    0  501 -0.12426423963E+03  0.16006265780E+03 -0.31808931878E+03  0.41451956576E+03  0.17200000000E+03 0. -1.
</event>
<event>
 4    1  0.3191769E-002  0.1724238E+03  0.7818608E-02  0.1175343E+00
         -2   -1    0    0    0  501 -0.00000000000E+00  0.00000000000E+00  0.14304874695E+03  0.14304874695E+03  0.00000000000E+00 0.  1.
          2   -1    0    0  502    0  0.00000000000E+00 -0.00000000000E+00 -0.20971264417E+03  0.20971264417E+03  0.00000000000E+00 0. -1.
          6    1    1    2  502    0 -0.11358977859E+02  0.41175077931E+01 -0.50038795305E+02  0.17953791044E+03  0.17200000000E+03 0. -1.
         -6    1    1    2    0  501  0.11358977859E+02 -0.41175077931E+01 -0.16625101917E+02  0.17322348069E+03  0.17200000000E+03 0.  1.
</event>
<event>
 4    1  0.3191769E-002  0.2079947E+03  0.7818608E-02  0.1143164E+00
         -2   -1    0    0    0  501 -0.00000000000E+00  0.00000000000E+00  0.15673271325E+03  0.15673271325E+03  0.00000000000E+00 0.  1.
          2   -1    0    0  502    0  0.00000000000E+00 -0.00000000000E+00 -0.39631440979E+03  0.39631440979E+03  0.00000000000E+00 0. -1.
          6    1    1    2  502    0  0.11680171254E+03  0.59304681891E+01 -0.27213640237E+03  0.34252011912E+03  0.17200000000E+03 0. -1.
         -6    1    1    2    0  501 -0.11680171254E+03 -0.59304681891E+01  0.32554705835E+02  0.21052700392E+03  0.17200000000E+03 0.  1.
</event>
<event>
 4    1  0.3191769E-002  0.3889671E+03  0.7818608E-02  0.1047668E+00
         -2   -1    0    0    0  501 -0.00000000000E+00  0.00000000000E+00  0.16844300261E+03  0.16844300261E+03  0.00000000000E+00 0.  1.
          2   -1    0    0  502    0  0.00000000000E+00 -0.00000000000E+00 -0.11987497185E+04  0.11987497185E+04  0.00000000000E+00 0. -1.
          6    1    1    2  502    0 -0.98542162127E+02 -0.33466528021E+03 -0.17286347448E+03  0.42564913756E+03  0.17200000000E+03 0.  1.
         -6    1    1    2    0  501  0.98542162127E+02  0.33466528021E+03 -0.85744324143E+03  0.94154358357E+03  0.17200000000E+03 0. -1.
</event>
<event>
 4    1  0.3191769E-002  0.2155416E+03  0.7818608E-02  0.1137251E+00
          2   -1    0    0  502    0  0.00000000000E+00  0.00000000000E+00  0.16599986630E+04  0.16599986630E+04  0.00000000000E+00 0. -1.
         -2   -1    0    0    0  501 -0.00000000000E+00 -0.00000000000E+00 -0.34766117486E+02  0.34766117486E+02  0.00000000000E+00 0.  1.
          6    1    1    2  502    0  0.12618557208E+02 -0.12928632723E+03  0.11868059314E+04  0.12062199224E+04  0.17200000000E+03 0. -1.
         -6    1    1    2    0  501 -0.12618557208E+02  0.12928632723E+03  0.43842661408E+03  0.48854485805E+03  0.17200000000E+03 0. -1.
</event>
<event>
 4    1  0.3191769E-002  0.2041874E+03  0.7818608E-02  0.1146253E+00
          3   -1    0    0  502    0  0.00000000000E+00  0.00000000000E+00  0.24182594251E+03  0.24182594251E+03  0.00000000000E+00 0. -1.
         -3   -1    0    0    0  501 -0.00000000000E+00 -0.00000000000E+00 -0.95865213343E+03  0.95865213343E+03  0.00000000000E+00 0.  1.
          6    1    1    2  502    0 -0.39627869213E+02 -0.10265545799E+03  0.18517842252E+03  0.27565115498E+03  0.17200000000E+03 0. -1.
         -6    1    1    2    0  501  0.39627869213E+02  0.10265545799E+03 -0.90200461344E+03  0.92482692097E+03  0.17200000000E+03 0.  1.
</event>
<event>
 4    1  0.3191769E-002  0.1920508E+03  0.7818608E-02  0.1156625E+00
         -2   -1    0    0    0  501 -0.00000000000E+00  0.00000000000E+00  0.65111083485E+02  0.65111083485E+02  0.00000000000E+00 0.  1.
          2   -1    0    0  502    0  0.00000000000E+00 -0.00000000000E+00 -0.69951663161E+03  0.69951663161E+03  0.00000000000E+00 0. -1.
          6    1    1    2  502    0  0.84550616109E+02  0.12276298368E+02 -0.48393593701E+03  0.52065103987E+03  0.17200000000E+03 0. -1.
         -6    1    1    2    0  501 -0.84550616109E+02 -0.12276298368E+02 -0.15046961112E+03  0.24397667523E+03  0.17200000000E+03 0.  1.
</event>
<event>
 4    1  0.3191769E-002  0.2428260E+03  0.7818608E-02  0.1117924E+00
         -2   -1    0    0    0  501 -0.00000000000E+00  0.00000000000E+00  0.89057289022E+02  0.89057289022E+02  0.00000000000E+00 0.  1.
          2   -1    0    0  502    0  0.00000000000E+00 -0.00000000000E+00 -0.87441007136E+03  0.87441007136E+03  0.00000000000E+00 0. -1.
          6    1    1    2  502    0  0.13735715818E+03 -0.10253515041E+03 -0.15529910742E+03  0.28823993259E+03  0.17200000000E+03 0. -1.
         -6    1    1    2    0  501 -0.13735715818E+03  0.10253515041E+03 -0.63005367491E+03  0.67522742779E+03  0.17200000000E+03 0.  1.
</event>
<event>
 4    1  0.3191769E-002  0.1838002E+03  0.7818608E-02  0.1164175E+00
         -2   -1    0    0    0  501 -0.00000000000E+00  0.00000000000E+00  0.11651417006E+03  0.11651417006E+03  0.00000000000E+00 0.  1.
          2   -1    0    0  502    0  0.00000000000E+00 -0.00000000000E+00 -0.10078279328E+04  0.10078279328E+04  0.00000000000E+00 0. -1.
          6    1    1    2  502    0 -0.64766064934E+02  0.19630731988E+01 -0.92012018341E+03  0.93829827280E+03  0.17200000000E+03 0. -1.
         -6    1    1    2    0  501  0.64766064934E+02 -0.19630731988E+01  0.28806420681E+02  0.18604383004E+03  0.17200000000E+03 0.  1.
</event>
<event>
 4    1  0.3191769E-002  0.2552026E+03  0.7818608E-02  0.1110060E+00
          2   -1    0    0  502    0  0.00000000000E+00  0.00000000000E+00  0.58999518092E+03  0.58999518092E+03  0.00000000000E+00 0. -1.
         -2   -1    0    0    0  501 -0.00000000000E+00 -0.00000000000E+00 -0.11795852262E+03  0.11795852262E+03  0.00000000000E+00 0.  1.
          6    1    1    2  502    0 -0.13580059528E+03  0.13077676188E+03  0.32569393958E+03  0.41376914506E+03  0.17200000000E+03 0. -1.
         -6    1    1    2    0  501  0.13580059528E+03 -0.13077676188E+03  0.14634271872E+03  0.29418455848E+03  0.17200000000E+03 0. -1.
</event>
<event>
 4    1  0.3191769E-002  0.1993441E+03  0.7818608E-02  0.1150294E+00
          2   -1    0    0  502    0  0.00000000000E+00  0.00000000000E+00  0.28096073638E+04  0.28096073638E+04  0.00000000000E+00 0. -1.
         -2   -1    0    0    0  501 -0.00000000000E+00 -0.00000000000E+00 -0.14536450312E+02  0.14536450312E+02  0.00000000000E+00 0.  1.
          6    1    1    2  502    0 -0.31525693264E+02  0.95709025447E+02  0.11654132190E+04  0.11823392313E+04  0.17200000000E+03 0. -1.
         -6    1    1    2    0  501  0.31525693264E+02 -0.95709025447E+02  0.16296576944E+04  0.16418045827E+04  0.17200000000E+03 0. -1.
</event>
<event>
 4    1  0.3191769E-002  0.2341719E+03  0.7818608E-02  0.1123737E+00
          2   -1    0    0  502    0  0.00000000000E+00  0.00000000000E+00  0.37744964537E+03  0.37744964537E+03  0.00000000000E+00 0. -1.
         -2   -1    0    0    0  501 -0.00000000000E+00 -0.00000000000E+00 -0.14595865650E+03  0.14595865650E+03  0.00000000000E+00 0.  1.
          6    1    1    2  502    0  0.11469689570E+02 -0.15849582614E+03  0.13356988522E+03  0.26958745319E+03  0.17200000000E+03 0. -1.
         -6    1    1    2    0  501 -0.11469689570E+02  0.15849582614E+03  0.97921103660E+02  0.25382084868E+03  0.17200000000E+03 0.  1.
</event>
<event>
 4    1  0.3191769E-002  0.1739410E+03  0.7818608E-02  0.1173799E+00
          2   -1    0    0  502    0  0.00000000000E+00  0.00000000000E+00  0.42670148848E+03  0.42670148848E+03  0.00000000000E+00 0. -1.
         -2   -1    0    0    0  501 -0.00000000000E+00 -0.00000000000E+00 -0.74741800491E+02  0.74741800491E+02  0.00000000000E+00 0.  1.
          6    1    1    2  502    0 -0.11241722025E+02  0.23347337367E+02  0.23278233853E+03  0.29059093518E+03  0.17200000000E+03 0. -1.
         -6    1    1    2    0  501  0.11241722025E+02 -0.23347337367E+02  0.11917734946E+03  0.21085235379E+03  0.17200000000E+03 0.  1.
</event>
<event>
 4    1  0.3191769E-002  0.5755124E+03  0.7818608E-02  0.9957554E-01
         -2   -1    0    0    0  501 -0.00000000000E+00  0.00000000000E+00  0.51953794927E+03  0.51953794927E+03  0.00000000000E+00 0.  1.
          2   -1    0    0  502    0  0.00000000000E+00 -0.00000000000E+00 -0.65505736477E+03  0.65505736477E+03  0.00000000000E+00 0. -1.
          6    1    1    2  502    0  0.98721559649E+02 -0.54026344593E+03 -0.16386153729E+03  0.59838544497E+03  0.17200000000E+03 0. -1.
         -6    1    1    2    0  501 -0.98721559649E+02  0.54026344593E+03  0.28342121796E+02  0.57620986907E+03  0.17200000000E+03 0.  1.
</event>
<event>
 4    1  0.3191769E-002  0.2833086E+03  0.7818608E-02  0.1093895E+00
         -2   -1    0    0    0  501 -0.00000000000E+00  0.00000000000E+00  0.76836010602E+02  0.76836010602E+02  0.00000000000E+00 0.  1.
          2   -1    0    0  502    0  0.00000000000E+00 -0.00000000000E+00 -0.13693770836E+04  0.13693770836E+04  0.00000000000E+00 0. -1.
          6    1    1    2  502    0  0.22481861937E+03 -0.11676916579E+02 -0.99841910295E+03  0.10378364356E+04  0.17200000000E+03 0. -1.
         -6    1    1    2    0  501 -0.22481861937E+03  0.11676916579E+02 -0.29412197004E+03  0.40837665856E+03  0.17200000000E+03 0.  1.
</event>
<event>
 4    1  0.3191769E-002  0.3170115E+03  0.7818608E-02  0.1077033E+00
         -2   -1    0    0    0  501 -0.00000000000E+00  0.00000000000E+00  0.48824551207E+03  0.48824551207E+03  0.00000000000E+00 0.  1.
          2   -1    0    0  502    0  0.00000000000E+00 -0.00000000000E+00 -0.37839648053E+03  0.37839648053E+03  0.00000000000E+00 0. -1.
          6    1    1    2  502    0 -0.21915303906E+03 -0.15127546493E+03 -0.23770119685E+03  0.39622995824E+03  0.17200000000E+03 0.  1.
         -6    1    1    2    0  501  0.21915303906E+03  0.15127546493E+03  0.34755022839E+03  0.47041203436E+03  0.17200000000E+03 0.  1.
</event>
<event>
 4    1  0.3191769E-002  0.2289646E+03  0.7818608E-02  0.1127371E+00
          2   -1    0    0  502    0  0.00000000000E+00  0.00000000000E+00  0.92885901378E+03  0.92885901378E+03  0.00000000000E+00 0. -1.
         -2   -1    0    0    0  501 -0.00000000000E+00 -0.00000000000E+00 -0.56476815140E+02  0.56476815140E+02  0.00000000000E+00 0.  1.
          6    1    1    2  502    0  0.14967046490E+03  0.20965407219E+02  0.44877087484E+03  0.50380561178E+03  0.17200000000E+03 0.  1.
         -6    1    1    2    0  501 -0.14967046490E+03 -0.20965407219E+02  0.42361132380E+03  0.48153021714E+03  0.17200000000E+03 0.  1.
</event>
<event>
 4    1  0.3191769E-002  0.3943004E+03  0.7818608E-02  0.1045771E+00
         -2   -1    0    0    0  501 -0.00000000000E+00  0.00000000000E+00  0.50141040530E+03  0.50141040530E+03  0.00000000000E+00 0.  1.
          2   -1    0    0  502    0  0.00000000000E+00 -0.00000000000E+00 -0.14953656980E+04  0.14953656980E+04  0.00000000000E+00 0. -1.
          6    1    1    2  502    0 -0.29929677922E+03  0.19055238256E+03 -0.13858488936E+04  0.14408504185E+04  0.17200000000E+03 0. -1.
         -6    1    1    2    0  501  0.29929677922E+03 -0.19055238256E+03  0.39189360093E+03  0.55592568479E+03  0.17200000000E+03 0.  1.
</event>
<event>
 4    1  0.3191769E-002  0.3453824E+03  0.7818608E-02  0.1064526E+00
          4   -1    0    0  502    0  0.00000000000E+00  0.00000000000E+00  0.41918660831E+03  0.41918660831E+03  0.00000000000E+00 0. -1.
         -4   -1    0    0    0  501 -0.00000000000E+00 -0.00000000000E+00 -0.69468055863E+03  0.69468055863E+03  0.00000000000E+00 0.  1.
          6    1    1    2  502    0 -0.25573541247E+03  0.15589875881E+03  0.29017041060E+03  0.45109632162E+03  0.17200000000E+03 0. -1.
         -6    1    1    2    0  501  0.25573541247E+03 -0.15589875881E+03 -0.56566436092E+03  0.66277084532E+03  0.17200000000E+03 0.  1.
</event>
<event>
 4    1  0.3191769E-002  0.3585877E+03  0.7818608E-02  0.1059144E+00
         -2   -1    0    0    0  501 -0.00000000000E+00  0.00000000000E+00  0.49721025215E+03  0.49721025215E+03  0.00000000000E+00 0.  1.
          2   -1    0    0  502    0  0.00000000000E+00 -0.00000000000E+00 -0.13064074223E+04  0.13064074223E+04  0.00000000000E+00 0. -1.
          6    1    1    2  502    0  0.27408485991E+03 -0.15452702495E+03 -0.12122299493E+04  0.12641544849E+04  0.17200000000E+03 0. -1.
         -6    1    1    2    0  501 -0.27408485991E+03  0.15452702495E+03  0.40303277908E+03  0.53946318956E+03  0.17200000000E+03 0.  1.
</event>
<event>
 4    1  0.3191769E-002  0.4106959E+03  0.7818608E-02  0.1040138E+00
          1   -1    0    0  502    0  0.00000000000E+00  0.00000000000E+00  0.11728961393E+04  0.11728961393E+04  0.00000000000E+00 0. -1.
         -1   -1    0    0    0  501 -0.00000000000E+00 -0.00000000000E+00 -0.21208235125E+03  0.21208235125E+03  0.00000000000E+00 0.  1.
          6    1    1    2  502    0  0.36559681070E+03 -0.73662069627E+02  0.87331547188E+03  0.96506530448E+03  0.17200000000E+03 0. -1.
         -6    1    1    2    0  501 -0.36559681070E+03  0.73662069627E+02  0.87498316150E+02  0.41991318606E+03  0.17200000000E+03 0.  1.
</event>
<event>
 4    1  0.3191769E-002  0.1860204E+03  0.7818608E-02  0.1162100E+00
          1   -1    0    0  502    0  0.00000000000E+00  0.00000000000E+00  0.21032566850E+03  0.21032566850E+03  0.00000000000E+00 0. -1.
         -1   -1    0    0    0  501 -0.00000000000E+00 -0.00000000000E+00 -0.31484215031E+03  0.31484215031E+03  0.00000000000E+00 0.  1.
          6    1    1    2  502    0 -0.13214232297E+02  0.69605959695E+02  0.12917944059E+03  0.22647501724E+03  0.17200000000E+03 0. -1.
         -6    1    1    2    0  501  0.13214232297E+02 -0.69605959695E+02 -0.23369592240E+03  0.29869280157E+03  0.17200000000E+03 0.  1.
</event>
<event>
 4    1  0.3191769E-002  0.1739528E+03  0.7818608E-02  0.1173787E+00
         -2   -1    0    0    0  501 -0.00000000000E+00  0.00000000000E+00  0.14633498046E+02  0.14633498046E+02  0.00000000000E+00 0.  1.
          2   -1    0    0  502    0  0.00000000000E+00 -0.00000000000E+00 -0.22658692000E+04  0.22658692000E+04  0.00000000000E+00 0. -1.
          6    1    1    2  502    0 -0.25517493472E+02  0.49414296358E+01 -0.14627193715E+04  0.14730266529E+04  0.17200000000E+03 0. -1.
         -6    1    1    2    0  501  0.25517493472E+02 -0.49414296358E+01 -0.78851633047E+03  0.80747604523E+03  0.17200000000E+03 0.  1.
</event>
<event>
 4    1  0.3191769E-002  0.1914051E+03  0.7818608E-02  0.1157200E+00
         -2   -1    0    0    0  501 -0.00000000000E+00  0.00000000000E+00  0.44770460402E+02  0.44770460402E+02  0.00000000000E+00 0.  1.
          2   -1    0    0  502    0  0.00000000000E+00 -0.00000000000E+00 -0.82224533458E+03  0.82224533458E+03  0.00000000000E+00 0. -1.
          6    1    1    2  502    0 -0.23134931475E+02 -0.80726034424E+02 -0.41874500092E+03  0.46041643486E+03  0.17200000000E+03 0. -1.
         -6    1    1    2    0  501  0.23134931475E+02  0.80726034424E+02 -0.35872987325E+03  0.40659936012E+03  0.17200000000E+03 0.  1.
</event>
<event>
 4    1  0.3191769E-002  0.2454642E+03  0.7818608E-02  0.1116205E+00
          1   -1    0    0  502    0  0.00000000000E+00  0.00000000000E+00  0.12357566388E+04  0.12357566388E+04  0.00000000000E+00 0. -1.
         -1   -1    0    0    0  501 -0.00000000000E+00 -0.00000000000E+00 -0.48954200538E+02  0.48954200538E+02  0.00000000000E+00 0.  1.
          6    1    1    2  502    0 -0.83824046386E+02 -0.15376015310E+03  0.63409787618E+03  0.67995056586E+03  0.17200000000E+03 0.  1.
         -6    1    1    2    0  501  0.83824046386E+02  0.15376015310E+03  0.55270456206E+03  0.60476027346E+03  0.17200000000E+03 0.  1.
</event>
<event>
 4    1  0.3191769E-002  0.1900890E+03  0.7818608E-02  0.1158381E+00
          1   -1    0    0  502    0  0.00000000000E+00  0.00000000000E+00  0.15044346313E+03  0.15044346313E+03  0.00000000000E+00 0. -1.
         -1   -1    0    0    0  501 -0.00000000000E+00 -0.00000000000E+00 -0.37195697714E+03  0.37195697714E+03  0.00000000000E+00 0.  1.
          6    1    1    2  502    0  0.41378698917E+02 -0.69552975785E+02 -0.26622569944E+03  0.32712373226E+03  0.17200000000E+03 0.  1.
         -6    1    1    2    0  501 -0.41378698917E+02  0.69552975785E+02  0.44712185429E+02  0.19527670801E+03  0.17200000000E+03 0. -1.
</event>
<event>
 4    1  0.3191769E-002  0.6496457E+03  0.7818608E-02  0.9807444E-01
          2   -1    0    0  502    0  0.00000000000E+00  0.00000000000E+00  0.97011009461E+03  0.97011009461E+03  0.00000000000E+00 0. -1.
         -2   -1    0    0    0  501 -0.00000000000E+00 -0.00000000000E+00 -0.89230134001E+03  0.89230134001E+03  0.00000000000E+00 0.  1.
          6    1    1    2  502    0 -0.25381524590E+03  0.57274193128E+03  0.70551269944E+03  0.95905561255E+03  0.17200000000E+03 0. -1.
         -6    1    1    2    0  501  0.25381524590E+03 -0.57274193128E+03 -0.62770394484E+03  0.90335582207E+03  0.17200000000E+03 0.  1.
</event>
<event>
 4    1  0.3191769E-002  0.2351336E+03  0.7818608E-02  0.1123078E+00
          2   -1    0    0  502    0  0.00000000000E+00  0.00000000000E+00  0.15861131024E+04  0.15861131024E+04  0.00000000000E+00 0. -1.
         -2   -1    0    0    0  501 -0.00000000000E+00 -0.00000000000E+00 -0.35631830045E+02  0.35631830045E+02  0.00000000000E+00 0.  1.
          6    1    1    2  502    0  0.15651455776E+03 -0.34741712598E+02  0.65569822308E+03  0.69658305545E+03  0.17200000000E+03 0. -1.
         -6    1    1    2    0  501 -0.15651455776E+03  0.34741712598E+02  0.89478304931E+03  0.92516187704E+03  0.17200000000E+03 0.  1.
</event>
<event>
 4    1  0.3191769E-002  0.1896104E+03  0.7818608E-02  0.1158813E+00
          4   -1    0    0  502    0  0.00000000000E+00  0.00000000000E+00  0.14995866711E+03  0.14995866711E+03  0.00000000000E+00 0. -1.
         -4   -1    0    0    0  501 -0.00000000000E+00 -0.00000000000E+00 -0.23978288079E+03  0.23978288079E+03  0.00000000000E+00 0.  1.
          6    1    1    2  502    0  0.50602761588E+01  0.79639799526E+02 -0.42520241817E+02  0.19431951788E+03  0.17200000000E+03 0. -1.
         -6    1    1    2    0  501 -0.50602761588E+01 -0.79639799526E+02 -0.47303971863E+02  0.19542203002E+03  0.17200000000E+03 0.  1.
</event>
<event>
 4    1  0.3191769E-002  0.1999750E+03  0.7818608E-02  0.1149760E+00
         -1   -1    0    0    0  501 -0.00000000000E+00  0.00000000000E+00  0.52644197561E+03  0.52644197561E+03  0.00000000000E+00 0.  1.
          1   -1    0    0  502    0  0.00000000000E+00 -0.00000000000E+00 -0.78022504815E+02  0.78022504815E+02  0.00000000000E+00 0. -1.
          6    1    1    2  502    0  0.10200257197E+03  0.12102515291E+01  0.17510348614E+03  0.26580297262E+03  0.17200000000E+03 0. -1.
         -6    1    1    2    0  501 -0.10200257197E+03 -0.12102515291E+01  0.27331598465E+03  0.33866150780E+03  0.17200000000E+03 0.  1.
</event>
<event>
 4    1  0.3191769E-002  0.1968256E+03  0.7818608E-02  0.1152445E+00
          2   -1    0    0  502    0  0.00000000000E+00  0.00000000000E+00  0.11849673283E+03  0.11849673283E+03  0.00000000000E+00 0. -1.
         -2   -1    0    0    0  501 -0.00000000000E+00 -0.00000000000E+00 -0.42637519423E+03  0.42637519423E+03  0.00000000000E+00 0.  1.
          6    1    1    2  502    0  0.80998975713E+02 -0.50945794385E+02 -0.22369126723E+02  0.19809261940E+03  0.17200000000E+03 0. -1.
         -6    1    1    2    0  501 -0.80998975713E+02  0.50945794385E+02 -0.28550933468E+03  0.34677930766E+03  0.17200000000E+03 0.  1.
</event>
<event>
 4    1  0.3191769E-002  0.2175668E+03  0.7818608E-02  0.1135710E+00
         -1   -1    0    0    0  501 -0.00000000000E+00  0.00000000000E+00  0.11825069468E+03  0.11825069468E+03  0.00000000000E+00 0.  1.
          1   -1    0    0  502    0  0.00000000000E+00 -0.00000000000E+00 -0.40890176690E+03  0.40890176690E+03  0.00000000000E+00 0. -1.
          6    1    1    2  502    0 -0.10635919973E+03  0.80243617074E+02 -0.10708855782E+03  0.24249386933E+03  0.17200000000E+03 0. -1.
         -6    1    1    2    0  501  0.10635919973E+03 -0.80243617074E+02 -0.18356251439E+03  0.28465859224E+03  0.17200000000E+03 0. -1.
</event>
<event>
 4    1  0.3191769E-002  0.1846780E+03  0.7818608E-02  0.1163351E+00
          1   -1    0    0  502    0  0.00000000000E+00  0.00000000000E+00  0.16381018902E+04  0.16381018902E+04  0.00000000000E+00 0. -1.
         -1   -1    0    0    0  501 -0.00000000000E+00 -0.00000000000E+00 -0.46978147937E+02  0.46978147937E+02  0.00000000000E+00 0.  1.
          6    1    1    2  502    0  0.32412062051E+01  0.67167361040E+02  0.14242606983E+04  0.14361840052E+04  0.17200000000E+03 0. -1.
         -6    1    1    2    0  501 -0.32412062051E+01 -0.67167361040E+02  0.16686304390E+03  0.24889603297E+03  0.17200000000E+03 0.  1.
</event>
<event>
 4    1  0.3191769E-002  0.2097103E+03  0.7818608E-02  0.1141796E+00
         -1   -1    0    0    0  501 -0.00000000000E+00  0.00000000000E+00  0.71312803476E+02  0.71312803476E+02  0.00000000000E+00 0.  1.
          1   -1    0    0  502    0  0.00000000000E+00 -0.00000000000E+00 -0.63175038920E+03  0.63175038920E+03  0.00000000000E+00 0. -1.
          6    1    1    2  502    0 -0.11989851901E+03 -0.43296363998E+01 -0.33448219304E+03  0.39478695276E+03  0.17200000000E+03 0. -1.
         -6    1    1    2    0  501  0.11989851901E+03  0.43296363998E+01 -0.22595539269E+03  0.30827623992E+03  0.17200000000E+03 0. -1.
</event>
<event>
 4    1  0.3191769E-002  0.1822244E+03  0.7818608E-02  0.1165667E+00
          2   -1    0    0  502    0  0.00000000000E+00  0.00000000000E+00  0.13473193213E+03  0.13473193213E+03  0.00000000000E+00 0. -1.
         -2   -1    0    0    0  501 -0.00000000000E+00 -0.00000000000E+00 -0.28149386528E+03  0.28149386528E+03  0.00000000000E+00 0.  1.
          6    1    1    2  502    0  0.49355933105E+02 -0.34434555469E+02  0.40267705687E-01  0.18222444502E+03  0.17200000000E+03 0. -1.
         -6    1    1    2    0  501 -0.49355933105E+02  0.34434555469E+02 -0.14680220086E+03  0.23400135239E+03  0.17200000000E+03 0.  1.
</event>
<event>
 4    1  0.3191769E-002  0.2329303E+03  0.7818608E-02  0.1124594E+00
         -2   -1    0    0    0  501 -0.00000000000E+00  0.00000000000E+00  0.21247414225E+03  0.21247414225E+03  0.00000000000E+00 0.  1.
          2   -1    0    0  502    0  0.00000000000E+00 -0.00000000000E+00 -0.82207640005E+03  0.82207640005E+03  0.00000000000E+00 0. -1.
          6    1    1    2  502    0 -0.79549472258E+02 -0.13544145785E+03 -0.73428822683E+03  0.77034778321E+03  0.17200000000E+03 0. -1.
         -6    1    1    2    0  501  0.79549472258E+02  0.13544145785E+03  0.12468596903E+03  0.26420275910E+03  0.17200000000E+03 0.  1.
</event>
<event>
 4    1  0.3191769E-002  0.2268051E+03  0.7818608E-02  0.1128909E+00
          1   -1    0    0  502    0  0.00000000000E+00  0.00000000000E+00  0.17658591944E+04  0.17658591944E+04  0.00000000000E+00 0. -1.
         -1   -1    0    0    0  501 -0.00000000000E+00 -0.00000000000E+00 -0.27736898249E+03  0.27736898249E+03  0.00000000000E+00 0.  1.
          6    1    1    2  502    0 -0.65525678244E+02  0.13252530400E+03  0.17107240054E+04  0.17256932501E+04  0.17200000000E+03 0. -1.
         -6    1    1    2    0  501  0.65525678244E+02 -0.13252530400E+03 -0.22223379355E+03  0.31753492675E+03  0.17200000000E+03 0.  1.
</event>
<event>
 4    1  0.3191769E-002  0.3849414E+03  0.7818608E-02  0.1049122E+00
          3   -1    0    0  502    0  0.00000000000E+00  0.00000000000E+00  0.27216502073E+03  0.27216502073E+03  0.00000000000E+00 0. -1.
         -3   -1    0    0    0  501 -0.00000000000E+00 -0.00000000000E+00 -0.58289502231E+03  0.58289502231E+03  0.00000000000E+00 0.  1.
          6    1    1    2  502    0  0.10221573840E+03 -0.32885832937E+03 -0.45565707497E+02  0.38762880656E+03  0.17200000000E+03 0.  1.
         -6    1    1    2    0  501 -0.10221573840E+03  0.32885832937E+03 -0.26516429409E+03  0.46743123648E+03  0.17200000000E+03 0.  1.
</event>
<event>
 4    1  0.3191769E-002  0.2549363E+03  0.7818608E-02  0.1110224E+00
         -2   -1    0    0    0  501 -0.00000000000E+00  0.00000000000E+00  0.42703179272E+03  0.42703179272E+03  0.00000000000E+00 0.  1.
          2   -1    0    0  502    0  0.00000000000E+00 -0.00000000000E+00 -0.17467241159E+03  0.17467241159E+03  0.00000000000E+00 0. -1.
          6    1    1    2  502    0  0.18789579933E+03  0.10183536985E+02  0.18259112027E+02  0.25558937968E+03  0.17200000000E+03 0. -1.
         -6    1    1    2    0  501 -0.18789579933E+03 -0.10183536985E+02  0.23410026910E+03  0.34611482463E+03  0.17200000000E+03 0.  1.
</event>
<event>
 4    1  0.3191769E-002  0.1721997E+03  0.7818608E-02  0.1175573E+00
          2   -1    0    0  502    0  0.00000000000E+00  0.00000000000E+00  0.72070933803E+02  0.72070933803E+02  0.00000000000E+00 0. -1.
         -2   -1    0    0    0  501 -0.00000000000E+00 -0.00000000000E+00 -0.49630532275E+03  0.49630532275E+03  0.00000000000E+00 0.  1.
          6    1    1    2  502    0 -0.80679492581E+01 -0.19079904478E+01 -0.94600027686E+02  0.19647365592E+03  0.17200000000E+03 0. -1.
         -6    1    1    2    0  501  0.80679492581E+01  0.19079904478E+01 -0.32963436126E+03  0.37190260063E+03  0.17200000000E+03 0.  1.
</event>
<event>
 4    1  0.3191769E-002  0.1980939E+03  0.7818608E-02  0.1151357E+00
          2   -1    0    0  502    0  0.00000000000E+00  0.00000000000E+00  0.35085430384E+04  0.35085430384E+04  0.00000000000E+00 0. -1.
         -2   -1    0    0    0  501 -0.00000000000E+00 -0.00000000000E+00 -0.12689430933E+02  0.12689430933E+02  0.00000000000E+00 0.  1.
          6    1    1    2  502    0 -0.20296930595E+02 -0.96152153158E+02  0.23542524384E+04  0.23625718499E+04  0.17200000000E+03 0. -1.
         -6    1    1    2    0  501  0.20296930595E+02  0.96152153158E+02  0.11416011691E+04  0.11586606195E+04  0.17200000000E+03 0.  1.
</event>
<event>
 4    1  0.3191769E-002  0.2170888E+03  0.7818608E-02  0.1136072E+00
         -1   -1    0    0    0  501 -0.00000000000E+00  0.00000000000E+00  0.26126088645E+03  0.26126088645E+03  0.00000000000E+00 0.  1.
          1   -1    0    0  502    0  0.00000000000E+00 -0.00000000000E+00 -0.21592523225E+03  0.21592523225E+03  0.00000000000E+00 0. -1.
          6    1    1    2  502    0  0.81281885901E+02 -0.10457911338E+03 -0.74130187828E+02  0.22939664487E+03  0.17200000000E+03 0. -1.
         -6    1    1    2    0  501 -0.81281885901E+02  0.10457911338E+03  0.11946584202E+03  0.24778947383E+03  0.17200000000E+03 0.  1.
</event>
<event>
 4    1  0.3191769E-002  0.3107024E+03  0.7818608E-02  0.1080010E+00
         -2   -1    0    0    0  501 -0.00000000000E+00  0.00000000000E+00  0.76356022227E+02  0.76356022227E+02  0.00000000000E+00 0.  1.
          2   -1    0    0  502    0  0.00000000000E+00 -0.00000000000E+00 -0.30587614615E+04  0.30587614615E+04  0.00000000000E+00 0. -1.
          6    1    1    2  502    0 -0.25770166871E+03 -0.23276681286E+02 -0.26918615425E+04  0.27097332928E+04  0.17200000000E+03 0. -1.
         -6    1    1    2    0  501  0.25770166871E+03  0.23276681286E+02 -0.29054389671E+03  0.42538419090E+03  0.17200000000E+03 0.  1.
</event>
<event>
 4    1  0.3191769E-002  0.1870972E+03  0.7818608E-02  0.1161106E+00
         -1   -1    0    0    0  501 -0.00000000000E+00  0.00000000000E+00  0.84450000982E+02  0.84450000982E+02  0.00000000000E+00 0.  1.
          1   -1    0    0  502    0  0.00000000000E+00 -0.00000000000E+00 -0.41562064628E+03  0.41562064628E+03  0.00000000000E+00 0. -1.
          6    1    1    2  502    0  0.12138558237E+02  0.72622555833E+02 -0.15266073084E+03  0.24147604219E+03  0.17200000000E+03 0.  1.
         -6    1    1    2    0  501 -0.12138558237E+02 -0.72622555833E+02 -0.17850991446E+03  0.25859460507E+03  0.17200000000E+03 0. -1.
</event>
<event>
 4    1  0.3191769E-002  0.2991910E+03  0.7818608E-02  0.1085646E+00
          2   -1    0    0  502    0  0.00000000000E+00  0.00000000000E+00  0.63595196972E+03  0.63595196972E+03  0.00000000000E+00 0. -1.
         -2   -1    0    0    0  501 -0.00000000000E+00 -0.00000000000E+00 -0.31262956679E+03  0.31262956679E+03  0.00000000000E+00 0.  1.
          6    1    1    2  502    0  0.24362365360E+03  0.24057763993E+02  0.51332834815E+03  0.59415591692E+03  0.17200000000E+03 0. -1.
         -6    1    1    2    0  501 -0.24362365360E+03 -0.24057763993E+02 -0.19000594523E+03  0.35442561959E+03  0.17200000000E+03 0.  1.
</event>
<event>
 4    1  0.3191769E-002  0.2009328E+03  0.7818608E-02  0.1148954E+00
         -2   -1    0    0    0  501 -0.00000000000E+00  0.00000000000E+00  0.16864257112E+03  0.16864257112E+03  0.00000000000E+00 0.  1.
          2   -1    0    0  502    0  0.00000000000E+00 -0.00000000000E+00 -0.56554957766E+03  0.56554957766E+03  0.00000000000E+00 0. -1.
          6    1    1    2  502    0  0.10225467828E+03  0.18275288430E+02  0.80318377139E+02  0.21639095892E+03  0.17200000000E+03 0.  1.
         -6    1    1    2    0  501 -0.10225467828E+03 -0.18275288430E+02 -0.47722538367E+03  0.51780118986E+03  0.17200000000E+03 0. -1.
</event>
<event>
 4    1  0.3191769E-002  0.2614504E+03  0.7818608E-02  0.1106275E+00
         -2   -1    0    0    0  501 -0.00000000000E+00  0.00000000000E+00  0.25799082307E+03  0.25799082307E+03  0.00000000000E+00 0.  1.
          2   -1    0    0  502    0  0.00000000000E+00 -0.00000000000E+00 -0.26495649829E+03  0.26495649829E+03  0.00000000000E+00 0. -1.
          6    1    1    2  502    0 -0.10441474851E+03  0.16694274391E+03 -0.33227575737E+01  0.26147152841E+03  0.17200000000E+03 0. -1.
         -6    1    1    2    0  501  0.10441474851E+03 -0.16694274391E+03 -0.36429176404E+01  0.26147579295E+03  0.17200000000E+03 0.  1.
</event>
<event>
 4    1  0.3191769E-002  0.1847599E+03  0.7818608E-02  0.1163274E+00
          2   -1    0    0  502    0  0.00000000000E+00  0.00000000000E+00  0.79769546426E+03  0.79769546426E+03  0.00000000000E+00 0. -1.
         -2   -1    0    0    0  501 -0.00000000000E+00 -0.00000000000E+00 -0.58091511487E+02  0.58091511487E+02  0.00000000000E+00 0.  1.
          6    1    1    2  502    0 -0.47783248216E+02 -0.47633745970E+02  0.58938373840E+03  0.61766447498E+03  0.17200000000E+03 0. -1.
         -6    1    1    2    0  501  0.47783248216E+02  0.47633745970E+02  0.15022021438E+03  0.23812250077E+03  0.17200000000E+03 0.  1.
</event>
<event>
 4    1  0.3191769E-002  0.1932713E+03  0.7818608E-02  0.1155543E+00
         -2   -1    0    0    0  501 -0.00000000000E+00  0.00000000000E+00  0.26954415505E+03  0.26954415505E+03  0.00000000000E+00 0.  1.
          2   -1    0    0  502    0  0.00000000000E+00 -0.00000000000E+00 -0.14095225119E+03  0.14095225119E+03  0.00000000000E+00 0. -1.
          6    1    1    2  502    0 -0.24839217673E+02 -0.84574337226E+02  0.90915206101E+02  0.21358693769E+03  0.17200000000E+03 0. -1.
         -6    1    1    2    0  501  0.24839217673E+02  0.84574337226E+02  0.37676697755E+02  0.19690946855E+03  0.17200000000E+03 0.  1.
</event>
<event>
 4    1  0.3191769E-002  0.2465998E+03  0.7818608E-02  0.1115473E+00
          1   -1    0    0  502    0  0.00000000000E+00  0.00000000000E+00  0.59380099827E+03  0.59380099827E+03  0.00000000000E+00 0. -1.
         -1   -1    0    0    0  501 -0.00000000000E+00 -0.00000000000E+00 -0.15148025288E+03  0.15148025288E+03  0.00000000000E+00 0.  1.
          6    1    1    2  502    0 -0.15128100037E+03  0.91332004222E+02  0.43324978264E+03  0.49851464394E+03  0.17200000000E+03 0. -1.
         -6    1    1    2    0  501  0.15128100037E+03 -0.91332004222E+02  0.90709627553E+01  0.24676660721E+03  0.17200000000E+03 0.  1.
</event>
<event>
 4    1  0.3191769E-002  0.1741245E+03  0.7818608E-02  0.1173614E+00
         -1   -1    0    0    0  501 -0.00000000000E+00  0.00000000000E+00  0.42247606565E+02  0.42247606565E+02  0.00000000000E+00 0.  1.
          1   -1    0    0  502    0  0.00000000000E+00 -0.00000000000E+00 -0.77657247440E+03  0.77657247440E+03  0.00000000000E+00 0. -1.
          6    1    1    2  502    0 -0.18766549517E+02  0.19574245254E+02 -0.47992848043E+03  0.51053959767E+03  0.17200000000E+03 0. -1.
         -6    1    1    2    0  501  0.18766549517E+02 -0.19574245254E+02 -0.25439638741E+03  0.30828048330E+03  0.17200000000E+03 0.  1.
</event>
<event>
 4    1  0.3191769E-002  0.2039304E+03  0.7818608E-02  0.1146465E+00
         -1   -1    0    0    0  501 -0.00000000000E+00  0.00000000000E+00  0.16239625401E+03  0.16239625401E+03  0.00000000000E+00 0.  1.
          1   -1    0    0  502    0  0.00000000000E+00 -0.00000000000E+00 -0.25672583522E+03  0.25672583522E+03  0.00000000000E+00 0. -1.
          6    1    1    2  502    0  0.38589970827E+01 -0.10949302831E+03 -0.36713384672E+02  0.20720880223E+03  0.17200000000E+03 0.  1.
         -6    1    1    2    0  501 -0.38589970827E+01  0.10949302831E+03 -0.57616196544E+02  0.21191328701E+03  0.17200000000E+03 0.  1.
</event>
<event>
 4    1  0.3191769E-002  0.3551786E+03  0.7818608E-02  0.1060509E+00
         -2   -1    0    0    0  501 -0.00000000000E+00  0.00000000000E+00  0.22987386852E+04  0.22987386852E+04  0.00000000000E+00 0.  1.
          2   -1    0    0  502    0  0.00000000000E+00 -0.00000000000E+00 -0.59213219001E+02  0.59213219001E+02  0.00000000000E+00 0. -1.
          6    1    1    2  502    0 -0.12214889357E+02 -0.31051347912E+03  0.14387441152E+04  0.14819367238E+04  0.17200000000E+03 0. -1.
         -6    1    1    2    0  501  0.12214889357E+02  0.31051347912E+03  0.80078135097E+03  0.87601518041E+03  0.17200000000E+03 0.  1.
</event>
<event>
 4    1  0.3191769E-002  0.4665898E+03  0.7818608E-02  0.1022887E+00
          2   -1    0    0  502    0  0.00000000000E+00  0.00000000000E+00  0.42576757827E+03  0.42576757827E+03  0.00000000000E+00 0. -1.
         -2   -1    0    0    0  501 -0.00000000000E+00 -0.00000000000E+00 -0.51188176181E+03  0.51188176181E+03  0.00000000000E+00 0.  1.
          6    1    1    2  502    0 -0.41425440964E+03  0.12851189895E+03 -0.27608890642E+02  0.46740589954E+03  0.17200000000E+03 0. -1.
         -6    1    1    2    0  501  0.41425440964E+03 -0.12851189895E+03 -0.58505292899E+02  0.47024344055E+03  0.17200000000E+03 0.  1.
</event>
<event>
 4    1  0.3191769E-002  0.2398782E+03  0.7818608E-02  0.1119874E+00
         -2   -1    0    0    0  501 -0.00000000000E+00  0.00000000000E+00  0.15732919405E+03  0.15732919405E+03  0.00000000000E+00 0.  1.
          2   -1    0    0  502    0  0.00000000000E+00 -0.00000000000E+00 -0.43957255217E+03  0.43957255217E+03  0.00000000000E+00 0. -1.
          6    1    1    2  502    0 -0.97470361030E+02 -0.13585688997E+03 -0.26343725519E+03  0.35628745874E+03  0.17200000000E+03 0. -1.
         -6    1    1    2    0  501  0.97470361030E+02  0.13585688997E+03 -0.18806102923E+02  0.24061428748E+03  0.17200000000E+03 0.  1.
</event>
<event>
 4    1  0.3191769E-002  0.2225172E+03  0.7818608E-02  0.1132020E+00
         -2   -1    0    0    0  501 -0.00000000000E+00  0.00000000000E+00  0.24810903927E+02  0.24810903927E+02  0.00000000000E+00 0.  1.
          2   -1    0    0  502    0  0.00000000000E+00 -0.00000000000E+00 -0.21841793802E+04  0.21841793802E+04  0.00000000000E+00 0. -1.
          6    1    1    2  502    0 -0.39312089225E+01  0.14111851469E+03 -0.75518868264E+03  0.78728891519E+03  0.17200000000E+03 0. -1.
         -6    1    1    2    0  501  0.39312089225E+01 -0.14111851469E+03 -0.14041797936E+04  0.14217013690E+04  0.17200000000E+03 0. -1.
</event>
<event>
 4    1  0.3191769E-002  0.3099237E+03  0.7818608E-02  0.1080382E+00
          2   -1    0    0  502    0  0.00000000000E+00  0.00000000000E+00  0.20879752565E+03  0.20879752565E+03  0.00000000000E+00 0. -1.
         -2   -1    0    0    0  501 -0.00000000000E+00 -0.00000000000E+00 -0.70130750631E+03  0.70130750631E+03  0.00000000000E+00 0.  1.
          6    1    1    2  502    0  0.16911566032E+03  0.19459853341E+03  0.20656670306E+02  0.31061132271E+03  0.17200000000E+03 0. -1.
         -6    1    1    2    0  501 -0.16911566032E+03 -0.19459853341E+03 -0.51316665096E+03  0.59949370925E+03  0.17200000000E+03 0.  1.
</event>
<event>
 4    1  0.3191769E-002  0.2560573E+03  0.7818608E-02  0.1109535E+00
         -3   -1    0    0    0  501 -0.00000000000E+00  0.00000000000E+00  0.27734885612E+03  0.27734885612E+03  0.00000000000E+00 0.  1.
          3   -1    0    0  502    0  0.00000000000E+00 -0.00000000000E+00 -0.24869040247E+03  0.24869040247E+03  0.00000000000E+00 0. -1.
          6    1    1    2  502    0  0.18886168413E+03  0.17681054790E+02 -0.44141195743E+02  0.25983417903E+03  0.17200000000E+03 0. -1.
         -6    1    1    2    0  501 -0.18886168413E+03 -0.17681054790E+02  0.72799649386E+02  0.26620507956E+03  0.17200000000E+03 0. -1.
</event>
<event>
 4    1  0.3191769E-002  0.1760215E+03  0.7818608E-02  0.1171710E+00
          3   -1    0    0  502    0  0.00000000000E+00  0.00000000000E+00  0.67508518763E+02  0.67508518763E+02  0.00000000000E+00 0. -1.
         -3   -1    0    0    0  501 -0.00000000000E+00 -0.00000000000E+00 -0.76286616556E+03  0.76286616556E+03  0.00000000000E+00 0.  1.
          6    1    1    2  502    0  0.36988703293E+02 -0.56028653538E+01 -0.85624512722E+02  0.19574246716E+03  0.17200000000E+03 0. -1.
         -6    1    1    2    0  501 -0.36988703293E+02  0.56028653538E+01 -0.60973313408E+03  0.63463221716E+03  0.17200000000E+03 0. -1.
</event>
<event>
 4    1  0.3191769E-002  0.1920860E+03  0.7818608E-02  0.1156593E+00
         -2   -1    0    0    0  501 -0.00000000000E+00  0.00000000000E+00  0.22134272656E+03  0.22134272656E+03  0.00000000000E+00 0.  1.
          2   -1    0    0  502    0  0.00000000000E+00 -0.00000000000E+00 -0.17485207679E+03  0.17485207679E+03  0.00000000000E+00 0. -1.
          6    1    1    2  502    0 -0.81052486463E+02 -0.27267933513E+02 -0.19537767541E+02  0.19307710926E+03  0.17200000000E+03 0. -1.
         -6    1    1    2    0  501  0.81052486463E+02  0.27267933513E+02  0.66028417313E+02  0.20311769409E+03  0.17200000000E+03 0. -1.
</event>
<event>
 4    1  0.3191769E-002  0.2916062E+03  0.7818608E-02  0.1089513E+00
         -1   -1    0    0    0  501 -0.00000000000E+00  0.00000000000E+00  0.10737203496E+03  0.10737203496E+03  0.00000000000E+00 0.  1.
          1   -1    0    0  502    0  0.00000000000E+00 -0.00000000000E+00 -0.10939127680E+04  0.10939127680E+04  0.00000000000E+00 0. -1.
          6    1    1    2  502    0  0.44338441887E+02  0.23126672496E+03 -0.80884001753E+03  0.85980019159E+03  0.17200000000E+03 0. -1.
         -6    1    1    2    0  501 -0.44338441887E+02 -0.23126672496E+03 -0.17770071548E+03  0.34148461134E+03  0.17200000000E+03 0.  1.
</event>
<event>
 4    1  0.3191769E-002  0.2112500E+03  0.7818608E-02  0.1140580E+00
          2   -1    0    0  502    0  0.00000000000E+00  0.00000000000E+00  0.51320255020E+03  0.51320255020E+03  0.00000000000E+00 0. -1.
         -2   -1    0    0    0  501 -0.00000000000E+00 -0.00000000000E+00 -0.14623061974E+03  0.14623061974E+03  0.00000000000E+00 0.  1.
          6    1    1    2  502    0  0.37064934611E+02 -0.11691342959E+03  0.39340524139E+03  0.44653582538E+03  0.17200000000E+03 0. -1.
         -6    1    1    2    0  501 -0.37064934611E+02  0.11691342959E+03 -0.26433310922E+02  0.21289734457E+03  0.17200000000E+03 0.  1.
</event>
<event>
 4    1  0.3191769E-002  0.3710539E+03  0.7818608E-02  0.1054291E+00
          1   -1    0    0  502    0  0.00000000000E+00  0.00000000000E+00  0.31795839734E+04  0.31795839734E+04  0.00000000000E+00 0. -1.
         -1   -1    0    0    0  501 -0.00000000000E+00 -0.00000000000E+00 -0.12057816035E+03  0.12057816035E+03  0.00000000000E+00 0.  1.
          6    1    1    2  502    0  0.28353102926E+03  0.16645472419E+03  0.28504788033E+04  0.28745278617E+04  0.17200000000E+03 0. -1.
         -6    1    1    2    0  501 -0.28353102926E+03 -0.16645472419E+03  0.20852700982E+03  0.42563427210E+03  0.17200000000E+03 0.  1.
</event>
<event>
 4    1  0.3191769E-002  0.1903079E+03  0.7818608E-02  0.1158184E+00
         -3   -1    0    0    0  501 -0.00000000000E+00  0.00000000000E+00  0.11896695993E+03  0.11896695993E+03  0.00000000000E+00 0.  1.
          3   -1    0    0  502    0  0.00000000000E+00 -0.00000000000E+00 -0.31354184974E+03  0.31354184974E+03  0.00000000000E+00 0. -1.
          6    1    1    2  502    0 -0.66795965108E+02 -0.46598406727E+02 -0.13415296016E+03  0.23283927758E+03  0.17200000000E+03 0. -1.
         -6    1    1    2    0  501  0.66795965108E+02  0.46598406727E+02 -0.60421929640E+02  0.19966953209E+03  0.17200000000E+03 0. -1.
</event>
<event>
 4    1  0.3191769E-002  0.2023585E+03  0.7818608E-02  0.1147764E+00
          4   -1    0    0  502    0  0.00000000000E+00  0.00000000000E+00  0.23029033606E+03  0.23029033606E+03  0.00000000000E+00 0. -1.
         -4   -1    0    0    0  501 -0.00000000000E+00 -0.00000000000E+00 -0.20268430808E+03  0.20268430808E+03  0.00000000000E+00 0.  1.
          6    1    1    2  502    0 -0.71034371541E+02  0.79492552719E+02  0.89636167750E+02  0.22132236771E+03  0.17200000000E+03 0. -1.
         -6    1    1    2    0  501  0.71034371541E+02 -0.79492552719E+02 -0.62030139776E+02  0.21165227643E+03  0.17200000000E+03 0.  1.
</event>
<event>
 4    1  0.3191769E-002  0.3753339E+03  0.7818608E-02  0.1052672E+00
         -2   -1    0    0    0  501 -0.00000000000E+00  0.00000000000E+00  0.34288478965E+03  0.34288478965E+03  0.00000000000E+00 0.  1.
          2   -1    0    0  502    0  0.00000000000E+00 -0.00000000000E+00 -0.63200424118E+03  0.63200424118E+03  0.00000000000E+00 0. -1.
          6    1    1    2  502    0 -0.21213789071E+03  0.25746658804E+03 -0.43290249740E+03  0.57295732903E+03  0.17200000000E+03 0. -1.
         -6    1    1    2    0  501  0.21213789071E+03 -0.25746658804E+03  0.14378304587E+03  0.40193170180E+03  0.17200000000E+03 0.  1.
</event>
<event>
 4    1  0.3191769E-002  0.2409351E+03  0.7818608E-02  0.1119171E+00
         -2   -1    0    0    0  501 -0.00000000000E+00  0.00000000000E+00  0.96508418886E+02  0.96508418886E+02  0.00000000000E+00 0.  1.
          2   -1    0    0  502    0  0.00000000000E+00 -0.00000000000E+00 -0.62782364404E+03  0.62782364404E+03  0.00000000000E+00 0. -1.
          6    1    1    2  502    0  0.16415161468E+03 -0.38986537690E+02 -0.33981789807E+03  0.41656440867E+03  0.17200000000E+03 0. -1.
         -6    1    1    2    0  501 -0.16415161468E+03  0.38986537690E+02 -0.19149732708E+03  0.30776765425E+03  0.17200000000E+03 0.  1.
</event>
<event>
 4    1  0.3191769E-002  0.1904347E+03  0.7818608E-02  0.1158070E+00
         -2   -1    0    0    0  501 -0.00000000000E+00  0.00000000000E+00  0.76545576275E+03  0.76545576275E+03  0.00000000000E+00 0.  1.
          2   -1    0    0  502    0  0.00000000000E+00 -0.00000000000E+00 -0.47399898961E+02  0.47399898961E+02  0.00000000000E+00 0. -1.
          6    1    1    2  502    0 -0.15845818151E+02 -0.80189153367E+02  0.35019543248E+03  0.39862542719E+03  0.17200000000E+03 0. -1.
         -6    1    1    2    0  501  0.15845818151E+02  0.80189153367E+02  0.36786043130E+03  0.41423023452E+03  0.17200000000E+03 0. -1.
</event>
<event>
 4    1  0.3191769E-002  0.4305258E+03  0.7818608E-02  0.1033694E+00
          2   -1    0    0  502    0  0.00000000000E+00  0.00000000000E+00  0.92966691100E+03  0.92966691100E+03  0.00000000000E+00 0. -1.
         -2   -1    0    0    0  501 -0.00000000000E+00 -0.00000000000E+00 -0.58157287737E+03  0.58157287737E+03  0.00000000000E+00 0.  1.
          6    1    1    2  502    0  0.31544703724E+03 -0.23719538120E+03  0.78660239916E+03  0.89671389893E+03  0.17200000000E+03 0. -1.
         -6    1    1    2    0  501 -0.31544703724E+03  0.23719538120E+03 -0.43850836552E+03  0.61452588945E+03  0.17200000000E+03 0.  1.
</event>
<event>
 4    1  0.3191769E-002  0.2172819E+03  0.7818608E-02  0.1135926E+00
          2   -1    0    0  502    0  0.00000000000E+00  0.00000000000E+00  0.38001218927E+04  0.38001218927E+04  0.00000000000E+00 0. -1.
         -2   -1    0    0    0  501 -0.00000000000E+00 -0.00000000000E+00 -0.15329848204E+02  0.15329848204E+02  0.00000000000E+00 0.  1.
          6    1    1    2  502    0 -0.78091558298E+02  0.10737379837E+03  0.10617636052E+04  0.10837681382E+04  0.17200000000E+03 0.  1.
         -6    1    1    2    0  501  0.78091558298E+02 -0.10737379837E+03  0.27230284393E+04  0.27316836027E+04  0.17200000000E+03 0. -1.
</event>
<event>
 4    1  0.3191769E-002  0.2247100E+03  0.7818608E-02  0.1130419E+00
         -2   -1    0    0    0  501 -0.00000000000E+00  0.00000000000E+00  0.55054729262E+02  0.55054729262E+02  0.00000000000E+00 0.  1.
          2   -1    0    0  502    0  0.00000000000E+00 -0.00000000000E+00 -0.20181478574E+04  0.20181478574E+04  0.00000000000E+00 0. -1.
          6    1    1    2  502    0 -0.10112287405E+03  0.10336703883E+03 -0.17471862300E+04  0.17615772202E+04  0.17200000000E+03 0. -1.
         -6    1    1    2    0  501  0.10112287405E+03 -0.10336703883E+03 -0.21590689815E+03  0.31162536649E+03  0.17200000000E+03 0.  1.
</event>
<event>
 4    1  0.3191769E-002  0.2199289E+03  0.7818608E-02  0.1133936E+00
          2   -1    0    0  502    0  0.00000000000E+00  0.00000000000E+00  0.97784300014E+03  0.97784300014E+03  0.00000000000E+00 0. -1.
         -2   -1    0    0    0  501 -0.00000000000E+00 -0.00000000000E+00 -0.73311490174E+02  0.73311490174E+02  0.00000000000E+00 0.  1.
          6    1    1    2  502    0 -0.98228786747E+01 -0.13670498701E+03  0.75201990182E+03  0.78351941593E+03  0.17200000000E+03 0. -1.
         -6    1    1    2    0  501  0.98228786747E+01  0.13670498701E+03  0.15251160815E+03  0.26763507438E+03  0.17200000000E+03 0.  1.
</event>
<event>
 4    1  0.3191769E-002  0.1899110E+03  0.7818608E-02  0.1158542E+00
          2   -1    0    0  502    0  0.00000000000E+00  0.00000000000E+00  0.10027951240E+04  0.10027951240E+04  0.00000000000E+00 0. -1.
         -2   -1    0    0    0  501 -0.00000000000E+00 -0.00000000000E+00 -0.41092592168E+02  0.41092592168E+02  0.00000000000E+00 0.  1.
          6    1    1    2  502    0  0.79107196527E+02 -0.14974450682E+02  0.66521311345E+03  0.69179091423E+03  0.17200000000E+03 0. -1.
         -6    1    1    2    0  501 -0.79107196527E+02  0.14974450682E+02  0.29648941837E+03  0.35209680192E+03  0.17200000000E+03 0.  1.
</event>
<event>
 4    1  0.3191769E-002  0.2401604E+03  0.7818608E-02  0.1119686E+00
         -1   -1    0    0    0  501 -0.00000000000E+00  0.00000000000E+00  0.11086566872E+04  0.11086566872E+04  0.00000000000E+00 0.  1.
          1   -1    0    0  502    0  0.00000000000E+00 -0.00000000000E+00 -0.56550355035E+02  0.56550355035E+02  0.00000000000E+00 0. -1.
          6    1    1    2  502    0 -0.11964601925E+03 -0.11737914789E+03  0.36123021683E+03  0.43377909566E+03  0.17200000000E+03 0. -1.
         -6    1    1    2    0  501  0.11964601925E+03  0.11737914789E+03  0.69087611533E+03  0.73142794656E+03  0.17200000000E+03 0.  1.
</event>
<event>
 4    1  0.3191769E-002  0.3710506E+03  0.7818608E-02  0.1054292E+00
         -1   -1    0    0    0  501 -0.00000000000E+00  0.00000000000E+00  0.53451337103E+03  0.53451337103E+03  0.00000000000E+00 0.  1.
          1   -1    0    0  502    0  0.00000000000E+00 -0.00000000000E+00 -0.26672045983E+03  0.26672045983E+03  0.00000000000E+00 0. -1.
          6    1    1    2  502    0  0.27649472404E+03  0.17789100360E+03  0.20806980844E+03  0.42540755373E+03  0.17200000000E+03 0. -1.
         -6    1    1    2    0  501 -0.27649472404E+03 -0.17789100360E+03  0.59723102762E+02  0.37582627714E+03  0.17200000000E+03 0. -1.
</event>
<event>
 4    1  0.3191769E-002  0.2166458E+03  0.7818608E-02  0.1136409E+00
         -1   -1    0    0    0  501 -0.00000000000E+00  0.00000000000E+00  0.58294954132E+02  0.58294954132E+02  0.00000000000E+00 0.  1.
          1   -1    0    0  502    0  0.00000000000E+00 -0.00000000000E+00 -0.15529548253E+04  0.15529548253E+04  0.00000000000E+00 0. -1.
          6    1    1    2  502    0 -0.13724031527E+01 -0.13171761651E+03 -0.13063809280E+04  0.13242229959E+04  0.17200000000E+03 0. -1.
         -6    1    1    2    0  501  0.13724031527E+01  0.13171761651E+03 -0.18827894317E+03  0.28702678347E+03  0.17200000000E+03 0.  1.
</event>
<event>
 4    1  0.3191769E-002  0.1991916E+03  0.7818608E-02  0.1150423E+00
          2   -1    0    0  502    0  0.00000000000E+00  0.00000000000E+00  0.34252494623E+03  0.34252494623E+03  0.00000000000E+00 0. -1.
         -2   -1    0    0    0  501 -0.00000000000E+00 -0.00000000000E+00 -0.11920179809E+03  0.11920179809E+03  0.00000000000E+00 0.  1.
          6    1    1    2  502    0  0.21364711331E+02  0.98167457466E+02  0.72877965522E+02  0.21210492322E+03  0.17200000000E+03 0.  1.
         -6    1    1    2    0  501 -0.21364711331E+02 -0.98167457466E+02  0.15044518262E+03  0.24962182110E+03  0.17200000000E+03 0.  1.
</event>
<event>
 4    1  0.3191769E-002  0.2766403E+03  0.7818608E-02  0.1097538E+00
         -1   -1    0    0    0  501 -0.00000000000E+00  0.00000000000E+00  0.59648000664E+03  0.59648000664E+03  0.00000000000E+00 0.  1.
          1   -1    0    0  502    0  0.00000000000E+00 -0.00000000000E+00 -0.14070034692E+03  0.14070034692E+03  0.00000000000E+00 0. -1.
          6    1    1    2  502    0  0.13975596334E+03  0.16557212124E+03  0.33730306966E+03  0.43623756994E+03  0.17200000000E+03 0.  1.
         -6    1    1    2    0  501 -0.13975596334E+03 -0.16557212124E+03  0.11847659006E+03  0.30094278362E+03  0.17200000000E+03 0.  1.
</event>
<event>
 4    1  0.3191769E-002  0.1960972E+03  0.7818608E-02  0.1153074E+00
          2   -1    0    0  502    0  0.00000000000E+00  0.00000000000E+00  0.54000748802E+03  0.54000748802E+03  0.00000000000E+00 0. -1.
         -2   -1    0    0    0  501 -0.00000000000E+00 -0.00000000000E+00 -0.73302314229E+02  0.73302314229E+02  0.00000000000E+00 0.  1.
          6    1    1    2  502    0  0.77195984459E+02 -0.53952770642E+02  0.18154798529E+03  0.26723359153E+03  0.17200000000E+03 0. -1.
         -6    1    1    2    0  501 -0.77195984459E+02  0.53952770642E+02  0.28515718850E+03  0.34607621073E+03  0.17200000000E+03 0.  1.
</event>
<event>
 4    1  0.3191769E-002  0.2800864E+03  0.7818608E-02  0.1095642E+00
         -1   -1    0    0    0  501 -0.00000000000E+00  0.00000000000E+00  0.26424447267E+02  0.26424447267E+02  0.00000000000E+00 0.  1.
          1   -1    0    0  502    0  0.00000000000E+00 -0.00000000000E+00 -0.32981664520E+04  0.32981664520E+04  0.00000000000E+00 0. -1.
          6    1    1    2  502    0 -0.21979191362E+03  0.23577688193E+02 -0.11105506276E+04  0.11453257568E+04  0.17200000000E+03 0. -1.
         -6    1    1    2    0  501  0.21979191362E+03 -0.23577688193E+02 -0.21611913772E+04  0.21792651425E+04  0.17200000000E+03 0.  1.
</event>
<event>
 4    1  0.3191769E-002  0.2147002E+03  0.7818608E-02  0.1137897E+00
          2   -1    0    0  502    0  0.00000000000E+00  0.00000000000E+00  0.10851302498E+04  0.10851302498E+04  0.00000000000E+00 0. -1.
         -2   -1    0    0    0  501 -0.00000000000E+00 -0.00000000000E+00 -0.43427753604E+02  0.43427753604E+02  0.00000000000E+00 0.  1.
          6    1    1    2  502    0 -0.12094161201E+03 -0.43419997572E+02  0.60421790905E+03  0.64122964008E+03  0.17200000000E+03 0. -1.
         -6    1    1    2    0  501  0.12094161201E+03  0.43419997572E+02  0.43748458715E+03  0.48732836333E+03  0.17200000000E+03 0.  1.
</event>
<event>
 4    1  0.3191769E-002  0.3886095E+03  0.7818608E-02  0.1047797E+00
         -2   -1    0    0    0  501 -0.00000000000E+00  0.00000000000E+00  0.43584721271E+03  0.43584721271E+03  0.00000000000E+00 0.  1.
          2   -1    0    0  502    0  0.00000000000E+00 -0.00000000000E+00 -0.81898277909E+03  0.81898277909E+03  0.00000000000E+00 0. -1.
          6    1    1    2  502    0 -0.33552312114E+03 -0.94114779312E+02 -0.66812429260E+03  0.77292135879E+03  0.17200000000E+03 0. -1.
         -6    1    1    2    0  501  0.33552312114E+03  0.94114779312E+02  0.28498872623E+03  0.48190863302E+03  0.17200000000E+03 0.  1.
</event>
<event>
 4    1  0.3191769E-002  0.2774791E+03  0.7818608E-02  0.1097074E+00
          2   -1    0    0  502    0  0.00000000000E+00  0.00000000000E+00  0.29106431188E+04  0.29106431188E+04  0.00000000000E+00 0. -1.
         -2   -1    0    0    0  501 -0.00000000000E+00 -0.00000000000E+00 -0.26510559458E+02  0.26510559458E+02  0.00000000000E+00 0.  1.
          6    1    1    2  502    0 -0.42345777264E+02 -0.21358251537E+03  0.13735167175E+04  0.14012647248E+04  0.17200000000E+03 0. -1.
         -6    1    1    2    0  501  0.42345777264E+02  0.21358251537E+03  0.15106158418E+04  0.15358889534E+04  0.17200000000E+03 0.  1.
</event>
<event>
 4    1  0.3191769E-002  0.2781427E+03  0.7818608E-02  0.1096708E+00
         -2   -1    0    0    0  501 -0.00000000000E+00  0.00000000000E+00  0.24303362038E+03  0.24303362038E+03  0.00000000000E+00 0.  1.
          2   -1    0    0  502    0  0.00000000000E+00 -0.00000000000E+00 -0.42256435305E+03  0.42256435305E+03  0.00000000000E+00 0. -1.
          6    1    1    2  502    0 -0.20334401998E+03  0.80191013840E+02 -0.25505814827E+03  0.37738315829E+03  0.17200000000E+03 0. -1.
         -6    1    1    2    0  501  0.20334401998E+03 -0.80191013840E+02  0.75527415592E+02  0.28821481514E+03  0.17200000000E+03 0.  1.
</event>
<event>
 4    1  0.3191769E-002  0.2197554E+03  0.7818608E-02  0.1134066E+00
          2   -1    0    0  502    0  0.00000000000E+00  0.00000000000E+00  0.90221926170E+03  0.90221926170E+03  0.00000000000E+00 0. -1.
         -2   -1    0    0    0  501 -0.00000000000E+00 -0.00000000000E+00 -0.99247188507E+02  0.99247188507E+02  0.00000000000E+00 0.  1.
          6    1    1    2  502    0  0.12832762917E+03 -0.47333579562E+02  0.74134966509E+03  0.77323461775E+03  0.17200000000E+03 0. -1.
         -6    1    1    2    0  501 -0.12832762917E+03  0.47333579562E+02  0.61622408100E+02  0.22823183245E+03  0.17200000000E+03 0.  1.
</event>
<event>
 4    1  0.3191769E-002  0.1963693E+03  0.7818608E-02  0.1152839E+00
          1   -1    0    0  502    0  0.00000000000E+00  0.00000000000E+00  0.55286930195E+03  0.55286930195E+03  0.00000000000E+00 0. -1.
         -1   -1    0    0    0  501 -0.00000000000E+00 -0.00000000000E+00 -0.77509964464E+02  0.77509964464E+02  0.00000000000E+00 0.  1.
          6    1    1    2  502    0 -0.26879084018E+02 -0.90853855538E+02  0.33742908062E+03  0.39040913498E+03  0.17200000000E+03 0. -1.
         -6    1    1    2    0  501  0.26879084018E+02  0.90853855538E+02  0.13793025686E+03  0.23997013144E+03  0.17200000000E+03 0.  1.
</event>
<event>
 4    1  0.3191769E-002  0.3337137E+03  0.7818608E-02  0.1069505E+00
         -1   -1    0    0    0  501 -0.00000000000E+00  0.00000000000E+00  0.31204065244E+03  0.31204065244E+03  0.00000000000E+00 0.  1.
          1   -1    0    0  502    0  0.00000000000E+00 -0.00000000000E+00 -0.54666903888E+03  0.54666903888E+03  0.00000000000E+00 0. -1.
          6    1    1    2  502    0 -0.19384954253E+03  0.21024555804E+03 -0.37028817856E+03  0.49847585197E+03  0.17200000000E+03 0. -1.
         -6    1    1    2    0  501  0.19384954253E+03 -0.21024555804E+03  0.13565979212E+03  0.36023383935E+03  0.17200000000E+03 0.  1.
</event>
<event>
 4    1  0.3191769E-002  0.2548315E+03  0.7818608E-02  0.1110289E+00
         -2   -1    0    0    0  501 -0.00000000000E+00  0.00000000000E+00  0.59692377967E+02  0.59692377967E+02  0.00000000000E+00 0.  1.
          2   -1    0    0  502    0  0.00000000000E+00 -0.00000000000E+00 -0.11838685748E+04  0.11838685748E+04  0.00000000000E+00 0. -1.
          6    1    1    2  502    0  0.17638959650E+03  0.65129080491E+02 -0.73912319661E+03  0.78181979167E+03  0.17200000000E+03 0. -1.
         -6    1    1    2    0  501 -0.17638959650E+03 -0.65129080491E+02 -0.38505300027E+03  0.46174116114E+03  0.17200000000E+03 0.  1.
</event>
<event>
 4    1  0.3191769E-002  0.2096644E+03  0.7818608E-02  0.1141832E+00
          1   -1    0    0  502    0  0.00000000000E+00  0.00000000000E+00  0.84939432122E+03  0.84939432122E+03  0.00000000000E+00 0. -1.
         -1   -1    0    0    0  501 -0.00000000000E+00 -0.00000000000E+00 -0.86147099362E+02  0.86147099362E+02  0.00000000000E+00 0.  1.
          6    1    1    2  502    0 -0.45360889525E+02 -0.11098441364E+03  0.67718748504E+03  0.70890199623E+03  0.17200000000E+03 0. -1.
         -6    1    1    2    0  501  0.45360889525E+02  0.11098441364E+03  0.86059736825E+02  0.22663942435E+03  0.17200000000E+03 0.  1.
</event>
<event>
 4    1  0.3191769E-002  0.1940966E+03  0.7818608E-02  0.1154818E+00
         -2   -1    0    0    0  501 -0.00000000000E+00  0.00000000000E+00  0.25747011947E+03  0.25747011947E+03  0.00000000000E+00 0.  1.
          2   -1    0    0  502    0  0.00000000000E+00 -0.00000000000E+00 -0.28484551522E+03  0.28484551522E+03  0.00000000000E+00 0. -1.
          6    1    1    2  502    0 -0.74427225177E+02  0.50498111192E+02 -0.20278251484E+03  0.28070308051E+03  0.17200000000E+03 0. -1.
         -6    1    1    2    0  501  0.74427225177E+02 -0.50498111192E+02  0.17540711909E+03  0.26161255419E+03  0.17200000000E+03 0.  1.
</event>
<event>
 4    1  0.3191769E-002  0.2181939E+03  0.7818608E-02  0.1135237E+00
         -1   -1    0    0    0  501 -0.00000000000E+00  0.00000000000E+00  0.23263971564E+03  0.23263971564E+03  0.00000000000E+00 0.  1.
          1   -1    0    0  502    0  0.00000000000E+00 -0.00000000000E+00 -0.20811477151E+03  0.20811477151E+03  0.00000000000E+00 0. -1.
          6    1    1    2  502    0  0.11838710644E+03 -0.63317066925E+02  0.40717881344E+02  0.22196059064E+03  0.17200000000E+03 0. -1.
         -6    1    1    2    0  501 -0.11838710644E+03  0.63317066925E+02 -0.16192937206E+02  0.21879389651E+03  0.17200000000E+03 0.  1.
</event>
<event>
 4    1  0.3191769E-002  0.1810610E+03  0.7818608E-02  0.1166780E+00
         -2   -1    0    0    0  501 -0.00000000000E+00  0.00000000000E+00  0.45987943971E+03  0.45987943971E+03  0.00000000000E+00 0.  1.
          2   -1    0    0  502    0  0.00000000000E+00 -0.00000000000E+00 -0.81442487597E+02  0.81442487597E+02  0.00000000000E+00 0. -1.
          6    1    1    2  502    0  0.28497082033E+02 -0.48856913280E+02  0.28479835816E+03  0.33748064607E+03  0.17200000000E+03 0.  1.
         -6    1    1    2    0  501 -0.28497082033E+02  0.48856913280E+02  0.93638593951E+02  0.20384128124E+03  0.17200000000E+03 0. -1.
</event>
<event>
 4    1  0.3191769E-002  0.2740385E+03  0.7818608E-02  0.1098990E+00
          2   -1    0    0  502    0  0.00000000000E+00  0.00000000000E+00  0.80064784796E+03  0.80064784796E+03  0.00000000000E+00 0. -1.
         -2   -1    0    0    0  501 -0.00000000000E+00 -0.00000000000E+00 -0.94148239171E+02  0.94148239171E+02  0.00000000000E+00 0.  1.
          6    1    1    2  502    0  0.17906848972E+03 -0.11596361349E+03  0.38063888959E+03  0.46902350467E+03  0.17200000000E+03 0. -1.
         -6    1    1    2    0  501 -0.17906848972E+03  0.11596361349E+03  0.32586071920E+03  0.42577258246E+03  0.17200000000E+03 0.  1.
</event>
<event>
 4    1  0.3191769E-002  0.1759979E+03  0.7818608E-02  0.1171734E+00
         -2   -1    0    0    0  501 -0.00000000000E+00  0.00000000000E+00  0.18202082357E+03  0.18202082357E+03  0.00000000000E+00 0.  1.
          2   -1    0    0  502    0  0.00000000000E+00 -0.00000000000E+00 -0.18027059571E+03  0.18027059571E+03  0.00000000000E+00 0. -1.
          6    1    1    2  502    0  0.18837608914E+02 -0.32192991230E+02 -0.41994467296E+02  0.18093860693E+03  0.17200000000E+03 0. -1.
         -6    1    1    2    0  501 -0.18837608914E+02  0.32192991230E+02  0.43744695149E+02  0.18135281235E+03  0.17200000000E+03 0. -1.
</event>
<event>
 4    1  0.3191769E-002  0.4578883E+03  0.7818608E-02  0.1025395E+00
          1   -1    0    0  502    0  0.00000000000E+00  0.00000000000E+00  0.10220953058E+04  0.10220953058E+04  0.00000000000E+00 0. -1.
         -1   -1    0    0    0  501 -0.00000000000E+00 -0.00000000000E+00 -0.34354485317E+03  0.34354485317E+03  0.00000000000E+00 0.  1.
          6    1    1    2  502    0  0.67144767071E+02  0.41900986851E+03  0.77269329693E+03  0.89817404816E+03  0.17200000000E+03 0. -1.
         -6    1    1    2    0  501 -0.67144767071E+02 -0.41900986851E+03 -0.94142844274E+02  0.46746611084E+03  0.17200000000E+03 0.  1.
</event>
<event>
 4    1  0.3191769E-002  0.2309095E+03  0.7818608E-02  0.1126001E+00
         -1   -1    0    0    0  501 -0.00000000000E+00  0.00000000000E+00  0.23705372463E+03  0.23705372463E+03  0.00000000000E+00 0.  1.
          1   -1    0    0  502    0  0.00000000000E+00 -0.00000000000E+00 -0.39354908662E+03  0.39354908662E+03  0.00000000000E+00 0. -1.
          6    1    1    2  502    0 -0.58441268823E+02 -0.14254757299E+03 -0.28463684443E+03  0.36652056651E+03  0.17200000000E+03 0. -1.
         -6    1    1    2    0  501  0.58441268823E+02  0.14254757299E+03  0.12814148244E+03  0.26408224474E+03  0.17200000000E+03 0.  1.
</event>
<event>
 4    1  0.3191769E-002  0.2923116E+03  0.7818608E-02  0.1089148E+00
         -2   -1    0    0    0  501 -0.00000000000E+00  0.00000000000E+00  0.14005497025E+03  0.14005497025E+03  0.00000000000E+00 0.  1.
          2   -1    0    0  502    0  0.00000000000E+00 -0.00000000000E+00 -0.13659318153E+04  0.13659318153E+04  0.00000000000E+00 0. -1.
          6    1    1    2  502    0 -0.17581408464E+03  0.15796042490E+03 -0.11730727799E+04  0.12089440992E+04  0.17200000000E+03 0. -1.
         -6    1    1    2    0  501  0.17581408464E+03 -0.15796042490E+03 -0.52804065167E+02  0.29704268631E+03  0.17200000000E+03 0.  1.
</event>
<event>
 4    1  0.3191769E-002  0.4607099E+03  0.7818608E-02  0.1024576E+00
          2   -1    0    0  502    0  0.00000000000E+00  0.00000000000E+00  0.19607558832E+04  0.19607558832E+04  0.00000000000E+00 0. -1.
         -2   -1    0    0    0  501 -0.00000000000E+00 -0.00000000000E+00 -0.11329750975E+03  0.11329750975E+03  0.00000000000E+00 0.  1.
          6    1    1    2  502    0  0.22474558036E+03 -0.36353686774E+03  0.70486297816E+03  0.84207211572E+03  0.17200000000E+03 0. -1.
         -6    1    1    2    0  501 -0.22474558036E+03  0.36353686774E+03  0.11425953953E+04  0.12319812772E+04  0.17200000000E+03 0.  1.
</event>
<event>
 4    1  0.3191769E-002  0.1794038E+03  0.7818608E-02  0.1168381E+00
          1   -1    0    0  502    0  0.00000000000E+00  0.00000000000E+00  0.48849288180E+03  0.48849288180E+03  0.00000000000E+00 0. -1.
         -1   -1    0    0    0  501 -0.00000000000E+00 -0.00000000000E+00 -0.70272636562E+02  0.70272636562E+02  0.00000000000E+00 0.  1.
          6    1    1    2  502    0 -0.46268286294E+02 -0.21470518148E+02  0.27889824983E+03  0.33161720586E+03  0.17200000000E+03 0. -1.
         -6    1    1    2    0  501  0.46268286294E+02  0.21470518148E+02  0.13932199540E+03  0.22714831250E+03  0.17200000000E+03 0.  1.
</event>
<event>
 4    1  0.3191769E-002  0.1818120E+03  0.7818608E-02  0.1166061E+00
         -2   -1    0    0    0  501 -0.00000000000E+00  0.00000000000E+00  0.24108137273E+02  0.24108137273E+02  0.00000000000E+00 0.  1.
          2   -1    0    0  502    0  0.00000000000E+00 -0.00000000000E+00 -0.13739367429E+04  0.13739367429E+04  0.00000000000E+00 0. -1.
          6    1    1    2  502    0  0.30867134409E+02 -0.50187753614E+02 -0.70646182050E+03  0.72948193564E+03  0.17200000000E+03 0. -1.
         -6    1    1    2    0  501 -0.30867134409E+02  0.50187753614E+02 -0.64336678513E+03  0.66856294454E+03  0.17200000000E+03 0.  1.
</event>
<event>
 4    1  0.3191769E-002  0.2135649E+03  0.7818608E-02  0.1138774E+00
         -2   -1    0    0    0  501 -0.00000000000E+00  0.00000000000E+00  0.45751650490E+02  0.45751650490E+02  0.00000000000E+00 0.  1.
          2   -1    0    0  502    0  0.00000000000E+00 -0.00000000000E+00 -0.17831618649E+04  0.17831618649E+04  0.00000000000E+00 0. -1.
          6    1    1    2  502    0  0.12458691518E+03  0.22451712080E+02 -0.14759312201E+04  0.14913024325E+04  0.17200000000E+03 0. -1.
         -6    1    1    2    0  501 -0.12458691518E+03 -0.22451712080E+02 -0.26147899436E+03  0.33761108291E+03  0.17200000000E+03 0.  1.
</event>
<event>
 4    1  0.3191769E-002  0.4459583E+03  0.7818608E-02  0.1028934E+00
         -4   -1    0    0    0  501 -0.00000000000E+00  0.00000000000E+00  0.66630749289E+03  0.66630749289E+03  0.00000000000E+00 0.  1.
          4   -1    0    0  502    0  0.00000000000E+00 -0.00000000000E+00 -0.34560012490E+03  0.34560012490E+03  0.00000000000E+00 0. -1.
          6    1    1    2  502    0  0.39804034544E+03 -0.10420504932E+03 -0.26469877609E+02  0.44674317379E+03  0.17200000000E+03 0. -1.
         -6    1    1    2    0  501 -0.39804034544E+03  0.10420504932E+03  0.34717724560E+03  0.56516444400E+03  0.17200000000E+03 0.  1.
</event>
<event>
 4    1  0.3191769E-002  0.2434748E+03  0.7818608E-02  0.1117499E+00
          1   -1    0    0  502    0  0.00000000000E+00  0.00000000000E+00  0.99964308389E+02  0.99964308389E+02  0.00000000000E+00 0. -1.
         -1   -1    0    0    0  501 -0.00000000000E+00 -0.00000000000E+00 -0.59908455350E+03  0.59908455350E+03  0.00000000000E+00 0.  1.
          6    1    1    2  502    0 -0.82295047413E+02  0.15140514450E+03 -0.28475132579E+03  0.37465091772E+03  0.17200000000E+03 0. -1.
         -6    1    1    2    0  501  0.82295047413E+02 -0.15140514450E+03 -0.21436891932E+03  0.32439794417E+03  0.17200000000E+03 0.  1.
</event>
<event>
 4    1  0.3191769E-002  0.2006084E+03  0.7818608E-02  0.1149227E+00
         -1   -1    0    0    0  501 -0.00000000000E+00  0.00000000000E+00  0.54527589006E+03  0.54527589006E+03  0.00000000000E+00 0.  1.
          1   -1    0    0  502    0  0.00000000000E+00 -0.00000000000E+00 -0.75588368718E+02  0.75588368718E+02  0.00000000000E+00 0. -1.
          6    1    1    2  502    0  0.42297176006E+02 -0.94184333526E+02  0.28253485483E+03  0.34651072707E+03  0.17200000000E+03 0. -1.
         -6    1    1    2    0  501 -0.42297176006E+02  0.94184333526E+02  0.18715266651E+03  0.27435353171E+03  0.17200000000E+03 0.  1.
</event>
<event>
 4    1  0.3191769E-002  0.2200647E+03  0.7818608E-02  0.1133835E+00
         -1   -1    0    0    0  501 -0.00000000000E+00  0.00000000000E+00  0.96001503367E+02  0.96001503367E+02  0.00000000000E+00 0.  1.
          1   -1    0    0  502    0  0.00000000000E+00 -0.00000000000E+00 -0.51815025410E+03  0.51815025410E+03  0.00000000000E+00 0. -1.
          6    1    1    2  502    0 -0.10520254365E+03 -0.88186646933E+02 -0.26099722197E+03  0.34139128542E+03  0.17200000000E+03 0. -1.
         -6    1    1    2    0  501  0.10520254365E+03  0.88186646933E+02 -0.16115152877E+03  0.27276047205E+03  0.17200000000E+03 0.  1.
</event>
<event>
 4    1  0.3191769E-002  0.1176557E+04  0.7818608E-02  0.9133627E-01
          2   -1    0    0  502    0  0.00000000000E+00  0.00000000000E+00  0.28303982162E+04  0.28303982162E+04  0.00000000000E+00 0. -1.
         -2   -1    0    0    0  501 -0.00000000000E+00 -0.00000000000E+00 -0.53854162220E+03  0.53854162220E+03  0.00000000000E+00 0.  1.
          6    1    1    2  502    0  0.45672705744E+02  0.11630208432E+04  0.16564256697E+04  0.20317562544E+04  0.17200000000E+03 0. -1.
         -6    1    1    2    0  501 -0.45672705744E+02 -0.11630208432E+04  0.63543092429E+03  0.13371835840E+04  0.17200000000E+03 0.  1.
</event>
<event>
 4    1  0.3191769E-002  0.2053646E+03  0.7818608E-02  0.1145290E+00
         -1   -1    0    0    0  501 -0.00000000000E+00  0.00000000000E+00  0.26448757847E+02  0.26448757847E+02  0.00000000000E+00 0.  1.
          1   -1    0    0  502    0  0.00000000000E+00 -0.00000000000E+00 -0.18074428159E+04  0.18074428159E+04  0.00000000000E+00 0. -1.
          6    1    1    2  502    0  0.13811736312E+02  0.11135460057E+03 -0.57582135288E+03  0.61134674413E+03  0.17200000000E+03 0. -1.
         -6    1    1    2    0  501 -0.13811736312E+02 -0.11135460057E+03 -0.12051727052E+04  0.12225448296E+04  0.17200000000E+03 0. -1.
</event>
<event>
 4    1  0.3191769E-002  0.6712921E+03  0.7818608E-02  0.9767626E-01
          2   -1    0    0  502    0  0.00000000000E+00  0.00000000000E+00  0.15690847306E+04  0.15690847306E+04  0.00000000000E+00 0. -1.
         -2   -1    0    0    0  501 -0.00000000000E+00 -0.00000000000E+00 -0.32969475340E+03  0.32969475340E+03  0.00000000000E+00 0.  1.
          6    1    1    2  502    0  0.43434218056E+03 -0.48207465383E+03  0.96055992772E+03  0.11718824499E+04  0.17200000000E+03 0. -1.
         -6    1    1    2    0  501 -0.43434218056E+03  0.48207465383E+03  0.27883004950E+03  0.72689703410E+03  0.17200000000E+03 0.  1.
</event>
<event>
 4    1  0.3191769E-002  0.1663802E+04  0.7818608E-02  0.8782283E-01
         -2   -1    0    0    0  501 -0.00000000000E+00  0.00000000000E+00  0.17006238827E+04  0.17006238827E+04  0.00000000000E+00 0.  1.
          2   -1    0    0  502    0  0.00000000000E+00 -0.00000000000E+00 -0.21158557099E+04  0.21158557099E+04  0.00000000000E+00 0. -1.
          6    1    1    2  502    0 -0.12260306201E+04  0.11115311667E+04 -0.11241208561E+04  0.20079552572E+04  0.17200000000E+03 0. -1.
         -6    1    1    2    0  501  0.12260306201E+04 -0.11115311667E+04  0.70888902891E+03  0.18085243353E+04  0.17200000000E+03 0.  1.
</event>
<event>
 4    1  0.3191769E-002  0.1813954E+03  0.7818608E-02  0.1166459E+00
          2   -1    0    0  502    0  0.00000000000E+00  0.00000000000E+00  0.14562951491E+04  0.14562951491E+04  0.00000000000E+00 0. -1.
         -2   -1    0    0    0  501 -0.00000000000E+00 -0.00000000000E+00 -0.27581396324E+02  0.27581396324E+02  0.00000000000E+00 0.  1.
          6    1    1    2  502    0  0.52274170699E+02  0.24242933645E+02  0.39887574870E+03  0.43818508836E+03  0.17200000000E+03 0.  1.
         -6    1    1    2    0  501 -0.52274170699E+02 -0.24242933645E+02  0.10298380041E+04  0.10456914571E+04  0.17200000000E+03 0. -1.
</event>
<event>
 4    1  0.3191769E-002  0.2725337E+03  0.7818608E-02  0.1099838E+00
          2   -1    0    0  502    0  0.00000000000E+00  0.00000000000E+00  0.16047240683E+04  0.16047240683E+04  0.00000000000E+00 0. -1.
         -2   -1    0    0    0  501 -0.00000000000E+00 -0.00000000000E+00 -0.13224689378E+03  0.13224689378E+03  0.00000000000E+00 0.  1.
          6    1    1    2  502    0 -0.11952699363E+03  0.17436717082E+03  0.14364398253E+04  0.14620649727E+04  0.17200000000E+03 0.  1.
         -6    1    1    2    0  501  0.11952699363E+03 -0.17436717082E+03  0.36037349151E+02  0.27490598939E+03  0.17200000000E+03 0.  1.
</event>
<event>
 4    1  0.3191769E-002  0.1793577E+03  0.7818608E-02  0.1168426E+00
         -1   -1    0    0    0  501 -0.00000000000E+00  0.00000000000E+00  0.64167944302E+02  0.64167944302E+02  0.00000000000E+00 0.  1.
          1   -1    0    0  502    0  0.00000000000E+00 -0.00000000000E+00 -0.50145197856E+03  0.50145197856E+03  0.00000000000E+00 0. -1.
          6    1    1    2  502    0  0.31433565254E+02 -0.39963740588E+02 -0.21419024377E+03  0.27936826970E+03  0.17200000000E+03 0. -1.
         -6    1    1    2    0  501 -0.31433565254E+02  0.39963740588E+02 -0.22309379049E+03  0.28625165317E+03  0.17200000000E+03 0.  1.
</event>
<event>
 4    1  0.3191769E-002  0.2122183E+03  0.7818608E-02  0.1139821E+00
          1   -1    0    0  502    0  0.00000000000E+00  0.00000000000E+00  0.21188793185E+03  0.21188793185E+03  0.00000000000E+00 0. -1.
         -1   -1    0    0    0  501 -0.00000000000E+00 -0.00000000000E+00 -0.24680352394E+03  0.24680352394E+03  0.00000000000E+00 0.  1.
          6    1    1    2  502    0  0.11747567464E+03 -0.40645686264E+02 -0.10290007239E+03  0.23584959369E+03  0.17200000000E+03 0.  1.
         -6    1    1    2    0  501 -0.11747567464E+03  0.40645686264E+02  0.67984480301E+02  0.22284186210E+03  0.17200000000E+03 0.  1.
</event>
<event>
 4    1  0.3191769E-002  0.2275975E+03  0.7818608E-02  0.1128342E+00
          1   -1    0    0  502    0  0.00000000000E+00  0.00000000000E+00  0.43408173193E+03  0.43408173193E+03  0.00000000000E+00 0. -1.
         -1   -1    0    0    0  501 -0.00000000000E+00 -0.00000000000E+00 -0.24752249032E+03  0.24752249032E+03  0.00000000000E+00 0.  1.
          6    1    1    2  502    0  0.12267176647E+03  0.84665597228E+02 -0.15197646158E+03  0.27367402237E+03  0.17200000000E+03 0.  1.
         -6    1    1    2    0  501 -0.12267176647E+03 -0.84665597228E+02  0.33853570319E+03  0.40793019988E+03  0.17200000000E+03 0. -1.
</event>
<event>
 4    1  0.3191769E-002  0.1897896E+03  0.7818608E-02  0.1158651E+00
          2   -1    0    0  502    0  0.00000000000E+00  0.00000000000E+00  0.87597068939E+02  0.87597068939E+02  0.00000000000E+00 0. -1.
         -2   -1    0    0    0  501 -0.00000000000E+00 -0.00000000000E+00 -0.14494543472E+04  0.14494543472E+04  0.00000000000E+00 0.  1.
          6    1    1    2  502    0  0.69766428490E+02 -0.39607440344E+02 -0.30488166524E+02  0.19222287110E+03  0.17200000000E+03 0. -1.
         -6    1    1    2    0  501 -0.69766428490E+02  0.39607440344E+02 -0.13313691118E+04  0.13448285451E+04  0.17200000000E+03 0.  1.
</event>
<event>
 4    1  0.3191769E-002  0.1908489E+03  0.7818608E-02  0.1157698E+00
         -1   -1    0    0    0  501 -0.00000000000E+00  0.00000000000E+00  0.73067205282E+02  0.73067205282E+02  0.00000000000E+00 0.  1.
          1   -1    0    0  502    0  0.00000000000E+00 -0.00000000000E+00 -0.52750262100E+03  0.52750262100E+03  0.00000000000E+00 0. -1.
          6    1    1    2  502    0  0.56352848174E+02 -0.60528060862E+02 -0.29764042712E+03  0.35357193540E+03  0.17200000000E+03 0. -1.
         -6    1    1    2    0  501 -0.56352848174E+02  0.60528060862E+02 -0.15679498860E+03  0.24699789088E+03  0.17200000000E+03 0.  1.
</event>
<event>
 4    1  0.3191769E-002  0.2154168E+03  0.7818608E-02  0.1137347E+00
         -2   -1    0    0    0  501 -0.00000000000E+00  0.00000000000E+00  0.27751216472E+02  0.27751216472E+02  0.00000000000E+00 0.  1.
          2   -1    0    0  502    0  0.00000000000E+00 -0.00000000000E+00 -0.20238580222E+04  0.20238580222E+04  0.00000000000E+00 0. -1.
          6    1    1    2  502    0 -0.23121265660E+02  0.12761586211E+03 -0.14256765596E+04  0.14418592351E+04  0.17200000000E+03 0. -1.
         -6    1    1    2    0  501  0.23121265660E+02 -0.12761586211E+03 -0.57043024616E+03  0.60975000363E+03  0.17200000000E+03 0.  1.
</event>
<event>
 4    1  0.3191769E-002  0.1889873E+03  0.7818608E-02  0.1159378E+00
          2   -1    0    0  502    0  0.00000000000E+00  0.00000000000E+00  0.94091492276E+03  0.94091492276E+03  0.00000000000E+00 0. -1.
         -2   -1    0    0    0  501 -0.00000000000E+00 -0.00000000000E+00 -0.43233872488E+02  0.43233872488E+02  0.00000000000E+00 0.  1.
          6    1    1    2  502    0 -0.58214904960E+02 -0.52375704207E+02  0.62072026344E+03  0.64885270671E+03  0.17200000000E+03 0. -1.
         -6    1    1    2    0  501  0.58214904960E+02  0.52375704207E+02  0.27696078682E+03  0.33529608854E+03  0.17200000000E+03 0.  1.
</event>
<event>
 4    1  0.3191769E-002  0.1903777E+03  0.7818608E-02  0.1158121E+00
         -2   -1    0    0    0  501 -0.00000000000E+00  0.00000000000E+00  0.40892978055E+02  0.40892978055E+02  0.00000000000E+00 0.  1.
          2   -1    0    0  502    0  0.00000000000E+00 -0.00000000000E+00 -0.27019803816E+04  0.27019803816E+04  0.00000000000E+00 0. -1.
          6    1    1    2  502    0 -0.68568022562E+02 -0.44250191960E+02 -0.24547700534E+04  0.24621412771E+04  0.17200000000E+03 0. -1.
         -6    1    1    2    0  501  0.68568022562E+02  0.44250191960E+02 -0.20631735006E+03  0.28073208250E+03  0.17200000000E+03 0.  1.
</event>
<event>
 4    1  0.3191769E-002  0.3457385E+03  0.7818608E-02  0.1064378E+00
         -2   -1    0    0    0  501 -0.00000000000E+00  0.00000000000E+00  0.62637189107E+02  0.62637189107E+02  0.00000000000E+00 0.  1.
          2   -1    0    0  502    0  0.00000000000E+00 -0.00000000000E+00 -0.20310159292E+04  0.20310159292E+04  0.00000000000E+00 0. -1.
          6    1    1    2  502    0  0.23954175832E+03  0.18047395112E+03 -0.12414301843E+04  0.12886752902E+04  0.17200000000E+03 0. -1.
         -6    1    1    2    0  501 -0.23954175832E+03 -0.18047395112E+03 -0.72694855573E+03  0.80497782807E+03  0.17200000000E+03 0.  1.
</event>
<event>
 4    1  0.3191769E-002  0.4020571E+03  0.7818608E-02  0.1043070E+00
         -2   -1    0    0    0  501 -0.00000000000E+00  0.00000000000E+00  0.88269202724E+03  0.88269202724E+03  0.00000000000E+00 0.  1.
          2   -1    0    0  502    0  0.00000000000E+00 -0.00000000000E+00 -0.18507228692E+03  0.18507228692E+03  0.00000000000E+00 0. -1.
          6    1    1    2  502    0 -0.36228485793E+03 -0.28558764639E+02  0.40346245109E+03  0.56958921229E+03  0.17200000000E+03 0. -1.
         -6    1    1    2    0  501  0.36228485793E+03  0.28558764639E+02  0.29415728923E+03  0.49817510187E+03  0.17200000000E+03 0. -1.
</event>
<event>
 4    1  0.3191769E-002  0.2951084E+03  0.7818608E-02  0.1087712E+00
          3   -1    0    0  502    0  0.00000000000E+00  0.00000000000E+00  0.24532728751E+03  0.24532728751E+03  0.00000000000E+00 0. -1.
         -3   -1    0    0    0  501 -0.00000000000E+00 -0.00000000000E+00 -0.38311610845E+03  0.38311610845E+03  0.00000000000E+00 0.  1.
          6    1    1    2  502    0 -0.17466969512E+03 -0.16430290667E+03  0.16242730481E+02  0.29555502673E+03  0.17200000000E+03 0. -1.
         -6    1    1    2    0  501  0.17466969512E+03  0.16430290667E+03 -0.15403155142E+03  0.33288836923E+03  0.17200000000E+03 0.  1.
</event>
<event>
 4    1  0.3191769E-002  0.4039373E+03  0.7818608E-02  0.1042425E+00
          2   -1    0    0  502    0  0.00000000000E+00  0.00000000000E+00  0.16044508839E+04  0.16044508839E+04  0.00000000000E+00 0. -1.
         -2   -1    0    0    0  501 -0.00000000000E+00 -0.00000000000E+00 -0.29281899776E+03  0.29281899776E+03  0.00000000000E+00 0.  1.
          6    1    1    2  502    0  0.17581972529E+03  0.32041969842E+03  0.14222178703E+04  0.14784684743E+04  0.17200000000E+03 0. -1.
         -6    1    1    2    0  501 -0.17581972529E+03 -0.32041969842E+03 -0.11058598414E+03  0.41880140738E+03  0.17200000000E+03 0.  1.
</event>
<event>
 4    1  0.3191769E-002  0.3818389E+03  0.7818608E-02  0.1050256E+00
         -2   -1    0    0    0  501 -0.00000000000E+00  0.00000000000E+00  0.29808102526E+03  0.29808102526E+03  0.00000000000E+00 0.  1.
          2   -1    0    0  502    0  0.00000000000E+00 -0.00000000000E+00 -0.10379051872E+04  0.10379051872E+04  0.00000000000E+00 0. -1.
          6    1    1    2  502    0  0.31268753033E+03 -0.13580654536E+03 -0.85563618862E+03  0.93697075550E+03  0.17200000000E+03 0. -1.
         -6    1    1    2    0  501 -0.31268753033E+03  0.13580654536E+03  0.11581202665E+03  0.39901545698E+03  0.17200000000E+03 0.  1.
</event>
<event>
 4    1  0.3191769E-002  0.2745335E+03  0.7818608E-02  0.1098713E+00
          1   -1    0    0  502    0  0.00000000000E+00  0.00000000000E+00  0.21916063412E+04  0.21916063412E+04  0.00000000000E+00 0. -1.
         -1   -1    0    0    0  501 -0.00000000000E+00 -0.00000000000E+00 -0.34604478991E+02  0.34604478991E+02  0.00000000000E+00 0.  1.
          6    1    1    2  502    0  0.18799965922E+03  0.10218009575E+03  0.11661979512E+04  0.11980760849E+04  0.17200000000E+03 0. -1.
         -6    1    1    2    0  501 -0.18799965922E+03 -0.10218009575E+03  0.99080391095E+03  0.10281347352E+04  0.17200000000E+03 0.  1.
</event>
<event>
 4    1  0.3191769E-002  0.1774306E+03  0.7818608E-02  0.1170313E+00
         -2   -1    0    0    0  501 -0.00000000000E+00  0.00000000000E+00  0.14345686979E+02  0.14345686979E+02  0.00000000000E+00 0.  1.
          2   -1    0    0  502    0  0.00000000000E+00 -0.00000000000E+00 -0.21958279481E+04  0.21958279481E+04  0.00000000000E+00 0. -1.
          6    1    1    2  502    0  0.43157392218E+02 -0.59222658434E+01 -0.10635818705E+04  0.10782801255E+04  0.17200000000E+03 0. -1.
         -6    1    1    2    0  501 -0.43157392218E+02  0.59222658434E+01 -0.11179003906E+04  0.11318935096E+04  0.17200000000E+03 0. -1.
</event>
<event>
 4    1  0.3191769E-002  0.1944990E+03  0.7818608E-02  0.1154465E+00
          2   -1    0    0  502    0  0.00000000000E+00  0.00000000000E+00  0.17925914172E+03  0.17925914172E+03  0.00000000000E+00 0. -1.
         -2   -1    0    0    0  501 -0.00000000000E+00 -0.00000000000E+00 -0.22538443055E+03  0.22538443055E+03  0.00000000000E+00 0.  1.
          6    1    1    2  502    0 -0.84448908939E+02 -0.33380391919E+02  0.27988459161E+02  0.19650247487E+03  0.17200000000E+03 0. -1.
         -6    1    1    2    0  501  0.84448908939E+02  0.33380391919E+02 -0.74113747993E+02  0.20814109740E+03  0.17200000000E+03 0.  1.
</event>
<event>
 4    1  0.3191769E-002  0.3152962E+03  0.7818608E-02  0.1077835E+00
         -1   -1    0    0    0  501 -0.00000000000E+00  0.00000000000E+00  0.45835671340E+03  0.45835671340E+03  0.00000000000E+00 0.  1.
          1   -1    0    0  502    0  0.00000000000E+00 -0.00000000000E+00 -0.22452515555E+03  0.22452515555E+03  0.00000000000E+00 0. -1.
          6    1    1    2  502    0 -0.26197216165E+03  0.34616424385E+02  0.53940330948E+02  0.31987696012E+03  0.17200000000E+03 0. -1.
         -6    1    1    2    0  501  0.26197216165E+03 -0.34616424385E+02  0.17989122691E+03  0.36300490883E+03  0.17200000000E+03 0.  1.
</event>
<event>
 4    1  0.3191769E-002  0.2277319E+03  0.7818608E-02  0.1128246E+00
          1   -1    0    0  502    0  0.00000000000E+00  0.00000000000E+00  0.12757485429E+04  0.12757485429E+04  0.00000000000E+00 0. -1.
         -1   -1    0    0    0  501 -0.00000000000E+00 -0.00000000000E+00 -0.13065046799E+03  0.13065046799E+03  0.00000000000E+00 0.  1.
          6    1    1    2  502    0  0.11987242497E+03 -0.88929341294E+02  0.11561828547E+04  0.11783974794E+04  0.17200000000E+03 0. -1.
         -6    1    1    2    0  501 -0.11987242497E+03  0.88929341294E+02 -0.11084779785E+02  0.22800153147E+03  0.17200000000E+03 0.  1.
</event>
<event>
 4    1  0.3191769E-002  0.5728616E+03  0.7818608E-02  0.9963366E-01
         -4   -1    0    0    0  501 -0.00000000000E+00  0.00000000000E+00  0.67227467070E+03  0.67227467070E+03  0.00000000000E+00 0.  1.
          4   -1    0    0  502    0  0.00000000000E+00 -0.00000000000E+00 -0.50600738430E+03  0.50600738430E+03  0.00000000000E+00 0. -1.
          6    1    1    2  502    0 -0.50900949295E+03 -0.19873538129E+03 -0.27543558553E+02  0.57352337643E+03  0.17200000000E+03 0. -1.
         -6    1    1    2    0  501  0.50900949295E+03  0.19873538129E+03  0.19381084496E+03  0.60475867858E+03  0.17200000000E+03 0.  1.
</event>
<event>
 4    1  0.3191769E-002  0.1761116E+03  0.7818608E-02  0.1171620E+00
          1   -1    0    0  502    0  0.00000000000E+00  0.00000000000E+00  0.38849712147E+03  0.38849712147E+03  0.00000000000E+00 0. -1.
         -1   -1    0    0    0  501 -0.00000000000E+00 -0.00000000000E+00 -0.84271555419E+02  0.84271555419E+02  0.00000000000E+00 0.  1.
          6    1    1    2  502    0  0.37812948526E+02  0.12212423275E+01  0.97869477767E+02  0.20147889514E+03  0.17200000000E+03 0.  1.
         -6    1    1    2    0  501 -0.37812948526E+02 -0.12212423275E+01  0.20635608829E+03  0.27128978175E+03  0.17200000000E+03 0.  1.
</event>
<event>
 4    1  0.3191769E-002  0.2836031E+03  0.7818608E-02  0.1093737E+00
         -1   -1    0    0    0  501 -0.00000000000E+00  0.00000000000E+00  0.14101313728E+03  0.14101313728E+03  0.00000000000E+00 0.  1.
          1   -1    0    0  502    0  0.00000000000E+00 -0.00000000000E+00 -0.77821228143E+03  0.77821228143E+03  0.00000000000E+00 0. -1.
          6    1    1    2  502    0  0.86948332180E+02  0.20805458353E+03 -0.55612061567E+03  0.62426025131E+03  0.17200000000E+03 0. -1.
         -6    1    1    2    0  501 -0.86948332180E+02 -0.20805458353E+03 -0.81078528485E+02  0.29496516740E+03  0.17200000000E+03 0.  1.
</event>
<event>
 4    1  0.3191769E-002  0.1749023E+03  0.7818608E-02  0.1172830E+00
         -2   -1    0    0    0  501 -0.00000000000E+00  0.00000000000E+00  0.10473602949E+02  0.10473602949E+02  0.00000000000E+00 0.  1.
          2   -1    0    0  502    0  0.00000000000E+00 -0.00000000000E+00 -0.30005508297E+04  0.30005508297E+04  0.00000000000E+00 0. -1.
          6    1    1    2  502    0 -0.21430047943E+02  0.23400274486E+02 -0.12495247248E+04  0.12617063279E+04  0.17200000000E+03 0.  1.
         -6    1    1    2    0  501  0.21430047943E+02 -0.23400274486E+02 -0.17405525019E+04  0.17493181048E+04  0.17200000000E+03 0. -1.
</event>
<event>
 4    1  0.3191769E-002  0.2982869E+03  0.7818608E-02  0.1086100E+00
         -2   -1    0    0    0  501 -0.00000000000E+00  0.00000000000E+00  0.94059875539E+02  0.94059875539E+02  0.00000000000E+00 0.  1.
          2   -1    0    0  502    0  0.00000000000E+00 -0.00000000000E+00 -0.10394056051E+04  0.10394056051E+04  0.00000000000E+00 0. -1.
          6    1    1    2  502    0  0.74023414528E+02 -0.23218877963E+03 -0.64261822027E+03  0.70847249228E+03  0.17200000000E+03 0. -1.
         -6    1    1    2    0  501 -0.74023414528E+02  0.23218877963E+03 -0.30272750930E+03  0.42499298838E+03  0.17200000000E+03 0.  1.
</event>
<event>
 4    1  0.3191769E-002  0.3025573E+03  0.7818608E-02  0.1083969E+00
          1   -1    0    0  502    0  0.00000000000E+00  0.00000000000E+00  0.39254183450E+03  0.39254183450E+03  0.00000000000E+00 0. -1.
         -1   -1    0    0    0  501 -0.00000000000E+00 -0.00000000000E+00 -0.23424825742E+03  0.23424825742E+03  0.00000000000E+00 0.  1.
          6    1    1    2  502    0  0.38279057273E+02  0.24595044241E+03  0.10010761755E+03  0.31868862772E+03  0.17200000000E+03 0. -1.
         -6    1    1    2    0  501 -0.38279057273E+02 -0.24595044241E+03  0.58185959526E+02  0.30810146419E+03  0.17200000000E+03 0.  1.
</event>
<event>
 4    1  0.3191769E-002  0.2664862E+03  0.7818608E-02  0.1103308E+00
          2   -1    0    0  502    0  0.00000000000E+00  0.00000000000E+00  0.32518276416E+04  0.32518276416E+04  0.00000000000E+00 0. -1.
         -2   -1    0    0    0  501 -0.00000000000E+00 -0.00000000000E+00 -0.38269474825E+03  0.38269474825E+03  0.00000000000E+00 0.  1.
          6    1    1    2  502    0 -0.19050727239E+03 -0.71678816074E+02  0.31992150914E+04  0.32102947021E+04  0.17200000000E+03 0. -1.
         -6    1    1    2    0  501  0.19050727239E+03  0.71678816074E+02 -0.33008219809E+03  0.42422768769E+03  0.17200000000E+03 0.  1.
</event>
<event>
 4    1  0.3191769E-002  0.1835520E+03  0.7818608E-02  0.1164409E+00
          3   -1    0    0  502    0  0.00000000000E+00  0.00000000000E+00  0.22526292601E+04  0.22526292601E+04  0.00000000000E+00 0. -1.
         -3   -1    0    0    0  501 -0.00000000000E+00 -0.00000000000E+00 -0.18388262735E+02  0.18388262735E+02  0.00000000000E+00 0.  1.
          6    1    1    2  502    0 -0.56320684773E+00 -0.64086014039E+02  0.16076690532E+04  0.16181134444E+04  0.17200000000E+03 0. -1.
         -6    1    1    2    0  501  0.56320684773E+00  0.64086014039E+02  0.62657194418E+03  0.65290407843E+03  0.17200000000E+03 0.  1.
</event>
<event>
 4    1  0.3191769E-002  0.1781616E+03  0.7818608E-02  0.1169594E+00
          2   -1    0    0  502    0  0.00000000000E+00  0.00000000000E+00  0.57641312811E+03  0.57641312811E+03  0.00000000000E+00 0. -1.
         -2   -1    0    0    0  501 -0.00000000000E+00 -0.00000000000E+00 -0.56716053068E+02  0.56716053068E+02  0.00000000000E+00 0.  1.
          6    1    1    2  502    0  0.45824000078E+02 -0.75978140565E+01  0.20587567346E+03  0.27226156299E+03  0.17200000000E+03 0.  1.
         -6    1    1    2    0  501 -0.45824000078E+02  0.75978140565E+01  0.31382140158E+03  0.36086761818E+03  0.17200000000E+03 0. -1.
</event>
<event>
 4    1  0.3191769E-002  0.3146873E+03  0.7818608E-02  0.1078121E+00
         -1   -1    0    0    0  501 -0.00000000000E+00  0.00000000000E+00  0.86129993317E+03  0.86129993317E+03  0.00000000000E+00 0.  1.
          1   -1    0    0  502    0  0.00000000000E+00 -0.00000000000E+00 -0.11618305767E+03  0.11618305767E+03  0.00000000000E+00 0. -1.
          6    1    1    2  502    0 -0.25756308653E+03 -0.55725904542E+02  0.42239157359E+03  0.52672835639E+03  0.17200000000E+03 0. -1.
         -6    1    1    2    0  501  0.25756308653E+03  0.55725904542E+02  0.32272530191E+03  0.45075463445E+03  0.17200000000E+03 0.  1.
</event>
<event>
 4    1  0.3191769E-002  0.2847222E+03  0.7818608E-02  0.1093137E+00
         -1   -1    0    0    0  501 -0.00000000000E+00  0.00000000000E+00  0.92710561798E+03  0.92710561798E+03  0.00000000000E+00 0.  1.
          1   -1    0    0  502    0  0.00000000000E+00 -0.00000000000E+00 -0.94427904216E+02  0.94427904216E+02  0.00000000000E+00 0. -1.
          6    1    1    2  502    0 -0.20365408290E+03 -0.10003882468E+03  0.55527798905E+03  0.62401954861E+03  0.17200000000E+03 0. -1.
         -6    1    1    2    0  501  0.20365408290E+03  0.10003882468E+03  0.27739972472E+03  0.39751397359E+03  0.17200000000E+03 0.  1.
</event>
<event>
 4    1  0.3191769E-002  0.2802091E+03  0.7818608E-02  0.1095575E+00
         -2   -1    0    0    0  501 -0.00000000000E+00  0.00000000000E+00  0.27019183660E+03  0.27019183660E+03  0.00000000000E+00 0.  1.
          2   -1    0    0  502    0  0.00000000000E+00 -0.00000000000E+00 -0.40226030707E+03  0.40226030707E+03  0.00000000000E+00 0. -1.
          6    1    1    2  502    0  0.20107754218E+03  0.92200544040E+02 -0.24318039236E+03  0.37101727927E+03  0.17200000000E+03 0. -1.
         -6    1    1    2    0  501 -0.20107754218E+03 -0.92200544040E+02  0.11111192190E+03  0.30143486440E+03  0.17200000000E+03 0.  1.
</event>
<event>
 4    1  0.3191769E-002  0.1840629E+03  0.7818608E-02  0.1163928E+00
          1   -1    0    0  502    0  0.00000000000E+00  0.00000000000E+00  0.20128076542E+03  0.20128076542E+03  0.00000000000E+00 0. -1.
         -1   -1    0    0    0  501 -0.00000000000E+00 -0.00000000000E+00 -0.24372435100E+03  0.24372435100E+03  0.00000000000E+00 0.  1.
          6    1    1    2  502    0  0.38819485218E+02 -0.52803344961E+02  0.10254095471E+03  0.21069834614E+03  0.17200000000E+03 0. -1.
         -6    1    1    2    0  501 -0.38819485218E+02  0.52803344961E+02 -0.14498454030E+03  0.23430677027E+03  0.17200000000E+03 0.  1.
</event>
<event>
 4    1  0.3191769E-002  0.3213145E+03  0.7818608E-02  0.1075046E+00
          1   -1    0    0  502    0  0.00000000000E+00  0.00000000000E+00  0.22200073975E+04  0.22200073975E+04  0.00000000000E+00 0. -1.
         -1   -1    0    0    0  501 -0.00000000000E+00 -0.00000000000E+00 -0.22092876092E+03  0.22092876092E+03  0.00000000000E+00 0.  1.
          6    1    1    2  502    0 -0.24488110387E+03 -0.11701396239E+03  0.20839710943E+04  0.21085963446E+04  0.17200000000E+03 0. -1.
         -6    1    1    2    0  501  0.24488110387E+03  0.11701396239E+03 -0.84892457804E+02  0.33233981378E+03  0.17200000000E+03 0.  1.
</event>
<event>
 4    1  0.3191769E-002  0.1900578E+03  0.7818608E-02  0.1158409E+00
         -2   -1    0    0    0  501 -0.00000000000E+00  0.00000000000E+00  0.34231576965E+02  0.34231576965E+02  0.00000000000E+00 0.  1.
          2   -1    0    0  502    0  0.00000000000E+00 -0.00000000000E+00 -0.12407282374E+04  0.12407282374E+04  0.00000000000E+00 0. -1.
          6    1    1    2  502    0 -0.48579342548E+02  0.64637643100E+02 -0.35675496925E+03  0.40422281666E+03  0.17200000000E+03 0.  1.
         -6    1    1    2    0  501  0.48579342548E+02 -0.64637643100E+02 -0.84974169123E+03  0.87073699774E+03  0.17200000000E+03 0. -1.
</event>
<event>
 4    1  0.3191769E-002  0.2018069E+03  0.7818608E-02  0.1148223E+00
         -2   -1    0    0    0  501 -0.00000000000E+00  0.00000000000E+00  0.24288278610E+03  0.24288278610E+03  0.00000000000E+00 0.  1.
          2   -1    0    0  502    0  0.00000000000E+00 -0.00000000000E+00 -0.20068892032E+03  0.20068892032E+03  0.00000000000E+00 0. -1.
          6    1    1    2  502    0 -0.17903122856E+02  0.10402655000E+03 -0.68853331773E+02  0.21322951533E+03  0.17200000000E+03 0. -1.
         -6    1    1    2    0  501  0.17903122856E+02 -0.10402655000E+03  0.11104719756E+03  0.23034219109E+03  0.17200000000E+03 0.  1.
</event>
<event>
 4    1  0.3191769E-002  0.2012778E+03  0.7818608E-02  0.1148665E+00
         -1   -1    0    0    0  501 -0.00000000000E+00  0.00000000000E+00  0.30816641582E+02  0.30816641582E+02  0.00000000000E+00 0.  1.
          1   -1    0    0  502    0  0.00000000000E+00 -0.00000000000E+00 -0.13341104463E+04  0.13341104463E+04  0.00000000000E+00 0. -1.
          6    1    1    2  502    0  0.10141475797E+03  0.25373571577E+02 -0.73409453388E+03  0.76118825263E+03  0.17200000000E+03 0. -1.
         -6    1    1    2    0  501 -0.10141475797E+03 -0.25373571577E+02 -0.56919927084E+03  0.60373883525E+03  0.17200000000E+03 0.  1.
</event>
<event>
 4    1  0.3191769E-002  0.2366905E+03  0.7818608E-02  0.1122017E+00
         -2   -1    0    0    0  501 -0.00000000000E+00  0.00000000000E+00  0.69602265045E+02  0.69602265045E+02  0.00000000000E+00 0.  1.
          2   -1    0    0  502    0  0.00000000000E+00 -0.00000000000E+00 -0.10255311493E+04  0.10255311493E+04  0.00000000000E+00 0. -1.
          6    1    1    2  502    0  0.75095041689E+02 -0.14421902828E+03 -0.73194628043E+03  0.76926442193E+03  0.17200000000E+03 0. -1.
         -6    1    1    2    0  501 -0.75095041689E+02  0.14421902828E+03 -0.22398260382E+03  0.32586899242E+03  0.17200000000E+03 0.  1.
</event>
<event>
 4    1  0.3191769E-002  0.1770925E+03  0.7818608E-02  0.1170647E+00
          1   -1    0    0  502    0  0.00000000000E+00  0.00000000000E+00  0.86099933761E+02  0.86099933761E+02  0.00000000000E+00 0. -1.
         -1   -1    0    0    0  501 -0.00000000000E+00 -0.00000000000E+00 -0.36461149957E+03  0.36461149957E+03  0.00000000000E+00 0.  1.
          6    1    1    2  502    0  0.37185411903E+02 -0.19874622508E+02 -0.13214333195E+03  0.22096066541E+03  0.17200000000E+03 0. -1.
         -6    1    1    2    0  501 -0.37185411903E+02  0.19874622508E+02 -0.14636823386E+03  0.22975076792E+03  0.17200000000E+03 0. -1.
</event>
<event>
 4    1  0.3191769E-002  0.1788882E+03  0.7818608E-02  0.1168883E+00
         -1   -1    0    0    0  501 -0.00000000000E+00  0.00000000000E+00  0.43901790422E+02  0.43901790422E+02  0.00000000000E+00 0.  1.
          1   -1    0    0  502    0  0.00000000000E+00 -0.00000000000E+00 -0.82106505241E+03  0.82106505241E+03  0.00000000000E+00 0. -1.
          6    1    1    2  502    0 -0.42225003603E+02 -0.25180097525E+02 -0.24370058169E+03  0.30230938086E+03  0.17200000000E+03 0.  1.
         -6    1    1    2    0  501  0.42225003603E+02  0.25180097525E+02 -0.53346268030E+03  0.56265746198E+03  0.17200000000E+03 0. -1.
</event>
<event>
 4    1  0.3191769E-002  0.1898889E+03  0.7818608E-02  0.1158562E+00
          1   -1    0    0  502    0  0.00000000000E+00  0.00000000000E+00  0.10970599927E+04  0.10970599927E+04  0.00000000000E+00 0. -1.
         -1   -1    0    0    0  501 -0.00000000000E+00 -0.00000000000E+00 -0.33048981694E+02  0.33048981694E+02  0.00000000000E+00 0.  1.
          6    1    1    2  502    0 -0.63257611000E+02  0.49721970746E+02  0.57385891451E+03  0.60445996847E+03  0.17200000000E+03 0.  1.
         -6    1    1    2    0  501  0.63257611000E+02 -0.49721970746E+02  0.49015209649E+03  0.52564900591E+03  0.17200000000E+03 0.  1.
</event>
<event>
 4    1  0.3191769E-002  0.2264255E+03  0.7818608E-02  0.1129181E+00
          4   -1    0    0  502    0  0.00000000000E+00  0.00000000000E+00  0.76114419104E+03  0.76114419104E+03  0.00000000000E+00 0. -1.
         -4   -1    0    0    0  501 -0.00000000000E+00 -0.00000000000E+00 -0.67401329455E+02  0.67401329455E+02  0.00000000000E+00 0.  1.
          6    1    1    2  502    0  0.80848821823E+02  0.12307703944E+03  0.33626299036E+03  0.40539029134E+03  0.17200000000E+03 0.  1.
         -6    1    1    2    0  501 -0.80848821823E+02 -0.12307703944E+03  0.35747987123E+03  0.42315522916E+03  0.17200000000E+03 0. -1.
</event>
<event>
 4    1  0.3191769E-002  0.2576277E+03  0.7818608E-02  0.1108577E+00
          1   -1    0    0  502    0  0.00000000000E+00  0.00000000000E+00  0.45896394458E+03  0.45896394458E+03  0.00000000000E+00 0. -1.
         -1   -1    0    0    0  501 -0.00000000000E+00 -0.00000000000E+00 -0.22321273500E+03  0.22321273500E+03  0.00000000000E+00 0.  1.
          6    1    1    2  502    0 -0.90625249704E+02  0.16904168024E+03 -0.84528211294E+02  0.27114026637E+03  0.17200000000E+03 0. -1.
         -6    1    1    2    0  501  0.90625249704E+02 -0.16904168024E+03  0.32027942088E+03  0.41103641321E+03  0.17200000000E+03 0. -1.
</event>
<event>
 4    1  0.3191769E-002  0.2014373E+03  0.7818608E-02  0.1148532E+00
          1   -1    0    0  502    0  0.00000000000E+00  0.00000000000E+00  0.87639951581E+03  0.87639951581E+03  0.00000000000E+00 0. -1.
         -1   -1    0    0    0  501 -0.00000000000E+00 -0.00000000000E+00 -0.63669084976E+02  0.63669084976E+02  0.00000000000E+00 0.  1.
          6    1    1    2  502    0 -0.10423222699E+03 -0.11341783305E+02  0.65186892529E+03  0.68228299770E+03  0.17200000000E+03 0. -1.
         -6    1    1    2    0  501  0.10423222699E+03  0.11341783305E+02  0.16086150554E+03  0.25778560309E+03  0.17200000000E+03 0.  1.
</event>
<event>
 4    1  0.3191769E-002  0.5471376E+03  0.7818608E-02  0.1002159E+00
          2   -1    0    0  502    0  0.00000000000E+00  0.00000000000E+00  0.20263393636E+04  0.20263393636E+04  0.00000000000E+00 0. -1.
         -2   -1    0    0    0  501 -0.00000000000E+00 -0.00000000000E+00 -0.18769279444E+03  0.18769279444E+03  0.00000000000E+00 0.  1.
          6    1    1    2  502    0 -0.50119363501E+03  0.13631029172E+03  0.14301050872E+04  0.15311956491E+04  0.17200000000E+03 0. -1.
         -6    1    1    2    0  501  0.50119363501E+03 -0.13631029172E+03  0.40854148187E+03  0.68283650885E+03  0.17200000000E+03 0.  1.
</event>
<event>
 4    1  0.3191769E-002  0.3494323E+03  0.7818608E-02  0.1062848E+00
         -2   -1    0    0    0  501 -0.00000000000E+00  0.00000000000E+00  0.50468272732E+02  0.50468272732E+02  0.00000000000E+00 0.  1.
          2   -1    0    0  502    0  0.00000000000E+00 -0.00000000000E+00 -0.29320345844E+04  0.29320345844E+04  0.00000000000E+00 0. -1.
          6    1    1    2  502    0 -0.12550554084E+03  0.27706908415E+03 -0.20643319657E+04  0.20936975385E+04  0.17200000000E+03 0. -1.
         -6    1    1    2    0  501  0.12550554084E+03 -0.27706908415E+03 -0.81723434600E+03  0.88880531865E+03  0.17200000000E+03 0.  1.
</event>
<event>
 4    1  0.3191769E-002  0.4231358E+03  0.7818608E-02  0.1036051E+00
         -1   -1    0    0    0  501 -0.00000000000E+00  0.00000000000E+00  0.11686001024E+03  0.11686001024E+03  0.00000000000E+00 0.  1.
          1   -1    0    0  502    0  0.00000000000E+00 -0.00000000000E+00 -0.17054269379E+04  0.17054269379E+04  0.00000000000E+00 0. -1.
          6    1    1    2  502    0 -0.10966708316E+03  0.37071965488E+03 -0.50383158680E+03  0.65794391820E+03  0.17200000000E+03 0. -1.
         -6    1    1    2    0  501  0.10966708316E+03 -0.37071965488E+03 -0.10847353408E+04  0.11643430299E+04  0.17200000000E+03 0.  1.
</event>
<event>
 4    1  0.3191769E-002  0.5399995E+03  0.7818608E-02  0.1003836E+00
         -1   -1    0    0    0  501 -0.00000000000E+00  0.00000000000E+00  0.14015077068E+03  0.14015077068E+03  0.00000000000E+00 0.  1.
          1   -1    0    0  502    0  0.00000000000E+00 -0.00000000000E+00 -0.20853578458E+04  0.20853578458E+04  0.00000000000E+00 0. -1.
          6    1    1    2  502    0 -0.51182908632E+03  0.68128724426E+01 -0.10256856643E+04  0.11591507714E+04  0.17200000000E+03 0. -1.
         -6    1    1    2    0  501  0.51182908632E+03 -0.68128724426E+01 -0.91952141084E+03  0.10663578451E+04  0.17200000000E+03 0.  1.
</event>
<event>
 4    1  0.3191769E-002  0.2596723E+03  0.7818608E-02  0.1107340E+00
         -1   -1    0    0    0  501 -0.00000000000E+00  0.00000000000E+00  0.11054358438E+04  0.11054358438E+04  0.00000000000E+00 0.  1.
          1   -1    0    0  502    0  0.00000000000E+00 -0.00000000000E+00 -0.61854446039E+02  0.61854446039E+02  0.00000000000E+00 0. -1.
          6    1    1    2  502    0  0.19250701571E+03 -0.28048796785E+02  0.45312462912E+03  0.52225627389E+03  0.17200000000E+03 0. -1.
         -6    1    1    2    0  501 -0.19250701571E+03  0.28048796785E+02  0.59045676863E+03  0.64503401594E+03  0.17200000000E+03 0.  1.
</event>
<event>
 4    1  0.3191769E-002  0.3291372E+03  0.7818608E-02  0.1071519E+00
         -1   -1    0    0    0  501 -0.00000000000E+00  0.00000000000E+00  0.14308264950E+03  0.14308264950E+03  0.00000000000E+00 0.  1.
          1   -1    0    0  502    0  0.00000000000E+00 -0.00000000000E+00 -0.88455060924E+03  0.88455060924E+03  0.00000000000E+00 0. -1.
          6    1    1    2  502    0  0.21874169533E+03 -0.17578214343E+03 -0.56575304721E+03  0.65452868665E+03  0.17200000000E+03 0.  1.
         -6    1    1    2    0  501 -0.21874169533E+03  0.17578214343E+03 -0.17571491253E+03  0.37310457209E+03  0.17200000000E+03 0.  1.
</event>
<event>
 4    1  0.3191769E-002  0.2952951E+03  0.7818608E-02  0.1087616E+00
         -2   -1    0    0    0  501 -0.00000000000E+00  0.00000000000E+00  0.28746568407E+03  0.28746568407E+03  0.00000000000E+00 0.  1.
          2   -1    0    0  502    0  0.00000000000E+00 -0.00000000000E+00 -0.38019244764E+03  0.38019244764E+03  0.00000000000E+00 0. -1.
          6    1    1    2  502    0 -0.11861730303E+03  0.20867467314E+03 -0.19645543962E+03  0.35467439088E+03  0.17200000000E+03 0. -1.
         -6    1    1    2    0  501  0.11861730303E+03 -0.20867467314E+03  0.10372867604E+03  0.31298374083E+03  0.17200000000E+03 0.  1.
</event>
<event>
 4    1  0.3191769E-002  0.1983656E+03  0.7818608E-02  0.1151125E+00
         -2   -1    0    0    0  501 -0.00000000000E+00  0.00000000000E+00  0.17066170190E+02  0.17066170190E+02  0.00000000000E+00 0.  1.
          2   -1    0    0  502    0  0.00000000000E+00 -0.00000000000E+00 -0.23511110555E+04  0.23511110555E+04  0.00000000000E+00 0. -1.
          6    1    1    2  502    0 -0.76601600430E+01  0.98520122028E+02 -0.13316451700E+04  0.13463386466E+04  0.17200000000E+03 0. -1.
         -6    1    1    2    0  501  0.76601600430E+01 -0.98520122028E+02 -0.10023997153E+04  0.10218385791E+04  0.17200000000E+03 0.  1.
</event>
<event>
 4    1  0.3191769E-002  0.6447918E+03  0.7818608E-02  0.9816601E-01
          2   -1    0    0  502    0  0.00000000000E+00  0.00000000000E+00  0.22616549396E+04  0.22616549396E+04  0.00000000000E+00 0. -1.
         -2   -1    0    0    0  501 -0.00000000000E+00 -0.00000000000E+00 -0.25131242988E+03  0.25131242988E+03  0.00000000000E+00 0.  1.
          6    1    1    2  502    0  0.20294420085E+03  0.58735523168E+03  0.16562750399E+04  0.17773585808E+04  0.17200000000E+03 0. -1.
         -6    1    1    2    0  501 -0.20294420085E+03 -0.58735523168E+03  0.35406746982E+03  0.73560878871E+03  0.17200000000E+03 0.  1.
</event>
<event>
 4    1  0.3191769E-002  0.1776393E+03  0.7818608E-02  0.1170107E+00
          2   -1    0    0  502    0  0.00000000000E+00  0.00000000000E+00  0.19147427069E+04  0.19147427069E+04  0.00000000000E+00 0. -1.
         -2   -1    0    0    0  501 -0.00000000000E+00 -0.00000000000E+00 -0.17129623266E+02  0.17129623266E+02  0.00000000000E+00 0.  1.
          6    1    1    2  502    0 -0.66170235787E+01  0.43908428889E+02  0.11368550587E+04  0.11506498857E+04  0.17200000000E+03 0.  1.
         -6    1    1    2    0  501  0.66170235787E+01 -0.43908428889E+02  0.76075802494E+03  0.78122244440E+03  0.17200000000E+03 0.  1.
</event>
<event>
 4    1  0.3191769E-002  0.2362952E+03  0.7818608E-02  0.1122286E+00
          2   -1    0    0  502    0  0.00000000000E+00  0.00000000000E+00  0.39351737595E+03  0.39351737595E+03  0.00000000000E+00 0. -1.
         -2   -1    0    0    0  501 -0.00000000000E+00 -0.00000000000E+00 -0.14293468539E+03  0.14293468539E+03  0.00000000000E+00 0.  1.
          6    1    1    2  502    0  0.13401446766E+03  0.91057877050E+02  0.14824379670E+03  0.27894737456E+03  0.17200000000E+03 0. -1.
         -6    1    1    2    0  501 -0.13401446766E+03 -0.91057877050E+02  0.10233889386E+03  0.25750468678E+03  0.17200000000E+03 0.  1.
</event>
<event>
 4    1  0.3191769E-002  0.1872093E+03  0.7818608E-02  0.1161003E+00
          2   -1    0    0  502    0  0.00000000000E+00  0.00000000000E+00  0.39500097077E+02  0.39500097077E+02  0.00000000000E+00 0. -1.
         -2   -1    0    0    0  501 -0.00000000000E+00 -0.00000000000E+00 -0.90410169312E+03  0.90410169312E+03  0.00000000000E+00 0.  1.
          6    1    1    2  502    0  0.72828151750E+02 -0.12624259824E+02 -0.49667239208E+03  0.53078317295E+03  0.17200000000E+03 0.  1.
         -6    1    1    2    0  501 -0.72828151750E+02  0.12624259824E+02 -0.36792920396E+03  0.41281861725E+03  0.17200000000E+03 0.  1.
</event>
<event>
 4    1  0.3191769E-002  0.1787107E+03  0.7818608E-02  0.1169057E+00
         -4   -1    0    0    0  501 -0.00000000000E+00  0.00000000000E+00  0.21193328671E+04  0.21193328671E+04  0.00000000000E+00 0.  1.
          4   -1    0    0  502    0  0.00000000000E+00 -0.00000000000E+00 -0.18255407021E+02  0.18255407021E+02  0.00000000000E+00 0. -1.
          6    1    1    2  502    0 -0.38824459800E+02 -0.29089304349E+02  0.60405345226E+03  0.62993499625E+03  0.17200000000E+03 0. -1.
         -6    1    1    2    0  501  0.38824459800E+02  0.29089304349E+02  0.14970240079E+04  0.15076532779E+04  0.17200000000E+03 0.  1.
</event>
<event>
 4    1  0.3191769E-002  0.3189204E+03  0.7818608E-02  0.1076147E+00
          2   -1    0    0  502    0  0.00000000000E+00  0.00000000000E+00  0.17332186903E+04  0.17332186903E+04  0.00000000000E+00 0. -1.
         -2   -1    0    0    0  501 -0.00000000000E+00 -0.00000000000E+00 -0.59810067382E+02  0.59810067382E+02  0.00000000000E+00 0.  1.
          6    1    1    2  502    0  0.18293882815E+03 -0.19662041023E+03  0.95978084891E+03  0.10113799872E+04  0.17200000000E+03 0. -1.
         -6    1    1    2    0  501 -0.18293882815E+03  0.19662041023E+03  0.71362777396E+03  0.78164877044E+03  0.17200000000E+03 0.  1.
</event>
<event>
 4    1  0.3191769E-002  0.4084175E+03  0.7818608E-02  0.1040903E+00
         -1   -1    0    0    0  501 -0.00000000000E+00  0.00000000000E+00  0.15950170037E+03  0.15950170037E+03  0.00000000000E+00 0.  1.
          1   -1    0    0  502    0  0.00000000000E+00 -0.00000000000E+00 -0.10503322274E+04  0.10503322274E+04  0.00000000000E+00 0. -1.
          6    1    1    2  502    0 -0.26922860438E+03  0.25443424546E+03 -0.48520798567E+03  0.63421732556E+03  0.17200000000E+03 0. -1.
         -6    1    1    2    0  501  0.26922860438E+03 -0.25443424546E+03 -0.40562254134E+03  0.57561660219E+03  0.17200000000E+03 0.  1.
</event>
<event>
 4    1  0.3191769E-002  0.2340858E+03  0.7818608E-02  0.1123797E+00
          2   -1    0    0  502    0  0.00000000000E+00  0.00000000000E+00  0.10648607955E+04  0.10648607955E+04  0.00000000000E+00 0. -1.
         -2   -1    0    0    0  501 -0.00000000000E+00 -0.00000000000E+00 -0.55900054628E+02  0.55900054628E+02  0.00000000000E+00 0.  1.
          6    1    1    2  502    0  0.98772685343E+02 -0.12432260258E+03  0.66243913127E+03  0.70258220553E+03  0.17200000000E+03 0. -1.
         -6    1    1    2    0  501 -0.98772685343E+02  0.12432260258E+03  0.34652160960E+03  0.41817864460E+03  0.17200000000E+03 0. -1.
</event>
<event>
 4    1  0.3191769E-002  0.2056947E+03  0.7818608E-02  0.1145021E+00
         -2   -1    0    0    0  501 -0.00000000000E+00  0.00000000000E+00  0.14568405902E+02  0.14568405902E+02  0.00000000000E+00 0.  1.
          2   -1    0    0  502    0  0.00000000000E+00 -0.00000000000E+00 -0.31810931007E+04  0.31810931007E+04  0.00000000000E+00 0. -1.
          6    1    1    2  502    0  0.93910899418E+02 -0.62506278264E+02 -0.20546296914E+04  0.20649003512E+04  0.17200000000E+03 0. -1.
         -6    1    1    2    0  501 -0.93910899418E+02  0.62506278264E+02 -0.11118950034E+04  0.11307611554E+04  0.17200000000E+03 0.  1.
</event>
<event>
 4    1  0.3191769E-002  0.2584710E+03  0.7818608E-02  0.1108065E+00
          4   -1    0    0  502    0  0.00000000000E+00  0.00000000000E+00  0.79043421818E+02  0.79043421818E+02  0.00000000000E+00 0. -1.
         -4   -1    0    0    0  501 -0.00000000000E+00 -0.00000000000E+00 -0.84965557730E+03  0.84965557730E+03  0.00000000000E+00 0.  1.
          6    1    1    2  502    0  0.19025390340E+03  0.32042157133E+02 -0.41894415495E+03  0.49226156925E+03  0.17200000000E+03 0. -1.
         -6    1    1    2    0  501 -0.19025390340E+03 -0.32042157133E+02 -0.35166800053E+03  0.43643742987E+03  0.17200000000E+03 0.  1.
</event>
<event>
 4    1  0.3191769E-002  0.2818984E+03  0.7818608E-02  0.1094657E+00
         -2   -1    0    0    0  501 -0.00000000000E+00  0.00000000000E+00  0.29688096331E+03  0.29688096331E+03  0.00000000000E+00 0.  1.
          2   -1    0    0  502    0  0.00000000000E+00 -0.00000000000E+00 -0.61212686213E+03  0.61212686213E+03  0.00000000000E+00 0. -1.
          6    1    1    2  502    0 -0.20686113946E+03 -0.84209045319E+02 -0.49856700589E+03  0.57274405601E+03  0.17200000000E+03 0. -1.
         -6    1    1    2    0  501  0.20686113946E+03  0.84209045319E+02  0.18332110707E+03  0.33626376943E+03  0.17200000000E+03 0.  1.
</event>
<event>
 4    1  0.3191769E-002  0.1945040E+03  0.7818608E-02  0.1154461E+00
          1   -1    0    0  502    0  0.00000000000E+00  0.00000000000E+00  0.12005080852E+04  0.12005080852E+04  0.00000000000E+00 0. -1.
         -1   -1    0    0    0  501 -0.00000000000E+00 -0.00000000000E+00 -0.63917329691E+02  0.63917329691E+02  0.00000000000E+00 0.  1.
          6    1    1    2  502    0  0.77851825195E+02 -0.46764104727E+02  0.10184424638E+04  0.10368494781E+04  0.17200000000E+03 0. -1.
         -6    1    1    2    0  501 -0.77851825195E+02  0.46764104727E+02  0.11814829174E+03  0.22757593682E+03  0.17200000000E+03 0.  1.
</event>
<event>
 4    1  0.3191769E-002  0.2717923E+03  0.7818608E-02  0.1100258E+00
         -1   -1    0    0    0  501 -0.00000000000E+00  0.00000000000E+00  0.15312606697E+03  0.15312606697E+03  0.00000000000E+00 0.  1.
          1   -1    0    0  502    0  0.00000000000E+00 -0.00000000000E+00 -0.50836056332E+03  0.50836056332E+03  0.00000000000E+00 0. -1.
          6    1    1    2  502    0 -0.89009027270E+02 -0.19069460851E+03 -0.10290413213E+03  0.29062054480E+03  0.17200000000E+03 0. -1.
         -6    1    1    2    0  501  0.89009027270E+02  0.19069460851E+03 -0.25233036422E+03  0.37086608548E+03  0.17200000000E+03 0. -1.
</event>
<event>
 4    1  0.3191769E-002  0.3482786E+03  0.7818608E-02  0.1063324E+00
         -3   -1    0    0    0  501 -0.00000000000E+00  0.00000000000E+00  0.25171635524E+03  0.25171635524E+03  0.00000000000E+00 0.  1.
          3   -1    0    0  502    0  0.00000000000E+00 -0.00000000000E+00 -0.53480046017E+03  0.53480046017E+03  0.00000000000E+00 0. -1.
          6    1    1    2  502    0 -0.18603406634E+03 -0.23896713330E+03 -0.26524483553E+03  0.43778166638E+03  0.17200000000E+03 0. -1.
         -6    1    1    2    0  501  0.18603406634E+03  0.23896713330E+03 -0.17839269401E+02  0.34873514903E+03  0.17200000000E+03 0.  1.
</event>
<event>
 4    1  0.3191769E-002  0.1856507E+03  0.7818608E-02  0.1162444E+00
         -2   -1    0    0    0  501 -0.00000000000E+00  0.00000000000E+00  0.15217357049E+03  0.15217357049E+03  0.00000000000E+00 0.  1.
          2   -1    0    0  502    0  0.00000000000E+00 -0.00000000000E+00 -0.22894241424E+03  0.22894241424E+03  0.00000000000E+00 0. -1.
          6    1    1    2  502    0 -0.62798102275E+02  0.30636562659E+02 -0.58096075131E+02  0.19452854435E+03  0.17200000000E+03 0. -1.
         -6    1    1    2    0  501  0.62798102275E+02 -0.30636562659E+02 -0.18672768626E+02  0.18658744038E+03  0.17200000000E+03 0. -1.
</event>
<event>
 4    1  0.3191769E-002  0.2228430E+03  0.7818608E-02  0.1131781E+00
          1   -1    0    0  502    0  0.00000000000E+00  0.00000000000E+00  0.95233618967E+03  0.95233618967E+03  0.00000000000E+00 0. -1.
         -1   -1    0    0    0  501 -0.00000000000E+00 -0.00000000000E+00 -0.54865458476E+02  0.54865458476E+02  0.00000000000E+00 0.  1.
          6    1    1    2  502    0 -0.13226465793E+03  0.50804335464E+02  0.56088661108E+03  0.60353360364E+03  0.17200000000E+03 0. -1.
         -6    1    1    2    0  501  0.13226465793E+03 -0.50804335464E+02  0.33658412011E+03  0.40366804450E+03  0.17200000000E+03 0. -1.
</event>
<event>
 4    1  0.3191769E-002  0.1920661E+03  0.7818608E-02  0.1156611E+00
         -2   -1    0    0    0  501 -0.00000000000E+00  0.00000000000E+00  0.55556823238E+02  0.55556823238E+02  0.00000000000E+00 0.  1.
          2   -1    0    0  502    0  0.00000000000E+00 -0.00000000000E+00 -0.66494418273E+03  0.66494418273E+03  0.00000000000E+00 0. -1.
          6    1    1    2  502    0  0.59910469337E+02 -0.60960068596E+02 -0.29107522399E+03  0.34873224732E+03  0.17200000000E+03 0.  1.
         -6    1    1    2    0  501 -0.59910469337E+02  0.60960068596E+02 -0.31831213550E+03  0.37176875865E+03  0.17200000000E+03 0.  1.
</event>
<event>
 4    1  0.3191769E-002  0.3508851E+03  0.7818608E-02  0.1062252E+00
          2   -1    0    0  502    0  0.00000000000E+00  0.00000000000E+00  0.23564108812E+04  0.23564108812E+04  0.00000000000E+00 0. -1.
         -2   -1    0    0    0  501 -0.00000000000E+00 -0.00000000000E+00 -0.85520303130E+02  0.85520303130E+02  0.00000000000E+00 0.  1.
          6    1    1    2  502    0  0.21671103168E+03 -0.21580710055E+03  0.18970032889E+04  0.19291816539E+04  0.17200000000E+03 0. -1.
         -6    1    1    2    0  501 -0.21671103168E+03  0.21580710055E+03  0.37388728921E+03  0.51274953041E+03  0.17200000000E+03 0.  1.
</event>
<event>
 4    1  0.3191769E-002  0.1841257E+03  0.7818608E-02  0.1163869E+00
          1   -1    0    0  502    0  0.00000000000E+00  0.00000000000E+00  0.31661362908E+03  0.31661362908E+03  0.00000000000E+00 0. -1.
         -1   -1    0    0    0  501 -0.00000000000E+00 -0.00000000000E+00 -0.35311217398E+03  0.35311217398E+03  0.00000000000E+00 0.  1.
          6    1    1    2  502    0  0.46786617493E+02  0.46144308371E+02  0.26126796885E+03  0.31962984266E+03  0.17200000000E+03 0. -1.
         -6    1    1    2    0  501 -0.46786617493E+02 -0.46144308371E+02 -0.29776651376E+03  0.35009596040E+03  0.17200000000E+03 0.  1.
</event>
<event>
 4    1  0.3191769E-002  0.2044573E+03  0.7818608E-02  0.1146032E+00
          2   -1    0    0  502    0  0.00000000000E+00  0.00000000000E+00  0.10920853174E+04  0.10920853174E+04  0.00000000000E+00 0. -1.
         -2   -1    0    0    0  501 -0.00000000000E+00 -0.00000000000E+00 -0.53335003517E+02  0.53335003517E+02  0.00000000000E+00 0.  1.
          6    1    1    2  502    0 -0.10799489308E+03  0.23577314620E+02  0.82367289722E+03  0.84866944584E+03  0.17200000000E+03 0. -1.
         -6    1    1    2    0  501  0.10799489308E+03 -0.23577314620E+02  0.21507741666E+03  0.29675087507E+03  0.17200000000E+03 0. -1.
</event>
<event>
 4    1  0.3191769E-002  0.2714810E+03  0.7818608E-02  0.1100435E+00
          1   -1    0    0  502    0  0.00000000000E+00  0.00000000000E+00  0.73469246345E+03  0.73469246345E+03  0.00000000000E+00 0. -1.
         -1   -1    0    0    0  501 -0.00000000000E+00 -0.00000000000E+00 -0.20838526411E+03  0.20838526411E+03  0.00000000000E+00 0.  1.
          6    1    1    2  502    0 -0.20900456494E+03  0.20856654092E+02  0.60272704623E+03  0.66104598966E+03  0.17200000000E+03 0. -1.
         -6    1    1    2    0  501  0.20900456494E+03 -0.20856654092E+02 -0.76419846889E+02  0.28203173790E+03  0.17200000000E+03 0.  1.
</event>
<event>
 4    1  0.3191769E-002  0.2054409E+03  0.7818608E-02  0.1145228E+00
          2   -1    0    0  502    0  0.00000000000E+00  0.00000000000E+00  0.31342789019E+04  0.31342789019E+04  0.00000000000E+00 0. -1.
         -2   -1    0    0    0  501 -0.00000000000E+00 -0.00000000000E+00 -0.13631601116E+02  0.13631601116E+02  0.00000000000E+00 0.  1.
          6    1    1    2  502    0 -0.52123617529E+02 -0.99524363768E+02  0.17338424142E+04  0.17459712162E+04  0.17200000000E+03 0. -1.
         -6    1    1    2    0  501  0.52123617529E+02  0.99524363768E+02  0.13868048866E+04  0.14019392868E+04  0.17200000000E+03 0.  1.
</event>
<event>
 4    1  0.3191769E-002  0.2673253E+03  0.7818608E-02  0.1102820E+00
          2   -1    0    0  502    0  0.00000000000E+00  0.00000000000E+00  0.17850634922E+04  0.17850634922E+04  0.00000000000E+00 0. -1.
         -2   -1    0    0    0  501 -0.00000000000E+00 -0.00000000000E+00 -0.45649980133E+02  0.45649980133E+02  0.00000000000E+00 0.  1.
          6    1    1    2  502    0  0.75905316578E+02 -0.19004525901E+03  0.11907709248E+04  0.12204090351E+04  0.17200000000E+03 0. -1.
         -6    1    1    2    0  501 -0.75905316578E+02  0.19004525901E+03  0.54864258720E+03  0.61030443719E+03  0.17200000000E+03 0.  1.
</event>
<event>
 4    1  0.3191769E-002  0.3374465E+03  0.7818608E-02  0.1067889E+00
          1   -1    0    0  502    0  0.00000000000E+00  0.00000000000E+00  0.89737218805E+03  0.89737218805E+03  0.00000000000E+00 0. -1.
         -1   -1    0    0    0  501 -0.00000000000E+00 -0.00000000000E+00 -0.12754026908E+03  0.12754026908E+03  0.00000000000E+00 0.  1.
          6    1    1    2  502    0 -0.23464063420E+03  0.17096750430E+03  0.34840478945E+03  0.48503197014E+03  0.17200000000E+03 0. -1.
         -6    1    1    2    0  501  0.23464063420E+03 -0.17096750430E+03  0.42142712952E+03  0.53988048699E+03  0.17200000000E+03 0.  1.
</event>
<event>
 4    1  0.3191769E-002  0.1966010E+03  0.7818608E-02  0.1152639E+00
          2   -1    0    0  502    0  0.00000000000E+00  0.00000000000E+00  0.47384854807E+03  0.47384854807E+03  0.00000000000E+00 0. -1.
         -2   -1    0    0    0  501 -0.00000000000E+00 -0.00000000000E+00 -0.82990537873E+02  0.82990537873E+02  0.00000000000E+00 0.  1.
          6    1    1    2  502    0  0.81715024547E+02 -0.48893880142E+02  0.15900651181E+03  0.25285376712E+03  0.17200000000E+03 0. -1.
         -6    1    1    2    0  501 -0.81715024547E+02  0.48893880142E+02  0.23185149839E+03  0.30398531882E+03  0.17200000000E+03 0. -1.
</event>
<event>
 4    1  0.3191769E-002  0.1980166E+03  0.7818608E-02  0.1151423E+00
         -4   -1    0    0    0  501 -0.00000000000E+00  0.00000000000E+00  0.16841741355E+04  0.16841741355E+04  0.00000000000E+00 0.  1.
          4   -1    0    0  502    0  0.00000000000E+00 -0.00000000000E+00 -0.23376163327E+02  0.23376163327E+02  0.00000000000E+00 0. -1.
          6    1    1    2  502    0  0.24506295221E+02 -0.95005378451E+02  0.77614987821E+03  0.80101136939E+03  0.17200000000E+03 0.  1.
         -6    1    1    2    0  501 -0.24506295221E+02  0.95005378451E+02  0.88464809399E+03  0.90653892947E+03  0.17200000000E+03 0. -1.
</event>
<event>
 4    1  0.3191769E-002  0.2103173E+03  0.7818608E-02  0.1141315E+00
          1   -1    0    0  502    0  0.00000000000E+00  0.00000000000E+00  0.12839464432E+03  0.12839464432E+03  0.00000000000E+00 0. -1.
         -1   -1    0    0    0  501 -0.00000000000E+00 -0.00000000000E+00 -0.34568974711E+03  0.34568974711E+03  0.00000000000E+00 0.  1.
          6    1    1    2  502    0  0.52303249252E+02  0.10914997442E+03 -0.94804808354E+02  0.23069741760E+03  0.17200000000E+03 0.  1.
         -6    1    1    2    0  501 -0.52303249252E+02 -0.10914997442E+03 -0.12249029443E+03  0.24338697383E+03  0.17200000000E+03 0. -1.
</event>
<event>
 4    1  0.3191769E-002  0.2287894E+03  0.7818608E-02  0.1127495E+00
          2   -1    0    0  502    0  0.00000000000E+00  0.00000000000E+00  0.13870968831E+04  0.13870968831E+04  0.00000000000E+00 0. -1.
         -2   -1    0    0    0  501 -0.00000000000E+00 -0.00000000000E+00 -0.53092227193E+02  0.53092227193E+02  0.00000000000E+00 0.  1.
          6    1    1    2  502    0 -0.90105361868E+02  0.12100248349E+03  0.10542646228E+04  0.10788041862E+04  0.17200000000E+03 0. -1.
         -6    1    1    2    0  501  0.90105361868E+02 -0.12100248349E+03  0.27974003311E+03  0.36138492410E+03  0.17200000000E+03 0.  1.
</event>
<event>
 4    1  0.3191769E-002  0.1821235E+03  0.7818608E-02  0.1165764E+00
          3   -1    0    0  502    0  0.00000000000E+00  0.00000000000E+00  0.43932771700E+03  0.43932771700E+03  0.00000000000E+00 0. -1.
         -3   -1    0    0    0  501 -0.00000000000E+00 -0.00000000000E+00 -0.80327014847E+02  0.80327014847E+02  0.00000000000E+00 0.  1.
          6    1    1    2  502    0 -0.42039864743E+02 -0.42633717817E+02  0.11580322132E+03  0.21582254329E+03  0.17200000000E+03 0.  1.
         -6    1    1    2    0  501  0.42039864743E+02  0.42633717817E+02  0.24319748083E+03  0.30383218856E+03  0.17200000000E+03 0. -1.
</event>
<event>
 4    1  0.3191769E-002  0.2611158E+03  0.7818608E-02  0.1106475E+00
          2   -1    0    0  502    0  0.00000000000E+00  0.00000000000E+00  0.39896067303E+04  0.39896067303E+04  0.00000000000E+00 0. -1.
         -2   -1    0    0    0  501 -0.00000000000E+00 -0.00000000000E+00 -0.18511957406E+02  0.18511957406E+02  0.00000000000E+00 0.  1.
          6    1    1    2  502    0  0.17784507441E+03  0.83478009269E+02  0.25410208469E+04  0.25544017681E+04  0.17200000000E+03 0. -1.
         -6    1    1    2    0  501 -0.17784507441E+03 -0.83478009269E+02  0.14300739260E+04  0.14537169196E+04  0.17200000000E+03 0.  1.
</event>
<event>
 4    1  0.3191769E-002  0.4082429E+03  0.7818608E-02  0.1040962E+00
         -1   -1    0    0    0  501 -0.00000000000E+00  0.00000000000E+00  0.70378191105E+03  0.70378191105E+03  0.00000000000E+00 0.  1.
          1   -1    0    0  502    0  0.00000000000E+00 -0.00000000000E+00 -0.24584130215E+03  0.24584130215E+03  0.00000000000E+00 0. -1.
          6    1    1    2  502    0  0.28159063578E+02  0.36916838465E+03  0.13796188592E+03  0.43092425211E+03  0.17200000000E+03 0. -1.
         -6    1    1    2    0  501 -0.28159063578E+02 -0.36916838465E+03  0.31997872297E+03  0.51869896109E+03  0.17200000000E+03 0.  1.
</event>
<event>
 4    1  0.3191769E-002  0.1739002E+03  0.7818608E-02  0.1173840E+00
          1   -1    0    0  502    0  0.00000000000E+00  0.00000000000E+00  0.48698425391E+02  0.48698425391E+02  0.00000000000E+00 0. -1.
         -1   -1    0    0    0  501 -0.00000000000E+00 -0.00000000000E+00 -0.62866739233E+03  0.62866739233E+03  0.00000000000E+00 0.  1.
          6    1    1    2  502    0 -0.17522325678E+02  0.18715192532E+02 -0.25255984184E+03  0.30663946915E+03  0.17200000000E+03 0. -1.
         -6    1    1    2    0  501  0.17522325678E+02 -0.18715192532E+02 -0.32740912510E+03  0.37072634858E+03  0.17200000000E+03 0.  1.
</event>
<event>
 4    1  0.3191769E-002  0.2164533E+03  0.7818608E-02  0.1136555E+00
          3   -1    0    0  502    0  0.00000000000E+00  0.00000000000E+00  0.14352821666E+04  0.14352821666E+04  0.00000000000E+00 0. -1.
         -3   -1    0    0    0  501 -0.00000000000E+00 -0.00000000000E+00 -0.41125239401E+02  0.41125239401E+02  0.00000000000E+00 0.  1.
          6    1    1    2  502    0 -0.53017785126E+01 -0.13130085747E+03  0.36182341110E+03  0.42162566910E+03  0.17200000000E+03 0.  1.
         -6    1    1    2    0  501  0.53017785126E+01  0.13130085747E+03  0.10323335161E+04  0.10547817369E+04  0.17200000000E+03 0. -1.
</event>
<event>
 4    1  0.3191769E-002  0.6609515E+03  0.7818608E-02  0.9786444E-01
          2   -1    0    0  502    0  0.00000000000E+00  0.00000000000E+00  0.56245842029E+03  0.56245842029E+03  0.00000000000E+00 0. -1.
         -2   -1    0    0    0  501 -0.00000000000E+00 -0.00000000000E+00 -0.83589982004E+03  0.83589982004E+03  0.00000000000E+00 0.  1.
          6    1    1    2  502    0 -0.16044631002E+03 -0.61768104547E+03  0.49359978692E+02  0.66279204870E+03  0.17200000000E+03 0. -1.
         -6    1    1    2    0  501  0.16044631002E+03  0.61768104547E+03 -0.32280137845E+03  0.73556619162E+03  0.17200000000E+03 0.  1.
</event>
<event>
 4    1  0.3191769E-002  0.2098040E+03  0.7818608E-02  0.1141721E+00
          1   -1    0    0  502    0  0.00000000000E+00  0.00000000000E+00  0.11582090963E+04  0.11582090963E+04  0.00000000000E+00 0. -1.
         -1   -1    0    0    0  501 -0.00000000000E+00 -0.00000000000E+00 -0.41739929431E+02  0.41739929431E+02  0.00000000000E+00 0.  1.
          6    1    1    2  502    0  0.14899906017E+02  0.11921294101E+03  0.73770726750E+03  0.76696137128E+03  0.17200000000E+03 0. -1.
         -6    1    1    2    0  501 -0.14899906017E+02 -0.11921294101E+03  0.37876189939E+03  0.43298765448E+03  0.17200000000E+03 0.  1.
</event>
<event>
 4    1  0.3191769E-002  0.1775035E+03  0.7818608E-02  0.1170241E+00
         -2   -1    0    0    0  501 -0.00000000000E+00  0.00000000000E+00  0.12674967242E+02  0.12674967242E+02  0.00000000000E+00 0.  1.
          2   -1    0    0  502    0  0.00000000000E+00 -0.00000000000E+00 -0.24944766919E+04  0.24944766919E+04  0.00000000000E+00 0. -1.
          6    1    1    2  502    0 -0.18314032729E+02  0.39850797498E+02 -0.11669868448E+04  0.11804091604E+04  0.17200000000E+03 0.  1.
         -6    1    1    2    0  501  0.18314032729E+02 -0.39850797498E+02 -0.13148148798E+04  0.13267424987E+04  0.17200000000E+03 0.  1.
</event>
<event>
 4    1  0.3191769E-002  0.2286662E+03  0.7818608E-02  0.1127582E+00
         -1   -1    0    0    0  501 -0.00000000000E+00  0.00000000000E+00  0.68513691369E+02  0.68513691369E+02  0.00000000000E+00 0.  1.
          1   -1    0    0  502    0  0.00000000000E+00 -0.00000000000E+00 -0.79212979901E+03  0.79212979901E+03  0.00000000000E+00 0. -1.
          6    1    1    2  502    0  0.12173220141E+03  0.88800340496E+02 -0.27954149549E+03  0.36115325975E+03  0.17200000000E+03 0.  1.
         -6    1    1    2    0  501 -0.12173220141E+03 -0.88800340496E+02 -0.44407461215E+03  0.49949023062E+03  0.17200000000E+03 0.  1.
</event>
<event>
 4    1  0.3191769E-002  0.3390401E+03  0.7818608E-02  0.1067205E+00
         -2   -1    0    0    0  501 -0.00000000000E+00  0.00000000000E+00  0.62644243302E+03  0.62644243302E+03  0.00000000000E+00 0.  1.
          2   -1    0    0  502    0  0.00000000000E+00 -0.00000000000E+00 -0.20935690607E+03  0.20935690607E+03  0.00000000000E+00 0. -1.
          6    1    1    2  502    0 -0.78697279905E+02 -0.28137328588E+03  0.61660194764E+02  0.34460146182E+03  0.17200000000E+03 0. -1.
         -6    1    1    2    0  501  0.78697279905E+02  0.28137328588E+03  0.35542533219E+03  0.49119787727E+03  0.17200000000E+03 0.  1.
</event>
<event>
 4    1  0.3191769E-002  0.2048599E+03  0.7818608E-02  0.1145702E+00
          2   -1    0    0  502    0  0.00000000000E+00  0.00000000000E+00  0.25599435542E+03  0.25599435542E+03  0.00000000000E+00 0. -1.
         -2   -1    0    0    0  501 -0.00000000000E+00 -0.00000000000E+00 -0.20236406429E+03  0.20236406429E+03  0.00000000000E+00 0.  1.
          6    1    1    2  502    0  0.10282055419E+03  0.42562019498E+02  0.12668004784E+03  0.24086391674E+03  0.17200000000E+03 0. -1.
         -6    1    1    2    0  501 -0.10282055419E+03 -0.42562019498E+02 -0.73049756710E+02  0.21749450297E+03  0.17200000000E+03 0.  1.
</event>
<event>
 4    1  0.3191769E-002  0.5444963E+03  0.7818608E-02  0.1002776E+00
         -4   -1    0    0    0  501 -0.00000000000E+00  0.00000000000E+00  0.57218463985E+03  0.57218463985E+03  0.00000000000E+00 0.  1.
          4   -1    0    0  502    0  0.00000000000E+00 -0.00000000000E+00 -0.53128712727E+03  0.53128712727E+03  0.00000000000E+00 0. -1.
          6    1    1    2  502    0 -0.49623361912E+03 -0.14368158620E+03 -0.66318011428E+02  0.54852008313E+03  0.17200000000E+03 0. -1.
         -6    1    1    2    0  501  0.49623361912E+03  0.14368158620E+03  0.10721552401E+03  0.55495168398E+03  0.17200000000E+03 0.  1.
</event>
<event>
 4    1  0.3191769E-002  0.2003086E+03  0.7818608E-02  0.1149479E+00
          2   -1    0    0  502    0  0.00000000000E+00  0.00000000000E+00  0.17849437919E+04  0.17849437919E+04  0.00000000000E+00 0. -1.
         -2   -1    0    0    0  501 -0.00000000000E+00 -0.00000000000E+00 -0.23768066087E+02  0.23768066087E+02  0.00000000000E+00 0.  1.
          6    1    1    2  502    0 -0.10063896755E+03  0.20281794775E+02  0.10912074669E+04  0.11094400789E+04  0.17200000000E+03 0. -1.
         -6    1    1    2    0  501  0.10063896755E+03 -0.20281794775E+02  0.66996825895E+03  0.69927177906E+03  0.17200000000E+03 0.  1.
</event>
<event>
 4    1  0.3191769E-002  0.1945671E+03  0.7818608E-02  0.1154405E+00
         -2   -1    0    0    0  501 -0.00000000000E+00  0.00000000000E+00  0.13798367149E+03  0.13798367149E+03  0.00000000000E+00 0.  1.
          2   -1    0    0  502    0  0.00000000000E+00 -0.00000000000E+00 -0.10870728897E+04  0.10870728897E+04  0.00000000000E+00 0. -1.
          6    1    1    2  502    0 -0.15442764016E+02  0.89631995281E+02 -0.10041677919E+04  0.10228437455E+04  0.17200000000E+03 0. -1.
         -6    1    1    2    0  501  0.15442764016E+02 -0.89631995281E+02  0.55078573662E+02  0.20221281566E+03  0.17200000000E+03 0.  1.
</event>
<event>
 4    1  0.3191769E-002  0.2429577E+03  0.7818608E-02  0.1117838E+00
         -2   -1    0    0    0  501 -0.00000000000E+00  0.00000000000E+00  0.21507519810E+03  0.21507519810E+03  0.00000000000E+00 0.  1.
          2   -1    0    0  502    0  0.00000000000E+00 -0.00000000000E+00 -0.37237378263E+03  0.37237378263E+03  0.00000000000E+00 0. -1.
          6    1    1    2  502    0  0.16873716989E+03  0.31180038038E+02 -0.22926975827E+03  0.33405545847E+03  0.17200000000E+03 0. -1.
         -6    1    1    2    0  501 -0.16873716989E+03 -0.31180038038E+02  0.71971173740E+02  0.25339352226E+03  0.17200000000E+03 0.  1.
</event>
<event>
 4    1  0.3191769E-002  0.2228525E+03  0.7818608E-02  0.1131774E+00
          2   -1    0    0  502    0  0.00000000000E+00  0.00000000000E+00  0.44188335951E+03  0.44188335951E+03  0.00000000000E+00 0. -1.
         -2   -1    0    0    0  501 -0.00000000000E+00 -0.00000000000E+00 -0.16295786904E+03  0.16295786904E+03  0.00000000000E+00 0.  1.
          6    1    1    2  502    0  0.98074705819E+01 -0.14136134735E+03  0.30792847655E+03  0.38010941014E+03  0.17200000000E+03 0. -1.
         -6    1    1    2    0  501 -0.98074705819E+01  0.14136134735E+03 -0.29002986074E+02  0.22473181841E+03  0.17200000000E+03 0.  1.
</event>
<event>
 4    1  0.3191769E-002  0.1757214E+03  0.7818608E-02  0.1172009E+00
          2   -1    0    0  502    0  0.00000000000E+00  0.00000000000E+00  0.18504540713E+04  0.18504540713E+04  0.00000000000E+00 0. -1.
         -2   -1    0    0    0  501 -0.00000000000E+00 -0.00000000000E+00 -0.19939763066E+02  0.19939763066E+02  0.00000000000E+00 0.  1.
          6    1    1    2  502    0 -0.33905252449E+02  0.12017885709E+02  0.12929932208E+04  0.13048790997E+04  0.17200000000E+03 0. -1.
         -6    1    1    2    0  501  0.33905252449E+02 -0.12017885709E+02  0.53752108742E+03  0.56551473468E+03  0.17200000000E+03 0.  1.
</event>
<event>
 4    1  0.3191769E-002  0.1740435E+03  0.7818608E-02  0.1173695E+00
         -2   -1    0    0    0  501 -0.00000000000E+00  0.00000000000E+00  0.32595667009E+02  0.32595667009E+02  0.00000000000E+00 0.  1.
          2   -1    0    0  502    0  0.00000000000E+00 -0.00000000000E+00 -0.92930247045E+03  0.92930247045E+03  0.00000000000E+00 0. -1.
          6    1    1    2  502    0 -0.25693745924E+02  0.68546969994E+01 -0.44912728158E+03  0.48167049994E+03  0.17200000000E+03 0. -1.
         -6    1    1    2    0  501  0.25693745924E+02 -0.68546969994E+01 -0.44757952185E+03  0.48022763751E+03  0.17200000000E+03 0.  1.
</event>
<event>
 4    1  0.3191769E-002  0.2046511E+03  0.7818608E-02  0.1145873E+00
          2   -1    0    0  502    0  0.00000000000E+00  0.00000000000E+00  0.10086926963E+04  0.10086926963E+04  0.00000000000E+00 0. -1.
         -2   -1    0    0    0  501 -0.00000000000E+00 -0.00000000000E+00 -0.55449332743E+02  0.55449332743E+02  0.00000000000E+00 0.  1.
          6    1    1    2  502    0 -0.16768884183E+02 -0.10962143821E+03  0.74328855068E+03  0.77094742023E+03  0.17200000000E+03 0. -1.
         -6    1    1    2    0  501  0.16768884183E+02  0.10962143821E+03  0.20995481293E+03  0.29319460886E+03  0.17200000000E+03 0.  1.
</event>
<event>
 4    1  0.3191769E-002  0.1080352E+04  0.7818608E-02  0.9224557E-01
          2   -1    0    0  502    0  0.00000000000E+00  0.00000000000E+00  0.53538369372E+03  0.53538369372E+03  0.00000000000E+00 0. -1.
         -2   -1    0    0    0  501 -0.00000000000E+00 -0.00000000000E+00 -0.22295305784E+04  0.22295305784E+04  0.00000000000E+00 0.  1.
          6    1    1    2  502    0  0.87597941172E+03  0.60847047262E+03 -0.64111161695E+03  0.12562580751E+04  0.17200000000E+03 0. -1.
         -6    1    1    2    0  501 -0.87597941172E+03 -0.60847047262E+03 -0.10530352677E+04  0.15086561971E+04  0.17200000000E+03 0.  1.
</event>
<event>
 4    1  0.3191769E-002  0.1876914E+03  0.7818608E-02  0.1160560E+00
          1   -1    0    0  502    0  0.00000000000E+00  0.00000000000E+00  0.86242433860E+03  0.86242433860E+03  0.00000000000E+00 0. -1.
         -1   -1    0    0    0  501 -0.00000000000E+00 -0.00000000000E+00 -0.48188025507E+02  0.48188025507E+02  0.00000000000E+00 0.  1.
          6    1    1    2  502    0 -0.60769656128E+02  0.44171297700E+02  0.22941648868E+03  0.29641184174E+03  0.17200000000E+03 0.  1.
         -6    1    1    2    0  501  0.60769656128E+02 -0.44171297700E+02  0.58481982442E+03  0.61420052237E+03  0.17200000000E+03 0. -1.
</event>
<event>
 4    1  0.3191769E-002  0.1938787E+03  0.7818608E-02  0.1155009E+00
         -1   -1    0    0    0  501 -0.00000000000E+00  0.00000000000E+00  0.79501386484E+03  0.79501386484E+03  0.00000000000E+00 0.  1.
          1   -1    0    0  502    0  0.00000000000E+00 -0.00000000000E+00 -0.48278937674E+02  0.48278937674E+02  0.00000000000E+00 0. -1.
          6    1    1    2  502    0  0.79894273674E+01 -0.89112975807E+02  0.43399191744E+03  0.47532929408E+03  0.17200000000E+03 0.  1.
         -6    1    1    2    0  501 -0.79894273674E+01  0.89112975807E+02  0.31274300972E+03  0.36796350843E+03  0.17200000000E+03 0. -1.
</event>
<event>
 4    1  0.3191769E-002  0.2278060E+03  0.7818608E-02  0.1128194E+00
          1   -1    0    0  502    0  0.00000000000E+00  0.00000000000E+00  0.13964100365E+04  0.13964100365E+04  0.00000000000E+00 0. -1.
         -1   -1    0    0    0  501 -0.00000000000E+00 -0.00000000000E+00 -0.14825625574E+03  0.14825625574E+03  0.00000000000E+00 0.  1.
          6    1    1    2  502    0 -0.10785583922E+03  0.10333779297E+03  0.12926376675E+04  0.13125577019E+04  0.17200000000E+03 0. -1.
         -6    1    1    2    0  501  0.10785583922E+03 -0.10333779297E+03 -0.44483886729E+02  0.23210859029E+03  0.17200000000E+03 0.  1.
</event>
<event>
 4    1  0.3191769E-002  0.4794249E+03  0.7818608E-02  0.1019293E+00
          2   -1    0    0  502    0  0.00000000000E+00  0.00000000000E+00  0.67513358676E+03  0.67513358676E+03  0.00000000000E+00 0. -1.
         -2   -1    0    0    0  501 -0.00000000000E+00 -0.00000000000E+00 -0.35538344319E+03  0.35538344319E+03  0.00000000000E+00 0.  1.
          6    1    1    2  502    0  0.56754409383E+02  0.44389547900E+03  0.26550268285E+03  0.54803278539E+03  0.17200000000E+03 0. -1.
         -6    1    1    2    0  501 -0.56754409383E+02 -0.44389547900E+03  0.54247460720E+02  0.48248424457E+03  0.17200000000E+03 0.  1.
</event>
<event>
 4    1  0.3191769E-002  0.3631922E+03  0.7818608E-02  0.1057327E+00
          2   -1    0    0  502    0  0.00000000000E+00  0.00000000000E+00  0.20006494373E+04  0.20006494373E+04  0.00000000000E+00 0. -1.
         -2   -1    0    0    0  501 -0.00000000000E+00 -0.00000000000E+00 -0.84369740068E+02  0.84369740068E+02  0.00000000000E+00 0.  1.
          6    1    1    2  502    0 -0.31897202571E+03  0.24112896079E+02  0.47080199187E+03  0.59461172247E+03  0.17200000000E+03 0. -1.
         -6    1    1    2    0  501  0.31897202571E+03 -0.24112896079E+02  0.14454777054E+04  0.14904074549E+04  0.17200000000E+03 0.  1.
</event>
<event>
 4    1  0.3191769E-002  0.1848329E+03  0.7818608E-02  0.1163206E+00
          2   -1    0    0  502    0  0.00000000000E+00  0.00000000000E+00  0.16079757854E+04  0.16079757854E+04  0.00000000000E+00 0. -1.
         -2   -1    0    0    0  501 -0.00000000000E+00 -0.00000000000E+00 -0.22615227208E+02  0.22615227208E+02  0.00000000000E+00 0.  1.
          6    1    1    2  502    0 -0.67542619598E+02 -0.41454389845E+01  0.99328394217E+03  0.10103346871E+04  0.17200000000E+03 0. -1.
         -6    1    1    2    0  501  0.67542619598E+02  0.41454389845E+01  0.59207661600E+03  0.62025632552E+03  0.17200000000E+03 0.  1.
</event>
<event>
 4    1  0.3191769E-002  0.1789244E+03  0.7818608E-02  0.1168848E+00
         -2   -1    0    0    0  501 -0.00000000000E+00  0.00000000000E+00  0.17176061504E+03  0.17176061504E+03  0.00000000000E+00 0.  1.
          2   -1    0    0  502    0  0.00000000000E+00 -0.00000000000E+00 -0.18921067046E+03  0.18921067046E+03  0.00000000000E+00 0. -1.
          6    1    1    2  502    0  0.40873031074E+02  0.27556320211E+02 -0.30773195808E+02  0.18155149416E+03  0.17200000000E+03 0. -1.
         -6    1    1    2    0  501 -0.40873031074E+02 -0.27556320211E+02  0.13323140392E+02  0.17941979133E+03  0.17200000000E+03 0. -1.
</event>
<event>
 4    1  0.3191769E-002  0.1858265E+03  0.7818608E-02  0.1162280E+00
         -2   -1    0    0    0  501 -0.00000000000E+00  0.00000000000E+00  0.21905587543E+02  0.21905587543E+02  0.00000000000E+00 0.  1.
          2   -1    0    0  502    0  0.00000000000E+00 -0.00000000000E+00 -0.15874309474E+04  0.15874309474E+04  0.00000000000E+00 0. -1.
          6    1    1    2  502    0  0.58097493986E+02 -0.39650627757E+02 -0.71561914660E+03  0.73935259117E+03  0.17200000000E+03 0. -1.
         -6    1    1    2    0  501 -0.58097493986E+02  0.39650627757E+02 -0.84990621324E+03  0.86998394376E+03  0.17200000000E+03 0.  1.
</event>
<event>
 4    1  0.3191769E-002  0.2825115E+03  0.7818608E-02  0.1094325E+00
         -3   -1    0    0    0  501 -0.00000000000E+00  0.00000000000E+00  0.29472517072E+03  0.29472517072E+03  0.00000000000E+00 0.  1.
          3   -1    0    0  502    0  0.00000000000E+00 -0.00000000000E+00 -0.27108679299E+03  0.27108679299E+03  0.00000000000E+00 0. -1.
          6    1    1    2  502    0 -0.18153653812E+03  0.13142770208E+03  0.26818194389E+01  0.28252424268E+03  0.17200000000E+03 0. -1.
         -6    1    1    2    0  501  0.18153653812E+03 -0.13142770208E+03  0.20956558292E+02  0.28328772103E+03  0.17200000000E+03 0. -1.
</event>
<event>
 4    1  0.3191769E-002  0.3269658E+03  0.7818608E-02  0.1072487E+00
         -1   -1    0    0    0  501 -0.00000000000E+00  0.00000000000E+00  0.34345027190E+03  0.34345027190E+03  0.00000000000E+00 0.  1.
          1   -1    0    0  502    0  0.00000000000E+00 -0.00000000000E+00 -0.57277345200E+03  0.57277345200E+03  0.00000000000E+00 0. -1.
          6    1    1    2  502    0  0.12119799741E+00  0.27806947010E+03 -0.42420152393E+03  0.53558713371E+03  0.17200000000E+03 0. -1.
         -6    1    1    2    0  501 -0.12119799741E+00 -0.27806947010E+03  0.19487834383E+03  0.38063659019E+03  0.17200000000E+03 0.  1.
</event>
<event>
 4    1  0.3191769E-002  0.5652486E+03  0.7818608E-02  0.9980248E-01
          2   -1    0    0  502    0  0.00000000000E+00  0.00000000000E+00  0.15606523628E+04  0.15606523628E+04  0.00000000000E+00 0. -1.
         -2   -1    0    0    0  501 -0.00000000000E+00 -0.00000000000E+00 -0.21237067786E+03  0.21237067786E+03  0.00000000000E+00 0.  1.
          6    1    1    2  502    0  0.53254718924E+03  0.79469988892E+02  0.50594353992E+03  0.75860717996E+03  0.17200000000E+03 0.  1.
         -6    1    1    2    0  501 -0.53254718924E+03 -0.79469988892E+02  0.84233814502E+03  0.10144158607E+04  0.17200000000E+03 0.  1.
</event>
<event>
 4    1  0.3191769E-002  0.2012000E+03  0.7818608E-02  0.1148731E+00
         -2   -1    0    0    0  501 -0.00000000000E+00  0.00000000000E+00  0.60201357655E+02  0.60201357655E+02  0.00000000000E+00 0.  1.
          2   -1    0    0  502    0  0.00000000000E+00 -0.00000000000E+00 -0.70360273538E+03  0.70360273538E+03  0.00000000000E+00 0. -1.
          6    1    1    2  502    0  0.94793288711E+02  0.43722531739E+02 -0.40208091953E+03  0.44961149142E+03  0.17200000000E+03 0.  1.
         -6    1    1    2    0  501 -0.94793288711E+02 -0.43722531739E+02 -0.24132045820E+03  0.31419260162E+03  0.17200000000E+03 0.  1.
</event>
<event>
 4    1  0.3191769E-002  0.4608331E+03  0.7818608E-02  0.1024540E+00
          2   -1    0    0  502    0  0.00000000000E+00  0.00000000000E+00  0.10555723017E+04  0.10555723017E+04  0.00000000000E+00 0. -1.
         -2   -1    0    0    0  501 -0.00000000000E+00 -0.00000000000E+00 -0.22929403928E+03  0.22929403928E+03  0.00000000000E+00 0.  1.
          6    1    1    2  502    0  0.10457181425E+03  0.41454539485E+03  0.18821236263E+03  0.49778614100E+03  0.17200000000E+03 0. -1.
         -6    1    1    2    0  501 -0.10457181425E+03 -0.41454539485E+03  0.63806589975E+03  0.78708019995E+03  0.17200000000E+03 0. -1.
</event>
<event>
 4    1  0.3191769E-002  0.5486794E+03  0.7818608E-02  0.1001800E+00
         -2   -1    0    0    0  501 -0.00000000000E+00  0.00000000000E+00  0.39904340065E+03  0.39904340065E+03  0.00000000000E+00 0.  1.
          2   -1    0    0  502    0  0.00000000000E+00 -0.00000000000E+00 -0.88010081823E+03  0.88010081823E+03  0.00000000000E+00 0. -1.
          6    1    1    2  502    0  0.35383718233E+03  0.38244519124E+03 -0.48221158534E+03  0.73046361233E+03  0.17200000000E+03 0. -1.
         -6    1    1    2    0  501 -0.35383718233E+03 -0.38244519124E+03  0.11541677578E+01  0.54868060655E+03  0.17200000000E+03 0.  1.
</event>
<event>
 4    1  0.3191769E-002  0.6129226E+03  0.7818608E-02  0.9878953E-01
         -2   -1    0    0    0  501 -0.00000000000E+00  0.00000000000E+00  0.56180160555E+03  0.56180160555E+03  0.00000000000E+00 0.  1.
          2   -1    0    0  502    0  0.00000000000E+00 -0.00000000000E+00 -0.20648863987E+04  0.20648863987E+04  0.00000000000E+00 0. -1.
          6    1    1    2  502    0 -0.53489334492E+03  0.24490666396E+03 -0.18314903504E+04  0.19313288348E+04  0.17200000000E+03 0. -1.
         -6    1    1    2    0  501  0.53489334492E+03 -0.24490666396E+03  0.32840555727E+03  0.69535916945E+03  0.17200000000E+03 0.  1.
</event>
<event>
 4    1  0.3191769E-002  0.3096452E+03  0.7818608E-02  0.1080516E+00
         -2   -1    0    0    0  501 -0.00000000000E+00  0.00000000000E+00  0.27377059664E+03  0.27377059664E+03  0.00000000000E+00 0.  1.
          2   -1    0    0  502    0  0.00000000000E+00 -0.00000000000E+00 -0.66532014364E+03  0.66532014364E+03  0.00000000000E+00 0. -1.
          6    1    1    2  502    0  0.20077726459E+03 -0.16119758734E+03 -0.51891121526E+03  0.60427561714E+03  0.17200000000E+03 0. -1.
         -6    1    1    2    0  501 -0.20077726459E+03  0.16119758734E+03  0.12736166826E+03  0.33481512314E+03  0.17200000000E+03 0.  1.
</event>
<event>
 4    1  0.3191769E-002  0.2000361E+03  0.7818608E-02  0.1149709E+00
          1   -1    0    0  502    0  0.00000000000E+00  0.00000000000E+00  0.92443021700E+02  0.92443021700E+02  0.00000000000E+00 0. -1.
         -1   -1    0    0    0  501 -0.00000000000E+00 -0.00000000000E+00 -0.63586241766E+03  0.63586241766E+03  0.00000000000E+00 0.  1.
          6    1    1    2  502    0 -0.99064795787E+02 -0.24831885410E+02 -0.65951304258E+02  0.21062770670E+03  0.17200000000E+03 0. -1.
         -6    1    1    2    0  501  0.99064795787E+02  0.24831885410E+02 -0.47746809170E+03  0.51767773266E+03  0.17200000000E+03 0.  1.
</event>
<event>
 4    1  0.3191769E-002  0.1805709E+03  0.7818608E-02  0.1167252E+00
         -2   -1    0    0    0  501 -0.00000000000E+00  0.00000000000E+00  0.89737360213E+02  0.89737360213E+02  0.00000000000E+00 0.  1.
          2   -1    0    0  502    0  0.00000000000E+00 -0.00000000000E+00 -0.50306334505E+03  0.50306334505E+03  0.00000000000E+00 0. -1.
          6    1    1    2  502    0 -0.37959002795E+02 -0.39761220477E+02 -0.36286632504E+03  0.40531199143E+03  0.17200000000E+03 0. -1.
         -6    1    1    2    0  501  0.37959002795E+02  0.39761220477E+02 -0.50459659789E+02  0.18748871383E+03  0.17200000000E+03 0.  1.
</event>
<event>
 4    1  0.3191769E-002  0.2049630E+03  0.7818608E-02  0.1145618E+00
         -2   -1    0    0    0  501 -0.00000000000E+00  0.00000000000E+00  0.12685866915E+03  0.12685866915E+03  0.00000000000E+00 0.  1.
          2   -1    0    0  502    0  0.00000000000E+00 -0.00000000000E+00 -0.44700876709E+03  0.44700876709E+03  0.00000000000E+00 0. -1.
          6    1    1    2  502    0  0.54113874196E+02 -0.97455263825E+02 -0.30615118657E+03  0.36842691116E+03  0.17200000000E+03 0. -1.
         -6    1    1    2    0  501 -0.54113874196E+02  0.97455263825E+02 -0.13998911377E+02  0.20544052509E+03  0.17200000000E+03 0.  1.
</event>
<event>
 4    1  0.3191769E-002  0.5962527E+03  0.7818608E-02  0.9913211E-01
          1   -1    0    0  502    0  0.00000000000E+00  0.00000000000E+00  0.99403210375E+03  0.99403210375E+03  0.00000000000E+00 0. -1.
         -1   -1    0    0    0  501 -0.00000000000E+00 -0.00000000000E+00 -0.89633687476E+03  0.89633687476E+03  0.00000000000E+00 0.  1.
          6    1    1    2  502    0 -0.46797788155E+03  0.32700157302E+03  0.78158515765E+03  0.98305273767E+03  0.17200000000E+03 0. -1.
         -6    1    1    2    0  501  0.46797788155E+03 -0.32700157302E+03 -0.68388992866E+03  0.90731624084E+03  0.17200000000E+03 0.  1.
</event>
<event>
 4    1  0.3191769E-002  0.3819552E+03  0.7818608E-02  0.1050213E+00
          2   -1    0    0  502    0  0.00000000000E+00  0.00000000000E+00  0.11350378340E+04  0.11350378340E+04  0.00000000000E+00 0. -1.
         -2   -1    0    0    0  501 -0.00000000000E+00 -0.00000000000E+00 -0.12971285667E+03  0.12971285667E+03  0.00000000000E+00 0.  1.
          6    1    1    2  502    0  0.53052753369E+02  0.33688448592E+03  0.56297519477E+03  0.68031670671E+03  0.17200000000E+03 0. -1.
         -6    1    1    2    0  501 -0.53052753369E+02 -0.33688448592E+03  0.44234978259E+03  0.58443398400E+03  0.17200000000E+03 0.  1.
</event>
<event>
 4    1  0.3191769E-002  0.2826683E+03  0.7818608E-02  0.1094240E+00
          2   -1    0    0  502    0  0.00000000000E+00  0.00000000000E+00  0.25034723719E+03  0.25034723719E+03  0.00000000000E+00 0. -1.
         -2   -1    0    0    0  501 -0.00000000000E+00 -0.00000000000E+00 -0.36063517294E+03  0.36063517294E+03  0.00000000000E+00 0.  1.
          6    1    1    2  502    0 -0.21369083017E+03 -0.68217339858E+02  0.48453043411E+02  0.28679099319E+03  0.17200000000E+03 0. -1.
         -6    1    1    2    0  501  0.21369083017E+03  0.68217339858E+02 -0.15874097915E+03  0.32419141694E+03  0.17200000000E+03 0.  1.
</event>
<event>
 4    1  0.3191769E-002  0.1851840E+03  0.7818608E-02  0.1162878E+00
          1   -1    0    0  502    0  0.00000000000E+00  0.00000000000E+00  0.11586566065E+04  0.11586566065E+04  0.00000000000E+00 0. -1.
         -1   -1    0    0    0  501 -0.00000000000E+00 -0.00000000000E+00 -0.30735148705E+02  0.30735148705E+02  0.00000000000E+00 0.  1.
          6    1    1    2  502    0 -0.67822217659E+02  0.10452228455E+02  0.44953588354E+03  0.48618475179E+03  0.17200000000E+03 0. -1.
         -6    1    1    2    0  501  0.67822217659E+02 -0.10452228455E+02  0.67838557425E+03  0.70320700340E+03  0.17200000000E+03 0. -1.
</event>
<event>
 4    1  0.3191769E-002  0.1889957E+03  0.7818608E-02  0.1159370E+00
         -2   -1    0    0    0  501 -0.00000000000E+00  0.00000000000E+00  0.22692783128E+03  0.22692783128E+03  0.00000000000E+00 0.  1.
          2   -1    0    0  502    0  0.00000000000E+00 -0.00000000000E+00 -0.26199695065E+03  0.26199695065E+03  0.00000000000E+00 0. -1.
          6    1    1    2  502    0 -0.74774367629E+02  0.23327573808E+02 -0.17199413579E+03  0.25554131662E+03  0.17200000000E+03 0. -1.
         -6    1    1    2    0  501  0.74774367629E+02 -0.23327573808E+02  0.13692501642E+03  0.23338346530E+03  0.17200000000E+03 0.  1.
</event>
<event>
 4    1  0.3191769E-002  0.2409289E+03  0.7818608E-02  0.1119176E+00
         -2   -1    0    0    0  501 -0.00000000000E+00  0.00000000000E+00  0.12887464038E+03  0.12887464038E+03  0.00000000000E+00 0.  1.
          2   -1    0    0  502    0  0.00000000000E+00 -0.00000000000E+00 -0.13346484682E+04  0.13346484682E+04  0.00000000000E+00 0. -1.
          6    1    1    2  502    0 -0.16269293373E+03  0.44651518412E+02 -0.11985082290E+04  0.12224846517E+04  0.17200000000E+03 0. -1.
         -6    1    1    2    0  501  0.16269293373E+03 -0.44651518412E+02 -0.72655988951E+01  0.24103845691E+03  0.17200000000E+03 0.  1.
</event>
<event>
 4    1  0.3191769E-002  0.2873442E+03  0.7818608E-02  0.1091744E+00
         -2   -1    0    0    0  501 -0.00000000000E+00  0.00000000000E+00  0.58709811490E+02  0.58709811490E+02  0.00000000000E+00 0.  1.
          2   -1    0    0  502    0  0.00000000000E+00 -0.00000000000E+00 -0.14063831938E+04  0.14063831938E+04  0.00000000000E+00 0. -1.
          6    1    1    2  502    0  0.19920181555E+03  0.11533134067E+03 -0.67040620681E+03  0.72939095387E+03  0.17200000000E+03 0. -1.
         -6    1    1    2    0  501 -0.19920181555E+03 -0.11533134067E+03 -0.67726717553E+03  0.73570205145E+03  0.17200000000E+03 0.  1.
</event>
<event>
 4    1  0.3191769E-002  0.1759963E+03  0.7818608E-02  0.1171735E+00
         -1   -1    0    0    0  501 -0.00000000000E+00  0.00000000000E+00  0.41646652400E+03  0.41646652400E+03  0.00000000000E+00 0.  1.
          1   -1    0    0  502    0  0.00000000000E+00 -0.00000000000E+00 -0.98780400630E+02  0.98780400630E+02  0.00000000000E+00 0. -1.
          6    1    1    2  502    0  0.20323600694E+02  0.31267261645E+02  0.28689706144E+03  0.33657779822E+03  0.17200000000E+03 0.  1.
         -6    1    1    2    0  501 -0.20323600694E+02 -0.31267261645E+02  0.30789061933E+02  0.17866912641E+03  0.17200000000E+03 0. -1.
</event>
<event>
 4    1  0.3191769E-002  0.2668752E+03  0.7818608E-02  0.1103081E+00
          2   -1    0    0  502    0  0.00000000000E+00  0.00000000000E+00  0.30025680734E+04  0.30025680734E+04  0.00000000000E+00 0. -1.
         -2   -1    0    0    0  501 -0.00000000000E+00 -0.00000000000E+00 -0.55684222792E+02  0.55684222792E+02  0.00000000000E+00 0.  1.
          6    1    1    2  502    0  0.11773834422E+03  0.16666152956E+03  0.26319684613E+04  0.26454641113E+04  0.17200000000E+03 0. -1.
         -6    1    1    2    0  501 -0.11773834422E+03 -0.16666152956E+03  0.31491538936E+03  0.41278818490E+03  0.17200000000E+03 0.  1.
</event>
<event>
 4    1  0.3191769E-002  0.1975155E+03  0.7818608E-02  0.1151852E+00
         -2   -1    0    0    0  501 -0.00000000000E+00  0.00000000000E+00  0.19680127023E+02  0.19680127023E+02  0.00000000000E+00 0.  1.
          2   -1    0    0  502    0  0.00000000000E+00 -0.00000000000E+00 -0.20427938761E+04  0.20427938761E+04  0.00000000000E+00 0. -1.
          6    1    1    2  502    0 -0.82504827818E+02  0.51198940429E+02 -0.11889830041E+04  0.12052771309E+04  0.17200000000E+03 0. -1.
         -6    1    1    2    0  501  0.82504827818E+02 -0.51198940429E+02 -0.83413074496E+03  0.85719687225E+03  0.17200000000E+03 0.  1.
</event>
<event>
 4    1  0.3191769E-002  0.3848214E+03  0.7818608E-02  0.1049166E+00
         -2   -1    0    0    0  501 -0.00000000000E+00  0.00000000000E+00  0.44835114408E+02  0.44835114408E+02  0.00000000000E+00 0.  1.
          2   -1    0    0  502    0  0.00000000000E+00 -0.00000000000E+00 -0.33040877932E+04  0.33040877932E+04  0.00000000000E+00 0. -1.
          6    1    1    2  502    0  0.16141559793E+03  0.30405343164E+03 -0.15983541642E+04  0.16440266174E+04  0.17200000000E+03 0.  1.
         -6    1    1    2    0  501 -0.16141559793E+03 -0.30405343164E+03 -0.16608985146E+04  0.17048962902E+04  0.17200000000E+03 0. -1.
</event>
<event>
 4    1  0.3191769E-002  0.1878903E+03  0.7818608E-02  0.1160378E+00
          2   -1    0    0  502    0  0.00000000000E+00  0.00000000000E+00  0.19971405014E+04  0.19971405014E+04  0.00000000000E+00 0. -1.
         -2   -1    0    0    0  501 -0.00000000000E+00 -0.00000000000E+00 -0.18371898689E+02  0.18371898689E+02  0.00000000000E+00 0.  1.
          6    1    1    2  502    0 -0.70880169612E+02  0.26358071038E+02  0.79334204722E+03  0.81528789408E+03  0.17200000000E+03 0.  1.
         -6    1    1    2    0  501  0.70880169612E+02 -0.26358071038E+02  0.11854265555E+04  0.12002245060E+04  0.17200000000E+03 0. -1.
</event>
<event>
 4    1  0.3191769E-002  0.2361652E+03  0.7818608E-02  0.1122374E+00
         -2   -1    0    0    0  501 -0.00000000000E+00  0.00000000000E+00  0.30883828123E+03  0.30883828123E+03  0.00000000000E+00 0.  1.
          2   -1    0    0  502    0  0.00000000000E+00 -0.00000000000E+00 -0.24500102783E+03  0.24500102783E+03  0.00000000000E+00 0. -1.
          6    1    1    2  502    0 -0.36546954138E+02  0.15765251329E+03  0.17390289629E+03  0.29328520614E+03  0.17200000000E+03 0. -1.
         -6    1    1    2    0  501  0.36546954138E+02 -0.15765251329E+03 -0.11006564289E+03  0.26055410292E+03  0.17200000000E+03 0.  1.
</event>
<event>
 4    1  0.3191769E-002  0.1776521E+03  0.7818608E-02  0.1170095E+00
         -1   -1    0    0    0  501 -0.00000000000E+00  0.00000000000E+00  0.11937108514E+02  0.11937108514E+02  0.00000000000E+00 0.  1.
          1   -1    0    0  502    0  0.00000000000E+00 -0.00000000000E+00 -0.26810016052E+04  0.26810016052E+04  0.00000000000E+00 0. -1.
          6    1    1    2  502    0  0.44453149307E+02 -0.43270610948E+00 -0.11760912560E+04  0.11894330213E+04  0.17200000000E+03 0.  1.
         -6    1    1    2    0  501 -0.44453149307E+02  0.43270610948E+00 -0.14929732406E+04  0.15035056923E+04  0.17200000000E+03 0. -1.
</event>
<event>
 4    1  0.3191769E-002  0.1860524E+03  0.7818608E-02  0.1162071E+00
          2   -1    0    0  502    0  0.00000000000E+00  0.00000000000E+00  0.24817545519E+04  0.24817545519E+04  0.00000000000E+00 0. -1.
         -2   -1    0    0    0  501 -0.00000000000E+00 -0.00000000000E+00 -0.58894673751E+02  0.58894673751E+02  0.00000000000E+00 0.  1.
          6    1    1    2  502    0  0.69667086724E+02 -0.13341098225E+02  0.23211808987E+04  0.23286253998E+04  0.17200000000E+03 0. -1.
         -6    1    1    2    0  501 -0.69667086724E+02  0.13341098225E+02  0.10167897939E+03  0.21202382584E+03  0.17200000000E+03 0.  1.
</event>
<event>
 4    1  0.3191769E-002  0.5380877E+03  0.7818608E-02  0.1004289E+00
         -2   -1    0    0    0  501 -0.00000000000E+00  0.00000000000E+00  0.10656700865E+03  0.10656700865E+03  0.00000000000E+00 0.  1.
          2   -1    0    0  502    0  0.00000000000E+00 -0.00000000000E+00 -0.28264045359E+04  0.28264045359E+04  0.00000000000E+00 0. -1.
          6    1    1    2  502    0  0.45483787357E+03 -0.23038410720E+03 -0.10713447574E+04  0.11988819447E+04  0.17200000000E+03 0.  1.
         -6    1    1    2    0  501 -0.45483787357E+03  0.23038410720E+03 -0.16484927698E+04  0.17340895998E+04  0.17200000000E+03 0. -1.
</event>
<event>
 4    1  0.3191769E-002  0.3994732E+03  0.7818608E-02  0.1043962E+00
          2   -1    0    0  502    0  0.00000000000E+00  0.00000000000E+00  0.40027947122E+03  0.40027947122E+03  0.00000000000E+00 0. -1.
         -2   -1    0    0    0  501 -0.00000000000E+00 -0.00000000000E+00 -0.41920517448E+03  0.41920517448E+03  0.00000000000E+00 0.  1.
          6    1    1    2  502    0 -0.34813291224E+03  0.93799450094E+02  0.81227560908E+02  0.40764786038E+03  0.17200000000E+03 0. -1.
         -6    1    1    2    0  501  0.34813291224E+03 -0.93799450094E+02 -0.10015326416E+03  0.41183678532E+03  0.17200000000E+03 0.  1.
</event>
<event>
 4    1  0.3191769E-002  0.6271492E+03  0.7818608E-02  0.9850628E-01
         -1   -1    0    0    0  501 -0.00000000000E+00  0.00000000000E+00  0.68518102003E+03  0.68518102003E+03  0.00000000000E+00 0.  1.
          1   -1    0    0  502    0  0.00000000000E+00 -0.00000000000E+00 -0.70097701287E+03  0.70097701287E+03  0.00000000000E+00 0. -1.
          6    1    1    2  502    0  0.55168773967E+03  0.24366514588E+03  0.28704500790E+03  0.68971798728E+03  0.17200000000E+03 0.  1.
         -6    1    1    2    0  501 -0.55168773967E+03 -0.24366514588E+03 -0.30284100074E+03  0.69644004562E+03  0.17200000000E+03 0. -1.
</event>
<event>
 4    1  0.3191769E-002  0.2820662E+03  0.7818608E-02  0.1094566E+00
          2   -1    0    0  502    0  0.00000000000E+00  0.00000000000E+00  0.11465310714E+04  0.11465310714E+04  0.00000000000E+00 0. -1.
         -2   -1    0    0    0  501 -0.00000000000E+00 -0.00000000000E+00 -0.11107622341E+03  0.11107622341E+03  0.00000000000E+00 0.  1.
          6    1    1    2  502    0  0.49910068045E+02 -0.21791363420E+03  0.90292587199E+03  0.94595797855E+03  0.17200000000E+03 0. -1.
         -6    1    1    2    0  501 -0.49910068045E+02  0.21791363420E+03  0.13252897604E+03  0.31164931630E+03  0.17200000000E+03 0.  1.
</event>
<event>
 4    1  0.3191769E-002  0.1888075E+03  0.7818608E-02  0.1159541E+00
         -1   -1    0    0    0  501 -0.00000000000E+00  0.00000000000E+00  0.80403702008E+02  0.80403702008E+02  0.00000000000E+00 0.  1.
          1   -1    0    0  502    0  0.00000000000E+00 -0.00000000000E+00 -0.44772628466E+03  0.44772628466E+03  0.00000000000E+00 0. -1.
          6    1    1    2  502    0 -0.12885661283E+02 -0.76799922534E+02 -0.15760206181E+03  0.24594039573E+03  0.17200000000E+03 0.  1.
         -6    1    1    2    0  501  0.12885661283E+02  0.76799922534E+02 -0.20972052085E+03  0.28218959094E+03  0.17200000000E+03 0.  1.
</event>
<event>
 4    1  0.3191769E-002  0.2467008E+03  0.7818608E-02  0.1115408E+00
          3   -1    0    0  502    0  0.00000000000E+00  0.00000000000E+00  0.26752816405E+02  0.26752816405E+02  0.00000000000E+00 0. -1.
         -3   -1    0    0    0  501 -0.00000000000E+00 -0.00000000000E+00 -0.30207200296E+04  0.30207200296E+04  0.00000000000E+00 0.  1.
          6    1    1    2  502    0 -0.16594273786E+03 -0.61157947467E+02 -0.73987630871E+03  0.77992194416E+03  0.17200000000E+03 0. -1.
         -6    1    1    2    0  501  0.16594273786E+03  0.61157947467E+02 -0.22540909044E+04  0.22675509018E+04  0.17200000000E+03 0.  1.
</event>
<event>
 4    1  0.3191769E-002  0.3405150E+03  0.7818608E-02  0.1066577E+00
          1   -1    0    0  502    0  0.00000000000E+00  0.00000000000E+00  0.12772217472E+04  0.12772217472E+04  0.00000000000E+00 0. -1.
         -1   -1    0    0    0  501 -0.00000000000E+00 -0.00000000000E+00 -0.11725695562E+03  0.11725695562E+03  0.00000000000E+00 0.  1.
          6    1    1    2  502    0 -0.36921157183E+02 -0.29155330079E+03  0.91128048953E+03  0.97282199278E+03  0.17200000000E+03 0. -1.
         -6    1    1    2    0  501  0.36921157183E+02  0.29155330079E+03  0.24868430209E+03  0.42165671008E+03  0.17200000000E+03 0.  1.
</event>
<event>
 4    1  0.3191769E-002  0.2326108E+03  0.7818608E-02  0.1124816E+00
         -1   -1    0    0    0  501 -0.00000000000E+00  0.00000000000E+00  0.95103448862E+02  0.95103448862E+02  0.00000000000E+00 0.  1.
          1   -1    0    0  502    0  0.00000000000E+00 -0.00000000000E+00 -0.11213811232E+04  0.11213811232E+04  0.00000000000E+00 0. -1.
          6    1    1    2  502    0 -0.15285411482E+03  0.34050127193E+02 -0.94005686640E+03  0.96840833518E+03  0.17200000000E+03 0. -1.
         -6    1    1    2    0  501  0.15285411482E+03 -0.34050127193E+02 -0.86220807917E+02  0.24807623686E+03  0.17200000000E+03 0.  1.
</event>
<event>
 4    1  0.3191769E-002  0.3301313E+03  0.7818608E-02  0.1071079E+00
          1   -1    0    0  502    0  0.00000000000E+00  0.00000000000E+00  0.78526544906E+03  0.78526544906E+03  0.00000000000E+00 0. -1.
         -1   -1    0    0    0  501 -0.00000000000E+00 -0.00000000000E+00 -0.29153814456E+03  0.29153814456E+03  0.00000000000E+00 0.  1.
          6    1    1    2  502    0  0.88865789818E+02  0.26740518299E+03  0.63657888307E+03  0.71709088327E+03  0.17200000000E+03 0. -1.
         -6    1    1    2    0  501 -0.88865789818E+02 -0.26740518299E+03 -0.14285157857E+03  0.35971271036E+03  0.17200000000E+03 0.  1.
</event>
<event>
 4    1  0.3191769E-002  0.2552152E+03  0.7818608E-02  0.1110053E+00
          2   -1    0    0  502    0  0.00000000000E+00  0.00000000000E+00  0.26610655422E+03  0.26610655422E+03  0.00000000000E+00 0. -1.
         -2   -1    0    0    0  501 -0.00000000000E+00 -0.00000000000E+00 -0.30309620339E+03  0.30309620339E+03  0.00000000000E+00 0.  1.
          6    1    1    2  502    0  0.10614007870E+03  0.15583673113E+03  0.10635271255E+03  0.27648815986E+03  0.17200000000E+03 0. -1.
         -6    1    1    2    0  501 -0.10614007870E+03 -0.15583673113E+03 -0.14334236173E+03  0.29271459776E+03  0.17200000000E+03 0.  1.
</event>
<event>
 4    1  0.3191769E-002  0.2420159E+03  0.7818608E-02  0.1118457E+00
          3   -1    0    0  502    0  0.00000000000E+00  0.00000000000E+00  0.11805411988E+04  0.11805411988E+04  0.00000000000E+00 0. -1.
         -3   -1    0    0    0  501 -0.00000000000E+00 -0.00000000000E+00 -0.50458515961E+02  0.50458515961E+02  0.00000000000E+00 0.  1.
          6    1    1    2  502    0  0.46215317657E+02  0.16386528857E+03  0.48542622750E+03  0.54241156950E+03  0.17200000000E+03 0. -1.
         -6    1    1    2    0  501 -0.46215317657E+02 -0.16386528857E+03  0.64465645536E+03  0.68858814529E+03  0.17200000000E+03 0. -1.
</event>
<event>
 4    1  0.3191769E-002  0.3919628E+03  0.7818608E-02  0.1046599E+00
          2   -1    0    0  502    0  0.00000000000E+00  0.00000000000E+00  0.31969141202E+04  0.31969141202E+04  0.00000000000E+00 0. -1.
         -2   -1    0    0    0  501 -0.00000000000E+00 -0.00000000000E+00 -0.14048128010E+03  0.14048128010E+03  0.00000000000E+00 0.  1.
          6    1    1    2  502    0 -0.29865326955E+03  0.18670036474E+03  0.28817248451E+04  0.29082594252E+04  0.17200000000E+03 0. -1.
         -6    1    1    2    0  501  0.29865326955E+03 -0.18670036474E+03  0.17470799506E+03  0.42913597512E+03  0.17200000000E+03 0.  1.
</event>
<event>
 4    1  0.3191769E-002  0.1996427E+03  0.7818608E-02  0.1150041E+00
          2   -1    0    0  502    0  0.00000000000E+00  0.00000000000E+00  0.14267434133E+04  0.14267434133E+04  0.00000000000E+00 0. -1.
         -2   -1    0    0    0  501 -0.00000000000E+00 -0.00000000000E+00 -0.31059471065E+02  0.31059471065E+02  0.00000000000E+00 0.  1.
          6    1    1    2  502    0 -0.22802616707E+02  0.98758486623E+02  0.46668583067E+03  0.50759517586E+03  0.17200000000E+03 0.  1.
         -6    1    1    2    0  501  0.22802616707E+02 -0.98758486623E+02  0.92899811155E+03  0.95020770849E+03  0.17200000000E+03 0.  1.
</event>
<event>
 4    1  0.3191769E-002  0.2918372E+03  0.7818608E-02  0.1089394E+00
          2   -1    0    0  502    0  0.00000000000E+00  0.00000000000E+00  0.70880868226E+03  0.70880868226E+03  0.00000000000E+00 0. -1.
         -2   -1    0    0    0  501 -0.00000000000E+00 -0.00000000000E+00 -0.12261356988E+03  0.12261356988E+03  0.00000000000E+00 0.  1.
          6    1    1    2  502    0  0.14413338053E+03 -0.18657570432E+03  0.35192935177E+03  0.45719054394E+03  0.17200000000E+03 0. -1.
         -6    1    1    2    0  501 -0.14413338053E+03  0.18657570432E+03  0.23426576061E+03  0.37423170820E+03  0.17200000000E+03 0. -1.
</event>
<event>
 4    1  0.3191769E-002  0.2482799E+03  0.7818608E-02  0.1114397E+00
         -1   -1    0    0    0  501 -0.00000000000E+00  0.00000000000E+00  0.27959160912E+03  0.27959160912E+03  0.00000000000E+00 0.  1.
          1   -1    0    0  502    0  0.00000000000E+00 -0.00000000000E+00 -0.82396733036E+03  0.82396733036E+03  0.00000000000E+00 0. -1.
          6    1    1    2  502    0 -0.16325261052E+03  0.73535811666E+02 -0.74441012221E+03  0.78472247354E+03  0.17200000000E+03 0. -1.
         -6    1    1    2    0  501  0.16325261052E+03 -0.73535811666E+02  0.20003440097E+03  0.31883646593E+03  0.17200000000E+03 0.  1.
</event>
<event>
 4    1  0.3191769E-002  0.2197509E+03  0.7818608E-02  0.1134069E+00
          2   -1    0    0  502    0  0.00000000000E+00  0.00000000000E+00  0.24401723453E+04  0.24401723453E+04  0.00000000000E+00 0. -1.
         -2   -1    0    0    0  501 -0.00000000000E+00 -0.00000000000E+00 -0.35183433184E+02  0.35183433184E+02  0.00000000000E+00 0.  1.
          6    1    1    2  502    0 -0.12511375790E+03 -0.55254158564E+02  0.38382352441E+03  0.44227929224E+03  0.17200000000E+03 0.  1.
         -6    1    1    2    0  501  0.12511375790E+03  0.55254158564E+02  0.20211653877E+04  0.20330764863E+04  0.17200000000E+03 0. -1.
</event>
<event>
 4    1  0.3191769E-002  0.2129307E+03  0.7818608E-02  0.1139266E+00
         -2   -1    0    0    0  501 -0.00000000000E+00  0.00000000000E+00  0.39003122578E+02  0.39003122578E+02  0.00000000000E+00 0.  1.
          2   -1    0    0  502    0  0.00000000000E+00 -0.00000000000E+00 -0.12576374913E+04  0.12576374913E+04  0.00000000000E+00 0. -1.
          6    1    1    2  502    0 -0.12357521714E+03  0.22014395879E+02 -0.43096231211E+03  0.48069531137E+03  0.17200000000E+03 0.  1.
         -6    1    1    2    0  501  0.12357521714E+03 -0.22014395879E+02 -0.78767205665E+03  0.81594530255E+03  0.17200000000E+03 0. -1.
</event>
<event>
 4    1  0.3191769E-002  0.1810071E+03  0.7818608E-02  0.1166832E+00
          2   -1    0    0  502    0  0.00000000000E+00  0.00000000000E+00  0.11612633076E+04  0.11612633076E+04  0.00000000000E+00 0. -1.
         -2   -1    0    0    0  501 -0.00000000000E+00 -0.00000000000E+00 -0.28773303869E+02  0.28773303869E+02  0.00000000000E+00 0.  1.
          6    1    1    2  502    0 -0.51589349757E+02 -0.22761786463E+02  0.48326616481E+03  0.51605207682E+03  0.17200000000E+03 0.  1.
         -6    1    1    2    0  501  0.51589349757E+02  0.22761786463E+02  0.64922383888E+03  0.67398453462E+03  0.17200000000E+03 0.  1.
</event>
<event>
 4    1  0.3191769E-002  0.1936083E+03  0.7818608E-02  0.1155247E+00
         -2   -1    0    0    0  501 -0.00000000000E+00  0.00000000000E+00  0.54485502274E+02  0.54485502274E+02  0.00000000000E+00 0.  1.
          2   -1    0    0  502    0  0.00000000000E+00 -0.00000000000E+00 -0.83758503934E+03  0.83758503934E+03  0.00000000000E+00 0. -1.
          6    1    1    2  502    0 -0.43044139611E+02  0.77764974018E+02 -0.20303397118E+03  0.28054764763E+03  0.17200000000E+03 0.  1.
         -6    1    1    2    0  501  0.43044139611E+02 -0.77764974018E+02 -0.58006556589E+03  0.61152289398E+03  0.17200000000E+03 0.  1.
</event>
<event>
 4    1  0.3191769E-002  0.2117253E+03  0.7818608E-02  0.1140207E+00
          2   -1    0    0  502    0  0.00000000000E+00  0.00000000000E+00  0.18899073879E+04  0.18899073879E+04  0.00000000000E+00 0. -1.
         -2   -1    0    0    0  501 -0.00000000000E+00 -0.00000000000E+00 -0.81817376892E+02  0.81817376892E+02  0.00000000000E+00 0.  1.
          6    1    1    2  502    0  0.10756345690E+03  0.60611129054E+02  0.17348015164E+04  0.17476738561E+04  0.17200000000E+03 0. -1.
         -6    1    1    2    0  501 -0.10756345690E+03 -0.60611129054E+02  0.73288494649E+02  0.22405090867E+03  0.17200000000E+03 0.  1.
</event>
<event>
 4    1  0.3191769E-002  0.1747299E+03  0.7818608E-02  0.1173003E+00
         -2   -1    0    0    0  501 -0.00000000000E+00  0.00000000000E+00  0.19651187325E+03  0.19651187325E+03  0.00000000000E+00 0.  1.
          2   -1    0    0  502    0  0.00000000000E+00 -0.00000000000E+00 -0.15552309698E+03  0.15552309698E+03  0.00000000000E+00 0. -1.
          6    1    1    2  502    0 -0.21625659971E+02 -0.21883367322E+02  0.26152855600E+02  0.17667632210E+03  0.17200000000E+03 0. -1.
         -6    1    1    2    0  501  0.21625659971E+02  0.21883367322E+02  0.14835920671E+02  0.17535864814E+03  0.17200000000E+03 0.  1.
</event>
<event>
 4    1  0.3191769E-002  0.2139794E+03  0.7818608E-02  0.1138453E+00
          1   -1    0    0  502    0  0.00000000000E+00  0.00000000000E+00  0.22337620242E+03  0.22337620242E+03  0.00000000000E+00 0. -1.
         -1   -1    0    0    0  501 -0.00000000000E+00 -0.00000000000E+00 -0.22893554316E+03  0.22893554316E+03  0.00000000000E+00 0.  1.
          6    1    1    2  502    0  0.33055014620E+00 -0.12729121381E+03 -0.75939758029E+02  0.22705507972E+03  0.17200000000E+03 0. -1.
         -6    1    1    2    0  501 -0.33055014620E+00  0.12729121381E+03  0.70380417294E+02  0.22525666586E+03  0.17200000000E+03 0. -1.
</event>
<event>
 4    1  0.3191769E-002  0.3325145E+03  0.7818608E-02  0.1070030E+00
         -2   -1    0    0    0  501 -0.00000000000E+00  0.00000000000E+00  0.13403278212E+03  0.13403278212E+03  0.00000000000E+00 0.  1.
          2   -1    0    0  502    0  0.00000000000E+00 -0.00000000000E+00 -0.11321118561E+04  0.11321118561E+04  0.00000000000E+00 0. -1.
          6    1    1    2  502    0 -0.28119219136E+03  0.43735959295E+02 -0.82881309112E+03  0.89302688796E+03  0.17200000000E+03 0. -1.
         -6    1    1    2    0  501  0.28119219136E+03 -0.43735959295E+02 -0.16926598289E+03  0.37311775029E+03  0.17200000000E+03 0.  1.
</event>
<event>
 4    1  0.3191769E-002  0.1752065E+03  0.7818608E-02  0.1172525E+00
          2   -1    0    0  502    0  0.00000000000E+00  0.00000000000E+00  0.28883077662E+03  0.28883077662E+03  0.00000000000E+00 0. -1.
         -2   -1    0    0    0  501 -0.00000000000E+00 -0.00000000000E+00 -0.10646242610E+03  0.10646242610E+03  0.00000000000E+00 0.  1.
          6    1    1    2  502    0 -0.15750730829E+02 -0.29414968712E+02  0.83033053253E+02  0.19388608470E+03  0.17200000000E+03 0.  1.
         -6    1    1    2    0  501  0.15750730829E+02  0.29414968712E+02  0.99335297274E+02  0.20140711802E+03  0.17200000000E+03 0. -1.
</event>
<event>
 4    1  0.3191769E-002  0.4274680E+03  0.7818608E-02  0.1034663E+00
         -2   -1    0    0    0  501 -0.00000000000E+00  0.00000000000E+00  0.45489610282E+03  0.45489610282E+03  0.00000000000E+00 0.  1.
          2   -1    0    0  502    0  0.00000000000E+00 -0.00000000000E+00 -0.40857852096E+03  0.40857852096E+03  0.00000000000E+00 0. -1.
          6    1    1    2  502    0 -0.92404665472E+02 -0.38027131996E+03 -0.32885079430E+02  0.42873106656E+03  0.17200000000E+03 0. -1.
         -6    1    1    2    0  501  0.92404665472E+02  0.38027131996E+03  0.79202661283E+02  0.43474355722E+03  0.17200000000E+03 0.  1.
</event>
<event>
 4    1  0.3191769E-002  0.1882420E+03  0.7818608E-02  0.1160057E+00
          1   -1    0    0  502    0  0.00000000000E+00  0.00000000000E+00  0.14686616529E+04  0.14686616529E+04  0.00000000000E+00 0. -1.
         -1   -1    0    0    0  501 -0.00000000000E+00 -0.00000000000E+00 -0.25356326331E+02  0.25356326331E+02  0.00000000000E+00 0.  1.
          6    1    1    2  502    0 -0.76328520466E+02  0.50021051484E+01  0.55720173428E+03  0.58814015063E+03  0.17200000000E+03 0.  1.
         -6    1    1    2    0  501  0.76328520466E+02 -0.50021051484E+01  0.88610359227E+03  0.90587782859E+03  0.17200000000E+03 0. -1.
</event>
<event>
 4    1  0.3191769E-002  0.2927141E+03  0.7818608E-02  0.1088941E+00
          2   -1    0    0  502    0  0.00000000000E+00  0.00000000000E+00  0.19750754922E+04  0.19750754922E+04  0.00000000000E+00 0. -1.
         -2   -1    0    0    0  501 -0.00000000000E+00 -0.00000000000E+00 -0.10229225148E+03  0.10229225148E+03  0.00000000000E+00 0.  1.
          6    1    1    2  502    0  0.22934238003E+03 -0.59157634375E+02  0.17246337534E+04  0.17492978981E+04  0.17200000000E+03 0. -1.
         -6    1    1    2    0  501 -0.22934238003E+03  0.59157634375E+02  0.14814948733E+03  0.32806984558E+03  0.17200000000E+03 0.  1.
</event>
<event>
 4    1  0.3191769E-002  0.2958805E+03  0.7818608E-02  0.1087318E+00
          2   -1    0    0  502    0  0.00000000000E+00  0.00000000000E+00  0.29534154845E+03  0.29534154845E+03  0.00000000000E+00 0. -1.
         -2   -1    0    0    0  501 -0.00000000000E+00 -0.00000000000E+00 -0.80445372739E+03  0.80445372739E+03  0.00000000000E+00 0.  1.
          6    1    1    2  502    0  0.20124041707E+03  0.13214972793E+03  0.18243987588E+03  0.34760547229E+03  0.17200000000E+03 0. -1.
         -6    1    1    2    0  501 -0.20124041707E+03 -0.13214972793E+03 -0.69155205481E+03  0.75218980355E+03  0.17200000000E+03 0.  1.
</event>
<event>
 4    1  0.3191769E-002  0.3062645E+03  0.7818608E-02  0.1082150E+00
          2   -1    0    0  502    0  0.00000000000E+00  0.00000000000E+00  0.21143887861E+04  0.21143887861E+04  0.00000000000E+00 0. -1.
         -2   -1    0    0    0  501 -0.00000000000E+00 -0.00000000000E+00 -0.48610963944E+02  0.48610963944E+02  0.00000000000E+00 0.  1.
          6    1    1    2  502    0 -0.16532429553E+02  0.25286488391E+03  0.13526414802E+04  0.13868802921E+04  0.17200000000E+03 0. -1.
         -6    1    1    2    0  501  0.16532429553E+02 -0.25286488391E+03  0.71313634202E+03  0.77611945798E+03  0.17200000000E+03 0.  1.
</event>
<event>
 4    1  0.3191769E-002  0.3143483E+03  0.7818608E-02  0.1078280E+00
         -1   -1    0    0    0  501 -0.00000000000E+00  0.00000000000E+00  0.13495272538E+03  0.13495272538E+03  0.00000000000E+00 0.  1.
          1   -1    0    0  502    0  0.00000000000E+00 -0.00000000000E+00 -0.84036241293E+03  0.84036241293E+03  0.00000000000E+00 0. -1.
          6    1    1    2  502    0  0.16254495054E+03 -0.20690583369E+03 -0.52764223979E+03  0.61418337503E+03  0.17200000000E+03 0. -1.
         -6    1    1    2    0  501 -0.16254495054E+03  0.20690583369E+03 -0.17776744776E+03  0.36113176327E+03  0.17200000000E+03 0.  1.
</event>
<event>
 4    1  0.3191769E-002  0.2297851E+03  0.7818608E-02  0.1126791E+00
          1   -1    0    0  502    0  0.00000000000E+00  0.00000000000E+00  0.11629187350E+04  0.11629187350E+04  0.00000000000E+00 0. -1.
         -1   -1    0    0    0  501 -0.00000000000E+00 -0.00000000000E+00 -0.45416468909E+02  0.45416468909E+02  0.00000000000E+00 0.  1.
          6    1    1    2  502    0 -0.11563897551E+02 -0.15193240976E+03  0.54874684946E+03  0.59491536007E+03  0.17200000000E+03 0.  1.
         -6    1    1    2    0  501  0.11563897551E+02  0.15193240976E+03  0.56875541664E+03  0.61341984384E+03  0.17200000000E+03 0. -1.
</event>
<event>
 4    1  0.3191769E-002  0.2599865E+03  0.7818608E-02  0.1107151E+00
          2   -1    0    0  502    0  0.00000000000E+00  0.00000000000E+00  0.17848564920E+03  0.17848564920E+03  0.00000000000E+00 0. -1.
         -2   -1    0    0    0  501 -0.00000000000E+00 -0.00000000000E+00 -0.40114751045E+03  0.40114751045E+03  0.00000000000E+00 0.  1.
          6    1    1    2  502    0 -0.33360882679E+02 -0.19208340297E+03 -0.42777378269E+02  0.26348223144E+03  0.17200000000E+03 0. -1.
         -6    1    1    2    0  501  0.33360882679E+02  0.19208340297E+03 -0.17988448299E+03  0.31615092821E+03  0.17200000000E+03 0.  1.
</event>
<event>
 4    1  0.3191769E-002  0.2501016E+03  0.7818608E-02  0.1113241E+00
          2   -1    0    0  502    0  0.00000000000E+00  0.00000000000E+00  0.19178940051E+04  0.19178940051E+04  0.00000000000E+00 0. -1.
         -2   -1    0    0    0  501 -0.00000000000E+00 -0.00000000000E+00 -0.10712706226E+03  0.10712706226E+03  0.00000000000E+00 0.  1.
          6    1    1    2  502    0  0.17915667673E+03  0.29490796245E+02  0.17498164889E+04  0.17675996624E+04  0.17200000000E+03 0. -1.
         -6    1    1    2    0  501 -0.17915667673E+03 -0.29490796245E+02  0.60950453960E+02  0.25742140494E+03  0.17200000000E+03 0.  1.
</event>
<event>
 4    1  0.3191769E-002  0.1766255E+03  0.7818608E-02  0.1171109E+00
         -2   -1    0    0    0  501 -0.00000000000E+00  0.00000000000E+00  0.15194261116E+02  0.15194261116E+02  0.00000000000E+00 0.  1.
          2   -1    0    0  502    0  0.00000000000E+00 -0.00000000000E+00 -0.27400870274E+04  0.27400870274E+04  0.00000000000E+00 0. -1.
          6    1    1    2  502    0 -0.38180325280E+02 -0.12443694561E+02 -0.67267983250E+03  0.69548166031E+03  0.17200000000E+03 0.  1.
         -6    1    1    2    0  501  0.38180325280E+02  0.12443694561E+02 -0.20522129338E+04  0.20597996282E+04  0.17200000000E+03 0. -1.
</event>
<event>
 4    1  0.3191769E-002  0.2457865E+03  0.7818608E-02  0.1115997E+00
          1   -1    0    0  502    0  0.00000000000E+00  0.00000000000E+00  0.51748762124E+03  0.51748762124E+03  0.00000000000E+00 0. -1.
         -1   -1    0    0    0  501 -0.00000000000E+00 -0.00000000000E+00 -0.14675534650E+03  0.14675534650E+03  0.00000000000E+00 0.  1.
          6    1    1    2  502    0  0.13530823555E+03  0.11188689392E+03  0.33556920541E+03  0.41595394848E+03  0.17200000000E+03 0. -1.
         -6    1    1    2    0  501 -0.13530823555E+03 -0.11188689392E+03  0.35163069335E+02  0.24828901926E+03  0.17200000000E+03 0.  1.
</event>
<event>
 4    1  0.3191769E-002  0.2962689E+03  0.7818608E-02  0.1087121E+00
         -2   -1    0    0    0  501 -0.00000000000E+00  0.00000000000E+00  0.32235519954E+03  0.32235519954E+03  0.00000000000E+00 0.  1.
          2   -1    0    0  502    0  0.00000000000E+00 -0.00000000000E+00 -0.27230505994E+03  0.27230505994E+03  0.00000000000E+00 0. -1.
          6    1    1    2  502    0  0.10566112757E+03 -0.21685701717E+03  0.23091512583E+02  0.29716739008E+03  0.17200000000E+03 0. -1.
         -6    1    1    2    0  501 -0.10566112757E+03  0.21685701717E+03  0.26958627018E+02  0.29749286940E+03  0.17200000000E+03 0.  1.
</event>
<event>
 4    1  0.3191769E-002  0.2388538E+03  0.7818608E-02  0.1120559E+00
          1   -1    0    0  502    0  0.00000000000E+00  0.00000000000E+00  0.31060545995E+03  0.31060545995E+03  0.00000000000E+00 0. -1.
         -1   -1    0    0    0  501 -0.00000000000E+00 -0.00000000000E+00 -0.22707090182E+03  0.22707090182E+03  0.00000000000E+00 0.  1.
          6    1    1    2  502    0 -0.13623287722E+00 -0.16573208656E+03  0.15929045668E+03  0.28709683500E+03  0.17200000000E+03 0. -1.
         -6    1    1    2    0  501  0.13623287722E+00  0.16573208656E+03 -0.75755898553E+02  0.25057952678E+03  0.17200000000E+03 0.  1.
</event>
<event>
 4    1  0.3191769E-002  0.2921813E+03  0.7818608E-02  0.1089216E+00
          2   -1    0    0  502    0  0.00000000000E+00  0.00000000000E+00  0.62022373181E+03  0.62022373181E+03  0.00000000000E+00 0. -1.
         -2   -1    0    0    0  501 -0.00000000000E+00 -0.00000000000E+00 -0.14048949975E+03  0.14048949975E+03  0.00000000000E+00 0.  1.
          6    1    1    2  502    0  0.95709259856E+02 -0.21592979271E+03  0.18573372415E+03  0.34621807302E+03  0.17200000000E+03 0.  1.
         -6    1    1    2    0  501 -0.95709259856E+02  0.21592979271E+03  0.29400050791E+03  0.41449515854E+03  0.17200000000E+03 0. -1.
</event>
<event>
 4    1  0.3191769E-002  0.8622958E+03  0.7818608E-02  0.9473981E-01
          2   -1    0    0  502    0  0.00000000000E+00  0.00000000000E+00  0.13864937515E+04  0.13864937515E+04  0.00000000000E+00 0. -1.
         -2   -1    0    0    0  501 -0.00000000000E+00 -0.00000000000E+00 -0.64896523997E+03  0.64896523997E+03  0.00000000000E+00 0.  1.
          6    1    1    2  502    0  0.69404617691E+03 -0.48194392991E+03  0.79284442388E+03  0.11713907665E+04  0.17200000000E+03 0. -1.
         -6    1    1    2    0  501 -0.69404617691E+03  0.48194392991E+03 -0.55315912386E+02  0.86406822499E+03  0.17200000000E+03 0.  1.
</event>
<event>
 4    1  0.3191769E-002  0.1854772E+03  0.7818608E-02  0.1162605E+00
         -2   -1    0    0    0  501 -0.00000000000E+00  0.00000000000E+00  0.46225215734E+02  0.46225215734E+02  0.00000000000E+00 0.  1.
          2   -1    0    0  502    0  0.00000000000E+00 -0.00000000000E+00 -0.74967964226E+03  0.74967964226E+03  0.00000000000E+00 0. -1.
          6    1    1    2  502    0 -0.57369278356E+02  0.39071236408E+02 -0.38568340503E+03  0.42796434960E+03  0.17200000000E+03 0. -1.
         -6    1    1    2    0  501  0.57369278356E+02 -0.39071236408E+02 -0.31777102150E+03  0.36794050839E+03  0.17200000000E+03 0.  1.
</event>
<event>
 4    1  0.3191769E-002  0.2343944E+03  0.7818608E-02  0.1123584E+00
         -2   -1    0    0    0  501 -0.00000000000E+00  0.00000000000E+00  0.26950762105E+03  0.26950762105E+03  0.00000000000E+00 0.  1.
          2   -1    0    0  502    0  0.00000000000E+00 -0.00000000000E+00 -0.80535251304E+03  0.80535251304E+03  0.00000000000E+00 0. -1.
          6    1    1    2  502    0  0.39922435246E+02 -0.15415223253E+03 -0.73237948934E+03  0.76897361986E+03  0.17200000000E+03 0. -1.
         -6    1    1    2    0  501 -0.39922435246E+02  0.15415223253E+03  0.19653459736E+03  0.30588651423E+03  0.17200000000E+03 0.  1.
</event>
<event>
 4    1  0.3191769E-002  0.2484783E+03  0.7818608E-02  0.1114270E+00
          2   -1    0    0  502    0  0.00000000000E+00  0.00000000000E+00  0.10771103181E+04  0.10771103181E+04  0.00000000000E+00 0. -1.
         -2   -1    0    0    0  501 -0.00000000000E+00 -0.00000000000E+00 -0.76891434148E+02  0.76891434148E+02  0.00000000000E+00 0.  1.
          6    1    1    2  502    0 -0.17916670336E+03  0.75331392024E+01  0.79120356968E+03  0.82930365034E+03  0.17200000000E+03 0. -1.
         -6    1    1    2    0  501  0.17916670336E+03 -0.75331392024E+01  0.20901531424E+03  0.32469810188E+03  0.17200000000E+03 0.  1.
</event>
<event>
 4    1  0.3191769E-002  0.4043334E+03  0.7818608E-02  0.1042289E+00
         -2   -1    0    0    0  501 -0.00000000000E+00  0.00000000000E+00  0.29080277514E+03  0.29080277514E+03  0.00000000000E+00 0.  1.
          2   -1    0    0  502    0  0.00000000000E+00 -0.00000000000E+00 -0.90829810144E+03  0.90829810144E+03  0.00000000000E+00 0. -1.
          6    1    1    2  502    0  0.73929582613E+02  0.35837962217E+03 -0.67884784010E+03  0.79013918190E+03  0.17200000000E+03 0. -1.
         -6    1    1    2    0  501 -0.73929582613E+02 -0.35837962217E+03  0.61352513790E+02  0.40896169468E+03  0.17200000000E+03 0.  1.
</event>
<event>
 4    1  0.3191769E-002  0.4606866E+03  0.7818608E-02  0.1024582E+00
          2   -1    0    0  502    0  0.00000000000E+00  0.00000000000E+00  0.97030263020E+03  0.97030263020E+03  0.00000000000E+00 0. -1.
         -2   -1    0    0    0  501 -0.00000000000E+00 -0.00000000000E+00 -0.21876373116E+03  0.21876373116E+03  0.00000000000E+00 0.  1.
          6    1    1    2  502    0 -0.38343263923E+02  0.42565001052E+03  0.36814755639E+03  0.58971583040E+03  0.17200000000E+03 0. -1.
         -6    1    1    2    0  501  0.38343263923E+02 -0.42565001052E+03  0.38339134266E+03  0.59935053097E+03  0.17200000000E+03 0. -1.
</event>
<event>
 4    1  0.3191769E-002  0.2469329E+03  0.7818608E-02  0.1115259E+00
          2   -1    0    0  502    0  0.00000000000E+00  0.00000000000E+00  0.96930494097E+03  0.96930494097E+03  0.00000000000E+00 0. -1.
         -2   -1    0    0    0  501 -0.00000000000E+00 -0.00000000000E+00 -0.70444557640E+02  0.70444557640E+02  0.00000000000E+00 0.  1.
          6    1    1    2  502    0 -0.26942761642E+02  0.17511699075E+03  0.61948779806E+03  0.66688904984E+03  0.17200000000E+03 0. -1.
         -6    1    1    2    0  501  0.26942761642E+02 -0.17511699075E+03  0.27937258527E+03  0.37286044877E+03  0.17200000000E+03 0.  1.
</event>
<event>
 4    1  0.3191769E-002  0.1932239E+03  0.7818608E-02  0.1155585E+00
         -1   -1    0    0    0  501 -0.00000000000E+00  0.00000000000E+00  0.23002899700E+02  0.23002899700E+02  0.00000000000E+00 0.  1.
          1   -1    0    0  502    0  0.00000000000E+00 -0.00000000000E+00 -0.22911897574E+04  0.22911897574E+04  0.00000000000E+00 0. -1.
          6    1    1    2  502    0 -0.86325614925E+02  0.17302607804E+02 -0.17589260026E+04  0.17695073254E+04  0.17200000000E+03 0. -1.
         -6    1    1    2    0  501  0.86325614925E+02 -0.17302607804E+02 -0.50926085509E+03  0.54468533169E+03  0.17200000000E+03 0.  1.
</event>
<event>
 4    1  0.3191769E-002  0.2042246E+03  0.7818608E-02  0.1146223E+00
         -3   -1    0    0    0  501 -0.00000000000E+00  0.00000000000E+00  0.53311137378E+02  0.53311137378E+02  0.00000000000E+00 0.  1.
          3   -1    0    0  502    0  0.00000000000E+00 -0.00000000000E+00 -0.79675595219E+03  0.79675595219E+03  0.00000000000E+00 0. -1.
          6    1    1    2  502    0 -0.36146958340E+02 -0.10400525749E+03 -0.42888454580E+03  0.47502594646E+03  0.17200000000E+03 0.  1.
         -6    1    1    2    0  501  0.36146958340E+02  0.10400525749E+03 -0.31456026902E+03  0.37504114311E+03  0.17200000000E+03 0. -1.
</event>
<event>
 4    1  0.3191769E-002  0.2544202E+03  0.7818608E-02  0.1110543E+00
         -2   -1    0    0    0  501 -0.00000000000E+00  0.00000000000E+00  0.18888064359E+03  0.18888064359E+03  0.00000000000E+00 0.  1.
          2   -1    0    0  502    0  0.00000000000E+00 -0.00000000000E+00 -0.39142786830E+03  0.39142786830E+03  0.00000000000E+00 0. -1.
          6    1    1    2  502    0  0.13889168627E+03 -0.12591565549E+03  0.10994592868E+01  0.25442260438E+03  0.17200000000E+03 0. -1.
         -6    1    1    2    0  501 -0.13889168627E+03  0.12591565549E+03 -0.20364668399E+03  0.32588590751E+03  0.17200000000E+03 0. -1.
</event>
<event>
 4    1  0.3191769E-002  0.2431675E+03  0.7818608E-02  0.1117701E+00
          1   -1    0    0  502    0  0.00000000000E+00  0.00000000000E+00  0.57710407369E+03  0.57710407369E+03  0.00000000000E+00 0. -1.
         -1   -1    0    0    0  501 -0.00000000000E+00 -0.00000000000E+00 -0.38790390064E+03  0.38790390064E+03  0.00000000000E+00 0.  1.
          6    1    1    2  502    0 -0.44848684603E+02 -0.16593685710E+03  0.50850324461E+03  0.56365414470E+03  0.17200000000E+03 0. -1.
         -6    1    1    2    0  501  0.44848684603E+02  0.16593685710E+03 -0.31930307156E+03  0.40135382964E+03  0.17200000000E+03 0.  1.
</event>
<event>
 4    1  0.3191769E-002  0.3031889E+03  0.7818608E-02  0.1083657E+00
         -2   -1    0    0    0  501 -0.00000000000E+00  0.00000000000E+00  0.16313688154E+03  0.16313688154E+03  0.00000000000E+00 0.  1.
          2   -1    0    0  502    0  0.00000000000E+00 -0.00000000000E+00 -0.56808884538E+03  0.56808884538E+03  0.00000000000E+00 0. -1.
          6    1    1    2  502    0  0.11605236029E+03 -0.22106874220E+03 -0.23542551356E+03  0.38386027606E+03  0.17200000000E+03 0. -1.
         -6    1    1    2    0  501 -0.11605236029E+03  0.22106874220E+03 -0.16952645028E+03  0.34736545086E+03  0.17200000000E+03 0.  1.
</event>
<event>
 4    1  0.3191769E-002  0.3549488E+03  0.7818608E-02  0.1060602E+00
         -2   -1    0    0    0  501 -0.00000000000E+00  0.00000000000E+00  0.29993939269E+03  0.29993939269E+03  0.00000000000E+00 0.  1.
          2   -1    0    0  502    0  0.00000000000E+00 -0.00000000000E+00 -0.43284999458E+03  0.43284999458E+03  0.00000000000E+00 0. -1.
          6    1    1    2  502    0  0.18517967440E+03 -0.24922512987E+03 -0.12946889687E+03  0.37782386429E+03  0.17200000000E+03 0. -1.
         -6    1    1    2    0  501 -0.18517967440E+03  0.24922512987E+03 -0.34417050260E+01  0.35496552298E+03  0.17200000000E+03 0.  1.
</event>
<event>
 4    1  0.3191769E-002  0.1774521E+03  0.7818608E-02  0.1170292E+00
         -1   -1    0    0    0  501 -0.00000000000E+00  0.00000000000E+00  0.35268962595E+02  0.35268962595E+02  0.00000000000E+00 0.  1.
          1   -1    0    0  502    0  0.00000000000E+00 -0.00000000000E+00 -0.11102504050E+04  0.11102504050E+04  0.00000000000E+00 0. -1.
          6    1    1    2  502    0  0.14698232975E+02  0.41099812068E+02 -0.79095155199E+03  0.81061309526E+03  0.17200000000E+03 0. -1.
         -6    1    1    2    0  501 -0.14698232975E+02 -0.41099812068E+02 -0.28402989042E+03  0.33490627235E+03  0.17200000000E+03 0.  1.
</event>
<event>
 4    1  0.3191769E-002  0.2083885E+03  0.7818608E-02  0.1142849E+00
         -3   -1    0    0    0  501 -0.00000000000E+00  0.00000000000E+00  0.12203734518E+04  0.12203734518E+04  0.00000000000E+00 0.  1.
          3   -1    0    0  502    0  0.00000000000E+00 -0.00000000000E+00 -0.30108176075E+03  0.30108176075E+03  0.00000000000E+00 0. -1.
          6    1    1    2  502    0 -0.93394679349E+02  0.71548467318E+02 -0.25471459696E+03  0.32909766819E+03  0.17200000000E+03 0. -1.
         -6    1    1    2    0  501  0.93394679349E+02 -0.71548467318E+02  0.11740062880E+04  0.11923575443E+04  0.17200000000E+03 0.  1.
</event>
<event>
 4    1  0.3191769E-002  0.1149917E+04  0.7818608E-02  0.9157860E-01
         -2   -1    0    0    0  501 -0.00000000000E+00  0.00000000000E+00  0.18553792255E+04  0.18553792255E+04  0.00000000000E+00 0.  1.
          2   -1    0    0  502    0  0.00000000000E+00 -0.00000000000E+00 -0.71620046790E+03  0.71620046790E+03  0.00000000000E+00 0. -1.
          6    1    1    2  502    0  0.69090964993E+03 -0.90297736657E+03  0.47955668575E+03  0.12459064506E+04  0.17200000000E+03 0. -1.
         -6    1    1    2    0  501 -0.69090964993E+03  0.90297736657E+03  0.65962207185E+03  0.13256732428E+04  0.17200000000E+03 0.  1.
</event>
<event>
 4    1  0.3191769E-002  0.2085019E+03  0.7818608E-02  0.1142758E+00
          2   -1    0    0  502    0  0.00000000000E+00  0.00000000000E+00  0.10011881267E+04  0.10011881267E+04  0.00000000000E+00 0. -1.
         -2   -1    0    0    0  501 -0.00000000000E+00 -0.00000000000E+00 -0.43507889268E+02  0.43507889268E+02  0.00000000000E+00 0.  1.
          6    1    1    2  502    0  0.86145010914E+02 -0.80424362667E+02  0.50212260677E+03  0.54369122969E+03  0.17200000000E+03 0. -1.
         -6    1    1    2    0  501 -0.86145010914E+02  0.80424362667E+02  0.45555763067E+03  0.50100478628E+03  0.17200000000E+03 0.  1.
</event>
<event>
 4    1  0.3191769E-002  0.1742641E+03  0.7818608E-02  0.1173473E+00
         -2   -1    0    0    0  501 -0.00000000000E+00  0.00000000000E+00  0.38199483411E+02  0.38199483411E+02  0.00000000000E+00 0.  1.
          2   -1    0    0  502    0  0.00000000000E+00 -0.00000000000E+00 -0.16165165763E+04  0.16165165763E+04  0.00000000000E+00 0. -1.
          6    1    1    2  502    0  0.58240203069E+01  0.27386945002E+02 -0.13789736610E+04  0.13899411217E+04  0.17200000000E+03 0. -1.
         -6    1    1    2    0  501 -0.58240203069E+01 -0.27386945002E+02 -0.19934343182E+03  0.26477493797E+03  0.17200000000E+03 0.  1.
</event>
<event>
 4    1  0.3191769E-002  0.1948949E+03  0.7818608E-02  0.1154119E+00
         -1   -1    0    0    0  501 -0.00000000000E+00  0.00000000000E+00  0.33602265423E+02  0.33602265423E+02  0.00000000000E+00 0.  1.
          1   -1    0    0  502    0  0.00000000000E+00 -0.00000000000E+00 -0.12122235592E+04  0.12122235592E+04  0.00000000000E+00 0. -1.
          6    1    1    2  502    0 -0.29316792717E+01 -0.91604635794E+02 -0.75114656030E+03  0.77601878785E+03  0.17200000000E+03 0. -1.
         -6    1    1    2    0  501  0.29316792717E+01  0.91604635794E+02 -0.42747473348E+03  0.46980703678E+03  0.17200000000E+03 0.  1.
</event>
<event>
 4    1  0.3191769E-002  0.3221740E+03  0.7818608E-02  0.1074653E+00
         -2   -1    0    0    0  501 -0.00000000000E+00  0.00000000000E+00  0.14296517723E+03  0.14296517723E+03  0.00000000000E+00 0.  1.
          2   -1    0    0  502    0  0.00000000000E+00 -0.00000000000E+00 -0.18062489995E+04  0.18062489995E+04  0.00000000000E+00 0. -1.
          6    1    1    2  502    0  0.20680958704E+03 -0.17731862302E+03 -0.15853409108E+04  0.16177459327E+04  0.17200000000E+03 0. -1.
         -6    1    1    2    0  501 -0.20680958704E+03  0.17731862302E+03 -0.77942911496E+02  0.33146824405E+03  0.17200000000E+03 0.  1.
</event>
<event>
 4    1  0.3191769E-002  0.2534853E+03  0.7818608E-02  0.1111122E+00
          2   -1    0    0  502    0  0.00000000000E+00  0.00000000000E+00  0.33952830403E+04  0.33952830403E+04  0.00000000000E+00 0. -1.
         -2   -1    0    0    0  501 -0.00000000000E+00 -0.00000000000E+00 -0.21180449841E+02  0.21180449841E+02  0.00000000000E+00 0.  1.
          6    1    1    2  502    0 -0.18111652220E+03  0.43215876984E+02  0.22445219487E+04  0.22587902924E+04  0.17200000000E+03 0. -1.
         -6    1    1    2    0  501  0.18111652220E+03 -0.43215876984E+02  0.11295806418E+04  0.11576731978E+04  0.17200000000E+03 0.  1.
</event>
<event>
 4    1  0.3191769E-002  0.5607440E+03  0.7818608E-02  0.9990373E-01
         -1   -1    0    0    0  501 -0.00000000000E+00  0.00000000000E+00  0.29944339040E+03  0.29944339040E+03  0.00000000000E+00 0.  1.
          1   -1    0    0  502    0  0.00000000000E+00 -0.00000000000E+00 -0.10552577363E+04  0.10552577363E+04  0.00000000000E+00 0. -1.
          6    1    1    2  502    0  0.15315590971E+03 -0.51126619798E+03 -0.42544016052E+03  0.70387015000E+03  0.17200000000E+03 0. -1.
         -6    1    1    2    0  501 -0.15315590971E+03  0.51126619798E+03 -0.33037418539E+03  0.65083097671E+03  0.17200000000E+03 0.  1.
</event>
<event>
 4    1  0.3191769E-002  0.4460169E+03  0.7818608E-02  0.1028917E+00
         -2   -1    0    0    0  501 -0.00000000000E+00  0.00000000000E+00  0.37789273438E+03  0.37789273438E+03  0.00000000000E+00 0.  1.
          2   -1    0    0  502    0  0.00000000000E+00 -0.00000000000E+00 -0.88111110745E+03  0.88111110745E+03  0.00000000000E+00 0. -1.
          6    1    1    2  502    0  0.12471000674E+03 -0.39216638724E+03 -0.65100694933E+03  0.78913947381E+03  0.17200000000E+03 0. -1.
         -6    1    1    2    0  501 -0.12471000674E+03  0.39216638724E+03  0.14778857625E+03  0.46986436801E+03  0.17200000000E+03 0.  1.
</event>
<event>
 4    1  0.3191769E-002  0.1951324E+03  0.7818608E-02  0.1153912E+00
         -2   -1    0    0    0  501 -0.00000000000E+00  0.00000000000E+00  0.81850651864E+02  0.81850651864E+02  0.00000000000E+00 0.  1.
          2   -1    0    0  502    0  0.00000000000E+00 -0.00000000000E+00 -0.61384253395E+03  0.61384253395E+03  0.00000000000E+00 0. -1.
          6    1    1    2  502    0  0.54678768652E+02  0.74181511845E+02 -0.43716900880E+03  0.47874148211E+03  0.17200000000E+03 0. -1.
         -6    1    1    2    0  501 -0.54678768652E+02 -0.74181511845E+02 -0.94822873289E+02  0.21695170370E+03  0.17200000000E+03 0.  1.
</event>
<event>
 4    1  0.3191769E-002  0.1932352E+03  0.7818608E-02  0.1155575E+00
         -1   -1    0    0    0  501 -0.00000000000E+00  0.00000000000E+00  0.40512457007E+03  0.40512457007E+03  0.00000000000E+00 0.  1.
          1   -1    0    0  502    0  0.00000000000E+00 -0.00000000000E+00 -0.92610811561E+02  0.92610811561E+02  0.00000000000E+00 0. -1.
          6    1    1    2  502    0 -0.47399623223E+02  0.74223337498E+02  0.17345082460E+03  0.25966327554E+03  0.17200000000E+03 0.  1.
         -6    1    1    2    0  501  0.47399623223E+02 -0.74223337498E+02  0.13906293391E+03  0.23807210609E+03  0.17200000000E+03 0.  1.
</event>
<event>
 4    1  0.3191769E-002  0.4784614E+03  0.7818608E-02  0.1019559E+00
          2   -1    0    0  502    0  0.00000000000E+00  0.00000000000E+00  0.91777353821E+03  0.91777353821E+03  0.00000000000E+00 0. -1.
         -2   -1    0    0    0  501 -0.00000000000E+00 -0.00000000000E+00 -0.35590442833E+03  0.35590442833E+03  0.00000000000E+00 0.  1.
          6    1    1    2  502    0 -0.38973910560E+03 -0.21781823103E+03  0.62925123546E+03  0.79049507875E+03  0.17200000000E+03 0. -1.
         -6    1    1    2    0  501  0.38973910560E+03  0.21781823103E+03 -0.67382125578E+02  0.48318288779E+03  0.17200000000E+03 0.  1.
</event>
<event>
 4    1  0.3191769E-002  0.2604691E+03  0.7818608E-02  0.1106862E+00
          2   -1    0    0  502    0  0.00000000000E+00  0.00000000000E+00  0.27420292918E+04  0.27420292918E+04  0.00000000000E+00 0. -1.
         -2   -1    0    0    0  501 -0.00000000000E+00 -0.00000000000E+00 -0.12253514504E+03  0.12253514504E+03  0.00000000000E+00 0.  1.
          6    1    1    2  502    0  0.52963336718E+02  0.18829506736E+03  0.25892809156E+04  0.26023489019E+04  0.17200000000E+03 0. -1.
         -6    1    1    2    0  501 -0.52963336718E+02 -0.18829506736E+03  0.30213231172E+02  0.26221553494E+03  0.17200000000E+03 0.  1.
</event>
<event>
 4    1  0.3191769E-002  0.3462038E+03  0.7818608E-02  0.1064184E+00
          1   -1    0    0  502    0  0.00000000000E+00  0.00000000000E+00  0.12431684594E+04  0.12431684594E+04  0.00000000000E+00 0. -1.
         -1   -1    0    0    0  501 -0.00000000000E+00 -0.00000000000E+00 -0.96652507821E+02  0.96652507821E+02  0.00000000000E+00 0.  1.
          6    1    1    2  502    0 -0.20415391823E+02 -0.29976038217E+03  0.60663542456E+03  0.69847234252E+03  0.17200000000E+03 0. -1.
         -6    1    1    2    0  501  0.20415391823E+02  0.29976038217E+03  0.53988052700E+03  0.64134862468E+03  0.17200000000E+03 0.  1.
</event>
<event>
 4    1  0.3191769E-002  0.3953915E+03  0.7818608E-02  0.1045387E+00
          3   -1    0    0  502    0  0.00000000000E+00  0.00000000000E+00  0.65043720826E+03  0.65043720826E+03  0.00000000000E+00 0. -1.
         -3   -1    0    0    0  501 -0.00000000000E+00 -0.00000000000E+00 -0.37627452461E+03  0.37627452461E+03  0.00000000000E+00 0.  1.
          6    1    1    2  502    0  0.28003146103E+03 -0.21984727128E+03  0.44562062573E+03  0.59574506622E+03  0.17200000000E+03 0. -1.
         -6    1    1    2    0  501 -0.28003146103E+03  0.21984727128E+03 -0.17145794208E+03  0.43096666664E+03  0.17200000000E+03 0.  1.
</event>
<event>
 4    1  0.3191769E-002  0.2800679E+03  0.7818608E-02  0.1095652E+00
          1   -1    0    0  502    0  0.00000000000E+00  0.00000000000E+00  0.10812368200E+04  0.10812368200E+04  0.00000000000E+00 0. -1.
         -1   -1    0    0    0  501 -0.00000000000E+00 -0.00000000000E+00 -0.76012075320E+02  0.76012075320E+02  0.00000000000E+00 0.  1.
          6    1    1    2  502    0 -0.80548187283E+02  0.20583001884E+03  0.37903028084E+03  0.47127694716E+03  0.17200000000E+03 0. -1.
         -6    1    1    2    0  501  0.80548187283E+02 -0.20583001884E+03  0.62619446389E+03  0.68597194821E+03  0.17200000000E+03 0.  1.
</event>
<event>
 4    1  0.3191769E-002  0.2386815E+03  0.7818608E-02  0.1120674E+00
         -1   -1    0    0    0  501 -0.00000000000E+00  0.00000000000E+00  0.44622120146E+04  0.44622120146E+04  0.00000000000E+00 0.  1.
          1   -1    0    0  502    0  0.00000000000E+00 -0.00000000000E+00 -0.13158804909E+02  0.13158804909E+02  0.00000000000E+00 0. -1.
          6    1    1    2  502    0  0.10667373351E+03 -0.12651315799E+03  0.18383818741E+04  0.18538114196E+04  0.17200000000E+03 0. -1.
         -6    1    1    2    0  501 -0.10667373351E+03  0.12651315799E+03  0.26106713356E+04  0.26215593999E+04  0.17200000000E+03 0.  1.
</event>
<event>
 4    1  0.3191769E-002  0.1913919E+03  0.7818608E-02  0.1157212E+00
         -1   -1    0    0    0  501 -0.00000000000E+00  0.00000000000E+00  0.17455104247E+03  0.17455104247E+03  0.00000000000E+00 0.  1.
          1   -1    0    0  502    0  0.00000000000E+00 -0.00000000000E+00 -0.23081171046E+03  0.23081171046E+03  0.00000000000E+00 0. -1.
          6    1    1    2  502    0  0.83706784359E+02 -0.63265387835E+01 -0.89199255854E+02  0.21115718810E+03  0.17200000000E+03 0. -1.
         -6    1    1    2    0  501 -0.83706784359E+02  0.63265387835E+01  0.32938587865E+02  0.19420556483E+03  0.17200000000E+03 0.  1.
</event>
<event>
 4    1  0.3191769E-002  0.2528287E+03  0.7818608E-02  0.1111530E+00
         -2   -1    0    0    0  501 -0.00000000000E+00  0.00000000000E+00  0.65002996434E+03  0.65002996434E+03  0.00000000000E+00 0.  1.
          2   -1    0    0  502    0  0.00000000000E+00 -0.00000000000E+00 -0.22962235149E+03  0.22962235149E+03  0.00000000000E+00 0. -1.
          6    1    1    2  502    0 -0.15474711433E+03 -0.10193965507E+03 -0.12236474504E+03  0.28088341621E+03  0.17200000000E+03 0. -1.
         -6    1    1    2    0  501  0.15474711433E+03  0.10193965507E+03  0.54277235788E+03  0.59876889962E+03  0.17200000000E+03 0.  1.
</event>
<event>
 4    1  0.3191769E-002  0.1881652E+03  0.7818608E-02  0.1160127E+00
         -3   -1    0    0    0  501 -0.00000000000E+00  0.00000000000E+00  0.68816150757E+02  0.68816150757E+02  0.00000000000E+00 0.  1.
          3   -1    0    0  502    0  0.00000000000E+00 -0.00000000000E+00 -0.66039230558E+03  0.66039230558E+03  0.00000000000E+00 0. -1.
          6    1    1    2  502    0  0.27978927668E+02 -0.70988084653E+02 -0.12441911955E+03  0.22557979933E+03  0.17200000000E+03 0.  1.
         -6    1    1    2    0  501 -0.27978927668E+02  0.70988084653E+02 -0.46715703526E+03  0.50362865700E+03  0.17200000000E+03 0. -1.
</event>
<event>
 4    1  0.3191769E-002  0.3592285E+03  0.7818608E-02  0.1058890E+00
          2   -1    0    0  502    0  0.00000000000E+00  0.00000000000E+00  0.11269440768E+04  0.11269440768E+04  0.00000000000E+00 0. -1.
         -2   -1    0    0    0  501 -0.00000000000E+00 -0.00000000000E+00 -0.20382295593E+03  0.20382295593E+03  0.00000000000E+00 0.  1.
          6    1    1    2  502    0 -0.16235536421E+03  0.27037349488E+03  0.90201954454E+03  0.97091933225E+03  0.17200000000E+03 0. -1.
         -6    1    1    2    0  501  0.16235536421E+03 -0.27037349488E+03  0.21101576341E+02  0.35984770048E+03  0.17200000000E+03 0.  1.
</event>
<event>
 4    1  0.3191769E-002  0.4617771E+03  0.7818608E-02  0.1024267E+00
         -1   -1    0    0    0  501 -0.00000000000E+00  0.00000000000E+00  0.33028329954E+03  0.33028329954E+03  0.00000000000E+00 0.  1.
          1   -1    0    0  502    0  0.00000000000E+00 -0.00000000000E+00 -0.17294763162E+04  0.17294763162E+04  0.00000000000E+00 0. -1.
          6    1    1    2  502    0  0.12223581571E+03  0.41074621969E+03 -0.15148914689E+04  0.15837090055E+04  0.17200000000E+03 0. -1.
         -6    1    1    2    0  501 -0.12223581571E+03 -0.41074621969E+03  0.11569845224E+03  0.47605061021E+03  0.17200000000E+03 0.  1.
</event>
<event>
 4    1  0.3191769E-002  0.1746910E+03  0.7818608E-02  0.1173042E+00
          2   -1    0    0  502    0  0.00000000000E+00  0.00000000000E+00  0.11866234026E+04  0.11866234026E+04  0.00000000000E+00 0. -1.
         -2   -1    0    0    0  501 -0.00000000000E+00 -0.00000000000E+00 -0.25979490168E+02  0.25979490168E+02  0.00000000000E+00 0.  1.
          6    1    1    2  502    0 -0.30319688419E+02  0.36963879075E+01  0.64121169652E+03  0.66458211422E+03  0.17200000000E+03 0. -1.
         -6    1    1    2    0  501  0.30319688419E+02 -0.36963879075E+01  0.51943221588E+03  0.54802077851E+03  0.17200000000E+03 0.  1.
</event>
<event>
 4    1  0.3191769E-002  0.2041605E+03  0.7818608E-02  0.1146276E+00
          2   -1    0    0  502    0  0.00000000000E+00  0.00000000000E+00  0.92454628276E+03  0.92454628276E+03  0.00000000000E+00 0. -1.
         -2   -1    0    0    0  501 -0.00000000000E+00 -0.00000000000E+00 -0.48230313521E+02  0.48230313521E+02  0.00000000000E+00 0.  1.
          6    1    1    2  502    0  0.23967953840E+02 -0.10734536309E+03  0.56240341169E+03  0.59831353592E+03  0.17200000000E+03 0. -1.
         -6    1    1    2    0  501 -0.23967953840E+02  0.10734536309E+03  0.31391255756E+03  0.37446306037E+03  0.17200000000E+03 0.  1.
</event>
<event>
 4    1  0.3191769E-002  0.1751005E+03  0.7818608E-02  0.1172631E+00
          2   -1    0    0  502    0  0.00000000000E+00  0.00000000000E+00  0.11432861771E+04  0.11432861771E+04  0.00000000000E+00 0. -1.
         -2   -1    0    0    0  501 -0.00000000000E+00 -0.00000000000E+00 -0.45515878617E+02  0.45515878617E+02  0.00000000000E+00 0.  1.
          6    1    1    2  502    0  0.32633188786E+02 -0.33566451923E+01  0.92986226785E+03  0.94620506723E+03  0.17200000000E+03 0. -1.
         -6    1    1    2    0  501 -0.32633188786E+02  0.33566451923E+01  0.16790803066E+03  0.24259698852E+03  0.17200000000E+03 0.  1.
</event>
<event>
 4    1  0.3191769E-002  0.2605515E+03  0.7818608E-02  0.1106812E+00
         -2   -1    0    0    0  501 -0.00000000000E+00  0.00000000000E+00  0.85958274761E+02  0.85958274761E+02  0.00000000000E+00 0.  1.
          2   -1    0    0  502    0  0.00000000000E+00 -0.00000000000E+00 -0.92259475001E+03  0.92259475001E+03  0.00000000000E+00 0. -1.
          6    1    1    2  502    0 -0.48043745047E+02  0.18972312700E+03 -0.22697788756E+03  0.34555177296E+03  0.17200000000E+03 0. -1.
         -6    1    1    2    0  501  0.48043745047E+02 -0.18972312700E+03 -0.60965858769E+03  0.66300125181E+03  0.17200000000E+03 0. -1.
</event>
<event>
 4    1  0.3191769E-002  0.1760635E+03  0.7818608E-02  0.1171668E+00
         -2   -1    0    0    0  501 -0.00000000000E+00  0.00000000000E+00  0.14532312824E+03  0.14532312824E+03  0.00000000000E+00 0.  1.
          2   -1    0    0  502    0  0.00000000000E+00 -0.00000000000E+00 -0.23417026272E+03  0.23417026272E+03  0.00000000000E+00 0. -1.
          6    1    1    2  502    0 -0.45890486810E+01 -0.37327050040E+02 -0.10106114276E+03  0.20300670582E+03  0.17200000000E+03 0. -1.
         -6    1    1    2    0  501  0.45890486810E+01  0.37327050040E+02  0.12214008288E+02  0.17648668514E+03  0.17200000000E+03 0.  1.
</event>
<event>
 4    1  0.3191769E-002  0.2084971E+03  0.7818608E-02  0.1142762E+00
         -2   -1    0    0    0  501 -0.00000000000E+00  0.00000000000E+00  0.45242918449E+02  0.45242918449E+02  0.00000000000E+00 0.  1.
          2   -1    0    0  502    0  0.00000000000E+00 -0.00000000000E+00 -0.14963995269E+04  0.14963995269E+04  0.00000000000E+00 0. -1.
          6    1    1    2  502    0 -0.56292569514E+02  0.10352864735E+03 -0.26443565060E+03  0.33674507793E+03  0.17200000000E+03 0.  1.
         -6    1    1    2    0  501  0.56292569514E+02 -0.10352864735E+03 -0.11867209579E+04  0.12048973674E+04  0.17200000000E+03 0. -1.
</event>
<event>
 4    1  0.3191769E-002  0.2676054E+03  0.7818608E-02  0.1102658E+00
         -1   -1    0    0    0  501 -0.00000000000E+00  0.00000000000E+00  0.35796432302E+03  0.35796432302E+03  0.00000000000E+00 0.  1.
          1   -1    0    0  502    0  0.00000000000E+00 -0.00000000000E+00 -0.23195151225E+03  0.23195151225E+03  0.00000000000E+00 0. -1.
          6    1    1    2  502    0 -0.14251487261E+03 -0.14737091613E+03 -0.46371779028E+02  0.27159347880E+03  0.17200000000E+03 0. -1.
         -6    1    1    2    0  501  0.14251487261E+03  0.14737091613E+03  0.17238458979E+03  0.31832235648E+03  0.17200000000E+03 0.  1.
</event>
<event>
 4    1  0.3191769E-002  0.1845208E+03  0.7818608E-02  0.1163498E+00
         -1   -1    0    0    0  501 -0.00000000000E+00  0.00000000000E+00  0.41243513578E+02  0.41243513578E+02  0.00000000000E+00 0.  1.
          1   -1    0    0  502    0  0.00000000000E+00 -0.00000000000E+00 -0.88466883522E+03  0.88466883522E+03  0.00000000000E+00 0. -1.
          6    1    1    2  502    0 -0.55077460052E+01  0.66585123866E+02 -0.54140655346E+03  0.57198686184E+03  0.17200000000E+03 0. -1.
         -6    1    1    2    0  501  0.55077460052E+01 -0.66585123866E+02 -0.30201876819E+03  0.35392548697E+03  0.17200000000E+03 0.  1.
</event>
<event>
 4    1  0.3191769E-002  0.1838192E+03  0.7818608E-02  0.1164157E+00
          1   -1    0    0  502    0  0.00000000000E+00  0.00000000000E+00  0.19048279843E+04  0.19048279843E+04  0.00000000000E+00 0. -1.
         -1   -1    0    0    0  501 -0.00000000000E+00 -0.00000000000E+00 -0.18553213598E+02  0.18553213598E+02  0.00000000000E+00 0.  1.
          6    1    1    2  502    0 -0.46599150849E+02 -0.45099938461E+02  0.11446170114E+04  0.11592832217E+04  0.17200000000E+03 0. -1.
         -6    1    1    2    0  501  0.46599150849E+02  0.45099938461E+02  0.74165775929E+03  0.76409797619E+03  0.17200000000E+03 0.  1.
</event>
<event>
 4    1  0.3191769E-002  0.2080062E+03  0.7818608E-02  0.1143155E+00
          2   -1    0    0  502    0  0.00000000000E+00  0.00000000000E+00  0.21920551987E+03  0.21920551987E+03  0.00000000000E+00 0. -1.
         -2   -1    0    0    0  501 -0.00000000000E+00 -0.00000000000E+00 -0.20196866289E+03  0.20196866289E+03  0.00000000000E+00 0.  1.
          6    1    1    2  502    0 -0.50859921392E+02  0.10533674796E+03  0.40363847060E+02  0.21188629551E+03  0.17200000000E+03 0. -1.
         -6    1    1    2    0  501  0.50859921392E+02 -0.10533674796E+03 -0.23126990080E+02  0.20928788724E+03  0.17200000000E+03 0.  1.
</event>
<event>
 4    1  0.3191769E-002  0.5854602E+03  0.7818608E-02  0.9936039E-01
         -2   -1    0    0    0  501 -0.00000000000E+00  0.00000000000E+00  0.23684134843E+03  0.23684134843E+03  0.00000000000E+00 0.  1.
          2   -1    0    0  502    0  0.00000000000E+00 -0.00000000000E+00 -0.23072698182E+04  0.23072698182E+04  0.00000000000E+00 0. -1.
          6    1    1    2  502    0 -0.50148354828E+03  0.24838254479E+03 -0.18118483430E+04  0.19040898235E+04  0.17200000000E+03 0. -1.
         -6    1    1    2    0  501  0.50148354828E+03 -0.24838254479E+03 -0.25858012677E+03  0.64002134317E+03  0.17200000000E+03 0.  1.
</event>
<event>
 4    1  0.3191769E-002  0.2794630E+03  0.7818608E-02  0.1095983E+00
         -2   -1    0    0    0  501 -0.00000000000E+00  0.00000000000E+00  0.25084809707E+03  0.25084809707E+03  0.00000000000E+00 0.  1.
          2   -1    0    0  502    0  0.00000000000E+00 -0.00000000000E+00 -0.63907409070E+03  0.63907409070E+03  0.00000000000E+00 0. -1.
          6    1    1    2  502    0  0.20268042944E+03 -0.86233467368E+02 -0.51275708654E+03  0.58396866112E+03  0.17200000000E+03 0. -1.
         -6    1    1    2    0  501 -0.20268042944E+03  0.86233467368E+02  0.12453109291E+03  0.30595352666E+03  0.17200000000E+03 0.  1.
</event>
<event>
 4    1  0.3191769E-002  0.3055137E+03  0.7818608E-02  0.1082516E+00
          1   -1    0    0  502    0  0.00000000000E+00  0.00000000000E+00  0.64827533989E+03  0.64827533989E+03  0.00000000000E+00 0. -1.
         -1   -1    0    0    0  501 -0.00000000000E+00 -0.00000000000E+00 -0.14400529321E+03  0.14400529321E+03  0.00000000000E+00 0.  1.
          6    1    1    2  502    0 -0.12426542282E+03  0.21980158042E+03  0.24687645533E+03  0.39279334803E+03  0.17200000000E+03 0. -1.
         -6    1    1    2    0  501  0.12426542282E+03 -0.21980158042E+03  0.25739359135E+03  0.39948728507E+03  0.17200000000E+03 0.  1.
</event>
<event>
 4    1  0.3191769E-002  0.2876007E+03  0.7818608E-02  0.1091609E+00
         -2   -1    0    0    0  501 -0.00000000000E+00  0.00000000000E+00  0.89969520702E+02  0.89969520702E+02  0.00000000000E+00 0.  1.
          2   -1    0    0  502    0  0.00000000000E+00 -0.00000000000E+00 -0.13807659802E+04  0.13807659802E+04  0.00000000000E+00 0. -1.
          6    1    1    2  502    0  0.18209198958E+03  0.14132472500E+03 -0.22030201450E+03  0.36228048272E+03  0.17200000000E+03 0. -1.
         -6    1    1    2    0  501 -0.18209198958E+03 -0.14132472500E+03 -0.10704944450E+04  0.11084550182E+04  0.17200000000E+03 0. -1.
</event>
<event>
 4    1  0.3191769E-002  0.2050229E+03  0.7818608E-02  0.1145569E+00
         -1   -1    0    0    0  501 -0.00000000000E+00  0.00000000000E+00  0.12745285184E+03  0.12745285184E+03  0.00000000000E+00 0.  1.
          1   -1    0    0  502    0  0.00000000000E+00 -0.00000000000E+00 -0.15582668309E+04  0.15582668309E+04  0.00000000000E+00 0. -1.
          6    1    1    2  502    0 -0.72505023581E+02 -0.84814050615E+02 -0.14637755612E+04  0.14780640363E+04  0.17200000000E+03 0. -1.
         -6    1    1    2    0  501  0.72505023581E+02  0.84814050615E+02  0.32961582142E+02  0.20765564650E+03  0.17200000000E+03 0.  1.
</event>
<event>
 4    1  0.3191769E-002  0.2134943E+03  0.7818608E-02  0.1138828E+00
         -1   -1    0    0    0  501 -0.00000000000E+00  0.00000000000E+00  0.92596497022E+02  0.92596497022E+02  0.00000000000E+00 0.  1.
          1   -1    0    0  502    0  0.00000000000E+00 -0.00000000000E+00 -0.67854728559E+03  0.67854728559E+03  0.00000000000E+00 0. -1.
          6    1    1    2  502    0 -0.19038281198E+02 -0.12503346462E+03 -0.49501135111E+03  0.53908817567E+03  0.17200000000E+03 0. -1.
         -6    1    1    2    0  501  0.19038281198E+02  0.12503346462E+03 -0.90939437458E+02  0.23205560694E+03  0.17200000000E+03 0.  1.
</event>
<event>
 4    1  0.3191769E-002  0.3171150E+03  0.7818608E-02  0.1076985E+00
          1   -1    0    0  502    0  0.00000000000E+00  0.00000000000E+00  0.13569849311E+04  0.13569849311E+04  0.00000000000E+00 0. -1.
         -1   -1    0    0    0  501 -0.00000000000E+00 -0.00000000000E+00 -0.75259612307E+02  0.75259612307E+02  0.00000000000E+00 0.  1.
          6    1    1    2  502    0 -0.68646824246E+02 -0.25742095070E+03  0.72949018730E+03  0.79543564524E+03  0.17200000000E+03 0. -1.
         -6    1    1    2    0  501  0.68646824246E+02  0.25742095070E+03  0.55223513150E+03  0.63680889818E+03  0.17200000000E+03 0.  1.
</event>
<event>
 4    1  0.3191769E-002  0.2233986E+03  0.7818608E-02  0.1131374E+00
         -2   -1    0    0    0  501 -0.00000000000E+00  0.00000000000E+00  0.37378171786E+02  0.37378171786E+02  0.00000000000E+00 0.  1.
          2   -1    0    0  502    0  0.00000000000E+00 -0.00000000000E+00 -0.16253893394E+04  0.16253893394E+04  0.00000000000E+00 0. -1.
          6    1    1    2  502    0 -0.66797841557E+02  0.12594036763E+03 -0.11453003735E+04  0.11668846873E+04  0.17200000000E+03 0. -1.
         -6    1    1    2    0  501  0.66797841557E+02 -0.12594036763E+03 -0.44271079413E+03  0.49588282394E+03  0.17200000000E+03 0.  1.
</event>
<event>
 4    1  0.3191769E-002  0.1813719E+03  0.7818608E-02  0.1166482E+00
          1   -1    0    0  502    0  0.00000000000E+00  0.00000000000E+00  0.24270852132E+03  0.24270852132E+03  0.00000000000E+00 0. -1.
         -1   -1    0    0    0  501 -0.00000000000E+00 -0.00000000000E+00 -0.20701797624E+03  0.20701797624E+03  0.00000000000E+00 0.  1.
          6    1    1    2  502    0 -0.13137754617E+02  0.56028200969E+02  0.14997864047E+03  0.23534942638E+03  0.17200000000E+03 0. -1.
         -6    1    1    2    0  501  0.13137754617E+02 -0.56028200969E+02 -0.11428809539E+03  0.21437707118E+03  0.17200000000E+03 0.  1.
</event>
<event>
 4    1  0.3191769E-002  0.3469003E+03  0.7818608E-02  0.1063895E+00
          2   -1    0    0  502    0  0.00000000000E+00  0.00000000000E+00  0.47097756023E+03  0.47097756023E+03  0.00000000000E+00 0. -1.
         -2   -1    0    0    0  501 -0.00000000000E+00 -0.00000000000E+00 -0.29503384808E+03  0.29503384808E+03  0.00000000000E+00 0.  1.
          6    1    1    2  502    0 -0.11947453818E+03 -0.27655310217E+03  0.22815485528E+03  0.41520407221E+03  0.17200000000E+03 0. -1.
         -6    1    1    2    0  501  0.11947453818E+03  0.27655310217E+03 -0.52211143120E+02  0.35080733610E+03  0.17200000000E+03 0.  1.
</event>
<event>
 4    1  0.3191769E-002  0.2799915E+03  0.7818608E-02  0.1095694E+00
         -2   -1    0    0    0  501 -0.00000000000E+00  0.00000000000E+00  0.76715071503E+02  0.76715071503E+02  0.00000000000E+00 0.  1.
          2   -1    0    0  502    0  0.00000000000E+00 -0.00000000000E+00 -0.14143250800E+04  0.14143250800E+04  0.00000000000E+00 0. -1.
          6    1    1    2  502    0 -0.60557001136E+01 -0.22084969370E+03 -0.27610384603E+03  0.39322842281E+03  0.17200000000E+03 0.  1.
         -6    1    1    2    0  501  0.60557001136E+01  0.22084969370E+03 -0.10615061625E+04  0.10978117287E+04  0.17200000000E+03 0. -1.
</event>
<event>
 4    1  0.3191769E-002  0.2981914E+03  0.7818608E-02  0.1086148E+00
          2   -1    0    0  502    0  0.00000000000E+00  0.00000000000E+00  0.41827192938E+03  0.41827192938E+03  0.00000000000E+00 0. -1.
         -2   -1    0    0    0  501 -0.00000000000E+00 -0.00000000000E+00 -0.22117526079E+03  0.22117526079E+03  0.00000000000E+00 0.  1.
          6    1    1    2  502    0  0.91743679590E+02 -0.22564843829E+03  0.35536410086E+02  0.30030144337E+03  0.17200000000E+03 0. -1.
         -6    1    1    2    0  501 -0.91743679590E+02  0.22564843829E+03  0.16156025850E+03  0.33914574680E+03  0.17200000000E+03 0.  1.
</event>
<event>
 4    1  0.3191769E-002  0.2207302E+03  0.7818608E-02  0.1133340E+00
          3   -1    0    0  502    0  0.00000000000E+00  0.00000000000E+00  0.12791280486E+04  0.12791280486E+04  0.00000000000E+00 0. -1.
         -3   -1    0    0    0  501 -0.00000000000E+00 -0.00000000000E+00 -0.38095512972E+02  0.38095512972E+02  0.00000000000E+00 0.  1.
          6    1    1    2  502    0 -0.65298193945E+02 -0.12195887798E+03  0.62853152521E+03  0.66616341857E+03  0.17200000000E+03 0. -1.
         -6    1    1    2    0  501  0.65298193945E+02  0.12195887798E+03  0.61250101043E+03  0.65106014301E+03  0.17200000000E+03 0.  1.
</event>
<event>
 4    1  0.3191769E-002  0.2006887E+03  0.7818608E-02  0.1149159E+00
         -2   -1    0    0    0  501 -0.00000000000E+00  0.00000000000E+00  0.42217279645E+03  0.42217279645E+03  0.00000000000E+00 0.  1.
          2   -1    0    0  502    0  0.00000000000E+00 -0.00000000000E+00 -0.11202372952E+03  0.11202372952E+03  0.00000000000E+00 0. -1.
          6    1    1    2  502    0  0.46841976946E+01  0.10329575177E+03  0.52187753962E+02  0.20736324579E+03  0.17200000000E+03 0. -1.
         -6    1    1    2    0  501 -0.46841976946E+01 -0.10329575177E+03  0.25796131297E+03  0.32683328018E+03  0.17200000000E+03 0. -1.
</event>
<event>
 4    1  0.3191769E-002  0.1741246E+03  0.7818608E-02  0.1173614E+00
          2   -1    0    0  502    0  0.00000000000E+00  0.00000000000E+00  0.65716633992E+02  0.65716633992E+02  0.00000000000E+00 0. -1.
         -2   -1    0    0    0  501 -0.00000000000E+00 -0.00000000000E+00 -0.55279116751E+03  0.55279116751E+03  0.00000000000E+00 0.  1.
          6    1    1    2  502    0 -0.26876776467E+02 -0.36095963238E+01 -0.11776971274E+03  0.21021202520E+03  0.17200000000E+03 0. -1.
         -6    1    1    2    0  501  0.26876776467E+02  0.36095963238E+01 -0.36930482078E+03  0.40829577631E+03  0.17200000000E+03 0.  1.
</event>
<event>
 4    1  0.3191769E-002  0.2079851E+03  0.7818608E-02  0.1143172E+00
         -2   -1    0    0    0  501 -0.00000000000E+00  0.00000000000E+00  0.68320331864E+02  0.68320331864E+02  0.00000000000E+00 0.  1.
          2   -1    0    0  502    0  0.00000000000E+00 -0.00000000000E+00 -0.75355050198E+03  0.75355050198E+03  0.00000000000E+00 0. -1.
          6    1    1    2  502    0 -0.11655101372E+03 -0.94699335869E+01 -0.50686698880E+03  0.54787951484E+03  0.17200000000E+03 0. -1.
         -6    1    1    2    0  501  0.11655101372E+03  0.94699335869E+01 -0.17836318131E+03  0.27399131900E+03  0.17200000000E+03 0.  1.
</event>
<event>
 4    1  0.3191769E-002  0.2368403E+03  0.7818608E-02  0.1121916E+00
         -2   -1    0    0    0  501 -0.00000000000E+00  0.00000000000E+00  0.40061337171E+02  0.40061337171E+02  0.00000000000E+00 0.  1.
          2   -1    0    0  502    0  0.00000000000E+00 -0.00000000000E+00 -0.16869828720E+04  0.16869828720E+04  0.00000000000E+00 0. -1.
          6    1    1    2  502    0  0.15577521577E+03  0.47364850880E+02 -0.11795057611E+04  0.12030491210E+04  0.17200000000E+03 0. -1.
         -6    1    1    2    0  501 -0.15577521577E+03 -0.47364850880E+02 -0.46741577368E+03  0.52399508818E+03  0.17200000000E+03 0.  1.
</event>
<event>
 4    1  0.3191769E-002  0.1874632E+03  0.7818608E-02  0.1160769E+00
          2   -1    0    0  502    0  0.00000000000E+00  0.00000000000E+00  0.26567873141E+04  0.26567873141E+04  0.00000000000E+00 0. -1.
         -2   -1    0    0    0  501 -0.00000000000E+00 -0.00000000000E+00 -0.13642129692E+02  0.13642129692E+02  0.00000000000E+00 0.  1.
          6    1    1    2  502    0 -0.34905906863E+02  0.65878883009E+02  0.15543712969E+04  0.15656348802E+04  0.17200000000E+03 0. -1.
         -6    1    1    2    0  501  0.34905906863E+02 -0.65878883009E+02  0.10887738875E+04  0.11047945636E+04  0.17200000000E+03 0.  1.
</event>
<event>
 4    1  0.3191769E-002  0.2666431E+03  0.7818608E-02  0.1103216E+00
          2   -1    0    0  502    0  0.00000000000E+00  0.00000000000E+00  0.10015284127E+04  0.10015284127E+04  0.00000000000E+00 0. -1.
         -2   -1    0    0    0  501 -0.00000000000E+00 -0.00000000000E+00 -0.45155285270E+03  0.45155285270E+03  0.00000000000E+00 0.  1.
          6    1    1    2  502    0  0.66366852646E+02 -0.19263949894E+03  0.94197696250E+03  0.97898883220E+03  0.17200000000E+03 0. -1.
         -6    1    1    2    0  501 -0.66366852646E+02  0.19263949894E+03 -0.39200140248E+03  0.47409243321E+03  0.17200000000E+03 0.  1.
</event>
<event>
 4    1  0.3191769E-002  0.3258792E+03  0.7818608E-02  0.1072975E+00
         -2   -1    0    0    0  501 -0.00000000000E+00  0.00000000000E+00  0.59654552094E+03  0.59654552094E+03  0.00000000000E+00 0.  1.
          2   -1    0    0  502    0  0.00000000000E+00 -0.00000000000E+00 -0.91752911298E+03  0.91752911298E+03  0.00000000000E+00 0. -1.
          6    1    1    2  502    0  0.15440129293E+03  0.22972487147E+03 -0.84013191488E+03  0.90112091876E+03  0.17200000000E+03 0. -1.
         -6    1    1    2    0  501 -0.15440129293E+03 -0.22972487147E+03  0.51914832283E+03  0.61295371516E+03  0.17200000000E+03 0.  1.
</event>
<event>
 4    1  0.3191769E-002  0.5955666E+03  0.7818608E-02  0.9914647E-01
          2   -1    0    0  502    0  0.00000000000E+00  0.00000000000E+00  0.51206314885E+03  0.51206314885E+03  0.00000000000E+00 0. -1.
         -2   -1    0    0    0  501 -0.00000000000E+00 -0.00000000000E+00 -0.10217253437E+04  0.10217253437E+04  0.00000000000E+00 0.  1.
          6    1    1    2  502    0  0.56553656658E+03  0.72690682558E+02  0.18037159950E+03  0.62228085088E+03  0.17200000000E+03 0. -1.
         -6    1    1    2    0  501 -0.56553656658E+03 -0.72690682558E+02 -0.69003379433E+03  0.91150764165E+03  0.17200000000E+03 0.  1.
</event>
<event>
 4    1  0.3191769E-002  0.2178594E+03  0.7818608E-02  0.1135489E+00
         -2   -1    0    0    0  501 -0.00000000000E+00  0.00000000000E+00  0.38121944792E+03  0.38121944792E+03  0.00000000000E+00 0.  1.
          2   -1    0    0  502    0  0.00000000000E+00 -0.00000000000E+00 -0.26334999047E+03  0.26334999047E+03  0.00000000000E+00 0. -1.
          6    1    1    2  502    0  0.88244650674E+02 -0.10045689727E+03 -0.17507954934E+03  0.27949160127E+03  0.17200000000E+03 0. -1.
         -6    1    1    2    0  501 -0.88244650674E+02  0.10045689727E+03  0.29294900679E+03  0.36507783713E+03  0.17200000000E+03 0.  1.
</event>
<event>
 4    1  0.3191769E-002  0.2119175E+03  0.7818608E-02  0.1140056E+00
         -2   -1    0    0    0  501 -0.00000000000E+00  0.00000000000E+00  0.23904158170E+03  0.23904158170E+03  0.00000000000E+00 0.  1.
          2   -1    0    0  502    0  0.00000000000E+00 -0.00000000000E+00 -0.42428522977E+03  0.42428522977E+03  0.00000000000E+00 0. -1.
          6    1    1    2  502    0  0.13000159272E+02  0.12310975515E+03 -0.34019595977E+03  0.40080207958E+03  0.17200000000E+03 0. -1.
         -6    1    1    2    0  501 -0.13000159272E+02 -0.12310975515E+03  0.15495231170E+03  0.26252473189E+03  0.17200000000E+03 0.  1.
</event>
<event>
 4    1  0.3191769E-002  0.2885112E+03  0.7818608E-02  0.1091129E+00
         -2   -1    0    0    0  501 -0.00000000000E+00  0.00000000000E+00  0.40576752080E+02  0.40576752080E+02  0.00000000000E+00 0.  1.
          2   -1    0    0  502    0  0.00000000000E+00 -0.00000000000E+00 -0.24021578218E+04  0.24021578218E+04  0.00000000000E+00 0. -1.
          6    1    1    2  502    0 -0.21865155646E+03  0.76460341260E+02 -0.16475103614E+04  0.16725815609E+04  0.17200000000E+03 0. -1.
         -6    1    1    2    0  501  0.21865155646E+03 -0.76460341260E+02 -0.71407070835E+03  0.77015301301E+03  0.17200000000E+03 0.  1.
</event>
<event>
 4    1  0.3191769E-002  0.2280023E+03  0.7818608E-02  0.1128054E+00
         -2   -1    0    0    0  501 -0.00000000000E+00  0.00000000000E+00  0.12990523027E+03  0.12990523027E+03  0.00000000000E+00 0.  1.
          2   -1    0    0  502    0  0.00000000000E+00 -0.00000000000E+00 -0.44259276680E+03  0.44259276680E+03  0.00000000000E+00 0. -1.
          6    1    1    2  502    0 -0.13365800437E+03  0.67354074765E+02 -0.67728710862E+02  0.23784913663E+03  0.17200000000E+03 0.  1.
         -6    1    1    2    0  501  0.13365800437E+03 -0.67354074765E+02 -0.24495882567E+03  0.33464886044E+03  0.17200000000E+03 0.  1.
</event>
<event>
 4    1  0.3191769E-002  0.1858085E+03  0.7818608E-02  0.1162297E+00
         -2   -1    0    0    0  501 -0.00000000000E+00  0.00000000000E+00  0.87094352105E+02  0.87094352105E+02  0.00000000000E+00 0.  1.
          2   -1    0    0  502    0  0.00000000000E+00 -0.00000000000E+00 -0.42444361947E+03  0.42444361947E+03  0.00000000000E+00 0. -1.
          6    1    1    2  502    0 -0.58215629732E+02  0.39392289366E+02 -0.23441022836E+03  0.29912032222E+03  0.17200000000E+03 0. -1.
         -6    1    1    2    0  501  0.58215629732E+02 -0.39392289366E+02 -0.10293903901E+03  0.21241764936E+03  0.17200000000E+03 0.  1.
</event>
<event>
 4    1  0.3191769E-002  0.1813393E+03  0.7818608E-02  0.1166513E+00
          2   -1    0    0  502    0  0.00000000000E+00  0.00000000000E+00  0.32767351695E+04  0.32767351695E+04  0.00000000000E+00 0. -1.
         -2   -1    0    0    0  501 -0.00000000000E+00 -0.00000000000E+00 -0.10320220382E+02  0.10320220382E+02  0.00000000000E+00 0.  1.
          6    1    1    2  502    0 -0.40098279768E+02 -0.41134849049E+02  0.19061545778E+04  0.19147608786E+04  0.17200000000E+03 0. -1.
         -6    1    1    2    0  501  0.40098279768E+02  0.41134849049E+02  0.13602603713E+04  0.13722945112E+04  0.17200000000E+03 0.  1.
</event>
<event>
 4    1  0.3191769E-002  0.1785573E+03  0.7818608E-02  0.1169207E+00
         -1   -1    0    0    0  501 -0.00000000000E+00  0.00000000000E+00  0.21960688626E+03  0.21960688626E+03  0.00000000000E+00 0.  1.
          1   -1    0    0  502    0  0.00000000000E+00 -0.00000000000E+00 -0.15297258273E+03  0.15297258273E+03  0.00000000000E+00 0. -1.
          6    1    1    2  502    0  0.47879116184E+02 -0.25125153899E+01 -0.87262764860E+01  0.17877044051E+03  0.17200000000E+03 0. -1.
         -6    1    1    2    0  501 -0.47879116184E+02  0.25125153899E+01  0.75360580011E+02  0.19380902848E+03  0.17200000000E+03 0.  1.
</event>
<event>
 4    1  0.3191769E-002  0.4029766E+03  0.7818608E-02  0.1042754E+00
         -1   -1    0    0    0  501 -0.00000000000E+00  0.00000000000E+00  0.14767027645E+03  0.14767027645E+03  0.00000000000E+00 0.  1.
          1   -1    0    0  502    0  0.00000000000E+00 -0.00000000000E+00 -0.12407602315E+04  0.12407602315E+04  0.00000000000E+00 0. -1.
          6    1    1    2  502    0  0.30046779877E+03 -0.20621650220E+03 -0.78063468493E+03  0.87851047529E+03  0.17200000000E+03 0. -1.
         -6    1    1    2    0  501 -0.30046779877E+03  0.20621650220E+03 -0.31245527009E+03  0.50992003264E+03  0.17200000000E+03 0.  1.
</event>
<event>
 4    1  0.3191769E-002  0.2426001E+03  0.7818608E-02  0.1118073E+00
          1   -1    0    0  502    0  0.00000000000E+00  0.00000000000E+00  0.16968188000E+04  0.16968188000E+04  0.00000000000E+00 0. -1.
         -1   -1    0    0    0  501 -0.00000000000E+00 -0.00000000000E+00 -0.69003682111E+02  0.69003682111E+02  0.00000000000E+00 0.  1.
          6    1    1    2  502    0  0.15540427492E+03 -0.71556376275E+02  0.19125781417E+03  0.30892451365E+03  0.17200000000E+03 0.  1.
         -6    1    1    2    0  501 -0.15540427492E+03  0.71556376275E+02  0.14365573037E+04  0.14568979684E+04  0.17200000000E+03 0.  1.
</event>
<event>
 4    1  0.3191769E-002  0.3337893E+03  0.7818608E-02  0.1069472E+00
         -1   -1    0    0    0  501 -0.00000000000E+00  0.00000000000E+00  0.38366981493E+02  0.38366981493E+02  0.00000000000E+00 0.  1.
          1   -1    0    0  502    0  0.00000000000E+00 -0.00000000000E+00 -0.30118626369E+04  0.30118626369E+04  0.00000000000E+00 0. -1.
          6    1    1    2  502    0  0.13581818529E+03 -0.25176327694E+03 -0.11980485495E+04  0.12436782759E+04  0.17200000000E+03 0. -1.
         -6    1    1    2    0  501 -0.13581818529E+03  0.25176327694E+03 -0.17754471060E+04  0.18065513425E+04  0.17200000000E+03 0.  1.
</event>
<event>
 4    1  0.3191769E-002  0.3679818E+03  0.7818608E-02  0.1055467E+00
         -2   -1    0    0    0  501 -0.00000000000E+00  0.00000000000E+00  0.10777426442E+03  0.10777426442E+03  0.00000000000E+00 0.  1.
          2   -1    0    0  502    0  0.00000000000E+00 -0.00000000000E+00 -0.13145979890E+04  0.13145979890E+04  0.00000000000E+00 0. -1.
          6    1    1    2  502    0  0.22272403429E+03  0.23710882798E+03 -0.45381010612E+03  0.58425525600E+03  0.17200000000E+03 0.  1.
         -6    1    1    2    0  501 -0.22272403429E+03 -0.23710882798E+03 -0.75301361845E+03  0.83811699739E+03  0.17200000000E+03 0.  1.
</event>
<event>
 4    1  0.3191769E-002  0.1820980E+03  0.7818608E-02  0.1165788E+00
         -2   -1    0    0    0  501 -0.00000000000E+00  0.00000000000E+00  0.26314714719E+03  0.26314714719E+03  0.00000000000E+00 0.  1.
          2   -1    0    0  502    0  0.00000000000E+00 -0.00000000000E+00 -0.25255439765E+03  0.25255439765E+03  0.00000000000E+00 0. -1.
          6    1    1    2  502    0  0.59736390801E+02  0.26918597942E+01  0.18781580391E+03  0.26159980637E+03  0.17200000000E+03 0.  1.
         -6    1    1    2    0  501 -0.59736390801E+02 -0.26918597942E+01 -0.17722305437E+03  0.25410173847E+03  0.17200000000E+03 0. -1.
</event>
<event>
 4    1  0.3191769E-002  0.1823697E+03  0.7818608E-02  0.1165529E+00
         -2   -1    0    0    0  501 -0.00000000000E+00  0.00000000000E+00  0.30532597239E+02  0.30532597239E+02  0.00000000000E+00 0.  1.
          2   -1    0    0  502    0  0.00000000000E+00 -0.00000000000E+00 -0.11111612531E+04  0.11111612531E+04  0.00000000000E+00 0. -1.
          6    1    1    2  502    0  0.31789191767E+02  0.51615533250E+02 -0.62041062774E+03  0.64665915519E+03  0.17200000000E+03 0. -1.
         -6    1    1    2    0  501 -0.31789191767E+02 -0.51615533250E+02 -0.46021802809E+03  0.49503469511E+03  0.17200000000E+03 0.  1.
</event>
<event>
 4    1  0.3191769E-002  0.3052917E+03  0.7818608E-02  0.1082625E+00
          2   -1    0    0  502    0  0.00000000000E+00  0.00000000000E+00  0.68895679015E+03  0.68895679015E+03  0.00000000000E+00 0. -1.
         -2   -1    0    0    0  501 -0.00000000000E+00 -0.00000000000E+00 -0.33190781041E+03  0.33190781041E+03  0.00000000000E+00 0.  1.
          6    1    1    2  502    0  0.24103109929E+03  0.74316898763E+02  0.57139588873E+03  0.64783968227E+03  0.17200000000E+03 0. -1.
         -6    1    1    2    0  501 -0.24103109929E+03 -0.74316898763E+02 -0.21434690899E+03  0.37302491828E+03  0.17200000000E+03 0.  1.
</event>
<event>
 4    1  0.3191769E-002  0.3269082E+03  0.7818608E-02  0.1072513E+00
         -2   -1    0    0    0  501 -0.00000000000E+00  0.00000000000E+00  0.14297491448E+03  0.14297491448E+03  0.00000000000E+00 0.  1.
          2   -1    0    0  502    0  0.00000000000E+00 -0.00000000000E+00 -0.91667514924E+03  0.91667514924E+03  0.00000000000E+00 0. -1.
          6    1    1    2  502    0  0.18040458896E+03  0.21151632073E+03 -0.61448348678E+03  0.69603083638E+03  0.17200000000E+03 0. -1.
         -6    1    1    2    0  501 -0.18040458896E+03 -0.21151632073E+03 -0.15921674798E+03  0.36361922734E+03  0.17200000000E+03 0.  1.
</event>
<event>
 4    1  0.3191769E-002  0.2519798E+03  0.7818608E-02  0.1112060E+00
          1   -1    0    0  502    0  0.00000000000E+00  0.00000000000E+00  0.71801883362E+03  0.71801883362E+03  0.00000000000E+00 0. -1.
         -1   -1    0    0    0  501 -0.00000000000E+00 -0.00000000000E+00 -0.26071572222E+03  0.26071572222E+03  0.00000000000E+00 0.  1.
          6    1    1    2  502    0  0.56770945620E+02 -0.17517677144E+03  0.62646270374E+03  0.67524022443E+03  0.17200000000E+03 0. -1.
         -6    1    1    2    0  501 -0.56770945620E+02  0.17517677144E+03 -0.16915959234E+03  0.30349433141E+03  0.17200000000E+03 0.  1.
</event>
<event>
 4    1  0.3191769E-002  0.1810981E+03  0.7818608E-02  0.1166744E+00
          2   -1    0    0  502    0  0.00000000000E+00  0.00000000000E+00  0.98769994560E+02  0.98769994560E+02  0.00000000000E+00 0. -1.
         -2   -1    0    0    0  501 -0.00000000000E+00 -0.00000000000E+00 -0.40661335814E+03  0.40661335814E+03  0.00000000000E+00 0.  1.
          6    1    1    2  502    0 -0.10122523413E+02  0.55767963704E+02 -0.45712482141E+02  0.18677837744E+03  0.17200000000E+03 0. -1.
         -6    1    1    2    0  501  0.10122523413E+02 -0.55767963704E+02 -0.26213088144E+03  0.31860497526E+03  0.17200000000E+03 0.  1.
</event>
<event>
 4    1  0.3191769E-002  0.2039900E+03  0.7818608E-02  0.1146416E+00
          1   -1    0    0  502    0  0.00000000000E+00  0.00000000000E+00  0.16018122918E+03  0.16018122918E+03  0.00000000000E+00 0. -1.
         -1   -1    0    0    0  501 -0.00000000000E+00 -0.00000000000E+00 -0.14394853197E+04  0.14394853197E+04  0.00000000000E+00 0.  1.
          6    1    1    2  502    0  0.10967046725E+03  0.56542594545E+00  0.84421294850E+02  0.22076885224E+03  0.17200000000E+03 0. -1.
         -6    1    1    2    0  501 -0.10967046725E+03 -0.56542594545E+00 -0.13637253853E+04  0.13788976966E+04  0.17200000000E+03 0.  1.
</event>
<event>
 4    1  0.3191769E-002  0.2075102E+03  0.7818608E-02  0.1143553E+00
          1   -1    0    0  502    0  0.00000000000E+00  0.00000000000E+00  0.76802704951E+02  0.76802704951E+02  0.00000000000E+00 0. -1.
         -1   -1    0    0    0  501 -0.00000000000E+00 -0.00000000000E+00 -0.62112957491E+03  0.62112957491E+03  0.00000000000E+00 0.  1.
          6    1    1    2  502    0  0.65783837441E+02 -0.95650227677E+02 -0.16328351433E+03  0.26404921014E+03  0.17200000000E+03 0. -1.
         -6    1    1    2    0  501 -0.65783837441E+02  0.95650227677E+02 -0.38104335562E+03  0.43388306972E+03  0.17200000000E+03 0.  1.
</event>
<event>
 4    1  0.3191769E-002  0.1873277E+03  0.7818608E-02  0.1160894E+00
          2   -1    0    0  502    0  0.00000000000E+00  0.00000000000E+00  0.32273119348E+03  0.32273119348E+03  0.00000000000E+00 0. -1.
         -2   -1    0    0    0  501 -0.00000000000E+00 -0.00000000000E+00 -0.27108453855E+03  0.27108453855E+03  0.00000000000E+00 0.  1.
          6    1    1    2  502    0  0.71779430366E+02  0.18851272002E+02  0.25559527787E+03  0.31689210017E+03  0.17200000000E+03 0. -1.
         -6    1    1    2    0  501 -0.71779430366E+02 -0.18851272002E+02 -0.20394862295E+03  0.27692363186E+03  0.17200000000E+03 0.  1.
</event>
<event>
 4    1  0.3191769E-002  0.2015431E+03  0.7818608E-02  0.1148444E+00
          2   -1    0    0  502    0  0.00000000000E+00  0.00000000000E+00  0.12668639691E+04  0.12668639691E+04  0.00000000000E+00 0. -1.
         -2   -1    0    0    0  501 -0.00000000000E+00 -0.00000000000E+00 -0.69359679841E+02  0.69359679841E+02  0.00000000000E+00 0.  1.
          6    1    1    2  502    0  0.64877837985E+02 -0.82622597109E+02  0.10886775183E+04  0.11071758515E+04  0.17200000000E+03 0. -1.
         -6    1    1    2    0  501 -0.64877837985E+02  0.82622597109E+02  0.10882677098E+03  0.22904779741E+03  0.17200000000E+03 0.  1.
</event>
<event>
 4    1  0.3191769E-002  0.4592653E+03  0.7818608E-02  0.1024995E+00
          2   -1    0    0  502    0  0.00000000000E+00  0.00000000000E+00  0.15016095368E+04  0.15016095368E+04  0.00000000000E+00 0. -1.
         -2   -1    0    0    0  501 -0.00000000000E+00 -0.00000000000E+00 -0.14282441882E+03  0.14282441882E+03  0.00000000000E+00 0.  1.
          6    1    1    2  502    0  0.38267995891E+03  0.18680637870E+03  0.78505655028E+03  0.90952644888E+03  0.17200000000E+03 0. -1.
         -6    1    1    2    0  501 -0.38267995891E+03 -0.18680637870E+03  0.57372856773E+03  0.73490750677E+03  0.17200000000E+03 0.  1.
</event>
<event>
 4    1  0.3191769E-002  0.1973103E+03  0.7818608E-02  0.1152028E+00
         -1   -1    0    0    0  501 -0.00000000000E+00  0.00000000000E+00  0.49859870596E+02  0.49859870596E+02  0.00000000000E+00 0.  1.
          1   -1    0    0  502    0  0.00000000000E+00 -0.00000000000E+00 -0.81060468348E+03  0.81060468348E+03  0.00000000000E+00 0. -1.
          6    1    1    2  502    0  0.39268563439E+02  0.88347869103E+02 -0.29789655281E+03  0.35731459840E+03  0.17200000000E+03 0.  1.
         -6    1    1    2    0  501 -0.39268563439E+02 -0.88347869103E+02 -0.46284826007E+03  0.50314995568E+03  0.17200000000E+03 0. -1.
</event>
<event>
 4    1  0.3191769E-002  0.2530607E+03  0.7818608E-02  0.1111386E+00
          2   -1    0    0  502    0  0.00000000000E+00  0.00000000000E+00  0.85729794870E+03  0.85729794870E+03  0.00000000000E+00 0. -1.
         -2   -1    0    0    0  501 -0.00000000000E+00 -0.00000000000E+00 -0.80231475190E+02  0.80231475190E+02  0.00000000000E+00 0.  1.
          6    1    1    2  502    0 -0.10702771928E+03  0.15166010961E+03  0.26544319038E+03  0.36674215583E+03  0.17200000000E+03 0.  1.
         -6    1    1    2    0  501  0.10702771928E+03 -0.15166010961E+03  0.51162328313E+03  0.57078726806E+03  0.17200000000E+03 0. -1.
</event>
<event>
 4    1  0.3191769E-002  0.2491673E+03  0.7818608E-02  0.1113832E+00
          1   -1    0    0  502    0  0.00000000000E+00  0.00000000000E+00  0.51767235056E+03  0.51767235056E+03  0.00000000000E+00 0. -1.
         -1   -1    0    0    0  501 -0.00000000000E+00 -0.00000000000E+00 -0.12076594545E+03  0.12076594545E+03  0.00000000000E+00 0.  1.
          6    1    1    2  502    0 -0.17116226032E+03  0.56602271815E+02  0.17189124479E+03  0.30270602334E+03  0.17200000000E+03 0. -1.
         -6    1    1    2    0  501  0.17116226032E+03 -0.56602271815E+02  0.22501516033E+03  0.33573227266E+03  0.17200000000E+03 0.  1.
</event>
<event>
 4    1  0.3191769E-002  0.1874765E+03  0.7818608E-02  0.1160757E+00
          2   -1    0    0  502    0  0.00000000000E+00  0.00000000000E+00  0.35825598761E+04  0.35825598761E+04  0.00000000000E+00 0. -1.
         -2   -1    0    0    0  501 -0.00000000000E+00 -0.00000000000E+00 -0.10074788021E+02  0.10074788021E+02  0.00000000000E+00 0.  1.
          6    1    1    2  502    0  0.11608716528E+02 -0.73679448670E+02  0.14954128808E+04  0.15071188100E+04  0.17200000000E+03 0.  1.
         -6    1    1    2    0  501 -0.11608716528E+02  0.73679448670E+02  0.20770722073E+04  0.20855158541E+04  0.17200000000E+03 0. -1.
</event>
<event>
 4    1  0.3191769E-002  0.1813581E+03  0.7818608E-02  0.1166495E+00
         -2   -1    0    0    0  501 -0.00000000000E+00  0.00000000000E+00  0.35271223955E+02  0.35271223955E+02  0.00000000000E+00 0.  1.
          2   -1    0    0  502    0  0.00000000000E+00 -0.00000000000E+00 -0.10502556964E+04  0.10502556964E+04  0.00000000000E+00 0. -1.
          6    1    1    2  502    0 -0.26817576842E+02 -0.50868369026E+02 -0.32575857595E+03  0.37283967493E+03  0.17200000000E+03 0.  1.
         -6    1    1    2    0  501  0.26817576842E+02  0.50868369026E+02 -0.68922589651E+03  0.71268724545E+03  0.17200000000E+03 0. -1.
</event>
<event>
 4    1  0.3191769E-002  0.2452024E+03  0.7818608E-02  0.1116375E+00
         -2   -1    0    0    0  501 -0.00000000000E+00  0.00000000000E+00  0.79448383290E+03  0.79448383290E+03  0.00000000000E+00 0.  1.
          2   -1    0    0  502    0  0.00000000000E+00 -0.00000000000E+00 -0.79835878959E+02  0.79835878959E+02  0.00000000000E+00 0. -1.
          6    1    1    2  502    0  0.17346096871E+03  0.21248596941E+02  0.45709985977E+03  0.51871426850E+03  0.17200000000E+03 0.  1.
         -6    1    1    2    0  501 -0.17346096871E+03 -0.21248596941E+02  0.25754809417E+03  0.35560544336E+03  0.17200000000E+03 0. -1.
</event>
<event>
 4    1  0.3191769E-002  0.1961048E+03  0.7818608E-02  0.1153068E+00
          2   -1    0    0  502    0  0.00000000000E+00  0.00000000000E+00  0.35402716927E+03  0.35402716927E+03  0.00000000000E+00 0. -1.
         -2   -1    0    0    0  501 -0.00000000000E+00 -0.00000000000E+00 -0.16093517358E+03  0.16093517358E+03  0.00000000000E+00 0.  1.
          6    1    1    2  502    0 -0.93425691655E+02 -0.12030254397E+02 -0.50246102960E+02  0.20243951626E+03  0.17200000000E+03 0.  1.
         -6    1    1    2    0  501  0.93425691655E+02  0.12030254397E+02  0.24333809866E+03  0.31252282659E+03  0.17200000000E+03 0.  1.
</event>
<event>
 4    1  0.3191769E-002  0.1806835E+03  0.7818608E-02  0.1167143E+00
         -1   -1    0    0    0  501 -0.00000000000E+00  0.00000000000E+00  0.10140742657E+04  0.10140742657E+04  0.00000000000E+00 0.  1.
          1   -1    0    0  502    0  0.00000000000E+00 -0.00000000000E+00 -0.38420488296E+02  0.38420488296E+02  0.00000000000E+00 0. -1.
          6    1    1    2  502    0 -0.17141052137E+02 -0.52618446047E+02  0.27596619268E+03  0.32985429516E+03  0.17200000000E+03 0. -1.
         -6    1    1    2    0  501  0.17141052137E+02  0.52618446047E+02  0.69968758477E+03  0.72264045889E+03  0.17200000000E+03 0.  1.
</event>
<event>
 4    1  0.3191769E-002  0.2611924E+03  0.7818608E-02  0.1106429E+00
         -1   -1    0    0    0  501 -0.00000000000E+00  0.00000000000E+00  0.49478022666E+02  0.49478022666E+02  0.00000000000E+00 0.  1.
          1   -1    0    0  502    0  0.00000000000E+00 -0.00000000000E+00 -0.15708248470E+04  0.15708248470E+04  0.00000000000E+00 0. -1.
          6    1    1    2  502    0  0.12528067189E+03 -0.15146682175E+03 -0.10439135634E+04  0.10760933847E+04  0.17200000000E+03 0.  1.
         -6    1    1    2    0  501 -0.12528067189E+03  0.15146682175E+03 -0.47743326100E+03  0.54420948499E+03  0.17200000000E+03 0.  1.
</event>
<event>
 4    1  0.3191769E-002  0.2149299E+03  0.7818608E-02  0.1137720E+00
          2   -1    0    0  502    0  0.00000000000E+00  0.00000000000E+00  0.19567002502E+04  0.19567002502E+04  0.00000000000E+00 0. -1.
         -2   -1    0    0    0  501 -0.00000000000E+00 -0.00000000000E+00 -0.16994226812E+03  0.16994226812E+03  0.00000000000E+00 0.  1.
          6    1    1    2  502    0  0.77921291512E+02  0.10266029922E+03  0.18800809461E+04  0.18923264064E+04  0.17200000000E+03 0. -1.
         -6    1    1    2    0  501 -0.77921291512E+02 -0.10266029922E+03 -0.93322963952E+02  0.23431611192E+03  0.17200000000E+03 0.  1.
</event>
<event>
 4    1  0.3191769E-002  0.2065254E+03  0.7818608E-02  0.1144347E+00
         -4   -1    0    0    0  501 -0.00000000000E+00  0.00000000000E+00  0.17682523248E+04  0.17682523248E+04  0.00000000000E+00 0.  1.
          4   -1    0    0  502    0  0.00000000000E+00 -0.00000000000E+00 -0.35139178980E+02  0.35139178980E+02  0.00000000000E+00 0. -1.
          6    1    1    2  502    0 -0.29018182353E+02  0.11057436500E+03  0.13714630999E+04  0.13869260181E+04  0.17200000000E+03 0.  1.
         -6    1    1    2    0  501  0.29018182353E+02 -0.11057436500E+03  0.36165004589E+03  0.41646548572E+03  0.17200000000E+03 0. -1.
</event>
<event>
 4    1  0.3191769E-002  0.3682980E+03  0.7818608E-02  0.1055346E+00
          2   -1    0    0  502    0  0.00000000000E+00  0.00000000000E+00  0.19508992778E+04  0.19508992778E+04  0.00000000000E+00 0. -1.
         -2   -1    0    0    0  501 -0.00000000000E+00 -0.00000000000E+00 -0.84286623954E+02  0.84286623954E+02  0.00000000000E+00 0.  1.
          6    1    1    2  502    0  0.25939610418E+03  0.19690882935E+03  0.13591085086E+04  0.14081261890E+04  0.17200000000E+03 0. -1.
         -6    1    1    2    0  501 -0.25939610418E+03 -0.19690882935E+03  0.50750414522E+03  0.62705971275E+03  0.17200000000E+03 0.  1.
</event>
<event>
 4    1  0.3191769E-002  0.3530661E+03  0.7818608E-02  0.1061364E+00
          2   -1    0    0  502    0  0.00000000000E+00  0.00000000000E+00  0.63927243463E+03  0.63927243463E+03  0.00000000000E+00 0. -1.
         -2   -1    0    0    0  501 -0.00000000000E+00 -0.00000000000E+00 -0.20768865953E+03  0.20768865953E+03  0.00000000000E+00 0.  1.
          6    1    1    2  502    0  0.93763987789E+02  0.29373452212E+03  0.11110288675E+03  0.37013444359E+03  0.17200000000E+03 0. -1.
         -6    1    1    2    0  501 -0.93763987789E+02 -0.29373452212E+03  0.32048088836E+03  0.47682665057E+03  0.17200000000E+03 0.  1.
</event>
<event>
 4    1  0.3191769E-002  0.1732359E+03  0.7818608E-02  0.1174515E+00
         -2   -1    0    0    0  501 -0.00000000000E+00  0.00000000000E+00  0.21797403190E+02  0.21797403190E+02  0.00000000000E+00 0.  1.
          2   -1    0    0  502    0  0.00000000000E+00 -0.00000000000E+00 -0.15641784196E+04  0.15641784196E+04  0.00000000000E+00 0. -1.
          6    1    1    2  502    0 -0.87718723321E+01  0.18701113619E+02 -0.10456527039E+04  0.10599057763E+04  0.17200000000E+03 0. -1.
         -6    1    1    2    0  501  0.87718723321E+01 -0.18701113619E+02 -0.49672831248E+03  0.52607004649E+03  0.17200000000E+03 0.  1.
</event>
<event>
 4    1  0.3191769E-002  0.1788895E+03  0.7818608E-02  0.1168882E+00
          1   -1    0    0  502    0  0.00000000000E+00  0.00000000000E+00  0.97741405495E+03  0.97741405495E+03  0.00000000000E+00 0. -1.
         -1   -1    0    0    0  501 -0.00000000000E+00 -0.00000000000E+00 -0.34169490731E+02  0.34169490731E+02  0.00000000000E+00 0.  1.
          6    1    1    2  502    0 -0.45368997705E+02  0.18949657434E+02  0.36820255966E+03  0.40935871850E+03  0.17200000000E+03 0. -1.
         -6    1    1    2    0  501  0.45368997705E+02 -0.18949657434E+02  0.57504200455E+03  0.60222482718E+03  0.17200000000E+03 0.  1.
</event>
<event>
 4    1  0.3191769E-002  0.1869626E+03  0.7818608E-02  0.1161230E+00
          2   -1    0    0  502    0  0.00000000000E+00  0.00000000000E+00  0.89372140384E+03  0.89372140384E+03  0.00000000000E+00 0. -1.
         -2   -1    0    0    0  501 -0.00000000000E+00 -0.00000000000E+00 -0.50651565256E+02  0.50651565256E+02  0.00000000000E+00 0.  1.
          6    1    1    2  502    0 -0.12806771077E+02  0.72159497080E+02  0.64691554531E+03  0.67339047303E+03  0.17200000000E+03 0. -1.
         -6    1    1    2    0  501  0.12806771077E+02 -0.72159497080E+02  0.19615429328E+03  0.27098249607E+03  0.17200000000E+03 0.  1.
</event>
<event>
 4    1  0.3191769E-002  0.2326125E+03  0.7818608E-02  0.1124814E+00
         -2   -1    0    0    0  501 -0.00000000000E+00  0.00000000000E+00  0.32068265192E+02  0.32068265192E+02  0.00000000000E+00 0.  1.
          2   -1    0    0  502    0  0.00000000000E+00 -0.00000000000E+00 -0.18880116725E+04  0.18880116725E+04  0.00000000000E+00 0. -1.
          6    1    1    2  502    0  0.15277928145E+03  0.34395634190E+02 -0.12409978086E+04  0.12626100465E+04  0.17200000000E+03 0. -1.
         -6    1    1    2    0  501 -0.15277928145E+03 -0.34395634190E+02 -0.61494559869E+03  0.65746989120E+03  0.17200000000E+03 0.  1.
</event>
<event>
 4    1  0.3191769E-002  0.2791932E+03  0.7818608E-02  0.1096130E+00
          2   -1    0    0  502    0  0.00000000000E+00  0.00000000000E+00  0.12199717932E+04  0.12199717932E+04  0.00000000000E+00 0. -1.
         -2   -1    0    0    0  501 -0.00000000000E+00 -0.00000000000E+00 -0.64644722122E+02  0.64644722122E+02  0.00000000000E+00 0.  1.
          6    1    1    2  502    0  0.21952644291E+03 -0.13152388871E+02  0.50844467153E+03  0.58005588392E+03  0.17200000000E+03 0.  1.
         -6    1    1    2    0  501 -0.21952644291E+03  0.13152388871E+02  0.64688239958E+03  0.70456063142E+03  0.17200000000E+03 0.  1.
</event>
<event>
 4    1  0.3191769E-002  0.2625895E+03  0.7818608E-02  0.1105597E+00
          2   -1    0    0  502    0  0.00000000000E+00  0.00000000000E+00  0.28677134550E+03  0.28677134550E+03  0.00000000000E+00 0. -1.
         -2   -1    0    0    0  501 -0.00000000000E+00 -0.00000000000E+00 -0.24867818795E+03  0.24867818795E+03  0.00000000000E+00 0.  1.
          6    1    1    2  502    0  0.17710942229E+03 -0.89451124424E+02  0.67755257655E+02  0.27119001837E+03  0.17200000000E+03 0. -1.
         -6    1    1    2    0  501 -0.17710942229E+03  0.89451124424E+02 -0.29662100106E+02  0.26425951507E+03  0.17200000000E+03 0.  1.
</event>
<event>
 4    1  0.3191769E-002  0.2042286E+03  0.7818608E-02  0.1146220E+00
          2   -1    0    0  502    0  0.00000000000E+00  0.00000000000E+00  0.32119062799E+04  0.32119062799E+04  0.00000000000E+00 0. -1.
         -2   -1    0    0    0  501 -0.00000000000E+00 -0.00000000000E+00 -0.13585231814E+02  0.13585231814E+02  0.00000000000E+00 0.  1.
          6    1    1    2  502    0  0.23276656247E+02  0.10762668468E+03  0.12604043431E+04  0.12768431439E+04  0.17200000000E+03 0. -1.
         -6    1    1    2    0  501 -0.23276656247E+02 -0.10762668468E+03  0.19379167049E+04  0.19486483678E+04  0.17200000000E+03 0.  1.
</event>
<event>
 4    1  0.3191769E-002  0.2571270E+03  0.7818608E-02  0.1108882E+00
         -2   -1    0    0    0  501 -0.00000000000E+00  0.00000000000E+00  0.17169864373E+03  0.17169864373E+03  0.00000000000E+00 0.  1.
          2   -1    0    0  502    0  0.00000000000E+00 -0.00000000000E+00 -0.42831685043E+03  0.42831685043E+03  0.00000000000E+00 0. -1.
          6    1    1    2  502    0 -0.19111462319E+03  0.23437264244E+01 -0.32968702948E+02  0.25923199576E+03  0.17200000000E+03 0. -1.
         -6    1    1    2    0  501  0.19111462319E+03 -0.23437264244E+01 -0.22364950375E+03  0.34078349840E+03  0.17200000000E+03 0.  1.
</event>
<event>
 4    1  0.3191769E-002  0.1913970E+03  0.7818608E-02  0.1157207E+00
          2   -1    0    0  502    0  0.00000000000E+00  0.00000000000E+00  0.93798519143E+03  0.93798519143E+03  0.00000000000E+00 0. -1.
         -2   -1    0    0    0  501 -0.00000000000E+00 -0.00000000000E+00 -0.42017818882E+02  0.42017818882E+02  0.00000000000E+00 0.  1.
          6    1    1    2  502    0 -0.61871907833E+02  0.56750887467E+02  0.57810548167E+03  0.60896530619E+03  0.17200000000E+03 0. -1.
         -6    1    1    2    0  501  0.61871907833E+02 -0.56750887467E+02  0.31786189088E+03  0.37103770412E+03  0.17200000000E+03 0.  1.
</event>
<event>
 4    1  0.3191769E-002  0.2028554E+03  0.7818608E-02  0.1147352E+00
         -2   -1    0    0    0  501 -0.00000000000E+00  0.00000000000E+00  0.28025825855E+03  0.28025825855E+03  0.00000000000E+00 0.  1.
          2   -1    0    0  502    0  0.00000000000E+00 -0.00000000000E+00 -0.46269987148E+03  0.46269987148E+03  0.00000000000E+00 0. -1.
          6    1    1    2  502    0  0.67530488505E+02 -0.83701587119E+02 -0.39815039005E+03  0.44684903006E+03  0.17200000000E+03 0. -1.
         -6    1    1    2    0  501 -0.67530488505E+02  0.83701587119E+02  0.21570877711E+03  0.29610909997E+03  0.17200000000E+03 0.  1.
</event>
<event>
 4    1  0.3191769E-002  0.2083226E+03  0.7818608E-02  0.1142901E+00
          3   -1    0    0  502    0  0.00000000000E+00  0.00000000000E+00  0.14098168642E+03  0.14098168642E+03  0.00000000000E+00 0. -1.
         -3   -1    0    0    0  501 -0.00000000000E+00 -0.00000000000E+00 -0.60243462689E+03  0.60243462689E+03  0.00000000000E+00 0.  1.
          6    1    1    2  502    0 -0.57947308860E+02 -0.10225651882E+03  0.29210148537E+02  0.21036045023E+03  0.17200000000E+03 0. -1.
         -6    1    1    2    0  501  0.57947308860E+02  0.10225651882E+03 -0.49066308901E+03  0.53305586307E+03  0.17200000000E+03 0.  1.
</event>
<event>
 4    1  0.3191769E-002  0.2248475E+03  0.7818608E-02  0.1130320E+00
         -2   -1    0    0    0  501 -0.00000000000E+00  0.00000000000E+00  0.85479035585E+02  0.85479035585E+02  0.00000000000E+00 0.  1.
          2   -1    0    0  502    0  0.00000000000E+00 -0.00000000000E+00 -0.86054070266E+03  0.86054070266E+03  0.00000000000E+00 0. -1.
          6    1    1    2  502    0  0.51986288393E+02 -0.13516589464E+03 -0.65203685401E+03  0.68971621138E+03  0.17200000000E+03 0. -1.
         -6    1    1    2    0  501 -0.51986288393E+02  0.13516589464E+03 -0.12302481307E+03  0.25630352687E+03  0.17200000000E+03 0.  1.
</event>
<event>
 4    1  0.3191769E-002  0.2952261E+03  0.7818608E-02  0.1087652E+00
          1   -1    0    0  502    0  0.00000000000E+00  0.00000000000E+00  0.10386362936E+04  0.10386362936E+04  0.00000000000E+00 0. -1.
         -1   -1    0    0    0  501 -0.00000000000E+00 -0.00000000000E+00 -0.15053675365E+03  0.15053675365E+03  0.00000000000E+00 0.  1.
          6    1    1    2  502    0 -0.19030591798E+03 -0.14614415594E+03  0.83959646819E+03  0.88998914944E+03  0.17200000000E+03 0. -1.
         -6    1    1    2    0  501  0.19030591798E+03  0.14614415594E+03  0.48503071743E+02  0.29918389780E+03  0.17200000000E+03 0.  1.
</event>
<event>
 4    1  0.3191769E-002  0.2761512E+03  0.7818608E-02  0.1097810E+00
         -1   -1    0    0    0  501 -0.00000000000E+00  0.00000000000E+00  0.35366766949E+02  0.35366766949E+02  0.00000000000E+00 0.  1.
          1   -1    0    0  502    0  0.00000000000E+00 -0.00000000000E+00 -0.37211106124E+04  0.37211106124E+04  0.00000000000E+00 0. -1.
          6    1    1    2  502    0 -0.17747633737E+03  0.12319762376E+03 -0.30608869912E+04  0.30733188376E+04  0.17200000000E+03 0. -1.
         -6    1    1    2    0  501  0.17747633737E+03 -0.12319762376E+03 -0.62485685427E+03  0.68315854174E+03  0.17200000000E+03 0.  1.
</event>
<event>
 4    1  0.3191769E-002  0.1907231E+03  0.7818608E-02  0.1157811E+00
          1   -1    0    0  502    0  0.00000000000E+00  0.00000000000E+00  0.13468179942E+04  0.13468179942E+04  0.00000000000E+00 0. -1.
         -1   -1    0    0    0  501 -0.00000000000E+00 -0.00000000000E+00 -0.74699460646E+02  0.74699460646E+02  0.00000000000E+00 0.  1.
          6    1    1    2  502    0  0.47068306110E+00 -0.82407982530E+02  0.12039729119E+04  0.12189856725E+04  0.17200000000E+03 0. -1.
         -6    1    1    2    0  501 -0.47068306110E+00  0.82407982530E+02  0.68145621692E+02  0.20253178240E+03  0.17200000000E+03 0.  1.
</event>
<event>
 4    1  0.3191769E-002  0.3898416E+03  0.7818608E-02  0.1047355E+00
          2   -1    0    0  502    0  0.00000000000E+00  0.00000000000E+00  0.18480707877E+04  0.18480707877E+04  0.00000000000E+00 0. -1.
         -2   -1    0    0    0  501 -0.00000000000E+00 -0.00000000000E+00 -0.84125399807E+02  0.84125399807E+02  0.00000000000E+00 0.  1.
          6    1    1    2  502    0  0.19469334353E+03  0.29066649332E+03  0.10267862372E+04  0.10983016367E+04  0.17200000000E+03 0. -1.
         -6    1    1    2    0  501 -0.19469334353E+03 -0.29066649332E+03  0.73715915070E+03  0.83389455077E+03  0.17200000000E+03 0.  1.
</event>
<event>
 4    1  0.3191769E-002  0.2400965E+03  0.7818608E-02  0.1119729E+00
          2   -1    0    0  502    0  0.00000000000E+00  0.00000000000E+00  0.26173760472E+04  0.26173760472E+04  0.00000000000E+00 0. -1.
         -2   -1    0    0    0  501 -0.00000000000E+00 -0.00000000000E+00 -0.61128972766E+02  0.61128972766E+02  0.00000000000E+00 0.  1.
          6    1    1    2  502    0  0.16482933265E+03  0.29893284105E+02  0.23492785146E+04  0.23615155846E+04  0.17200000000E+03 0. -1.
         -6    1    1    2    0  501 -0.16482933265E+03 -0.29893284105E+02  0.20696855978E+03  0.31698943527E+03  0.17200000000E+03 0.  1.
</event>
<event>
 4    1  0.3191769E-002  0.2105976E+03  0.7818608E-02  0.1141094E+00
         -2   -1    0    0    0  501 -0.00000000000E+00  0.00000000000E+00  0.94687313755E+02  0.94687313755E+02  0.00000000000E+00 0.  1.
          2   -1    0    0  502    0  0.00000000000E+00 -0.00000000000E+00 -0.70991696158E+03  0.70991696158E+03  0.00000000000E+00 0. -1.
          6    1    1    2  502    0 -0.71670336978E+02  0.98136158296E+02 -0.54226680960E+03  0.58172556723E+03  0.17200000000E+03 0. -1.
         -6    1    1    2    0  501  0.71670336978E+02 -0.98136158296E+02 -0.72962838223E+02  0.22287870811E+03  0.17200000000E+03 0.  1.
</event>
<event>
 4    1  0.3191769E-002  0.7605217E+03  0.7818608E-02  0.9618987E-01
          2   -1    0    0  502    0  0.00000000000E+00  0.00000000000E+00  0.10309860361E+04  0.10309860361E+04  0.00000000000E+00 0. -1.
         -2   -1    0    0    0  501 -0.00000000000E+00 -0.00000000000E+00 -0.73192342019E+03  0.73192342019E+03  0.00000000000E+00 0.  1.
          6    1    1    2  502    0 -0.70413521063E+03 -0.23022356809E+03  0.57547825158E+03  0.95371300934E+03  0.17200000000E+03 0. -1.
         -6    1    1    2    0  501  0.70413521063E+03  0.23022356809E+03 -0.27641563565E+03  0.80919644697E+03  0.17200000000E+03 0.  1.
</event>
<event>
 4    1  0.3191769E-002  0.2760431E+03  0.7818608E-02  0.1097870E+00
         -2   -1    0    0    0  501 -0.00000000000E+00  0.00000000000E+00  0.24252022051E+03  0.24252022051E+03  0.00000000000E+00 0.  1.
          2   -1    0    0  502    0  0.00000000000E+00 -0.00000000000E+00 -0.10571432564E+04  0.10571432564E+04  0.00000000000E+00 0. -1.
          6    1    1    2  502    0  0.21404062365E+03  0.28326334065E+02 -0.95207993347E+03  0.99129005316E+03  0.17200000000E+03 0. -1.
         -6    1    1    2    0  501 -0.21404062365E+03 -0.28326334065E+02  0.13745689759E+03  0.30837342374E+03  0.17200000000E+03 0.  1.
</event>
<event>
 4    1  0.3191769E-002  0.2085583E+03  0.7818608E-02  0.1142713E+00
         -2   -1    0    0    0  501 -0.00000000000E+00  0.00000000000E+00  0.25160500792E+04  0.25160500792E+04  0.00000000000E+00 0.  1.
          2   -1    0    0  502    0  0.00000000000E+00 -0.00000000000E+00 -0.30647660420E+02  0.30647660420E+02  0.00000000000E+00 0. -1.
          6    1    1    2  502    0 -0.11779464940E+03  0.60808775517E+01  0.20834231449E+04  0.20938358478E+04  0.17200000000E+03 0.  1.
         -6    1    1    2    0  501  0.11779464940E+03 -0.60808775517E+01  0.40197927382E+03  0.45286189184E+03  0.17200000000E+03 0.  1.
</event>
<event>
 4    1  0.3191769E-002  0.5465419E+03  0.7818608E-02  0.1002298E+00
         -1   -1    0    0    0  501 -0.00000000000E+00  0.00000000000E+00  0.17666145339E+03  0.17666145339E+03  0.00000000000E+00 0.  1.
          1   -1    0    0  502    0  0.00000000000E+00 -0.00000000000E+00 -0.18190427121E+04  0.18190427121E+04  0.00000000000E+00 0. -1.
          6    1    1    2  502    0  0.50737508064E+03  0.10814135179E+03 -0.55629406203E+03  0.77985326047E+03  0.17200000000E+03 0. -1.
         -6    1    1    2    0  501 -0.50737508064E+03 -0.10814135179E+03 -0.10860871967E+04  0.12158509050E+04  0.17200000000E+03 0.  1.
</event>
<event>
 4    1  0.3191769E-002  0.1745998E+03  0.7818608E-02  0.1173134E+00
         -1   -1    0    0    0  501 -0.00000000000E+00  0.00000000000E+00  0.26418020495E+02  0.26418020495E+02  0.00000000000E+00 0.  1.
          1   -1    0    0  502    0  0.00000000000E+00 -0.00000000000E+00 -0.27031194812E+04  0.27031194812E+04  0.00000000000E+00 0. -1.
          6    1    1    2  502    0  0.24188707582E+02 -0.17776761548E+02 -0.23715301456E+04  0.23779487669E+04  0.17200000000E+03 0. -1.
         -6    1    1    2    0  501 -0.24188707582E+02  0.17776761548E+02 -0.30517131511E+03  0.35158873474E+03  0.17200000000E+03 0.  1.
</event>
<event>
 4    1  0.3191769E-002  0.1877482E+03  0.7818608E-02  0.1160508E+00
          2   -1    0    0  502    0  0.00000000000E+00  0.00000000000E+00  0.21070088344E+04  0.21070088344E+04  0.00000000000E+00 0. -1.
         -2   -1    0    0    0  501 -0.00000000000E+00 -0.00000000000E+00 -0.19865670843E+02  0.19865670843E+02  0.00000000000E+00 0.  1.
          6    1    1    2  502    0  0.51387297128E+02 -0.54997618462E+02  0.14660980591E+04  0.14780706719E+04  0.17200000000E+03 0. -1.
         -6    1    1    2    0  501 -0.51387297128E+02  0.54997618462E+02  0.62104510447E+03  0.64880383332E+03  0.17200000000E+03 0.  1.
</event>
<event>
 4    1  0.3191769E-002  0.3039408E+03  0.7818608E-02  0.1083287E+00
         -1   -1    0    0    0  501 -0.00000000000E+00  0.00000000000E+00  0.93218099048E+02  0.93218099048E+02  0.00000000000E+00 0.  1.
          1   -1    0    0  502    0  0.00000000000E+00 -0.00000000000E+00 -0.12003533878E+04  0.12003533878E+04  0.00000000000E+00 0. -1.
          6    1    1    2  502    0  0.23134316505E+03  0.96313900843E+02 -0.82367471669E+03  0.87796359060E+03  0.17200000000E+03 0. -1.
         -6    1    1    2    0  501 -0.23134316505E+03 -0.96313900843E+02 -0.28346057209E+03  0.41560789627E+03  0.17200000000E+03 0.  1.
</event>
<event>
 4    1  0.3191769E-002  0.2212483E+03  0.7818608E-02  0.1132956E+00
          2   -1    0    0  502    0  0.00000000000E+00  0.00000000000E+00  0.35442740594E+03  0.35442740594E+03  0.00000000000E+00 0. -1.
         -2   -1    0    0    0  501 -0.00000000000E+00 -0.00000000000E+00 -0.13821432834E+03  0.13821432834E+03  0.00000000000E+00 0.  1.
          6    1    1    2  502    0  0.10328291697E+03  0.93270928757E+02  0.11479501972E+03  0.24925634123E+03  0.17200000000E+03 0. -1.
         -6    1    1    2    0  501 -0.10328291697E+03 -0.93270928757E+02  0.10141805788E+03  0.24338539306E+03  0.17200000000E+03 0.  1.
</event>
<event>
 4    1  0.3191769E-002  0.4343089E+03  0.7818608E-02  0.1032507E+00
          2   -1    0    0  502    0  0.00000000000E+00  0.00000000000E+00  0.15233238976E+04  0.15233238976E+04  0.00000000000E+00 0. -1.
         -2   -1    0    0    0  501 -0.00000000000E+00 -0.00000000000E+00 -0.18547314657E+03  0.18547314657E+03  0.00000000000E+00 0.  1.
          6    1    1    2  502    0  0.28495194625E+03  0.27900295809E+03  0.11615124721E+04  0.12400546299E+04  0.17200000000E+03 0. -1.
         -6    1    1    2    0  501 -0.28495194625E+03 -0.27900295809E+03  0.17633827887E+03  0.46874241422E+03  0.17200000000E+03 0.  1.
</event>
<event>
 4    1  0.3191769E-002  0.1892831E+03  0.7818608E-02  0.1159110E+00
          1   -1    0    0  502    0  0.00000000000E+00  0.00000000000E+00  0.92194862899E+03  0.92194862899E+03  0.00000000000E+00 0. -1.
         -1   -1    0    0    0  501 -0.00000000000E+00 -0.00000000000E+00 -0.11194118076E+03  0.11194118076E+03  0.00000000000E+00 0.  1.
          6    1    1    2  502    0 -0.31626663492E+02 -0.72414428682E+02  0.82268818570E+03  0.84418241288E+03  0.17200000000E+03 0. -1.
         -6    1    1    2    0  501  0.31626663492E+02  0.72414428682E+02 -0.12680737466E+02  0.18970739687E+03  0.17200000000E+03 0.  1.
</event>
<event>
 4    1  0.3191769E-002  0.3106775E+03  0.7818608E-02  0.1080022E+00
         -1   -1    0    0    0  501 -0.00000000000E+00  0.00000000000E+00  0.87880198884E+02  0.87880198884E+02  0.00000000000E+00 0.  1.
          1   -1    0    0  502    0  0.00000000000E+00 -0.00000000000E+00 -0.13476980721E+04  0.13476980721E+04  0.00000000000E+00 0. -1.
          6    1    1    2  502    0  0.17864006370E+03  0.18714761288E+03 -0.93867565922E+03  0.98875299978E+03  0.17200000000E+03 0. -1.
         -6    1    1    2    0  501 -0.17864006370E+03 -0.18714761288E+03 -0.32114221395E+03  0.44682527116E+03  0.17200000000E+03 0.  1.
</event>
<event>
 4    1  0.3191769E-002  0.2175066E+03  0.7818608E-02  0.1135756E+00
          1   -1    0    0  502    0  0.00000000000E+00  0.00000000000E+00  0.32772504444E+03  0.32772504444E+03  0.00000000000E+00 0. -1.
         -1   -1    0    0    0  501 -0.00000000000E+00 -0.00000000000E+00 -0.18167865294E+03  0.18167865294E+03  0.00000000000E+00 0.  1.
          6    1    1    2  502    0 -0.62861057942E+02  0.11736104388E+03  0.18846563630E+03  0.28779927605E+03  0.17200000000E+03 0. -1.
         -6    1    1    2    0  501  0.62861057942E+02 -0.11736104388E+03 -0.42419244802E+02  0.22160442134E+03  0.17200000000E+03 0.  1.
</event>
<event>
 4    1  0.3191769E-002  0.2099892E+03  0.7818608E-02  0.1141575E+00
         -1   -1    0    0    0  501 -0.00000000000E+00  0.00000000000E+00  0.12037877253E+03  0.12037877253E+03  0.00000000000E+00 0.  1.
          1   -1    0    0  502    0  0.00000000000E+00 -0.00000000000E+00 -0.47461655827E+03  0.47461655827E+03  0.00000000000E+00 0. -1.
          6    1    1    2  502    0  0.10062753366E+03 -0.66223492675E+02 -0.31923646134E+03  0.38210910715E+03  0.17200000000E+03 0. -1.
         -6    1    1    2    0  501 -0.10062753366E+03  0.66223492675E+02 -0.35001324387E+02  0.21288622365E+03  0.17200000000E+03 0.  1.
</event>
<event>
 4    1  0.3191769E-002  0.4009109E+03  0.7818608E-02  0.1043465E+00
          1   -1    0    0  502    0  0.00000000000E+00  0.00000000000E+00  0.10498484450E+04  0.10498484450E+04  0.00000000000E+00 0. -1.
         -1   -1    0    0    0  501 -0.00000000000E+00 -0.00000000000E+00 -0.30054622986E+03  0.30054622986E+03  0.00000000000E+00 0.  1.
          6    1    1    2  502    0  0.32299972695E+03  0.16375819549E+03  0.84757911967E+03  0.93761395803E+03  0.17200000000E+03 0. -1.
         -6    1    1    2    0  501 -0.32299972695E+03 -0.16375819549E+03 -0.98276904553E+02  0.41278071681E+03  0.17200000000E+03 0.  1.
</event>
<event>
 4    1  0.3191769E-002  0.3086391E+03  0.7818608E-02  0.1081000E+00
         -2   -1    0    0    0  501 -0.00000000000E+00  0.00000000000E+00  0.63926436297E+02  0.63926436297E+02  0.00000000000E+00 0.  1.
          2   -1    0    0  502    0  0.00000000000E+00 -0.00000000000E+00 -0.29406616848E+04  0.29406616848E+04  0.00000000000E+00 0. -1.
          6    1    1    2  502    0  0.14947214661E+03 -0.20816385352E+03 -0.24934768138E+04  0.25125056683E+04  0.17200000000E+03 0. -1.
         -6    1    1    2    0  501 -0.14947214661E+03  0.20816385352E+03 -0.38325843468E+03  0.49208245272E+03  0.17200000000E+03 0.  1.
</event>
<event>
 4    1  0.3191769E-002  0.2108570E+03  0.7818608E-02  0.1140889E+00
          1   -1    0    0  502    0  0.00000000000E+00  0.00000000000E+00  0.45239432213E+03  0.45239432213E+03  0.00000000000E+00 0. -1.
         -1   -1    0    0    0  501 -0.00000000000E+00 -0.00000000000E+00 -0.13760522168E+03  0.13760522168E+03  0.00000000000E+00 0.  1.
          6    1    1    2  502    0 -0.11782470630E+02  0.12139949720E+03  0.31510037702E+03  0.37914233756E+03  0.17200000000E+03 0. -1.
         -6    1    1    2    0  501  0.11782470630E+02 -0.12139949720E+03 -0.31127657286E+00  0.21085720625E+03  0.17200000000E+03 0.  1.
</event>
<event>
 4    1  0.3191769E-002  0.2352658E+03  0.7818608E-02  0.1122987E+00
         -2   -1    0    0    0  501 -0.00000000000E+00  0.00000000000E+00  0.25019744708E+03  0.25019744708E+03  0.00000000000E+00 0.  1.
          2   -1    0    0  502    0  0.00000000000E+00 -0.00000000000E+00 -0.24855991994E+03  0.24855991994E+03  0.00000000000E+00 0. -1.
          6    1    1    2  502    0  0.30438860108E+02 -0.15760544694E+03 -0.81880269243E+02  0.24910716489E+03  0.17200000000E+03 0. -1.
         -6    1    1    2    0  501 -0.30438860108E+02  0.15760544694E+03  0.83517796387E+02  0.24965020213E+03  0.17200000000E+03 0.  1.
</event>
<event>
 4    1  0.3191769E-002  0.3400983E+03  0.7818608E-02  0.1066754E+00
          2   -1    0    0  502    0  0.00000000000E+00  0.00000000000E+00  0.32961863117E+03  0.32961863117E+03  0.00000000000E+00 0. -1.
         -2   -1    0    0    0  501 -0.00000000000E+00 -0.00000000000E+00 -0.35353076489E+03  0.35353076489E+03  0.00000000000E+00 0.  1.
          6    1    1    2  502    0 -0.32058387272E+02 -0.29164206769E+03  0.17447167646E+02  0.34054550283E+03  0.17200000000E+03 0. -1.
         -6    1    1    2    0  501  0.32058387272E+02  0.29164206769E+03 -0.41359301368E+02  0.34260389322E+03  0.17200000000E+03 0.  1.
</event>
<event>
 4    1  0.3191769E-002  0.2119942E+03  0.7818608E-02  0.1139996E+00
         -3   -1    0    0    0  501 -0.00000000000E+00  0.00000000000E+00  0.31003607083E+03  0.31003607083E+03  0.00000000000E+00 0.  1.
          3   -1    0    0  502    0  0.00000000000E+00 -0.00000000000E+00 -0.14566777346E+03  0.14566777346E+03  0.00000000000E+00 0. -1.
          6    1    1    2  502    0 -0.90757800439E+02 -0.84383550733E+02  0.98112401133E+02  0.23359710022E+03  0.17200000000E+03 0. -1.
         -6    1    1    2    0  501  0.90757800439E+02  0.84383550733E+02  0.66255896242E+02  0.22210674407E+03  0.17200000000E+03 0. -1.
</event>
<event>
 4    1  0.3191769E-002  0.1770225E+03  0.7818608E-02  0.1170716E+00
         -1   -1    0    0    0  501 -0.00000000000E+00  0.00000000000E+00  0.37251926274E+03  0.37251926274E+03  0.00000000000E+00 0.  1.
          1   -1    0    0  502    0  0.00000000000E+00 -0.00000000000E+00 -0.87772665262E+02  0.87772665262E+02  0.00000000000E+00 0. -1.
          6    1    1    2  502    0 -0.37753960627E+02 -0.18100311005E+02  0.95435478385E+02  0.20110920749E+03  0.17200000000E+03 0. -1.
         -6    1    1    2    0  501  0.37753960627E+02  0.18100311005E+02  0.18931111909E+03  0.25918272052E+03  0.17200000000E+03 0.  1.
</event>
<event>
 4    1  0.3191769E-002  0.3802915E+03  0.7818608E-02  0.1050826E+00
         -2   -1    0    0    0  501 -0.00000000000E+00  0.00000000000E+00  0.11923518482E+03  0.11923518482E+03  0.00000000000E+00 0.  1.
          2   -1    0    0  502    0  0.00000000000E+00 -0.00000000000E+00 -0.12171887383E+04  0.12171887383E+04  0.00000000000E+00 0. -1.
          6    1    1    2  502    0  0.30715598846E+03  0.14385003992E+03 -0.58859144506E+03  0.70075782152E+03  0.17200000000E+03 0. -1.
         -6    1    1    2    0  501 -0.30715598846E+03 -0.14385003992E+03 -0.50936210846E+03  0.63566610164E+03  0.17200000000E+03 0.  1.
</event>
<event>
 4    1  0.3191769E-002  0.1921796E+03  0.7818608E-02  0.1156510E+00
         -2   -1    0    0    0  501 -0.00000000000E+00  0.00000000000E+00  0.62279345972E+02  0.62279345972E+02  0.00000000000E+00 0.  1.
          2   -1    0    0  502    0  0.00000000000E+00 -0.00000000000E+00 -0.95318089803E+03  0.95318089803E+03  0.00000000000E+00 0. -1.
          6    1    1    2  502    0 -0.39907683947E+02 -0.75870702581E+02 -0.75754999579E+03  0.78154653276E+03  0.17200000000E+03 0. -1.
         -6    1    1    2    0  501  0.39907683947E+02  0.75870702581E+02 -0.13335155627E+03  0.23391371124E+03  0.17200000000E+03 0.  1.
</event>
<event>
 4    1  0.3191769E-002  0.2354083E+03  0.7818608E-02  0.1122890E+00
          2   -1    0    0  502    0  0.00000000000E+00  0.00000000000E+00  0.21479401904E+03  0.21479401904E+03  0.00000000000E+00 0. -1.
         -2   -1    0    0    0  501 -0.00000000000E+00 -0.00000000000E+00 -0.25804685593E+03  0.25804685593E+03  0.00000000000E+00 0.  1.
          6    1    1    2  502    0  0.86183607388E+02  0.13566673774E+03 -0.24777042790E+02  0.23670863897E+03  0.17200000000E+03 0. -1.
         -6    1    1    2    0  501 -0.86183607388E+02 -0.13566673774E+03 -0.18475794102E+02  0.23613223600E+03  0.17200000000E+03 0.  1.
</event>
<event>
 4    1  0.3191769E-002  0.3273104E+03  0.7818608E-02  0.1072333E+00
          2   -1    0    0  502    0  0.00000000000E+00  0.00000000000E+00  0.72676312748E+03  0.72676312748E+03  0.00000000000E+00 0. -1.
         -2   -1    0    0    0  501 -0.00000000000E+00 -0.00000000000E+00 -0.36292337270E+03  0.36292337270E+03  0.00000000000E+00 0.  1.
          6    1    1    2  502    0 -0.25424219453E+03  0.11361767572E+03  0.60177681380E+03  0.68503095064E+03  0.17200000000E+03 0. -1.
         -6    1    1    2    0  501  0.25424219453E+03 -0.11361767572E+03 -0.23793705902E+03  0.40465554953E+03  0.17200000000E+03 0.  1.
</event>
<event>
 4    1  0.3191769E-002  0.2354850E+03  0.7818608E-02  0.1122838E+00
         -2   -1    0    0    0  501 -0.00000000000E+00  0.00000000000E+00  0.25288470750E+02  0.25288470750E+02  0.00000000000E+00 0.  1.
          2   -1    0    0  502    0  0.00000000000E+00 -0.00000000000E+00 -0.22609342049E+04  0.22609342049E+04  0.00000000000E+00 0. -1.
          6    1    1    2  502    0  0.11075966123E+03  0.11662534911E+03 -0.91941927741E+03  0.94909692987E+03  0.17200000000E+03 0.  1.
         -6    1    1    2    0  501 -0.11075966123E+03 -0.11662534911E+03 -0.13162264567E+04  0.13371257458E+04  0.17200000000E+03 0.  1.
</event>
<event>
 4    1  0.3191769E-002  0.1918811E+03  0.7818608E-02  0.1156776E+00
         -1   -1    0    0    0  501 -0.00000000000E+00  0.00000000000E+00  0.54545522311E+03  0.54545522311E+03  0.00000000000E+00 0.  1.
          1   -1    0    0  502    0  0.00000000000E+00 -0.00000000000E+00 -0.14463402155E+03  0.14463402155E+03  0.00000000000E+00 0. -1.
          6    1    1    2  502    0  0.29457128464E+02  0.79791220635E+02 -0.51567227912E+02  0.19868955761E+03  0.17200000000E+03 0. -1.
         -6    1    1    2    0  501 -0.29457128464E+02 -0.79791220635E+02  0.45238842947E+03  0.49139968705E+03  0.17200000000E+03 0.  1.
</event>
<event>
 4    1  0.3191769E-002  0.1751665E+03  0.7818608E-02  0.1172565E+00
         -2   -1    0    0    0  501 -0.00000000000E+00  0.00000000000E+00  0.50093366243E+02  0.50093366243E+02  0.00000000000E+00 0.  1.
          2   -1    0    0  502    0  0.00000000000E+00 -0.00000000000E+00 -0.11053307169E+04  0.11053307169E+04  0.00000000000E+00 0. -1.
          6    1    1    2  502    0 -0.32288103767E+02  0.75352791123E+01 -0.91336728970E+03  0.93001242356E+03  0.17200000000E+03 0. -1.
         -6    1    1    2    0  501  0.32288103767E+02 -0.75352791123E+01 -0.14187006093E+03  0.22541165955E+03  0.17200000000E+03 0.  1.
</event>
<event>
 4    1  0.3191769E-002  0.1909707E+03  0.7818608E-02  0.1157589E+00
         -1   -1    0    0    0  501 -0.00000000000E+00  0.00000000000E+00  0.80219300272E+02  0.80219300272E+02  0.00000000000E+00 0.  1.
          1   -1    0    0  502    0  0.00000000000E+00 -0.00000000000E+00 -0.62252430969E+03  0.62252430969E+03  0.00000000000E+00 0. -1.
          6    1    1    2  502    0  0.65347433464E+02  0.51142116890E+02 -0.45363093390E+03  0.49218982860E+03  0.17200000000E+03 0. -1.
         -6    1    1    2    0  501 -0.65347433464E+02 -0.51142116890E+02 -0.88674075521E+02  0.21055378137E+03  0.17200000000E+03 0.  1.
</event>
<event>
 4    1  0.3191769E-002  0.2360549E+03  0.7818608E-02  0.1122449E+00
         -1   -1    0    0    0  501 -0.00000000000E+00  0.00000000000E+00  0.45174404005E+02  0.45174404005E+02  0.00000000000E+00 0.  1.
          1   -1    0    0  502    0  0.00000000000E+00 -0.00000000000E+00 -0.12712188037E+04  0.12712188037E+04  0.00000000000E+00 0. -1.
          6    1    1    2  502    0 -0.12661878315E+03 -0.10052651101E+03 -0.72642340301E+03  0.76381467393E+03  0.17200000000E+03 0. -1.
         -6    1    1    2    0  501  0.12661878315E+03  0.10052651101E+03 -0.49962099665E+03  0.55257853374E+03  0.17200000000E+03 0.  1.
</event>
<event>
 4    1  0.3191769E-002  0.2575550E+03  0.7818608E-02  0.1108621E+00
         -1   -1    0    0    0  501 -0.00000000000E+00  0.00000000000E+00  0.88998822025E+02  0.88998822025E+02  0.00000000000E+00 0.  1.
          1   -1    0    0  502    0  0.00000000000E+00 -0.00000000000E+00 -0.15150384781E+04  0.15150384781E+04  0.00000000000E+00 0. -1.
          6    1    1    2  502    0  0.19160367795E+03  0.62118549496E+01 -0.12846727091E+04  0.13102360574E+04  0.17200000000E+03 0. -1.
         -6    1    1    2    0  501 -0.19160367795E+03 -0.62118549496E+01 -0.14136694698E+03  0.29380124275E+03  0.17200000000E+03 0.  1.
</event>
<event>
 4    1  0.3191769E-002  0.2870308E+03  0.7818608E-02  0.1091910E+00
          2   -1    0    0  502    0  0.00000000000E+00  0.00000000000E+00  0.12145509439E+04  0.12145509439E+04  0.00000000000E+00 0. -1.
         -2   -1    0    0    0  501 -0.00000000000E+00 -0.00000000000E+00 -0.91480105371E+02  0.91480105371E+02  0.00000000000E+00 0.  1.
          6    1    1    2  502    0  0.56447118955E+02  0.22274744606E+03  0.89354350362E+03  0.93851302326E+03  0.17200000000E+03 0. -1.
         -6    1    1    2    0  501 -0.56447118955E+02 -0.22274744606E+03  0.22952733487E+03  0.36751802597E+03  0.17200000000E+03 0.  1.
</event>
<event>
 4    1  0.3191769E-002  0.2118221E+03  0.7818608E-02  0.1140131E+00
         -2   -1    0    0    0  501 -0.00000000000E+00  0.00000000000E+00  0.10895048844E+03  0.10895048844E+03  0.00000000000E+00 0.  1.
          2   -1    0    0  502    0  0.00000000000E+00 -0.00000000000E+00 -0.17311889946E+04  0.17311889946E+04  0.00000000000E+00 0. -1.
          6    1    1    2  502    0 -0.12362987806E+03  0.51844015236E+00 -0.16143321981E+04  0.16281698502E+04  0.17200000000E+03 0. -1.
         -6    1    1    2    0  501  0.12362987806E+03 -0.51844015236E+00 -0.79063081193E+01  0.21196963282E+03  0.17200000000E+03 0.  1.
</event>
<event>
 4    1  0.3191769E-002  0.1815325E+03  0.7818608E-02  0.1166328E+00
          2   -1    0    0  502    0  0.00000000000E+00  0.00000000000E+00  0.62722665640E+03  0.62722665640E+03  0.00000000000E+00 0. -1.
         -2   -1    0    0    0  501 -0.00000000000E+00 -0.00000000000E+00 -0.52963214780E+02  0.52963214780E+02  0.00000000000E+00 0.  1.
          6    1    1    2  502    0 -0.41663354395E+02 -0.40425542870E+02  0.31755765966E+03  0.36578262237E+03  0.17200000000E+03 0. -1.
         -6    1    1    2    0  501  0.41663354395E+02  0.40425542870E+02  0.25670578196E+03  0.31440724881E+03  0.17200000000E+03 0.  1.
</event>
<event>
 4    1  0.3191769E-002  0.2001011E+03  0.7818608E-02  0.1149654E+00
          2   -1    0    0  502    0  0.00000000000E+00  0.00000000000E+00  0.45145568174E+03  0.45145568174E+03  0.00000000000E+00 0. -1.
         -2   -1    0    0    0  501 -0.00000000000E+00 -0.00000000000E+00 -0.13224003159E+03  0.13224003159E+03  0.00000000000E+00 0.  1.
          6    1    1    2  502    0 -0.56609896283E+02  0.85157362957E+02  0.32708663202E+03  0.38343985405E+03  0.17200000000E+03 0. -1.
         -6    1    1    2    0  501  0.56609896283E+02 -0.85157362957E+02 -0.78709818711E+01  0.20025585929E+03  0.17200000000E+03 0.  1.
</event>
<event>
 4    1  0.3191769E-002  0.2624264E+03  0.7818608E-02  0.1105694E+00
          1   -1    0    0  502    0  0.00000000000E+00  0.00000000000E+00  0.11180058030E+04  0.11180058030E+04  0.00000000000E+00 0. -1.
         -1   -1    0    0    0  501 -0.00000000000E+00 -0.00000000000E+00 -0.10182129583E+03  0.10182129583E+03  0.00000000000E+00 0.  1.
          6    1    1    2  502    0  0.10881810394E+03  0.16565691333E+03  0.89143262291E+03  0.92925761437E+03  0.17200000000E+03 0. -1.
         -6    1    1    2    0  501 -0.10881810394E+03 -0.16565691333E+03  0.12475188427E+03  0.29056948448E+03  0.17200000000E+03 0.  1.
</event>
<event>
 4    1  0.3191769E-002  0.2096360E+03  0.7818608E-02  0.1141855E+00
         -2   -1    0    0    0  501 -0.00000000000E+00  0.00000000000E+00  0.21897362200E+03  0.21897362200E+03  0.00000000000E+00 0.  1.
          2   -1    0    0  502    0  0.00000000000E+00 -0.00000000000E+00 -0.20973545617E+03  0.20973545617E+03  0.00000000000E+00 0. -1.
          6    1    1    2  502    0  0.10552391434E+03 -0.56814942229E+02 -0.39880555921E+02  0.21339562530E+03  0.17200000000E+03 0. -1.
         -6    1    1    2    0  501 -0.10552391434E+03  0.56814942229E+02  0.49118721750E+02  0.21531345286E+03  0.17200000000E+03 0.  1.
</event>
<event>
 4    1  0.3191769E-002  0.2934856E+03  0.7818608E-02  0.1088543E+00
          2   -1    0    0  502    0  0.00000000000E+00  0.00000000000E+00  0.19079556938E+04  0.19079556938E+04  0.00000000000E+00 0. -1.
         -2   -1    0    0    0  501 -0.00000000000E+00 -0.00000000000E+00 -0.78975265164E+02  0.78975265164E+02  0.00000000000E+00 0.  1.
          6    1    1    2  502    0  0.19876951356E+03 -0.13053915920E+03  0.15647140060E+04  0.15919999097E+04  0.17200000000E+03 0. -1.
         -6    1    1    2    0  501 -0.19876951356E+03  0.13053915920E+03  0.26426642258E+03  0.39493104931E+03  0.17200000000E+03 0.  1.
</event>
<event>
 4    1  0.3191769E-002  0.4596060E+03  0.7818608E-02  0.1024896E+00
          1   -1    0    0  502    0  0.00000000000E+00  0.00000000000E+00  0.64580701637E+03  0.64580701637E+03  0.00000000000E+00 0. -1.
         -1   -1    0    0    0  501 -0.00000000000E+00 -0.00000000000E+00 -0.32953033824E+03  0.32953033824E+03  0.00000000000E+00 0.  1.
          6    1    1    2  502    0  0.29082896420E+03 -0.31156409748E+03  0.20009604443E+03  0.50127447597E+03  0.17200000000E+03 0. -1.
         -6    1    1    2    0  501 -0.29082896420E+03  0.31156409748E+03  0.11618063370E+03  0.47406287864E+03  0.17200000000E+03 0.  1.
</event>
<event>
 4    1  0.3191769E-002  0.2196711E+03  0.7818608E-02  0.1134129E+00
         -1   -1    0    0    0  501 -0.00000000000E+00  0.00000000000E+00  0.61660671713E+03  0.61660671713E+03  0.00000000000E+00 0.  1.
          1   -1    0    0  502    0  0.00000000000E+00 -0.00000000000E+00 -0.83124997420E+02  0.83124997420E+02  0.00000000000E+00 0. -1.
          6    1    1    2  502    0 -0.13471309561E+03  0.22885864960E+02  0.18209691012E+03  0.28533255268E+03  0.17200000000E+03 0. -1.
         -6    1    1    2    0  501  0.13471309561E+03 -0.22885864960E+02  0.35138480959E+03  0.41439916186E+03  0.17200000000E+03 0.  1.
</event>
<event>
 4    1  0.3191769E-002  0.3858165E+03  0.7818608E-02  0.1048805E+00
          2   -1    0    0  502    0  0.00000000000E+00  0.00000000000E+00  0.69509907272E+03  0.69509907272E+03  0.00000000000E+00 0. -1.
         -2   -1    0    0    0  501 -0.00000000000E+00 -0.00000000000E+00 -0.29116998828E+03  0.29116998828E+03  0.00000000000E+00 0.  1.
          6    1    1    2  502    0  0.26261274154E+03  0.22428752299E+03 -0.51664149871E+02  0.38926023348E+03  0.17200000000E+03 0.  1.
         -6    1    1    2    0  501 -0.26261274154E+03 -0.22428752299E+03  0.45559323431E+03  0.59700882752E+03  0.17200000000E+03 0. -1.
</event>
<event>
 4    1  0.3191769E-002  0.2266061E+03  0.7818608E-02  0.1129052E+00
          2   -1    0    0  502    0  0.00000000000E+00  0.00000000000E+00  0.19199692832E+03  0.19199692832E+03  0.00000000000E+00 0. -1.
         -2   -1    0    0    0  501 -0.00000000000E+00 -0.00000000000E+00 -0.26886435226E+03  0.26886435226E+03  0.00000000000E+00 0.  1.
          6    1    1    2  502    0 -0.11959519993E+03 -0.86390453852E+02 -0.21743696346E+02  0.22764689915E+03  0.17200000000E+03 0. -1.
         -6    1    1    2    0  501  0.11959519993E+03  0.86390453852E+02 -0.55123727601E+02  0.23321438143E+03  0.17200000000E+03 0.  1.
</event>
<event>
 4    1  0.3191769E-002  0.3313812E+03  0.7818608E-02  0.1070527E+00
         -1   -1    0    0    0  501 -0.00000000000E+00  0.00000000000E+00  0.40842846431E+03  0.40842846431E+03  0.00000000000E+00 0.  1.
          1   -1    0    0  502    0  0.00000000000E+00 -0.00000000000E+00 -0.35791799426E+03  0.35791799426E+03  0.00000000000E+00 0. -1.
          6    1    1    2  502    0  0.28153200933E+03  0.31132649653E+02 -0.16587056955E+03  0.37057598411E+03  0.17200000000E+03 0. -1.
         -6    1    1    2    0  501 -0.28153200933E+03 -0.31132649653E+02  0.21638103960E+03  0.39577047446E+03  0.17200000000E+03 0.  1.
</event>
<event>
 4    1  0.3191769E-002  0.1750710E+03  0.7818608E-02  0.1172660E+00
         -1   -1    0    0    0  501 -0.00000000000E+00  0.00000000000E+00  0.11290708335E+02  0.11290708335E+02  0.00000000000E+00 0.  1.
          1   -1    0    0  502    0  0.00000000000E+00 -0.00000000000E+00 -0.27586541909E+04  0.27586541909E+04  0.00000000000E+00 0. -1.
          6    1    1    2  502    0  0.22970633705E+02 -0.23199418418E+02 -0.15486824300E+04  0.15585464806E+04  0.17200000000E+03 0. -1.
         -6    1    1    2    0  501 -0.22970633705E+02  0.23199418418E+02 -0.11986810525E+04  0.12113984186E+04  0.17200000000E+03 0.  1.
</event>
<event>
 4    1  0.3191769E-002  0.3282364E+03  0.7818608E-02  0.1071920E+00
         -1   -1    0    0    0  501 -0.00000000000E+00  0.00000000000E+00  0.18185219614E+03  0.18185219614E+03  0.00000000000E+00 0.  1.
          1   -1    0    0  502    0  0.00000000000E+00 -0.00000000000E+00 -0.33703588967E+04  0.33703588967E+04  0.00000000000E+00 0. -1.
          6    1    1    2  502    0 -0.26879568032E+03  0.76837646529E+02 -0.32067148266E+04  0.32234700435E+04  0.17200000000E+03 0. -1.
         -6    1    1    2    0  501  0.26879568032E+03 -0.76837646529E+02  0.18208126099E+02  0.32874104936E+03  0.17200000000E+03 0.  1.
</event>
<event>
 4    1  0.3191769E-002  0.1981672E+03  0.7818608E-02  0.1151295E+00
          2   -1    0    0  502    0  0.00000000000E+00  0.00000000000E+00  0.32369580083E+04  0.32369580083E+04  0.00000000000E+00 0. -1.
         -2   -1    0    0    0  501 -0.00000000000E+00 -0.00000000000E+00 -0.18279514032E+02  0.18279514032E+02  0.00000000000E+00 0.  1.
          6    1    1    2  502    0  0.96014129324E+02 -0.21622200742E+02  0.25532393702E+04  0.25609180999E+04  0.17200000000E+03 0. -1.
         -6    1    1    2    0  501 -0.96014129324E+02  0.21622200742E+02  0.66543912403E+03  0.69431942245E+03  0.17200000000E+03 0.  1.
</event>
<event>
 4    1  0.3191769E-002  0.2191089E+03  0.7818608E-02  0.1134549E+00
          2   -1    0    0  502    0  0.00000000000E+00  0.00000000000E+00  0.11001356397E+03  0.11001356397E+03  0.00000000000E+00 0. -1.
         -2   -1    0    0    0  501 -0.00000000000E+00 -0.00000000000E+00 -0.70122152861E+03  0.70122152861E+03  0.00000000000E+00 0.  1.
          6    1    1    2  502    0  0.66021393036E+01  0.13557704591E+03 -0.46331310431E+02  0.22395382101E+03  0.17200000000E+03 0. -1.
         -6    1    1    2    0  501 -0.66021393036E+01 -0.13557704591E+03 -0.54487665421E+03  0.58728127156E+03  0.17200000000E+03 0.  1.
</event>
<event>
 4    1  0.3191769E-002  0.1922495E+03  0.7818608E-02  0.1156448E+00
          2   -1    0    0  502    0  0.00000000000E+00  0.00000000000E+00  0.26428872707E+03  0.26428872707E+03  0.00000000000E+00 0. -1.
         -2   -1    0    0    0  501 -0.00000000000E+00 -0.00000000000E+00 -0.21365226771E+03  0.21365226771E+03  0.00000000000E+00 0.  1.
          6    1    1    2  502    0 -0.27957803770E+02 -0.81204985662E+02  0.16577261236E+03  0.25385123103E+03  0.17200000000E+03 0. -1.
         -6    1    1    2    0  501  0.27957803770E+02  0.81204985662E+02 -0.11513615300E+03  0.22408976375E+03  0.17200000000E+03 0.  1.
</event>
<event>
 4    1  0.3191769E-002  0.1833332E+03  0.7818608E-02  0.1164616E+00
          1   -1    0    0  502    0  0.00000000000E+00  0.00000000000E+00  0.44689156590E+03  0.44689156590E+03  0.00000000000E+00 0. -1.
         -1   -1    0    0    0  501 -0.00000000000E+00 -0.00000000000E+00 -0.91875743889E+02  0.91875743889E+02  0.00000000000E+00 0.  1.
          6    1    1    2  502    0  0.63165570452E+02  0.60970444823E+01  0.62778967237E+02  0.19378406015E+03  0.17200000000E+03 0.  1.
         -6    1    1    2    0  501 -0.63165570452E+02 -0.60970444823E+01  0.29223685477E+03  0.34498324964E+03  0.17200000000E+03 0. -1.
</event>
<event>
 4    1  0.3191769E-002  0.2159149E+03  0.7818608E-02  0.1136966E+00
          2   -1    0    0  502    0  0.00000000000E+00  0.00000000000E+00  0.98255247094E+03  0.98255247094E+03  0.00000000000E+00 0. -1.
         -2   -1    0    0    0  501 -0.00000000000E+00 -0.00000000000E+00 -0.47775372823E+02  0.47775372823E+02  0.00000000000E+00 0.  1.
          6    1    1    2  502    0 -0.43267814324E+02 -0.12313878029E+03  0.51009194989E+03  0.55390708635E+03  0.17200000000E+03 0.  1.
         -6    1    1    2    0  501  0.43267814324E+02  0.12313878029E+03  0.42468514823E+03  0.47642075741E+03  0.17200000000E+03 0.  1.
</event>
<event>
 4    1  0.3191769E-002  0.1979492E+03  0.7818608E-02  0.1151481E+00
          1   -1    0    0  502    0  0.00000000000E+00  0.00000000000E+00  0.79724433813E+03  0.79724433813E+03  0.00000000000E+00 0. -1.
         -1   -1    0    0    0  501 -0.00000000000E+00 -0.00000000000E+00 -0.62349628385E+02  0.62349628385E+02  0.00000000000E+00 0.  1.
          6    1    1    2  502    0  0.81681325231E+02  0.54111485823E+02  0.56520853830E+03  0.59886942112E+03  0.17200000000E+03 0. -1.
         -6    1    1    2    0  501 -0.81681325231E+02 -0.54111485823E+02  0.16968617144E+03  0.26072454539E+03  0.17200000000E+03 0.  1.
</event>
<event>
 4    1  0.3191769E-002  0.3936548E+03  0.7818608E-02  0.1045999E+00
         -2   -1    0    0    0  501 -0.00000000000E+00  0.00000000000E+00  0.96241668899E+02  0.96241668899E+02  0.00000000000E+00 0.  1.
          2   -1    0    0  502    0  0.00000000000E+00 -0.00000000000E+00 -0.17293779437E+04  0.17293779437E+04  0.00000000000E+00 0. -1.
          6    1    1    2  502    0  0.28759495323E+03  0.20656539133E+03 -0.10562378245E+04  0.11272100336E+04  0.17200000000E+03 0. -1.
         -6    1    1    2    0  501 -0.28759495323E+03 -0.20656539133E+03 -0.57689845026E+03  0.69840957893E+03  0.17200000000E+03 0.  1.
</event>
<event>
 4    1  0.3191769E-002  0.2282341E+03  0.7818608E-02  0.1127889E+00
         -2   -1    0    0    0  501 -0.00000000000E+00  0.00000000000E+00  0.15602503970E+03  0.15602503970E+03  0.00000000000E+00 0.  1.
          2   -1    0    0  502    0  0.00000000000E+00 -0.00000000000E+00 -0.35046290051E+03  0.35046290051E+03  0.00000000000E+00 0. -1.
          6    1    1    2  502    0  0.69815997226E+02 -0.13278762133E+03 -0.42102077652E+02  0.23208492150E+03  0.17200000000E+03 0.  1.
         -6    1    1    2    0  501 -0.69815997226E+02  0.13278762133E+03 -0.15233578315E+03  0.27440301871E+03  0.17200000000E+03 0. -1.
</event>
<event>
 4    1  0.3191769E-002  0.1794145E+03  0.7818608E-02  0.1168371E+00
          2   -1    0    0  502    0  0.00000000000E+00  0.00000000000E+00  0.87276638120E+02  0.87276638120E+02  0.00000000000E+00 0. -1.
         -2   -1    0    0    0  501 -0.00000000000E+00 -0.00000000000E+00 -0.38414341404E+03  0.38414341404E+03  0.00000000000E+00 0.  1.
          6    1    1    2  502    0 -0.86572787464E+01  0.50305244763E+02 -0.19550696793E+03  0.26535361432E+03  0.17200000000E+03 0.  1.
         -6    1    1    2    0  501  0.86572787464E+01 -0.50305244763E+02 -0.10135980799E+03  0.20606643783E+03  0.17200000000E+03 0. -1.
</event>
<event>
 4    1  0.3191769E-002  0.6356145E+03  0.7818608E-02  0.9834153E-01
          2   -1    0    0  502    0  0.00000000000E+00  0.00000000000E+00  0.15333070868E+04  0.15333070868E+04  0.00000000000E+00 0. -1.
         -2   -1    0    0    0  501 -0.00000000000E+00 -0.00000000000E+00 -0.30642554402E+03  0.30642554402E+03  0.00000000000E+00 0.  1.
          6    1    1    2  502    0 -0.47654214429E+03 -0.38383517371E+03  0.26910038472E+03  0.69023247745E+03  0.17200000000E+03 0. -1.
         -6    1    1    2    0  501  0.47654214429E+03  0.38383517371E+03  0.95778115806E+03  0.11495001534E+04  0.17200000000E+03 0.  1.
</event>
<event>
 4    1  0.3191769E-002  0.4528405E+03  0.7818608E-02  0.1026878E+00
         -2   -1    0    0    0  501 -0.00000000000E+00  0.00000000000E+00  0.20842436570E+03  0.20842436570E+03  0.00000000000E+00 0.  1.
          2   -1    0    0  502    0  0.00000000000E+00 -0.00000000000E+00 -0.13497073951E+04  0.13497073951E+04  0.00000000000E+00 0. -1.
          6    1    1    2  502    0 -0.35846526855E+03 -0.21675607843E+03 -0.97623646213E+03  0.10761515582E+04  0.17200000000E+03 0. -1.
         -6    1    1    2    0  501  0.35846526855E+03  0.21675607843E+03 -0.16504656727E+03  0.48198020256E+03  0.17200000000E+03 0.  1.
</event>
<event>
 4    1  0.3191769E-002  0.2284397E+03  0.7818608E-02  0.1127743E+00
          1   -1    0    0  502    0  0.00000000000E+00  0.00000000000E+00  0.13907436379E+04  0.13907436379E+04  0.00000000000E+00 0. -1.
         -1   -1    0    0    0  501 -0.00000000000E+00 -0.00000000000E+00 -0.54544498600E+02  0.54544498600E+02  0.00000000000E+00 0.  1.
          6    1    1    2  502    0  0.11149435166E+03  0.10084492212E+03  0.26440811468E+03  0.34942286685E+03  0.17200000000E+03 0.  1.
         -6    1    1    2    0  501 -0.11149435166E+03 -0.10084492212E+03  0.10717910246E+04  0.10958652696E+04  0.17200000000E+03 0. -1.
</event>
<event>
 4    1  0.3191769E-002  0.1733290E+03  0.7818608E-02  0.1174420E+00
          2   -1    0    0  502    0  0.00000000000E+00  0.00000000000E+00  0.49167744841E+03  0.49167744841E+03  0.00000000000E+00 0. -1.
         -2   -1    0    0    0  501 -0.00000000000E+00 -0.00000000000E+00 -0.10122182755E+03  0.10122182755E+03  0.00000000000E+00 0.  1.
          6    1    1    2  502    0 -0.20799704249E+02  0.51307147941E+01  0.38186067451E+03  0.41935727807E+03  0.17200000000E+03 0. -1.
         -6    1    1    2    0  501  0.20799704249E+02 -0.51307147941E+01  0.85949463496E+01  0.17354199790E+03  0.17200000000E+03 0.  1.
</event>
<event>
 4    1  0.3191769E-002  0.6394487E+03  0.7818608E-02  0.9826782E-01
          2   -1    0    0  502    0  0.00000000000E+00  0.00000000000E+00  0.18724071148E+04  0.18724071148E+04  0.00000000000E+00 0. -1.
         -2   -1    0    0    0  501 -0.00000000000E+00 -0.00000000000E+00 -0.25600657700E+03  0.25600657700E+03  0.00000000000E+00 0.  1.
          6    1    1    2  502    0  0.57882643632E+03  0.21040566274E+03  0.12161935572E+04  0.13740528938E+04  0.17200000000E+03 0. -1.
         -6    1    1    2    0  501 -0.57882643632E+03 -0.21040566274E+03  0.40020698063E+03  0.75436079806E+03  0.17200000000E+03 0.  1.
</event>
<event>
 4    1  0.3191769E-002  0.2030775E+03  0.7818608E-02  0.1147168E+00
         -1   -1    0    0    0  501 -0.00000000000E+00  0.00000000000E+00  0.32083325403E+02  0.32083325403E+02  0.00000000000E+00 0.  1.
          1   -1    0    0  502    0  0.00000000000E+00 -0.00000000000E+00 -0.14360482153E+04  0.14360482153E+04  0.00000000000E+00 0. -1.
          6    1    1    2  502    0 -0.58571242333E+02  0.90696559134E+02 -0.93972545442E+03  0.96141790391E+03  0.17200000000E+03 0. -1.
         -6    1    1    2    0  501  0.58571242333E+02 -0.90696559134E+02 -0.46423943552E+03  0.50671363684E+03  0.17200000000E+03 0.  1.
</event>
<event>
 4    1  0.3191769E-002  0.1721439E+03  0.7818608E-02  0.1175630E+00
         -1   -1    0    0    0  501 -0.00000000000E+00  0.00000000000E+00  0.62597604073E+02  0.62597604073E+02  0.00000000000E+00 0.  1.
          1   -1    0    0  502    0  0.00000000000E+00 -0.00000000000E+00 -0.70771348893E+03  0.70771348893E+03  0.00000000000E+00 0. -1.
          6    1    1    2  502    0  0.10768149309E+01 -0.69539608113E+01 -0.54417789532E+03  0.57075660212E+03  0.17200000000E+03 0. -1.
         -6    1    1    2    0  501 -0.10768149309E+01  0.69539608113E+01 -0.10093798953E+03  0.19955449088E+03  0.17200000000E+03 0.  1.
</event>
<event>
 4    1  0.3191769E-002  0.3081929E+03  0.7818608E-02  0.1081215E+00
          1   -1    0    0  502    0  0.00000000000E+00  0.00000000000E+00  0.36912627849E+03  0.36912627849E+03  0.00000000000E+00 0. -1.
         -1   -1    0    0    0  501 -0.00000000000E+00 -0.00000000000E+00 -0.26192132765E+03  0.26192132765E+03  0.00000000000E+00 0.  1.
          6    1    1    2  502    0 -0.25174501594E+03 -0.44981109185E+02  0.95431756760E+02  0.32262993263E+03  0.17200000000E+03 0.  1.
         -6    1    1    2    0  501  0.25174501594E+03  0.44981109185E+02  0.11773194084E+02  0.30841767351E+03  0.17200000000E+03 0.  1.
</event>
<event>
 4    1  0.3191769E-002  0.3611334E+03  0.7818608E-02  0.1058136E+00
          1   -1    0    0  502    0  0.00000000000E+00  0.00000000000E+00  0.33284559047E+03  0.33284559047E+03  0.00000000000E+00 0. -1.
         -1   -1    0    0    0  501 -0.00000000000E+00 -0.00000000000E+00 -0.99215216517E+03  0.99215216517E+03  0.00000000000E+00 0.  1.
          6    1    1    2  502    0  0.15600653167E+03 -0.27657784977E+03  0.18568198710E+03  0.40607283243E+03  0.17200000000E+03 0. -1.
         -6    1    1    2    0  501 -0.15600653167E+03  0.27657784977E+03 -0.84498856181E+03  0.91892492321E+03  0.17200000000E+03 0.  1.
</event>
<event>
 4    1  0.3191769E-002  0.2347259E+03  0.7818608E-02  0.1123357E+00
          2   -1    0    0  502    0  0.00000000000E+00  0.00000000000E+00  0.98247381620E+02  0.98247381620E+02  0.00000000000E+00 0. -1.
         -2   -1    0    0    0  501 -0.00000000000E+00 -0.00000000000E+00 -0.56103241036E+03  0.56103241036E+03  0.00000000000E+00 0.  1.
          6    1    1    2  502    0 -0.13849710137E+03  0.79566313088E+02 -0.22455429327E+03  0.32483976957E+03  0.17200000000E+03 0. -1.
         -6    1    1    2    0  501  0.13849710137E+03 -0.79566313088E+02 -0.23823073547E+03  0.33444002241E+03  0.17200000000E+03 0.  1.
</event>
<event>
 4    1  0.3191769E-002  0.2482287E+03  0.7818608E-02  0.1114429E+00
          2   -1    0    0  502    0  0.00000000000E+00  0.00000000000E+00  0.36259062043E+03  0.36259062043E+03  0.00000000000E+00 0. -1.
         -2   -1    0    0    0  501 -0.00000000000E+00 -0.00000000000E+00 -0.17154373483E+03  0.17154373483E+03  0.00000000000E+00 0.  1.
          6    1    1    2  502    0  0.14308955108E+03 -0.10751215637E+03  0.12137189749E+03  0.27631254205E+03  0.17200000000E+03 0. -1.
         -6    1    1    2    0  501 -0.14308955108E+03  0.10751215637E+03  0.69674988107E+02  0.25782181320E+03  0.17200000000E+03 0.  1.
</event>
<event>
 4    1  0.3191769E-002  0.3332839E+03  0.7818608E-02  0.1069693E+00
         -1   -1    0    0    0  501 -0.00000000000E+00  0.00000000000E+00  0.93880610159E+02  0.93880610159E+02  0.00000000000E+00 0.  1.
          1   -1    0    0  502    0  0.00000000000E+00 -0.00000000000E+00 -0.12294781369E+04  0.12294781369E+04  0.00000000000E+00 0. -1.
          6    1    1    2  502    0  0.23046340975E+03  0.16846601625E+03 -0.69619222014E+03  0.77185606770E+03  0.17200000000E+03 0. -1.
         -6    1    1    2    0  501 -0.23046340975E+03 -0.16846601625E+03 -0.43940530659E+03  0.55150267935E+03  0.17200000000E+03 0. -1.
</event>
<event>
 4    1  0.3191769E-002  0.1911253E+03  0.7818608E-02  0.1157450E+00
          3   -1    0    0  502    0  0.00000000000E+00  0.00000000000E+00  0.10052945735E+04  0.10052945735E+04  0.00000000000E+00 0. -1.
         -3   -1    0    0    0  501 -0.00000000000E+00 -0.00000000000E+00 -0.36581818629E+02  0.36581818629E+02  0.00000000000E+00 0.  1.
          6    1    1    2  502    0 -0.83309464334E+02  0.21050103865E+01  0.44169758408E+03  0.48127502917E+03  0.17200000000E+03 0.  1.
         -6    1    1    2    0  501  0.83309464334E+02 -0.21050103865E+01  0.52701517083E+03  0.56060136301E+03  0.17200000000E+03 0.  1.
</event>
<event>
 4    1  0.3191769E-002  0.5607142E+03  0.7818608E-02  0.9990440E-01
         -2   -1    0    0    0  501 -0.00000000000E+00  0.00000000000E+00  0.17653036065E+03  0.17653036065E+03  0.00000000000E+00 0.  1.
          2   -1    0    0  502    0  0.00000000000E+00 -0.00000000000E+00 -0.28725462817E+04  0.28725462817E+04  0.00000000000E+00 0. -1.
          6    1    1    2  502    0 -0.43903488587E+03  0.30342183348E+03 -0.22877876491E+04  0.23554984117E+04  0.17200000000E+03 0. -1.
         -6    1    1    2    0  501  0.43903488587E+03 -0.30342183348E+03 -0.40822827195E+03  0.69357823067E+03  0.17200000000E+03 0.  1.
</event>
<event>
 4    1  0.3191769E-002  0.3918190E+03  0.7818608E-02  0.1046650E+00
          2   -1    0    0  502    0  0.00000000000E+00  0.00000000000E+00  0.92648254672E+03  0.92648254672E+03  0.00000000000E+00 0. -1.
         -2   -1    0    0    0  501 -0.00000000000E+00 -0.00000000000E+00 -0.16738156692E+03  0.16738156692E+03  0.00000000000E+00 0.  1.
          6    1    1    2  502    0 -0.21032022583E+03  0.28231811056E+03  0.32480041769E+03  0.50893754458E+03  0.17200000000E+03 0.  1.
         -6    1    1    2    0  501  0.21032022583E+03 -0.28231811056E+03  0.43430056211E+03  0.58492656906E+03  0.17200000000E+03 0. -1.
</event>
<event>
 4    1  0.3191769E-002  0.2898772E+03  0.7818608E-02  0.1090413E+00
         -1   -1    0    0    0  501 -0.00000000000E+00  0.00000000000E+00  0.23515096193E+03  0.23515096193E+03  0.00000000000E+00 0.  1.
          1   -1    0    0  502    0  0.00000000000E+00 -0.00000000000E+00 -0.45074377935E+03  0.45074377935E+03  0.00000000000E+00 0. -1.
          6    1    1    2  502    0 -0.23215871075E+03 -0.23390670089E+02 -0.26391167284E+03  0.39201806270E+03  0.17200000000E+03 0. -1.
         -6    1    1    2    0  501  0.23215871075E+03  0.23390670089E+02  0.48318855418E+02  0.29387667858E+03  0.17200000000E+03 0.  1.
</event>
<event>
 4    1  0.3191769E-002  0.1815972E+03  0.7818608E-02  0.1166266E+00
         -2   -1    0    0    0  501 -0.00000000000E+00  0.00000000000E+00  0.35598130280E+02  0.35598130280E+02  0.00000000000E+00 0.  1.
          2   -1    0    0  502    0  0.00000000000E+00 -0.00000000000E+00 -0.10038949949E+04  0.10038949949E+04  0.00000000000E+00 0. -1.
          6    1    1    2  502    0  0.54052080438E+02  0.21723653582E+02 -0.62856886736E+03  0.65427545081E+03  0.17200000000E+03 0.  1.
         -6    1    1    2    0  501 -0.54052080438E+02 -0.21723653582E+02 -0.33972799730E+03  0.38521767441E+03  0.17200000000E+03 0.  1.
</event>
<event>
 4    1  0.3191769E-002  0.2014240E+03  0.7818608E-02  0.1148543E+00
          2   -1    0    0  502    0  0.00000000000E+00  0.00000000000E+00  0.30290829705E+03  0.30290829705E+03  0.00000000000E+00 0. -1.
         -2   -1    0    0    0  501 -0.00000000000E+00 -0.00000000000E+00 -0.26651228486E+03  0.26651228486E+03  0.00000000000E+00 0.  1.
          6    1    1    2  502    0 -0.49788687965E+01 -0.10470350410E+03 -0.18260513901E+03  0.27187543048E+03  0.17200000000E+03 0. -1.
         -6    1    1    2    0  501  0.49788687965E+01  0.10470350410E+03  0.21900115121E+03  0.29754515143E+03  0.17200000000E+03 0.  1.
</event>
<event>
 4    1  0.3191769E-002  0.2136048E+03  0.7818608E-02  0.1138743E+00
          2   -1    0    0  502    0  0.00000000000E+00  0.00000000000E+00  0.32668540522E+04  0.32668540522E+04  0.00000000000E+00 0. -1.
         -2   -1    0    0    0  501 -0.00000000000E+00 -0.00000000000E+00 -0.17160896168E+02  0.17160896168E+02  0.00000000000E+00 0.  1.
          6    1    1    2  502    0  0.83608342977E+02 -0.95145384085E+02  0.23332644449E+04  0.23430215468E+04  0.17200000000E+03 0. -1.
         -6    1    1    2    0  501 -0.83608342977E+02  0.95145384085E+02  0.91642871110E+03  0.94099340150E+03  0.17200000000E+03 0. -1.
</event>
<event>
 4    1  0.3191769E-002  0.2337952E+03  0.7818608E-02  0.1123997E+00
          1   -1    0    0  502    0  0.00000000000E+00  0.00000000000E+00  0.16681265839E+04  0.16681265839E+04  0.00000000000E+00 0. -1.
         -1   -1    0    0    0  501 -0.00000000000E+00 -0.00000000000E+00 -0.33587335315E+02  0.33587335315E+02  0.00000000000E+00 0.  1.
          6    1    1    2  502    0  0.79014716254E+02 -0.13723293567E+03  0.68433033924E+03  0.72316541484E+03  0.17200000000E+03 0. -1.
         -6    1    1    2    0  501 -0.79014716254E+02  0.13723293567E+03  0.95020890937E+03  0.97854850440E+03  0.17200000000E+03 0. -1.
</event>
<event>
 4    1  0.3191769E-002  0.2162333E+03  0.7818608E-02  0.1136723E+00
         -2   -1    0    0    0  501 -0.00000000000E+00  0.00000000000E+00  0.69815078202E+03  0.69815078202E+03  0.00000000000E+00 0.  1.
          2   -1    0    0  502    0  0.00000000000E+00 -0.00000000000E+00 -0.90373178784E+02  0.90373178784E+02  0.00000000000E+00 0. -1.
          6    1    1    2  502    0 -0.11166051499E+03 -0.68591419692E+02  0.10326613012E+03  0.23962626545E+03  0.17200000000E+03 0. -1.
         -6    1    1    2    0  501  0.11166051499E+03  0.68591419692E+02  0.50451147312E+03  0.54889769536E+03  0.17200000000E+03 0.  1.
</event>
<event>
 4    1  0.3191769E-002  0.2021458E+03  0.7818608E-02  0.1147941E+00
          1   -1    0    0  502    0  0.00000000000E+00  0.00000000000E+00  0.11466747928E+04  0.11466747928E+04  0.00000000000E+00 0. -1.
         -1   -1    0    0    0  501 -0.00000000000E+00 -0.00000000000E+00 -0.38114853790E+02  0.38114853790E+02  0.00000000000E+00 0.  1.
          6    1    1    2  502    0  0.95984087997E+02 -0.45452918548E+02  0.40320628732E+03  0.45104126539E+03  0.17200000000E+03 0. -1.
         -6    1    1    2    0  501 -0.95984087997E+02  0.45452918548E+02  0.70535365165E+03  0.73374838116E+03  0.17200000000E+03 0. -1.
</event>
<event>
 4    1  0.3191769E-002  0.2351058E+03  0.7818608E-02  0.1123097E+00
         -1   -1    0    0    0  501 -0.00000000000E+00  0.00000000000E+00  0.17523612691E+04  0.17523612691E+04  0.00000000000E+00 0.  1.
          1   -1    0    0  502    0  0.00000000000E+00 -0.00000000000E+00 -0.31844060660E+02  0.31844060660E+02  0.00000000000E+00 0. -1.
          6    1    1    2  502    0 -0.13253826722E+03  0.90135128542E+02  0.94700006445E+03  0.97574784434E+03  0.17200000000E+03 0. -1.
         -6    1    1    2    0  501  0.13253826722E+03 -0.90135128542E+02  0.77351714399E+03  0.80845748542E+03  0.17200000000E+03 0.  1.
</event>
<event>
 4    1  0.3191769E-002  0.2514478E+03  0.7818608E-02  0.1112393E+00
         -2   -1    0    0    0  501 -0.00000000000E+00  0.00000000000E+00  0.45176412739E+02  0.45176412739E+02  0.00000000000E+00 0.  1.
          2   -1    0    0  502    0  0.00000000000E+00 -0.00000000000E+00 -0.18093969086E+04  0.18093969086E+04  0.00000000000E+00 0. -1.
          6    1    1    2  502    0  0.10527300279E+03 -0.15019854938E+03 -0.13234422469E+04  0.13471174375E+04  0.17200000000E+03 0. -1.
         -6    1    1    2    0  501 -0.10527300279E+03  0.15019854938E+03 -0.44077824893E+03  0.50745588388E+03  0.17200000000E+03 0.  1.
</event>
<event>
 4    1  0.3191769E-002  0.2626970E+03  0.7818608E-02  0.1105534E+00
          1   -1    0    0  502    0  0.00000000000E+00  0.00000000000E+00  0.41962343901E+03  0.41962343901E+03  0.00000000000E+00 0. -1.
         -1   -1    0    0    0  501 -0.00000000000E+00 -0.00000000000E+00 -0.17131551567E+03  0.17131551567E+03  0.00000000000E+00 0.  1.
          6    1    1    2  502    0  0.30043297268E+02  0.19627302511E+03  0.18327647227E+03  0.32031229353E+03  0.17200000000E+03 0.  1.
         -6    1    1    2    0  501 -0.30043297268E+02 -0.19627302511E+03  0.65031451074E+02  0.27062666115E+03  0.17200000000E+03 0. -1.
</event>
<event>
 4    1  0.3191769E-002  0.4741298E+03  0.7818608E-02  0.1020761E+00
          2   -1    0    0  502    0  0.00000000000E+00  0.00000000000E+00  0.10194897046E+04  0.10194897046E+04  0.00000000000E+00 0. -1.
         -2   -1    0    0    0  501 -0.00000000000E+00 -0.00000000000E+00 -0.29321648123E+03  0.29321648123E+03  0.00000000000E+00 0.  1.
          6    1    1    2  502    0  0.10546380604E+03 -0.42905996331E+03  0.68999160750E+03  0.83719023222E+03  0.17200000000E+03 0. -1.
         -6    1    1    2    0  501 -0.10546380604E+03  0.42905996331E+03  0.36281615876E+02  0.47551595362E+03  0.17200000000E+03 0.  1.
</event>
<event>
 4    1  0.3191769E-002  0.1772413E+03  0.7818608E-02  0.1170500E+00
          2   -1    0    0  502    0  0.00000000000E+00  0.00000000000E+00  0.15781470025E+04  0.15781470025E+04  0.00000000000E+00 0. -1.
         -2   -1    0    0    0  501 -0.00000000000E+00 -0.00000000000E+00 -0.20600242002E+02  0.20600242002E+02  0.00000000000E+00 0.  1.
          6    1    1    2  502    0  0.23079098449E+02 -0.36025361233E+02  0.63201820311E+03  0.65640039648E+03  0.17200000000E+03 0.  1.
         -6    1    1    2    0  501 -0.23079098449E+02  0.36025361233E+02  0.92552855743E+03  0.94234684806E+03  0.17200000000E+03 0.  1.
</event>
<event>
 4    1  0.3191769E-002  0.2023226E+03  0.7818608E-02  0.1147794E+00
         -1   -1    0    0    0  501 -0.00000000000E+00  0.00000000000E+00  0.47438677720E+02  0.47438677720E+02  0.00000000000E+00 0.  1.
          1   -1    0    0  502    0  0.00000000000E+00 -0.00000000000E+00 -0.95826076420E+03  0.95826076420E+03  0.00000000000E+00 0. -1.
          6    1    1    2  502    0  0.71040840805E+02 -0.79395477302E+02 -0.61404641962E+03  0.64651948797E+03  0.17200000000E+03 0. -1.
         -6    1    1    2    0  501 -0.71040840805E+02  0.79395477302E+02 -0.29677566685E+03  0.35917995394E+03  0.17200000000E+03 0.  1.
</event>
<event>
 4    1  0.3191769E-002  0.3318599E+03  0.7818608E-02  0.1070317E+00
         -2   -1    0    0    0  501 -0.00000000000E+00  0.00000000000E+00  0.95500987659E+02  0.95500987659E+02  0.00000000000E+00 0.  1.
          2   -1    0    0  502    0  0.00000000000E+00 -0.00000000000E+00 -0.13722836269E+04  0.13722836269E+04  0.00000000000E+00 0. -1.
          6    1    1    2  502    0 -0.27515819025E+03 -0.69534094880E+02 -0.93163105377E+03  0.98897292196E+03  0.17200000000E+03 0. -1.
         -6    1    1    2    0  501  0.27515819025E+03  0.69534094880E+02 -0.34515158545E+03  0.47881169258E+03  0.17200000000E+03 0.  1.
</event>
<event>
 4    1  0.3191769E-002  0.2329278E+03  0.7818608E-02  0.1124596E+00
         -1   -1    0    0    0  501 -0.00000000000E+00  0.00000000000E+00  0.48571151450E+02  0.48571151450E+02  0.00000000000E+00 0.  1.
          1   -1    0    0  502    0  0.00000000000E+00 -0.00000000000E+00 -0.11324604933E+04  0.11324604933E+04  0.00000000000E+00 0. -1.
          6    1    1    2  502    0 -0.14257631254E+03 -0.65904039562E+02 -0.61087888416E+03  0.65378005356E+03  0.17200000000E+03 0. -1.
         -6    1    1    2    0  501  0.14257631254E+03  0.65904039562E+02 -0.47301045772E+03  0.52725159121E+03  0.17200000000E+03 0.  1.
</event>
<event>
 4    1  0.3191769E-002  0.1874527E+03  0.7818608E-02  0.1160779E+00
         -2   -1    0    0    0  501 -0.00000000000E+00  0.00000000000E+00  0.99642586512E+01  0.99642586512E+01  0.00000000000E+00 0.  1.
          2   -1    0    0  502    0  0.00000000000E+00 -0.00000000000E+00 -0.35282771596E+04  0.35282771596E+04  0.00000000000E+00 0. -1.
          6    1    1    2  502    0  0.49781279284E+02 -0.55464744299E+02 -0.17993561548E+04  0.18090939958E+04  0.17200000000E+03 0.  1.
         -6    1    1    2    0  501 -0.49781279284E+02  0.55464744299E+02 -0.17189567462E+04  0.17291474225E+04  0.17200000000E+03 0.  1.
</event>
<event>
 4    1  0.3191769E-002  0.1826978E+03  0.7818608E-02  0.1165217E+00
         -2   -1    0    0    0  501 -0.00000000000E+00  0.00000000000E+00  0.34694356054E+02  0.34694356054E+02  0.00000000000E+00 0.  1.
          2   -1    0    0  502    0  0.00000000000E+00 -0.00000000000E+00 -0.98788901391E+03  0.98788901391E+03  0.00000000000E+00 0. -1.
          6    1    1    2  502    0 -0.61080155070E+02 -0.79817387085E+01 -0.55925089593E+03  0.58833668770E+03  0.17200000000E+03 0. -1.
         -6    1    1    2    0  501  0.61080155070E+02  0.79817387085E+01 -0.39394376193E+03  0.43424668227E+03  0.17200000000E+03 0.  1.
</event>
<event>
 4    1  0.3191769E-002  0.1784620E+03  0.7818608E-02  0.1169300E+00
         -2   -1    0    0    0  501 -0.00000000000E+00  0.00000000000E+00  0.11551802722E+03  0.11551802722E+03  0.00000000000E+00 0.  1.
          2   -1    0    0  502    0  0.00000000000E+00 -0.00000000000E+00 -0.15580267077E+04  0.15580267077E+04  0.00000000000E+00 0. -1.
          6    1    1    2  502    0  0.92053149113E+01  0.46689991669E+02 -0.14803887512E+04  0.14911068197E+04  0.17200000000E+03 0. -1.
         -6    1    1    2    0  501 -0.92053149113E+01 -0.46689991669E+02  0.37880070726E+02  0.18243791520E+03  0.17200000000E+03 0.  1.
</event>
<event>
 4    1  0.3191769E-002  0.2325856E+03  0.7818608E-02  0.1124833E+00
          2   -1    0    0  502    0  0.00000000000E+00  0.00000000000E+00  0.14037803873E+04  0.14037803873E+04  0.00000000000E+00 0. -1.
         -2   -1    0    0    0  501 -0.00000000000E+00 -0.00000000000E+00 -0.70619040453E+02  0.70619040453E+02  0.00000000000E+00 0.  1.
          6    1    1    2  502    0  0.15554288965E+03  0.17845938898E+02  0.11634727526E+04  0.11864926945E+04  0.17200000000E+03 0. -1.
         -6    1    1    2    0  501 -0.15554288965E+03 -0.17845938898E+02  0.16968859433E+03  0.28790673334E+03  0.17200000000E+03 0.  1.
</event>
<event>
 4    1  0.3191769E-002  0.2476156E+03  0.7818608E-02  0.1114821E+00
         -2   -1    0    0    0  501 -0.00000000000E+00  0.00000000000E+00  0.11651011258E+03  0.11651011258E+03  0.00000000000E+00 0.  1.
          2   -1    0    0  502    0  0.00000000000E+00 -0.00000000000E+00 -0.78589007334E+03  0.78589007334E+03  0.00000000000E+00 0. -1.
          6    1    1    2  502    0 -0.15864789240E+03 -0.80995874297E+02 -0.59403258178E+03  0.64357454396E+03  0.17200000000E+03 0. -1.
         -6    1    1    2    0  501  0.15864789240E+03  0.80995874297E+02 -0.75347378980E+02  0.25882564196E+03  0.17200000000E+03 0.  1.
</event>
<event>
 4    1  0.3191769E-002  0.5717871E+03  0.7818608E-02  0.9965732E-01
         -1   -1    0    0    0  501 -0.00000000000E+00  0.00000000000E+00  0.27848737642E+03  0.27848737642E+03  0.00000000000E+00 0.  1.
          1   -1    0    0  502    0  0.00000000000E+00 -0.00000000000E+00 -0.13277118839E+04  0.13277118839E+04  0.00000000000E+00 0. -1.
          6    1    1    2  502    0 -0.48293749453E+03 -0.25323479052E+03 -0.79788101069E+03  0.98160816519E+03  0.17200000000E+03 0. -1.
         -6    1    1    2    0  501  0.48293749453E+03  0.25323479052E+03 -0.25134349681E+03  0.62459109515E+03  0.17200000000E+03 0.  1.
</event>
<event>
 4    1  0.3191769E-002  0.1869701E+03  0.7818608E-02  0.1161223E+00
         -2   -1    0    0    0  501 -0.00000000000E+00  0.00000000000E+00  0.54016837381E+03  0.54016837381E+03  0.00000000000E+00 0.  1.
          2   -1    0    0  502    0  0.00000000000E+00 -0.00000000000E+00 -0.69634480323E+02  0.69634480323E+02  0.00000000000E+00 0. -1.
          6    1    1    2  502    0  0.54652409902E+02 -0.48856411280E+02  0.15423834020E+03  0.24237842400E+03  0.17200000000E+03 0. -1.
         -6    1    1    2    0  501 -0.54652409902E+02  0.48856411280E+02  0.31629555328E+03  0.36742443013E+03  0.17200000000E+03 0.  1.
</event>
<event>
 4    1  0.3191769E-002  0.1768824E+03  0.7818608E-02  0.1170855E+00
          2   -1    0    0  502    0  0.00000000000E+00  0.00000000000E+00  0.67037093142E+03  0.67037093142E+03  0.00000000000E+00 0. -1.
         -2   -1    0    0    0  501 -0.00000000000E+00 -0.00000000000E+00 -0.47263274579E+02  0.47263274579E+02  0.00000000000E+00 0.  1.
          6    1    1    2  502    0 -0.87621406952E+01  0.40331075930E+02  0.35169639570E+03  0.39367210409E+03  0.17200000000E+03 0. -1.
         -6    1    1    2    0  501  0.87621406952E+01 -0.40331075930E+02  0.27141126115E+03  0.32396210191E+03  0.17200000000E+03 0.  1.
</event>
<event>
 4    1  0.3191769E-002  0.2067327E+03  0.7818608E-02  0.1144180E+00
         -2   -1    0    0    0  501 -0.00000000000E+00  0.00000000000E+00  0.82886083769E+02  0.82886083769E+02  0.00000000000E+00 0.  1.
          2   -1    0    0  502    0  0.00000000000E+00 -0.00000000000E+00 -0.10070972400E+04  0.10070972400E+04  0.00000000000E+00 0. -1.
          6    1    1    2  502    0 -0.10960749154E+03 -0.33772994128E+02 -0.81388677266E+02  0.22217680825E+03  0.17200000000E+03 0.  1.
         -6    1    1    2    0  501  0.10960749154E+03  0.33772994128E+02 -0.84282247897E+03  0.86780651552E+03  0.17200000000E+03 0. -1.
</event>
<event>
 4    1  0.3191769E-002  0.2297601E+03  0.7818608E-02  0.1126809E+00
          2   -1    0    0  502    0  0.00000000000E+00  0.00000000000E+00  0.57641050282E+03  0.57641050282E+03  0.00000000000E+00 0. -1.
         -2   -1    0    0    0  501 -0.00000000000E+00 -0.00000000000E+00 -0.93575005105E+02  0.93575005105E+02  0.00000000000E+00 0.  1.
          6    1    1    2  502    0  0.68962474521E+02  0.13583041682E+03  0.29028746462E+03  0.37021147624E+03  0.17200000000E+03 0. -1.
         -6    1    1    2    0  501 -0.68962474521E+02 -0.13583041682E+03  0.19254803310E+03  0.29977403169E+03  0.17200000000E+03 0.  1.
</event>
<event>
 4    1  0.3191769E-002  0.1998604E+03  0.7818608E-02  0.1149857E+00
          2   -1    0    0  502    0  0.00000000000E+00  0.00000000000E+00  0.43998908720E+03  0.43998908720E+03  0.00000000000E+00 0. -1.
         -2   -1    0    0    0  501 -0.00000000000E+00 -0.00000000000E+00 -0.92018678119E+02  0.92018678119E+02  0.00000000000E+00 0.  1.
          6    1    1    2  502    0  0.19773356994E+02  0.99845905161E+02  0.14317898210E+03  0.24585445154E+03  0.17200000000E+03 0.  1.
         -6    1    1    2    0  501 -0.19773356994E+02 -0.99845905161E+02  0.20479142698E+03  0.28615331378E+03  0.17200000000E+03 0.  1.
</event>
<event>
 4    1  0.3191769E-002  0.3083502E+03  0.7818608E-02  0.1081139E+00
          4   -1    0    0  502    0  0.00000000000E+00  0.00000000000E+00  0.24909027777E+03  0.24909027777E+03  0.00000000000E+00 0. -1.
         -4   -1    0    0    0  501 -0.00000000000E+00 -0.00000000000E+00 -0.69127892033E+03  0.69127892033E+03  0.00000000000E+00 0.  1.
          6    1    1    2  502    0  0.23905700378E+03  0.91365150458E+02  0.93551210190E+02  0.32222922075E+03  0.17200000000E+03 0. -1.
         -6    1    1    2    0  501 -0.23905700378E+03 -0.91365150458E+02 -0.53573985275E+03  0.61813997735E+03  0.17200000000E+03 0.  1.
</event>
<event>
 4    1  0.3191769E-002  0.1846347E+03  0.7818608E-02  0.1163391E+00
          1   -1    0    0  502    0  0.00000000000E+00  0.00000000000E+00  0.36892432713E+03  0.36892432713E+03  0.00000000000E+00 0. -1.
         -1   -1    0    0    0  501 -0.00000000000E+00 -0.00000000000E+00 -0.11837001004E+03  0.11837001004E+03  0.00000000000E+00 0.  1.
          6    1    1    2  502    0 -0.46405841381E+02  0.48502283984E+02  0.11161398498E+02  0.18497175590E+03  0.17200000000E+03 0.  1.
         -6    1    1    2    0  501  0.46405841381E+02 -0.48502283984E+02  0.23939291860E+03  0.30232258126E+03  0.17200000000E+03 0. -1.
</event>
<event>
 4    1  0.3191769E-002  0.2018471E+03  0.7818608E-02  0.1148190E+00
         -1   -1    0    0    0  501 -0.00000000000E+00  0.00000000000E+00  0.25065351957E+02  0.25065351957E+02  0.00000000000E+00 0.  1.
          1   -1    0    0  502    0  0.00000000000E+00 -0.00000000000E+00 -0.19181909818E+04  0.19181909818E+04  0.00000000000E+00 0. -1.
          6    1    1    2  502    0  0.73418583227E+02 -0.75947236244E+02 -0.13261416697E+04  0.13414149244E+04  0.17200000000E+03 0. -1.
         -6    1    1    2    0  501 -0.73418583227E+02  0.75947236244E+02 -0.56698396007E+03  0.60184140937E+03  0.17200000000E+03 0.  1.
</event>
<event>
 4    1  0.3191769E-002  0.1938152E+03  0.7818608E-02  0.1155065E+00
         -4   -1    0    0    0  501 -0.00000000000E+00  0.00000000000E+00  0.16614156463E+04  0.16614156463E+04  0.00000000000E+00 0.  1.
          4   -1    0    0  502    0  0.00000000000E+00 -0.00000000000E+00 -0.73795576809E+02  0.73795576809E+02  0.00000000000E+00 0. -1.
          6    1    1    2  502    0  0.36824556916E+01 -0.89256826003E+02  0.71237138217E+02  0.20649230332E+03  0.17200000000E+03 0. -1.
         -6    1    1    2    0  501 -0.36824556916E+01  0.89256826003E+02  0.15163829312E+04  0.15287189198E+04  0.17200000000E+03 0.  1.
</event>
<event>
 4    1  0.3191769E-002  0.2156227E+03  0.7818608E-02  0.1137189E+00
         -2   -1    0    0    0  501 -0.00000000000E+00  0.00000000000E+00  0.81053926600E+02  0.81053926600E+02  0.00000000000E+00 0.  1.
          2   -1    0    0  502    0  0.00000000000E+00 -0.00000000000E+00 -0.71272961927E+03  0.71272961927E+03  0.00000000000E+00 0. -1.
          6    1    1    2  502    0  0.10020751397E+03 -0.82871040345E+02 -0.49118854345E+03  0.53643204639E+03  0.17200000000E+03 0. -1.
         -6    1    1    2    0  501 -0.10020751397E+03  0.82871040345E+02 -0.14048714922E+03  0.25735149947E+03  0.17200000000E+03 0.  1.
</event>
<event>
 4    1  0.3191769E-002  0.2319048E+03  0.7818608E-02  0.1125306E+00
          2   -1    0    0  502    0  0.00000000000E+00  0.00000000000E+00  0.21617468085E+04  0.21617468085E+04  0.00000000000E+00 0. -1.
         -2   -1    0    0    0  501 -0.00000000000E+00 -0.00000000000E+00 -0.30800689287E+02  0.30800689287E+02  0.00000000000E+00 0.  1.
          6    1    1    2  502    0  0.14094987422E+03 -0.65794754618E+02  0.15462020492E+04  0.15634962724E+04  0.17200000000E+03 0. -1.
         -6    1    1    2    0  501 -0.14094987422E+03  0.65794754618E+02  0.58474406998E+03  0.62905122538E+03  0.17200000000E+03 0.  1.
</event>
<event>
 4    1  0.3191769E-002  0.3004062E+03  0.7818608E-02  0.1085038E+00
          1   -1    0    0  502    0  0.00000000000E+00  0.00000000000E+00  0.12984148011E+04  0.12984148011E+04  0.00000000000E+00 0. -1.
         -1   -1    0    0    0  501 -0.00000000000E+00 -0.00000000000E+00 -0.69594901840E+02  0.69594901840E+02  0.00000000000E+00 0.  1.
          6    1    1    2  502    0 -0.58497145501E+02  0.23924455632E+03  0.58956948438E+03  0.66169180944E+03  0.17200000000E+03 0.  1.
         -6    1    1    2    0  501  0.58497145501E+02 -0.23924455632E+03  0.63925041487E+03  0.70631789350E+03  0.17200000000E+03 0.  1.
</event>
<event>
 4    1  0.3191769E-002  0.1830849E+03  0.7818608E-02  0.1164850E+00
          1   -1    0    0  502    0  0.00000000000E+00  0.00000000000E+00  0.94109874614E+03  0.94109874614E+03  0.00000000000E+00 0. -1.
         -1   -1    0    0    0  501 -0.00000000000E+00 -0.00000000000E+00 -0.40506880679E+02  0.40506880679E+02  0.00000000000E+00 0.  1.
          6    1    1    2  502    0 -0.79017076624E+01 -0.62238588699E+02  0.27978735165E+03  0.33436662670E+03  0.17200000000E+03 0.  1.
         -6    1    1    2    0  501  0.79017076624E+01  0.62238588699E+02  0.62080451381E+03  0.64723900012E+03  0.17200000000E+03 0. -1.
</event>
<event>
 4    1  0.3191769E-002  0.1907765E+03  0.7818608E-02  0.1157763E+00
          2   -1    0    0  502    0  0.00000000000E+00  0.00000000000E+00  0.17785355806E+04  0.17785355806E+04  0.00000000000E+00 0. -1.
         -2   -1    0    0    0  501 -0.00000000000E+00 -0.00000000000E+00 -0.32268914591E+03  0.32268914591E+03  0.00000000000E+00 0.  1.
          6    1    1    2  502    0  0.36777938501E+02  0.73885384165E+02  0.17446768708E+04  0.17550763659E+04  0.17200000000E+03 0. -1.
         -6    1    1    2    0  501 -0.36777938501E+02 -0.73885384165E+02 -0.28883043607E+03  0.34614836061E+03  0.17200000000E+03 0.  1.
</event>
<event>
 4    1  0.3191769E-002  0.7428423E+03  0.7818608E-02  0.9646647E-01
         -2   -1    0    0    0  501 -0.00000000000E+00  0.00000000000E+00  0.81010382172E+03  0.81010382172E+03  0.00000000000E+00 0.  1.
          2   -1    0    0  502    0  0.00000000000E+00 -0.00000000000E+00 -0.15251221182E+04  0.15251221182E+04  0.00000000000E+00 0. -1.
          6    1    1    2  502    0 -0.61935372688E+03 -0.37233276357E+03 -0.12260828541E+04  0.14335598665E+04  0.17200000000E+03 0. -1.
         -6    1    1    2    0  501  0.61935372688E+03  0.37233276357E+03  0.51106455762E+03  0.90166607338E+03  0.17200000000E+03 0.  1.
</event>
<event>
 4    1  0.3191769E-002  0.2056114E+03  0.7818608E-02  0.1145089E+00
         -1   -1    0    0    0  501 -0.00000000000E+00  0.00000000000E+00  0.15370500491E+03  0.15370500491E+03  0.00000000000E+00 0.  1.
          1   -1    0    0  502    0  0.00000000000E+00 -0.00000000000E+00 -0.13192279848E+04  0.13192279848E+04  0.00000000000E+00 0. -1.
          6    1    1    2  502    0 -0.10510060347E+03 -0.40570050585E+02 -0.12379722228E+04  0.12549307910E+04  0.17200000000E+03 0. -1.
         -6    1    1    2    0  501  0.10510060347E+03  0.40570050585E+02  0.72449242869E+02  0.21800219872E+03  0.17200000000E+03 0.  1.
</event>
<event>
 4    1  0.3191769E-002  0.2473074E+03  0.7818608E-02  0.1115018E+00
         -1   -1    0    0    0  501 -0.00000000000E+00  0.00000000000E+00  0.14110645249E+03  0.14110645249E+03  0.00000000000E+00 0.  1.
          1   -1    0    0  502    0  0.00000000000E+00 -0.00000000000E+00 -0.52123633049E+03  0.52123633049E+03  0.00000000000E+00 0. -1.
          6    1    1    2  502    0 -0.17642160305E+03 -0.21269338184E+02 -0.32598307399E+03  0.40917713927E+03  0.17200000000E+03 0. -1.
         -6    1    1    2    0  501  0.17642160305E+03  0.21269338184E+02 -0.54146804009E+02  0.25316564371E+03  0.17200000000E+03 0.  1.
</event>
<event>
 4    1  0.3191769E-002  0.1843486E+03  0.7818608E-02  0.1163660E+00
         -2   -1    0    0    0  501 -0.00000000000E+00  0.00000000000E+00  0.40927669497E+02  0.40927669497E+02  0.00000000000E+00 0.  1.
          2   -1    0    0  502    0  0.00000000000E+00 -0.00000000000E+00 -0.83876452107E+03  0.83876452107E+03  0.00000000000E+00 0. -1.
          6    1    1    2  502    0  0.65751191528E+02  0.87858996715E+01 -0.44296571651E+03  0.47979478657E+03  0.17200000000E+03 0.  1.
         -6    1    1    2    0  501 -0.65751191528E+02 -0.87858996715E+01 -0.35487113507E+03  0.39989740400E+03  0.17200000000E+03 0.  1.
</event>
<event>
 4    1  0.3191769E-002  0.2311712E+03  0.7818608E-02  0.1125818E+00
          2   -1    0    0  502    0  0.00000000000E+00  0.00000000000E+00  0.14949357646E+04  0.14949357646E+04  0.00000000000E+00 0. -1.
         -2   -1    0    0    0  501 -0.00000000000E+00 -0.00000000000E+00 -0.58779065307E+02  0.58779065307E+02  0.00000000000E+00 0.  1.
          6    1    1    2  502    0  0.13162673686E+03  0.80811670954E+02  0.23179176722E+03  0.32736454813E+03  0.17200000000E+03 0. -1.
         -6    1    1    2    0  501 -0.13162673686E+03 -0.80811670954E+02  0.12043649321E+04  0.12263502818E+04  0.17200000000E+03 0.  1.
</event>
<event>
 4    1  0.3191769E-002  0.2520770E+03  0.7818608E-02  0.1111999E+00
          1   -1    0    0  502    0  0.00000000000E+00  0.00000000000E+00  0.77532515221E+02  0.77532515221E+02  0.00000000000E+00 0. -1.
         -1   -1    0    0    0  501 -0.00000000000E+00 -0.00000000000E+00 -0.12676813862E+04  0.12676813862E+04  0.00000000000E+00 0.  1.
          6    1    1    2  502    0 -0.96650536834E+02  0.15689966944E+03 -0.19517356237E+03  0.31880331239E+03  0.17200000000E+03 0. -1.
         -6    1    1    2    0  501  0.96650536834E+02 -0.15689966944E+03 -0.99497530864E+03  0.10264105891E+04  0.17200000000E+03 0.  1.
</event>
<event>
 4    1  0.3191769E-002  0.1970892E+03  0.7818608E-02  0.1152218E+00
          2   -1    0    0  502    0  0.00000000000E+00  0.00000000000E+00  0.62886126670E+03  0.62886126670E+03  0.00000000000E+00 0. -1.
         -2   -1    0    0    0  501 -0.00000000000E+00 -0.00000000000E+00 -0.81579488629E+02  0.81579488629E+02  0.00000000000E+00 0.  1.
          6    1    1    2  502    0 -0.94309325667E+02 -0.19128858907E+02  0.98593981246E+02  0.22037453412E+03  0.17200000000E+03 0. -1.
         -6    1    1    2    0  501  0.94309325667E+02  0.19128858907E+02  0.44868779683E+03  0.49006622121E+03  0.17200000000E+03 0. -1.
</event>
<event>
 4    1  0.3191769E-002  0.2322328E+03  0.7818608E-02  0.1125078E+00
         -1   -1    0    0    0  501 -0.00000000000E+00  0.00000000000E+00  0.15204204295E+03  0.15204204295E+03  0.00000000000E+00 0.  1.
          1   -1    0    0  502    0  0.00000000000E+00 -0.00000000000E+00 -0.45382174258E+03  0.45382174258E+03  0.00000000000E+00 0. -1.
          6    1    1    2  502    0  0.12915782238E+03  0.87557574786E+02 -0.29245196758E+03  0.37344373783E+03  0.17200000000E+03 0. -1.
         -6    1    1    2    0  501 -0.12915782238E+03 -0.87557574786E+02 -0.93277320537E+01  0.23242004770E+03  0.17200000000E+03 0.  1.
</event>
<event>
 4    1  0.3191769E-002  0.2314657E+03  0.7818608E-02  0.1125612E+00
          4   -1    0    0  502    0  0.00000000000E+00  0.00000000000E+00  0.57124545870E+03  0.57124545870E+03  0.00000000000E+00 0. -1.
         -4   -1    0    0    0  501 -0.00000000000E+00 -0.00000000000E+00 -0.96878847026E+02  0.96878847026E+02  0.00000000000E+00 0.  1.
          6    1    1    2  502    0  0.62807410852E+02  0.14158947700E+03  0.17752037374E+03  0.29170161801E+03  0.17200000000E+03 0. -1.
         -6    1    1    2    0  501 -0.62807410852E+02 -0.14158947700E+03  0.29684623793E+03  0.37642268772E+03  0.17200000000E+03 0.  1.
</event>
<event>
 4    1  0.3191769E-002  0.2646942E+03  0.7818608E-02  0.1104355E+00
          2   -1    0    0  502    0  0.00000000000E+00  0.00000000000E+00  0.42632162543E+03  0.42632162543E+03  0.00000000000E+00 0. -1.
         -2   -1    0    0    0  501 -0.00000000000E+00 -0.00000000000E+00 -0.16864728928E+03  0.16864728928E+03  0.00000000000E+00 0.  1.
          6    1    1    2  502    0 -0.18981739194E+03  0.66696039105E+02  0.17636214211E+03  0.31806698836E+03  0.17200000000E+03 0. -1.
         -6    1    1    2    0  501  0.18981739194E+03 -0.66696039105E+02  0.81312194041E+02  0.27690192635E+03  0.17200000000E+03 0.  1.
</event>
<event>
 4    1  0.3191769E-002  0.3366031E+03  0.7818608E-02  0.1068252E+00
         -2   -1    0    0    0  501 -0.00000000000E+00  0.00000000000E+00  0.25770972151E+03  0.25770972151E+03  0.00000000000E+00 0.  1.
          2   -1    0    0  502    0  0.00000000000E+00 -0.00000000000E+00 -0.46085327564E+03  0.46085327564E+03  0.00000000000E+00 0. -1.
          6    1    1    2  502    0 -0.25440449569E+03 -0.13782598350E+03 -0.17863942014E+03  0.38106914278E+03  0.17200000000E+03 0. -1.
         -6    1    1    2    0  501  0.25440449569E+03  0.13782598350E+03 -0.24504133985E+02  0.33749385437E+03  0.17200000000E+03 0.  1.
</event>
<event>
 4    1  0.3191769E-002  0.2131412E+03  0.7818608E-02  0.1139102E+00
          2   -1    0    0  502    0  0.00000000000E+00  0.00000000000E+00  0.56804183924E+03  0.56804183924E+03  0.00000000000E+00 0. -1.
         -2   -1    0    0    0  501 -0.00000000000E+00 -0.00000000000E+00 -0.80531065410E+02  0.80531065410E+02  0.00000000000E+00 0.  1.
          6    1    1    2  502    0  0.10589402949E+03  0.68056023264E+02  0.21680933689E+03  0.30403199888E+03  0.17200000000E+03 0.  1.
         -6    1    1    2    0  501 -0.10589402949E+03 -0.68056023264E+02  0.27070143695E+03  0.34454090577E+03  0.17200000000E+03 0. -1.
</event>
<event>
 4    1  0.3191769E-002  0.2473587E+03  0.7818608E-02  0.1114985E+00
          2   -1    0    0  502    0  0.00000000000E+00  0.00000000000E+00  0.15172552298E+04  0.15172552298E+04  0.00000000000E+00 0. -1.
         -2   -1    0    0    0  501 -0.00000000000E+00 -0.00000000000E+00 -0.54546829145E+02  0.54546829145E+02  0.00000000000E+00 0.  1.
          6    1    1    2  502    0  0.14028010871E+03 -0.10919633033E+03  0.33009007463E+03  0.41248733899E+03  0.17200000000E+03 0.  1.
         -6    1    1    2    0  501 -0.14028010871E+03  0.10919633033E+03  0.11326183260E+04  0.11593147200E+04  0.17200000000E+03 0. -1.
</event>
<event>
 4    1  0.3191769E-002  0.1912092E+03  0.7818608E-02  0.1157375E+00
          1   -1    0    0  502    0  0.00000000000E+00  0.00000000000E+00  0.81037816613E+03  0.81037816613E+03  0.00000000000E+00 0. -1.
         -1   -1    0    0    0  501 -0.00000000000E+00 -0.00000000000E+00 -0.45379950600E+02  0.45379950600E+02  0.00000000000E+00 0.  1.
          6    1    1    2  502    0  0.50228737208E+02 -0.66738537279E+02  0.41513640888E+03  0.45705491615E+03  0.17200000000E+03 0. -1.
         -6    1    1    2    0  501 -0.50228737208E+02  0.66738537279E+02  0.34986180665E+03  0.39870320058E+03  0.17200000000E+03 0.  1.
</event>
<event>
 4    1  0.3191769E-002  0.2687387E+03  0.7818608E-02  0.1102004E+00
         -2   -1    0    0    0  501 -0.00000000000E+00  0.00000000000E+00  0.10120294111E+03  0.10120294111E+03  0.00000000000E+00 0.  1.
          2   -1    0    0  502    0  0.00000000000E+00 -0.00000000000E+00 -0.95579360266E+03  0.95579360266E+03  0.00000000000E+00 0. -1.
          6    1    1    2  502    0 -0.20350439304E+03 -0.34963814578E+02 -0.69332149387E+03  0.74358267878E+03  0.17200000000E+03 0. -1.
         -6    1    1    2    0  501  0.20350439304E+03  0.34963814578E+02 -0.16126916768E+03  0.31341386498E+03  0.17200000000E+03 0.  1.
</event>
<event>
 4    1  0.3191769E-002  0.2724469E+03  0.7818608E-02  0.1099887E+00
          2   -1    0    0  502    0  0.00000000000E+00  0.00000000000E+00  0.39028147835E+03  0.39028147835E+03  0.00000000000E+00 0. -1.
         -2   -1    0    0    0  501 -0.00000000000E+00 -0.00000000000E+00 -0.19310886756E+03  0.19310886756E+03  0.00000000000E+00 0.  1.
          6    1    1    2  502    0 -0.15183638934E+03  0.14693200474E+03  0.13445358643E+03  0.30381749464E+03  0.17200000000E+03 0. -1.
         -6    1    1    2    0  501  0.15183638934E+03 -0.14693200474E+03  0.62719024356E+02  0.27957285126E+03  0.17200000000E+03 0.  1.
</event>
<event>
 4    1  0.3191769E-002  0.3197193E+03  0.7818608E-02  0.1075779E+00
         -2   -1    0    0    0  501 -0.00000000000E+00  0.00000000000E+00  0.45440356488E+02  0.45440356488E+02  0.00000000000E+00 0.  1.
          2   -1    0    0  502    0  0.00000000000E+00 -0.00000000000E+00 -0.22762029209E+04  0.22762029209E+04  0.00000000000E+00 0. -1.
          6    1    1    2  502    0 -0.13509748034E+03 -0.23320611140E+03 -0.12409902483E+04  0.12815136425E+04  0.17200000000E+03 0. -1.
         -6    1    1    2    0  501  0.13509748034E+03  0.23320611140E+03 -0.98977231610E+03  0.10401296349E+04  0.17200000000E+03 0.  1.
</event>
<event>
 4    1  0.3191769E-002  0.1942924E+03  0.7818608E-02  0.1154646E+00
          1   -1    0    0  502    0  0.00000000000E+00  0.00000000000E+00  0.85264010397E+03  0.85264010397E+03  0.00000000000E+00 0. -1.
         -1   -1    0    0    0  501 -0.00000000000E+00 -0.00000000000E+00 -0.44960371659E+02  0.44960371659E+02  0.00000000000E+00 0.  1.
          6    1    1    2  502    0  0.86223523551E+02 -0.27037857990E+02  0.45930360350E+03  0.49870767186E+03  0.17200000000E+03 0. -1.
         -6    1    1    2    0  501 -0.86223523551E+02  0.27037857990E+02  0.34837612881E+03  0.39889280377E+03  0.17200000000E+03 0.  1.
</event>
<event>
 4    1  0.3191769E-002  0.3724572E+03  0.7818608E-02  0.1053757E+00
          1   -1    0    0  502    0  0.00000000000E+00  0.00000000000E+00  0.32574926642E+03  0.32574926642E+03  0.00000000000E+00 0. -1.
         -1   -1    0    0    0  501 -0.00000000000E+00 -0.00000000000E+00 -0.47829729635E+03  0.47829729635E+03  0.00000000000E+00 0.  1.
          6    1    1    2  502    0  0.21711811078E+03 -0.24899817663E+03 -0.20938454957E+03  0.42727772653E+03  0.17200000000E+03 0. -1.
         -6    1    1    2    0  501 -0.21711811078E+03  0.24899817663E+03  0.56836519640E+02  0.37676883624E+03  0.17200000000E+03 0.  1.
</event>
<event>
 4    1  0.3191769E-002  0.5386020E+03  0.7818608E-02  0.1004167E+00
         -2   -1    0    0    0  501 -0.00000000000E+00  0.00000000000E+00  0.23844803686E+03  0.23844803686E+03  0.00000000000E+00 0.  1.
          2   -1    0    0  502    0  0.00000000000E+00 -0.00000000000E+00 -0.17984758574E+04  0.17984758574E+04  0.00000000000E+00 0. -1.
          6    1    1    2  502    0  0.35678857675E+03 -0.36497951834E+03 -0.13593272514E+04  0.14621431920E+04  0.17200000000E+03 0. -1.
         -6    1    1    2    0  501 -0.35678857675E+03  0.36497951834E+03 -0.20070056913E+03  0.57478070231E+03  0.17200000000E+03 0.  1.
</event>
<event>
 4    1  0.3191769E-002  0.4917327E+03  0.7818608E-02  0.1015960E+00
          2   -1    0    0  502    0  0.00000000000E+00  0.00000000000E+00  0.89377422952E+03  0.89377422952E+03  0.00000000000E+00 0. -1.
         -2   -1    0    0    0  501 -0.00000000000E+00 -0.00000000000E+00 -0.44989492135E+03  0.44989492135E+03  0.00000000000E+00 0.  1.
          6    1    1    2  502    0  0.41061791792E+03 -0.20882989962E+03  0.64613350967E+03  0.81196644869E+03  0.17200000000E+03 0. -1.
         -6    1    1    2    0  501 -0.41061791792E+03  0.20882989962E+03 -0.20225420149E+03  0.53170270218E+03  0.17200000000E+03 0.  1.
</event>
<event>
 4    1  0.3191769E-002  0.1820104E+03  0.7818608E-02  0.1165871E+00
         -2   -1    0    0    0  501 -0.00000000000E+00  0.00000000000E+00  0.20828208013E+03  0.20828208013E+03  0.00000000000E+00 0.  1.
          2   -1    0    0  502    0  0.00000000000E+00 -0.00000000000E+00 -0.16550919686E+03  0.16550919686E+03  0.00000000000E+00 0. -1.
          6    1    1    2  502    0 -0.37562890889E+02  0.46182301994E+02  0.58300761867E+02  0.19111973897E+03  0.17200000000E+03 0.  1.
         -6    1    1    2    0  501  0.37562890889E+02 -0.46182301994E+02 -0.15527878601E+02  0.18267153802E+03  0.17200000000E+03 0.  1.
</event>
<event>
 4    1  0.3191769E-002  0.2723437E+03  0.7818608E-02  0.1099946E+00
          1   -1    0    0  502    0  0.00000000000E+00  0.00000000000E+00  0.38029567428E+04  0.38029567428E+04  0.00000000000E+00 0. -1.
         -1   -1    0    0    0  501 -0.00000000000E+00 -0.00000000000E+00 -0.39846004396E+02  0.39846004396E+02  0.00000000000E+00 0.  1.
          6    1    1    2  502    0  0.28641675591E+02  0.20920506749E+03  0.32544194001E+04  0.32657949626E+04  0.17200000000E+03 0. -1.
         -6    1    1    2    0  501 -0.28641675591E+02 -0.20920506749E+03  0.50869133830E+03  0.57700778462E+03  0.17200000000E+03 0.  1.
</event>
<event>
 4    1  0.3191769E-002  0.1867429E+03  0.7818608E-02  0.1161432E+00
          2   -1    0    0  502    0  0.00000000000E+00  0.00000000000E+00  0.17851542239E+04  0.17851542239E+04  0.00000000000E+00 0. -1.
         -2   -1    0    0    0  501 -0.00000000000E+00 -0.00000000000E+00 -0.25313626115E+02  0.25313626115E+02  0.00000000000E+00 0.  1.
          6    1    1    2  502    0 -0.67437622316E+02  0.27222671750E+02  0.13124317835E+04  0.13256508186E+04  0.17200000000E+03 0. -1.
         -6    1    1    2    0  501  0.67437622316E+02 -0.27222671750E+02  0.44740881432E+03  0.48481703135E+03  0.17200000000E+03 0.  1.
</event>
<event>
 4    1  0.3191769E-002  0.3254408E+03  0.7818608E-02  0.1073172E+00
          1   -1    0    0  502    0  0.00000000000E+00  0.00000000000E+00  0.12210267260E+04  0.12210267260E+04  0.00000000000E+00 0. -1.
         -1   -1    0    0    0  501 -0.00000000000E+00 -0.00000000000E+00 -0.16171680279E+03  0.16171680279E+03  0.00000000000E+00 0.  1.
          6    1    1    2  502    0 -0.17523831680E+03  0.21358668371E+03  0.10004130674E+04  0.10520161808E+04  0.17200000000E+03 0. -1.
         -6    1    1    2    0  501  0.17523831680E+03 -0.21358668371E+03  0.58896855831E+02  0.33072734807E+03  0.17200000000E+03 0.  1.
</event>
<event>
 4    1  0.3191769E-002  0.3151940E+03  0.7818608E-02  0.1077883E+00
         -1   -1    0    0    0  501 -0.00000000000E+00  0.00000000000E+00  0.47929727394E+03  0.47929727394E+03  0.00000000000E+00 0.  1.
          1   -1    0    0  502    0  0.00000000000E+00 -0.00000000000E+00 -0.40979723915E+03  0.40979723915E+03  0.00000000000E+00 0. -1.
          6    1    1    2  502    0 -0.10741602645E+03  0.24129866317E+03 -0.27776274352E+03  0.42011830390E+03  0.17200000000E+03 0. -1.
         -6    1    1    2    0  501  0.10741602645E+03 -0.24129866317E+03  0.34726277831E+03  0.46897620919E+03  0.17200000000E+03 0.  1.
</event>
<event>
 4    1  0.3191769E-002  0.3317729E+03  0.7818608E-02  0.1070355E+00
          1   -1    0    0  502    0  0.00000000000E+00  0.00000000000E+00  0.29973175923E+03  0.29973175923E+03  0.00000000000E+00 0. -1.
         -1   -1    0    0    0  501 -0.00000000000E+00 -0.00000000000E+00 -0.39935715727E+03  0.39935715727E+03  0.00000000000E+00 0.  1.
          6    1    1    2  502    0 -0.26819689221E+03 -0.92518464981E+02  0.49315203388E+02  0.33541799093E+03  0.17200000000E+03 0. -1.
         -6    1    1    2    0  501  0.26819689221E+03  0.92518464981E+02 -0.14894060142E+03  0.36367092557E+03  0.17200000000E+03 0.  1.
</event>
<event>
 4    1  0.3191769E-002  0.1885921E+03  0.7818608E-02  0.1159737E+00
         -1   -1    0    0    0  501 -0.00000000000E+00  0.00000000000E+00  0.22394960465E+02  0.22394960465E+02  0.00000000000E+00 0.  1.
          1   -1    0    0  502    0  0.00000000000E+00 -0.00000000000E+00 -0.21158807211E+04  0.21158807211E+04  0.00000000000E+00 0. -1.
          6    1    1    2  502    0 -0.83188650678E+01 -0.76901044852E+02 -0.51281005298E+03  0.54638916960E+03  0.17200000000E+03 0.  1.
         -6    1    1    2    0  501  0.83188650678E+01  0.76901044852E+02 -0.15806757077E+04  0.15918865120E+04  0.17200000000E+03 0.  1.
</event>
<event>
 4    1  0.3191769E-002  0.1815900E+03  0.7818608E-02  0.1166273E+00
         -1   -1    0    0    0  501 -0.00000000000E+00  0.00000000000E+00  0.67877746130E+02  0.67877746130E+02  0.00000000000E+00 0.  1.
          1   -1    0    0  502    0  0.00000000000E+00 -0.00000000000E+00 -0.83900514515E+03  0.83900514515E+03  0.00000000000E+00 0. -1.
          6    1    1    2  502    0 -0.53667580510E+02 -0.22598802567E+02 -0.67977087668E+03  0.70360739042E+03  0.17200000000E+03 0. -1.
         -6    1    1    2    0  501  0.53667580510E+02  0.22598802567E+02 -0.91356522342E+02  0.20327550086E+03  0.17200000000E+03 0.  1.
</event>
<event>
 4    1  0.3191769E-002  0.2459925E+03  0.7818608E-02  0.1115864E+00
          2   -1    0    0  502    0  0.00000000000E+00  0.00000000000E+00  0.10277831593E+04  0.10277831593E+04  0.00000000000E+00 0. -1.
         -2   -1    0    0    0  501 -0.00000000000E+00 -0.00000000000E+00 -0.63145970688E+02  0.63145970688E+02  0.00000000000E+00 0.  1.
          6    1    1    2  502    0 -0.10347988265E+03  0.14219781654E+03  0.62415223670E+03  0.67087876678E+03  0.17200000000E+03 0. -1.
         -6    1    1    2    0  501  0.10347988265E+03 -0.14219781654E+03  0.34048495187E+03  0.42005036316E+03  0.17200000000E+03 0.  1.
</event>
<event>
 4    1  0.3191769E-002  0.2451865E+03  0.7818608E-02  0.1116385E+00
         -2   -1    0    0    0  501 -0.00000000000E+00  0.00000000000E+00  0.42662669795E+02  0.42662669795E+02  0.00000000000E+00 0.  1.
          2   -1    0    0  502    0  0.00000000000E+00 -0.00000000000E+00 -0.17448698359E+04  0.17448698359E+04  0.00000000000E+00 0. -1.
          6    1    1    2  502    0 -0.17032947414E+03  0.38990981367E+02 -0.12431670045E+04  0.12671150806E+04  0.17200000000E+03 0. -1.
         -6    1    1    2    0  501  0.17032947414E+03 -0.38990981367E+02 -0.45904016166E+03  0.52041742516E+03  0.17200000000E+03 0.  1.
</event>
<event>
 4    1  0.3191769E-002  0.2024148E+03  0.7818608E-02  0.1147717E+00
         -1   -1    0    0    0  501 -0.00000000000E+00  0.00000000000E+00  0.29565486990E+02  0.29565486990E+02  0.00000000000E+00 0.  1.
          1   -1    0    0  502    0  0.00000000000E+00 -0.00000000000E+00 -0.14182974662E+04  0.14182974662E+04  0.00000000000E+00 0. -1.
          6    1    1    2  502    0 -0.96617479143E+02  0.45308115122E+02 -0.80395291140E+03  0.82904284951E+03  0.17200000000E+03 0. -1.
         -6    1    1    2    0  501  0.96617479143E+02 -0.45308115122E+02 -0.58477906780E+03  0.61882010367E+03  0.17200000000E+03 0.  1.
</event>
<event>
 4    1  0.3191769E-002  0.2468060E+03  0.7818608E-02  0.1115340E+00
          2   -1    0    0  502    0  0.00000000000E+00  0.00000000000E+00  0.89861932424E+02  0.89861932424E+02  0.00000000000E+00 0. -1.
         -2   -1    0    0    0  501 -0.00000000000E+00 -0.00000000000E+00 -0.70690965673E+03  0.70690965673E+03  0.00000000000E+00 0.  1.
          6    1    1    2  502    0 -0.71655790665E+02 -0.16184768557E+03 -0.38929216382E+03  0.46093558603E+03  0.17200000000E+03 0. -1.
         -6    1    1    2    0  501  0.71655790665E+02  0.16184768557E+03 -0.22775556048E+03  0.33583600312E+03  0.17200000000E+03 0.  1.
</event>
<event>
 4    1  0.3191769E-002  0.2445181E+03  0.7818608E-02  0.1116819E+00
          2   -1    0    0  502    0  0.00000000000E+00  0.00000000000E+00  0.96218231292E+03  0.96218231292E+03  0.00000000000E+00 0. -1.
         -2   -1    0    0    0  501 -0.00000000000E+00 -0.00000000000E+00 -0.12487789605E+03  0.12487789605E+03  0.00000000000E+00 0.  1.
          6    1    1    2  502    0  0.15242128159E+03  0.83503495195E+02  0.80390795956E+03  0.84027203228E+03  0.17200000000E+03 0. -1.
         -6    1    1    2    0  501 -0.15242128159E+03 -0.83503495195E+02  0.33396457309E+02  0.24678817669E+03  0.17200000000E+03 0.  1.
</event>
<event>
 4    1  0.3191769E-002  0.2028409E+03  0.7818608E-02  0.1147364E+00
          1   -1    0    0  502    0  0.00000000000E+00  0.00000000000E+00  0.11616768519E+04  0.11616768519E+04  0.00000000000E+00 0. -1.
         -1   -1    0    0    0  501 -0.00000000000E+00 -0.00000000000E+00 -0.37534853636E+02  0.37534853636E+02  0.00000000000E+00 0.  1.
          6    1    1    2  502    0 -0.10732350602E+03 -0.64867850636E+01  0.70446160050E+03  0.73308291476E+03  0.17200000000E+03 0.  1.
         -6    1    1    2    0  501  0.10732350602E+03  0.64867850636E+01  0.41968039773E+03  0.46612879075E+03  0.17200000000E+03 0.  1.
</event>
<event>
 4    1  0.3191769E-002  0.1981418E+03  0.7818608E-02  0.1151316E+00
          1   -1    0    0  502    0  0.00000000000E+00  0.00000000000E+00  0.94917733484E+03  0.94917733484E+03  0.00000000000E+00 0. -1.
         -1   -1    0    0    0  501 -0.00000000000E+00 -0.00000000000E+00 -0.42538331159E+02  0.42538331159E+02  0.00000000000E+00 0.  1.
          6    1    1    2  502    0 -0.93080709664E+02  0.31814485903E+02  0.53576596336E+03  0.57123143078E+03  0.17200000000E+03 0. -1.
         -6    1    1    2    0  501  0.93080709664E+02 -0.31814485903E+02  0.37087304032E+03  0.42048423521E+03  0.17200000000E+03 0.  1.
</event>
<event>
 4    1  0.3191769E-002  0.2665777E+03  0.7818608E-02  0.1103254E+00
          1   -1    0    0  502    0  0.00000000000E+00  0.00000000000E+00  0.36313923223E+03  0.36313923223E+03  0.00000000000E+00 0. -1.
         -1   -1    0    0    0  501 -0.00000000000E+00 -0.00000000000E+00 -0.23808457397E+03  0.23808457397E+03  0.00000000000E+00 0.  1.
          6    1    1    2  502    0  0.19258872740E+03  0.66251620928E+02  0.18937481825E+03  0.32699620332E+03  0.17200000000E+03 0. -1.
         -6    1    1    2    0  501 -0.19258872740E+03 -0.66251620928E+02 -0.64320159993E+02  0.27422760288E+03  0.17200000000E+03 0.  1.
</event>
<event>
 4    1  0.3191769E-002  0.3177243E+03  0.7818608E-02  0.1076701E+00
         -2   -1    0    0    0  501 -0.00000000000E+00  0.00000000000E+00  0.19966126436E+03  0.19966126436E+03  0.00000000000E+00 0.  1.
          2   -1    0    0  502    0  0.00000000000E+00 -0.00000000000E+00 -0.56689134173E+03  0.56689134173E+03  0.00000000000E+00 0. -1.
          6    1    1    2  502    0  0.21608239263E+03 -0.15707692997E+03 -0.30964132556E+03  0.44365134151E+03  0.17200000000E+03 0. -1.
         -6    1    1    2    0  501 -0.21608239263E+03  0.15707692997E+03 -0.57588751810E+02  0.32290126458E+03  0.17200000000E+03 0.  1.
</event>
<event>
 4    1  0.3191769E-002  0.1925708E+03  0.7818608E-02  0.1156163E+00
         -2   -1    0    0    0  501 -0.00000000000E+00  0.00000000000E+00  0.10885817298E+03  0.10885817298E+03  0.00000000000E+00 0.  1.
          2   -1    0    0  502    0  0.00000000000E+00 -0.00000000000E+00 -0.19276012053E+04  0.19276012053E+04  0.00000000000E+00 0. -1.
          6    1    1    2  502    0 -0.57084672443E+02  0.65121759546E+02 -0.18332561264E+04  0.18433424881E+04  0.17200000000E+03 0. -1.
         -6    1    1    2    0  501  0.57084672443E+02 -0.65121759546E+02  0.14513094041E+02  0.19311689023E+03  0.17200000000E+03 0.  1.
</event>
<event>
 4    1  0.3191769E-002  0.2329449E+03  0.7818608E-02  0.1124584E+00
          1   -1    0    0  502    0  0.00000000000E+00  0.00000000000E+00  0.72895977002E+03  0.72895977002E+03  0.00000000000E+00 0. -1.
         -1   -1    0    0    0  501 -0.00000000000E+00 -0.00000000000E+00 -0.18334328664E+03  0.18334328664E+03  0.00000000000E+00 0.  1.
          6    1    1    2  502    0 -0.15366511378E+03  0.32654986935E+02  0.62436734830E+03  0.66640670839E+03  0.17200000000E+03 0. -1.
         -6    1    1    2    0  501  0.15366511378E+03 -0.32654986935E+02 -0.78750864929E+02  0.24589634827E+03  0.17200000000E+03 0.  1.
</event>
<event>
 4    1  0.3191769E-002  0.1816450E+03  0.7818608E-02  0.1166220E+00
          1   -1    0    0  502    0  0.00000000000E+00  0.00000000000E+00  0.77011336815E+02  0.77011336815E+02  0.00000000000E+00 0. -1.
         -1   -1    0    0    0  501 -0.00000000000E+00 -0.00000000000E+00 -0.72984457813E+03  0.72984457813E+03  0.00000000000E+00 0.  1.
          6    1    1    2  502    0  0.17446626823E+01 -0.58376905460E+02 -0.67163416703E+02  0.19366422355E+03  0.17200000000E+03 0. -1.
         -6    1    1    2    0  501 -0.17446626823E+01  0.58376905460E+02 -0.58566982461E+03  0.61319169140E+03  0.17200000000E+03 0.  1.
</event>
<event>
 4    1  0.3191769E-002  0.2245019E+03  0.7818608E-02  0.1130571E+00
         -1   -1    0    0    0  501 -0.00000000000E+00  0.00000000000E+00  0.77253091594E+02  0.77253091594E+02  0.00000000000E+00 0.  1.
          1   -1    0    0  502    0  0.00000000000E+00 -0.00000000000E+00 -0.11084748098E+04  0.11084748098E+04  0.00000000000E+00 0. -1.
          6    1    1    2  502    0 -0.12775328781E+03 -0.67053666430E+02 -0.89589034778E+03  0.92359114979E+03  0.17200000000E+03 0. -1.
         -6    1    1    2    0  501  0.12775328781E+03  0.67053666430E+02 -0.13533137046E+03  0.26213675164E+03  0.17200000000E+03 0.  1.
</event>
<event>
 4    1  0.3191769E-002  0.1876997E+03  0.7818608E-02  0.1160553E+00
         -2   -1    0    0    0  501 -0.00000000000E+00  0.00000000000E+00  0.14526101877E+02  0.14526101877E+02  0.00000000000E+00 0.  1.
          2   -1    0    0  502    0  0.00000000000E+00 -0.00000000000E+00 -0.31517439786E+04  0.31517439786E+04  0.00000000000E+00 0. -1.
          6    1    1    2  502    0 -0.55897249339E+02  0.50226177145E+02 -0.23286247747E+04  0.23361773291E+04  0.17200000000E+03 0. -1.
         -6    1    1    2    0  501  0.55897249339E+02 -0.50226177145E+02 -0.80859310195E+03  0.83009275137E+03  0.17200000000E+03 0.  1.
</event>
<event>
 4    1  0.3191769E-002  0.1074990E+04  0.7818608E-02  0.9229917E-01
         -2   -1    0    0    0  501 -0.00000000000E+00  0.00000000000E+00  0.12784006868E+04  0.12784006868E+04  0.00000000000E+00 0.  1.
          2   -1    0    0  502    0  0.00000000000E+00 -0.00000000000E+00 -0.12177819015E+04  0.12177819015E+04  0.00000000000E+00 0. -1.
          6    1    1    2  502    0  0.73303203162E+01 -0.10611150692E+04 -0.60328909662E+03  0.12327046109E+04  0.17200000000E+03 0. -1.
         -6    1    1    2    0  501 -0.73303203162E+01  0.10611150692E+04  0.66390788188E+03  0.12634779774E+04  0.17200000000E+03 0.  1.
</event>
<event>
 4    1  0.3191769E-002  0.1734999E+03  0.7818608E-02  0.1174246E+00
         -1   -1    0    0    0  501 -0.00000000000E+00  0.00000000000E+00  0.15507986842E+03  0.15507986842E+03  0.00000000000E+00 0.  1.
          1   -1    0    0  502    0  0.00000000000E+00 -0.00000000000E+00 -0.58190677415E+03  0.58190677415E+03  0.00000000000E+00 0. -1.
          6    1    1    2  502    0  0.22522687396E+02  0.33105929597E+01 -0.51423308262E+03  0.54271345546E+03  0.17200000000E+03 0. -1.
         -6    1    1    2    0  501 -0.22522687396E+02 -0.33105929597E+01  0.87406176893E+02  0.19427318712E+03  0.17200000000E+03 0.  1.
</event>
<event>
 4    1  0.3191769E-002  0.1814674E+03  0.7818608E-02  0.1166390E+00
          2   -1    0    0  502    0  0.00000000000E+00  0.00000000000E+00  0.37310096537E+02  0.37310096537E+02  0.00000000000E+00 0. -1.
         -2   -1    0    0    0  501 -0.00000000000E+00 -0.00000000000E+00 -0.96456184525E+03  0.96456184525E+03  0.00000000000E+00 0.  1.
          6    1    1    2  502    0  0.51747336044E+02 -0.25858236537E+02 -0.31761526567E+03  0.36580034468E+03  0.17200000000E+03 0. -1.
         -6    1    1    2    0  501 -0.51747336044E+02  0.25858236537E+02 -0.60963648304E+03  0.63607159710E+03  0.17200000000E+03 0.  1.
</event>
<event>
 4    1  0.3191769E-002  0.6723391E+03  0.7818608E-02  0.9765741E-01
          2   -1    0    0  502    0  0.00000000000E+00  0.00000000000E+00  0.32152260706E+04  0.32152260706E+04  0.00000000000E+00 0. -1.
         -2   -1    0    0    0  501 -0.00000000000E+00 -0.00000000000E+00 -0.14082034040E+03  0.14082034040E+03  0.00000000000E+00 0.  1.
          6    1    1    2  502    0  0.52506469357E+03 -0.38309648697E+03  0.16045526369E+04  0.17397209590E+04  0.17200000000E+03 0. -1.
         -6    1    1    2    0  501 -0.52506469357E+03  0.38309648697E+03  0.14698530934E+04  0.16163254520E+04  0.17200000000E+03 0.  1.
</event>
<event>
 4    1  0.3191769E-002  0.2388729E+03  0.7818608E-02  0.1120546E+00
         -1   -1    0    0    0  501 -0.00000000000E+00  0.00000000000E+00  0.10109394203E+03  0.10109394203E+03  0.00000000000E+00 0.  1.
          1   -1    0    0  502    0  0.00000000000E+00 -0.00000000000E+00 -0.11465757809E+04  0.11465757809E+04  0.00000000000E+00 0. -1.
          6    1    1    2  502    0 -0.13703187813E+03 -0.93265775104E+02 -0.96725438619E+03  0.99631385017E+03  0.17200000000E+03 0. -1.
         -6    1    1    2    0  501  0.13703187813E+03  0.93265775104E+02 -0.78227452713E+02  0.25135587279E+03  0.17200000000E+03 0.  1.
</event>
<event>
 4    1  0.3191769E-002  0.7228266E+03  0.7818608E-02  0.9678973E-01
          2   -1    0    0  502    0  0.00000000000E+00  0.00000000000E+00  0.11993736116E+04  0.11993736116E+04  0.00000000000E+00 0. -1.
         -2   -1    0    0    0  501 -0.00000000000E+00 -0.00000000000E+00 -0.79509146234E+03  0.79509146234E+03  0.00000000000E+00 0.  1.
          6    1    1    2  502    0  0.56597722020E+03  0.41540839482E+03  0.87266838286E+03  0.11331497936E+04  0.17200000000E+03 0. -1.
         -6    1    1    2    0  501 -0.56597722020E+03 -0.41540839482E+03 -0.46838623362E+03  0.86131528032E+03  0.17200000000E+03 0.  1.
</event>
<event>
 4    1  0.3191769E-002  0.4158661E+03  0.7818608E-02  0.1038420E+00
          2   -1    0    0  502    0  0.00000000000E+00  0.00000000000E+00  0.75815103927E+03  0.75815103927E+03  0.00000000000E+00 0. -1.
         -2   -1    0    0    0  501 -0.00000000000E+00 -0.00000000000E+00 -0.23713928810E+03  0.23713928810E+03  0.00000000000E+00 0.  1.
          6    1    1    2  502    0 -0.29520994487E+03 -0.23709002308E+03  0.35759203340E+03  0.54846754959E+03  0.17200000000E+03 0. -1.
         -6    1    1    2    0  501  0.29520994487E+03  0.23709002308E+03  0.16341971777E+03  0.44682277779E+03  0.17200000000E+03 0.  1.
</event>
<event>
 4    1  0.3191769E-002  0.2174835E+03  0.7818608E-02  0.1135773E+00
         -1   -1    0    0    0  501 -0.00000000000E+00  0.00000000000E+00  0.16363591761E+03  0.16363591761E+03  0.00000000000E+00 0.  1.
          1   -1    0    0  502    0  0.00000000000E+00 -0.00000000000E+00 -0.29985339226E+03  0.29985339226E+03  0.00000000000E+00 0. -1.
          6    1    1    2  502    0  0.95249996378E+02  0.92964989374E+02 -0.11209574041E+03  0.24467224215E+03  0.17200000000E+03 0. -1.
         -6    1    1    2    0  501 -0.95249996378E+02 -0.92964989374E+02 -0.24121734237E+02  0.21881706771E+03  0.17200000000E+03 0.  1.
</event>
<event>
 4    1  0.3191769E-002  0.1801495E+03  0.7818608E-02  0.1167658E+00
          2   -1    0    0  502    0  0.00000000000E+00  0.00000000000E+00  0.57618242842E+02  0.57618242842E+02  0.00000000000E+00 0. -1.
         -2   -1    0    0    0  501 -0.00000000000E+00 -0.00000000000E+00 -0.56535696186E+03  0.56535696186E+03  0.00000000000E+00 0.  1.
          6    1    1    2  502    0 -0.38338430413E+01 -0.53433534349E+02 -0.27285619896E+03  0.32696230098E+03  0.17200000000E+03 0.  1.
         -6    1    1    2    0  501  0.38338430413E+01  0.53433534349E+02 -0.23488252005E+03  0.29601290372E+03  0.17200000000E+03 0.  1.
</event>
<event>
 4    1  0.3191769E-002  0.1739921E+03  0.7818608E-02  0.1173748E+00
         -1   -1    0    0    0  501 -0.00000000000E+00  0.00000000000E+00  0.30760277732E+02  0.30760277732E+02  0.00000000000E+00 0.  1.
          1   -1    0    0  502    0  0.00000000000E+00 -0.00000000000E+00 -0.26057403581E+04  0.26057403581E+04  0.00000000000E+00 0. -1.
          6    1    1    2  502    0  0.45175378014E+01 -0.25861936627E+02 -0.23274117036E+04  0.23339062719E+04  0.17200000000E+03 0. -1.
         -6    1    1    2    0  501 -0.45175378014E+01  0.25861936627E+02 -0.24756837677E+03  0.30259436394E+03  0.17200000000E+03 0.  1.
</event>
<event>
 4    1  0.3191769E-002  0.2021722E+03  0.7818608E-02  0.1147919E+00
         -2   -1    0    0    0  501 -0.00000000000E+00  0.00000000000E+00  0.68096506971E+03  0.68096506971E+03  0.00000000000E+00 0.  1.
          2   -1    0    0  502    0  0.00000000000E+00 -0.00000000000E+00 -0.13012345730E+03  0.13012345730E+03  0.00000000000E+00 0. -1.
          6    1    1    2  502    0 -0.77244979482E+02  0.72957512999E+02 -0.22239417678E+02  0.20339168434E+03  0.17200000000E+03 0. -1.
         -6    1    1    2    0  501  0.77244979482E+02 -0.72957512999E+02  0.57308103008E+03  0.60769684268E+03  0.17200000000E+03 0.  1.
</event>
<event>
 4    1  0.3191769E-002  0.2489035E+03  0.7818608E-02  0.1114000E+00
          2   -1    0    0  502    0  0.00000000000E+00  0.00000000000E+00  0.10807931398E+04  0.10807931398E+04  0.00000000000E+00 0. -1.
         -2   -1    0    0    0  501 -0.00000000000E+00 -0.00000000000E+00 -0.65223336649E+02  0.65223336649E+02  0.00000000000E+00 0.  1.
          6    1    1    2  502    0  0.13276580458E+03  0.12141737401E+03  0.30834275725E+03  0.39626783055E+03  0.17200000000E+03 0.  1.
         -6    1    1    2    0  501 -0.13276580458E+03 -0.12141737401E+03  0.70722704593E+03  0.74974864593E+03  0.17200000000E+03 0. -1.
</event>
<event>
 4    1  0.3191769E-002  0.2224004E+03  0.7818608E-02  0.1132106E+00
         -1   -1    0    0    0  501 -0.00000000000E+00  0.00000000000E+00  0.14286987691E+03  0.14286987691E+03  0.00000000000E+00 0.  1.
          1   -1    0    0  502    0  0.00000000000E+00 -0.00000000000E+00 -0.34864060440E+03  0.34864060440E+03  0.00000000000E+00 0. -1.
          6    1    1    2  502    0  0.14073112245E+03 -0.85252249813E+01 -0.12343611274E+03  0.25435880605E+03  0.17200000000E+03 0. -1.
         -6    1    1    2    0  501 -0.14073112245E+03  0.85252249813E+01 -0.82334614749E+02  0.23715167525E+03  0.17200000000E+03 0. -1.
</event>
<event>
 4    1  0.3191769E-002  0.3425973E+03  0.7818608E-02  0.1065695E+00
         -2   -1    0    0    0  501 -0.00000000000E+00  0.00000000000E+00  0.17362112858E+03  0.17362112858E+03  0.00000000000E+00 0.  1.
          2   -1    0    0  502    0  0.00000000000E+00 -0.00000000000E+00 -0.76088984346E+03  0.76088984346E+03  0.00000000000E+00 0. -1.
          6    1    1    2  502    0 -0.29626195253E+03  0.42141354311E+01 -0.44967847478E+03  0.56531728625E+03  0.17200000000E+03 0. -1.
         -6    1    1    2    0  501  0.29626195253E+03 -0.42141354311E+01 -0.13759024010E+03  0.36919368579E+03  0.17200000000E+03 0.  1.
</event>
<event>
 4    1  0.3191769E-002  0.1829234E+03  0.7818608E-02  0.1165003E+00
          1   -1    0    0  502    0  0.00000000000E+00  0.00000000000E+00  0.44775687176E+03  0.44775687176E+03  0.00000000000E+00 0. -1.
         -1   -1    0    0    0  501 -0.00000000000E+00 -0.00000000000E+00 -0.15225852293E+03  0.15225852293E+03  0.00000000000E+00 0.  1.
          6    1    1    2  502    0  0.60505636381E+02  0.14697921642E+02  0.36182704883E+03  0.40543775625E+03  0.17200000000E+03 0. -1.
         -6    1    1    2    0  501 -0.60505636381E+02 -0.14697921642E+02 -0.66328699993E+02  0.19457763843E+03  0.17200000000E+03 0.  1.
</event>
<event>
 4    1  0.3191769E-002  0.2013556E+03  0.7818608E-02  0.1148600E+00
         -2   -1    0    0    0  501 -0.00000000000E+00  0.00000000000E+00  0.14994697107E+03  0.14994697107E+03  0.00000000000E+00 0.  1.
          2   -1    0    0  502    0  0.00000000000E+00 -0.00000000000E+00 -0.27444729467E+03  0.27444729467E+03  0.00000000000E+00 0. -1.
          6    1    1    2  502    0  0.98693002551E+02  0.34925366774E+02 -0.88052189190E+02  0.21976641695E+03  0.17200000000E+03 0.  1.
         -6    1    1    2    0  501 -0.98693002551E+02 -0.34925366774E+02 -0.36448134407E+02  0.20462784879E+03  0.17200000000E+03 0.  1.
</event>
<event>
 4    1  0.3191769E-002  0.1831135E+03  0.7818608E-02  0.1164823E+00
          2   -1    0    0  502    0  0.00000000000E+00  0.00000000000E+00  0.22973148005E+04  0.22973148005E+04  0.00000000000E+00 0. -1.
         -2   -1    0    0    0  501 -0.00000000000E+00 -0.00000000000E+00 -0.16630810906E+02  0.16630810906E+02  0.00000000000E+00 0.  1.
          6    1    1    2  502    0 -0.34382269546E+02  0.52577560446E+02  0.15450837427E+04  0.15558966265E+04  0.17200000000E+03 0. -1.
         -6    1    1    2    0  501  0.34382269546E+02 -0.52577560446E+02  0.73560024682E+03  0.75804898485E+03  0.17200000000E+03 0.  1.
</event>
<event>
 4    1  0.3191769E-002  0.1782786E+03  0.7818608E-02  0.1169479E+00
         -2   -1    0    0    0  501 -0.00000000000E+00  0.00000000000E+00  0.93225945018E+02  0.93225945018E+02  0.00000000000E+00 0.  1.
          2   -1    0    0  502    0  0.00000000000E+00 -0.00000000000E+00 -0.46898998896E+03  0.46898998896E+03  0.00000000000E+00 0. -1.
          6    1    1    2  502    0  0.35561614535E+02 -0.30571790372E+02 -0.33477559761E+03  0.37928612359E+03  0.17200000000E+03 0. -1.
         -6    1    1    2    0  501 -0.35561614535E+02  0.30571790372E+02 -0.40988446332E+02  0.18292981039E+03  0.17200000000E+03 0.  1.
</event>
<event>
 4    1  0.3191769E-002  0.2458010E+03  0.7818608E-02  0.1115988E+00
         -2   -1    0    0    0  501 -0.00000000000E+00  0.00000000000E+00  0.98992145784E+03  0.98992145784E+03  0.00000000000E+00 0.  1.
          2   -1    0    0  502    0  0.00000000000E+00 -0.00000000000E+00 -0.77188000377E+02  0.77188000377E+02  0.00000000000E+00 0. -1.
          6    1    1    2  502    0 -0.56755006664E+00 -0.17559564385E+03  0.21227457568E+03  0.32477476462E+03  0.17200000000E+03 0. -1.
         -6    1    1    2    0  501  0.56755006664E+00  0.17559564385E+03  0.70045888179E+03  0.74233469360E+03  0.17200000000E+03 0.  1.
</event>
<event>
 4    1  0.3191769E-002  0.3475406E+03  0.7818608E-02  0.1063629E+00
         -1   -1    0    0    0  501 -0.00000000000E+00  0.00000000000E+00  0.34191260120E+03  0.34191260120E+03  0.00000000000E+00 0.  1.
          1   -1    0    0  502    0  0.00000000000E+00 -0.00000000000E+00 -0.50013579852E+03  0.50013579852E+03  0.00000000000E+00 0. -1.
          6    1    1    2  502    0 -0.21152602159E+03 -0.21553932135E+03 -0.30726998158E+03  0.46389578403E+03  0.17200000000E+03 0. -1.
         -6    1    1    2    0  501  0.21152602159E+03  0.21553932135E+03  0.14904678426E+03  0.37815261570E+03  0.17200000000E+03 0.  1.
</event>
<event>
 4    1  0.3191769E-002  0.2166639E+03  0.7818608E-02  0.1136395E+00
         -2   -1    0    0    0  501 -0.00000000000E+00  0.00000000000E+00  0.26063278259E+03  0.26063278259E+03  0.00000000000E+00 0.  1.
          2   -1    0    0  502    0  0.00000000000E+00 -0.00000000000E+00 -0.31758581280E+03  0.31758581280E+03  0.00000000000E+00 0. -1.
          6    1    1    2  502    0 -0.10233207227E+03 -0.82990393252E+02 -0.21868964465E+03  0.30784479704E+03  0.17200000000E+03 0. -1.
         -6    1    1    2    0  501  0.10233207227E+03  0.82990393252E+02  0.16173661444E+03  0.27037379836E+03  0.17200000000E+03 0.  1.
</event>
<event>
 4    1  0.3191769E-002  0.1965213E+03  0.7818608E-02  0.1152708E+00
         -1   -1    0    0    0  501 -0.00000000000E+00  0.00000000000E+00  0.19501423891E+02  0.19501423891E+02  0.00000000000E+00 0.  1.
          1   -1    0    0  502    0  0.00000000000E+00 -0.00000000000E+00 -0.21804820341E+04  0.21804820341E+04  0.00000000000E+00 0. -1.
          6    1    1    2  502    0  0.95024241464E+02 -0.26450377503E+01 -0.74728019778E+03  0.77268900386E+03  0.17200000000E+03 0.  1.
         -6    1    1    2    0  501 -0.95024241464E+02  0.26450377503E+01 -0.14137004124E+04  0.14272944541E+04  0.17200000000E+03 0. -1.
</event>
<event>
 4    1  0.3191769E-002  0.1953136E+03  0.7818608E-02  0.1153754E+00
         -2   -1    0    0    0  501 -0.00000000000E+00  0.00000000000E+00  0.21727991739E+02  0.21727991739E+02  0.00000000000E+00 0.  1.
          2   -1    0    0  502    0  0.00000000000E+00 -0.00000000000E+00 -0.19009286212E+04  0.19009286212E+04  0.00000000000E+00 0. -1.
          6    1    1    2  502    0  0.81026638810E+02  0.44700094524E+02 -0.67386831008E+03  0.70160239023E+03  0.17200000000E+03 0. -1.
         -6    1    1    2    0  501 -0.81026638810E+02 -0.44700094524E+02 -0.12053323194E+04  0.12210542227E+04  0.17200000000E+03 0.  1.
</event>
<event>
 4    1  0.3191769E-002  0.2112705E+03  0.7818608E-02  0.1140564E+00
         -2   -1    0    0    0  501 -0.00000000000E+00  0.00000000000E+00  0.47351426593E+02  0.47351426593E+02  0.00000000000E+00 0.  1.
          2   -1    0    0  502    0  0.00000000000E+00 -0.00000000000E+00 -0.10717949044E+04  0.10717949044E+04  0.00000000000E+00 0. -1.
          6    1    1    2  502    0 -0.12042507200E+03 -0.23431315874E+02 -0.70647168086E+03  0.73738555748E+03  0.17200000000E+03 0. -1.
         -6    1    1    2    0  501  0.12042507200E+03  0.23431315874E+02 -0.31797179692E+03  0.38176077348E+03  0.17200000000E+03 0.  1.
</event>
<event>
 4    1  0.3191769E-002  0.3751201E+03  0.7818608E-02  0.1052752E+00
          2   -1    0    0  502    0  0.00000000000E+00  0.00000000000E+00  0.80166016678E+03  0.80166016678E+03  0.00000000000E+00 0. -1.
         -2   -1    0    0    0  501 -0.00000000000E+00 -0.00000000000E+00 -0.34732181874E+03  0.34732181874E+03  0.00000000000E+00 0.  1.
          6    1    1    2  502    0 -0.53275254035E+02  0.32907878781E+03  0.63120410587E+03  0.73425726047E+03  0.17200000000E+03 0. -1.
         -6    1    1    2    0  501  0.53275254035E+02 -0.32907878781E+03 -0.17686575784E+03  0.41472472506E+03  0.17200000000E+03 0.  1.
</event>
<event>
 4    1  0.3191769E-002  0.2318218E+03  0.7818608E-02  0.1125364E+00
         -1   -1    0    0    0  501 -0.00000000000E+00  0.00000000000E+00  0.55407506689E+02  0.55407506689E+02  0.00000000000E+00 0.  1.
          1   -1    0    0  502    0  0.00000000000E+00 -0.00000000000E+00 -0.12687930891E+04  0.12687930891E+04  0.00000000000E+00 0. -1.
          6    1    1    2  502    0 -0.84140409043E+02 -0.13068186263E+03 -0.28535254970E+03  0.36765124136E+03  0.17200000000E+03 0.  1.
         -6    1    1    2    0  501  0.84140409043E+02  0.13068186263E+03 -0.92803303276E+03  0.95654935448E+03  0.17200000000E+03 0. -1.
</event>
<event>
 4    1  0.3191769E-002  0.1910970E+03  0.7818608E-02  0.1157476E+00
         -1   -1    0    0    0  501 -0.00000000000E+00  0.00000000000E+00  0.76942398727E+03  0.76942398727E+03  0.00000000000E+00 0.  1.
          1   -1    0    0  502    0  0.00000000000E+00 -0.00000000000E+00 -0.75817918604E+02  0.75817918604E+02  0.00000000000E+00 0. -1.
          6    1    1    2  502    0  0.52452348727E+02 -0.64674688328E+02  0.88344836657E+02  0.21052998447E+03  0.17200000000E+03 0. -1.
         -6    1    1    2    0  501 -0.52452348727E+02  0.64674688328E+02  0.60526123201E+03  0.63471192140E+03  0.17200000000E+03 0.  1.
</event>
<event>
 4    1  0.3191769E-002  0.1922065E+03  0.7818608E-02  0.1156486E+00
         -2   -1    0    0    0  501 -0.00000000000E+00  0.00000000000E+00  0.69232031466E+02  0.69232031466E+02  0.00000000000E+00 0.  1.
          2   -1    0    0  502    0  0.00000000000E+00 -0.00000000000E+00 -0.11705774689E+04  0.11705774689E+04  0.00000000000E+00 0. -1.
          6    1    1    2  502    0  0.42099876148E+02 -0.74745778340E+02 -0.10079518788E+04  0.10261141852E+04  0.17200000000E+03 0. -1.
         -6    1    1    2    0  501 -0.42099876148E+02  0.74745778340E+02 -0.93393558600E+02  0.21369531520E+03  0.17200000000E+03 0.  1.
</event>
<event>
 4    1  0.3191769E-002  0.1790144E+03  0.7818608E-02  0.1168760E+00
         -2   -1    0    0    0  501 -0.00000000000E+00  0.00000000000E+00  0.32219464677E+02  0.32219464677E+02  0.00000000000E+00 0.  1.
          2   -1    0    0  502    0  0.00000000000E+00 -0.00000000000E+00 -0.11282421366E+04  0.11282421366E+04  0.00000000000E+00 0. -1.
          6    1    1    2  502    0  0.38008184383E+01 -0.49474315532E+02 -0.74769259477E+03  0.76882401783E+03  0.17200000000E+03 0. -1.
         -6    1    1    2    0  501 -0.38008184383E+01  0.49474315532E+02 -0.34833007715E+03  0.39163758344E+03  0.17200000000E+03 0.  1.
</event>
<event>
 4    1  0.3191769E-002  0.1723342E+03  0.7818608E-02  0.1175435E+00
         -1   -1    0    0    0  501 -0.00000000000E+00  0.00000000000E+00  0.76948963305E+03  0.76948963305E+03  0.00000000000E+00 0.  1.
          1   -1    0    0  502    0  0.00000000000E+00 -0.00000000000E+00 -0.39828562605E+02  0.39828562605E+02  0.00000000000E+00 0. -1.
          6    1    1    2  502    0  0.10440317466E+02 -0.24654644991E+01  0.29363885320E+03  0.34047445550E+03  0.17200000000E+03 0. -1.
         -6    1    1    2    0  501 -0.10440317466E+02  0.24654644991E+01  0.43602221725E+03  0.46884374015E+03  0.17200000000E+03 0.  1.
</event>
<event>
 4    1  0.3191769E-002  0.1937411E+03  0.7818608E-02  0.1155130E+00
         -1   -1    0    0    0  501 -0.00000000000E+00  0.00000000000E+00  0.29434242614E+03  0.29434242614E+03  0.00000000000E+00 0.  1.
          1   -1    0    0  502    0  0.00000000000E+00 -0.00000000000E+00 -0.13008591679E+03  0.13008591679E+03  0.00000000000E+00 0. -1.
          6    1    1    2  502    0 -0.85746851532E+02  0.24475960470E+02  0.11191195900E+03  0.22374065736E+03  0.17200000000E+03 0. -1.
         -6    1    1    2    0  501  0.85746851532E+02 -0.24475960470E+02  0.52344550346E+02  0.20068768557E+03  0.17200000000E+03 0.  1.
</event>
<event>
 4    1  0.3191769E-002  0.2054194E+03  0.7818608E-02  0.1145246E+00
         -2   -1    0    0    0  501 -0.00000000000E+00  0.00000000000E+00  0.35660717449E+02  0.35660717449E+02  0.00000000000E+00 0.  1.
          2   -1    0    0  502    0  0.00000000000E+00 -0.00000000000E+00 -0.16522497612E+04  0.16522497612E+04  0.00000000000E+00 0. -1.
          6    1    1    2  502    0  0.10204537117E+03 -0.46902857992E+02 -0.12579161621E+04  0.12745784427E+04  0.17200000000E+03 0. -1.
         -6    1    1    2    0  501 -0.10204537117E+03  0.46902857992E+02 -0.35867288167E+03  0.41333203591E+03  0.17200000000E+03 0.  1.
</event>
<event>
 4    1  0.3191769E-002  0.3759276E+03  0.7818608E-02  0.1052449E+00
          2   -1    0    0  502    0  0.00000000000E+00  0.00000000000E+00  0.86559874513E+03  0.86559874513E+03  0.00000000000E+00 0. -1.
         -2   -1    0    0    0  501 -0.00000000000E+00 -0.00000000000E+00 -0.22774634073E+03  0.22774634073E+03  0.00000000000E+00 0.  1.
          6    1    1    2  502    0 -0.16914965045E+03 -0.28831571980E+03  0.60981046336E+03  0.71637305906E+03  0.17200000000E+03 0. -1.
         -6    1    1    2    0  501  0.16914965045E+03  0.28831571980E+03  0.28041941037E+02  0.37697202680E+03  0.17200000000E+03 0.  1.
</event>
<event>
 4    1  0.3191769E-002  0.1991512E+03  0.7818608E-02  0.1150457E+00
          1   -1    0    0  502    0  0.00000000000E+00  0.00000000000E+00  0.27388415660E+04  0.27388415660E+04  0.00000000000E+00 0. -1.
         -1   -1    0    0    0  501 -0.00000000000E+00 -0.00000000000E+00 -0.15616715845E+02  0.15616715845E+02  0.00000000000E+00 0.  1.
          6    1    1    2  502    0  0.70566759675E+02 -0.71396870027E+02  0.99020970376E+03  0.10100378399E+04  0.17200000000E+03 0.  1.
         -6    1    1    2    0  501 -0.70566759675E+02  0.71396870027E+02  0.17330151463E+04  0.17444204419E+04  0.17200000000E+03 0.  1.
</event>
<event>
 4    1  0.3191769E-002  0.2132850E+03  0.7818608E-02  0.1138991E+00
          1   -1    0    0  502    0  0.00000000000E+00  0.00000000000E+00  0.97938916992E+03  0.97938916992E+03  0.00000000000E+00 0. -1.
         -1   -1    0    0    0  501 -0.00000000000E+00 -0.00000000000E+00 -0.76219324338E+02  0.76219324338E+02  0.00000000000E+00 0.  1.
          6    1    1    2  502    0  0.11961267834E+03  0.39991493858E+02  0.78145321372E+03  0.81003681252E+03  0.17200000000E+03 0. -1.
         -6    1    1    2    0  501 -0.11961267834E+03 -0.39991493858E+02  0.12171663186E+03  0.24557168174E+03  0.17200000000E+03 0.  1.
</event>
<event>
 4    1  0.3191769E-002  0.2841257E+03  0.7818608E-02  0.1093457E+00
         -2   -1    0    0    0  501 -0.00000000000E+00  0.00000000000E+00  0.11706868490E+03  0.11706868490E+03  0.00000000000E+00 0.  1.
          2   -1    0    0  502    0  0.00000000000E+00 -0.00000000000E+00 -0.11170514441E+04  0.11170514441E+04  0.00000000000E+00 0. -1.
          6    1    1    2  502    0  0.10706813120E+03  0.19919791928E+03 -0.88171409096E+03  0.92636231247E+03  0.17200000000E+03 0. -1.
         -6    1    1    2    0  501 -0.10706813120E+03 -0.19919791928E+03 -0.11826866827E+03  0.30775781657E+03  0.17200000000E+03 0.  1.
</event>
<event>
 4    1  0.3191769E-002  0.1860367E+03  0.7818608E-02  0.1162085E+00
          2   -1    0    0  502    0  0.00000000000E+00  0.00000000000E+00  0.88390922772E+03  0.88390922772E+03  0.00000000000E+00 0. -1.
         -2   -1    0    0    0  501 -0.00000000000E+00 -0.00000000000E+00 -0.42684813509E+02  0.42684813509E+02  0.00000000000E+00 0.  1.
          6    1    1    2  502    0 -0.55393304178E+02 -0.44240597950E+02  0.55383728037E+03  0.58424770585E+03  0.17200000000E+03 0. -1.
         -6    1    1    2    0  501  0.55393304178E+02  0.44240597950E+02  0.28738713384E+03  0.34234633538E+03  0.17200000000E+03 0.  1.
</event>
<event>
 4    1  0.3191769E-002  0.2138461E+03  0.7818608E-02  0.1138556E+00
          2   -1    0    0  502    0  0.00000000000E+00  0.00000000000E+00  0.90803331513E+03  0.90803331513E+03  0.00000000000E+00 0. -1.
         -2   -1    0    0    0  501 -0.00000000000E+00 -0.00000000000E+00 -0.14336470980E+03  0.14336470980E+03  0.00000000000E+00 0.  1.
          6    1    1    2  502    0 -0.89575201378E+02  0.90124578706E+02  0.80574750122E+03  0.83364212472E+03  0.17200000000E+03 0. -1.
         -6    1    1    2    0  501  0.89575201378E+02 -0.90124578706E+02 -0.41078895883E+02  0.21775590021E+03  0.17200000000E+03 0.  1.
</event>
<event>
 4    1  0.3191769E-002  0.3534888E+03  0.7818608E-02  0.1061192E+00
         -1   -1    0    0    0  501 -0.00000000000E+00  0.00000000000E+00  0.17883054522E+04  0.17883054522E+04  0.00000000000E+00 0.  1.
          1   -1    0    0  502    0  0.00000000000E+00 -0.00000000000E+00 -0.79345302814E+02  0.79345302814E+02  0.00000000000E+00 0. -1.
          6    1    1    2  502    0 -0.27293440257E+03 -0.14448920550E+03  0.53182969210E+03  0.63858996235E+03  0.17200000000E+03 0. -1.
         -6    1    1    2    0  501  0.27293440257E+03  0.14448920550E+03  0.11771304573E+04  0.12290607927E+04  0.17200000000E+03 0.  1.
</event>
<event>
 4    1  0.3191769E-002  0.2590058E+03  0.7818608E-02  0.1107742E+00
         -2   -1    0    0    0  501 -0.00000000000E+00  0.00000000000E+00  0.60309216790E+02  0.60309216790E+02  0.00000000000E+00 0.  1.
          2   -1    0    0  502    0  0.00000000000E+00 -0.00000000000E+00 -0.11228404685E+04  0.11228404685E+04  0.00000000000E+00 0. -1.
          6    1    1    2  502    0 -0.11515312728E+03 -0.15569118905E+03 -0.58848988425E+03  0.64296526573E+03  0.17200000000E+03 0. -1.
         -6    1    1    2    0  501  0.11515312728E+03  0.15569118905E+03 -0.47404136746E+03  0.54018441955E+03  0.17200000000E+03 0.  1.
</event>
<event>
 4    1  0.3191769E-002  0.1751084E+03  0.7818608E-02  0.1172623E+00
         -1   -1    0    0    0  501 -0.00000000000E+00  0.00000000000E+00  0.10477615902E+03  0.10477615902E+03  0.00000000000E+00 0.  1.
          1   -1    0    0  502    0  0.00000000000E+00 -0.00000000000E+00 -0.37208135894E+03  0.37208135894E+03  0.00000000000E+00 0. -1.
          6    1    1    2  502    0  0.10081278423E+02  0.31262245174E+02 -0.24381414310E+03  0.30018043994E+03  0.17200000000E+03 0. -1.
         -6    1    1    2    0  501 -0.10081278423E+02 -0.31262245174E+02 -0.23491056824E+02  0.17667707802E+03  0.17200000000E+03 0.  1.
</event>
<event>
 4    1  0.3191769E-002  0.4485820E+03  0.7818608E-02  0.1028146E+00
          2   -1    0    0  502    0  0.00000000000E+00  0.00000000000E+00  0.33150510773E+03  0.33150510773E+03  0.00000000000E+00 0. -1.
         -2   -1    0    0    0  501 -0.00000000000E+00 -0.00000000000E+00 -0.64454870907E+03  0.64454870907E+03  0.00000000000E+00 0.  1.
          6    1    1    2  502    0  0.12118881374E+03  0.39617555418E+03 -0.27430275160E+03  0.52580205196E+03  0.17200000000E+03 0. -1.
         -6    1    1    2    0  501 -0.12118881374E+03 -0.39617555418E+03 -0.38740849747E+02  0.45025176484E+03  0.17200000000E+03 0.  1.
</event>
<event>
 4    1  0.3191769E-002  0.1965117E+03  0.7818608E-02  0.1152716E+00
         -2   -1    0    0    0  501 -0.00000000000E+00  0.00000000000E+00  0.44067467776E+02  0.44067467776E+02  0.00000000000E+00 0.  1.
          2   -1    0    0  502    0  0.00000000000E+00 -0.00000000000E+00 -0.13198919873E+04  0.13198919873E+04  0.00000000000E+00 0. -1.
          6    1    1    2  502    0 -0.66845766202E+02  0.67560900533E+02 -0.10332683679E+04  0.10517891195E+04  0.17200000000E+03 0. -1.
         -6    1    1    2    0  501  0.66845766202E+02 -0.67560900533E+02 -0.24255615163E+03  0.31217033561E+03  0.17200000000E+03 0.  1.
</event>
<event>
 4    1  0.3191769E-002  0.2095926E+03  0.7818608E-02  0.1141889E+00
          2   -1    0    0  502    0  0.00000000000E+00  0.00000000000E+00  0.85670403525E+03  0.85670403525E+03  0.00000000000E+00 0. -1.
         -2   -1    0    0    0  501 -0.00000000000E+00 -0.00000000000E+00 -0.68406983956E+02  0.68406983956E+02  0.00000000000E+00 0.  1.
          6    1    1    2  502    0 -0.11889152936E+03  0.14487053384E+02  0.16267878704E+03  0.26531765532E+03  0.17200000000E+03 0.  1.
         -6    1    1    2    0  501  0.11889152936E+03 -0.14487053384E+02  0.62561826426E+03  0.65979336390E+03  0.17200000000E+03 0. -1.
</event>
<event>
 4    1  0.3191769E-002  0.5026369E+03  0.7818608E-02  0.1013093E+00
         -2   -1    0    0    0  501 -0.00000000000E+00  0.00000000000E+00  0.31311308020E+03  0.31311308020E+03  0.00000000000E+00 0.  1.
          2   -1    0    0  502    0  0.00000000000E+00 -0.00000000000E+00 -0.17231522497E+04  0.17231522497E+04  0.00000000000E+00 0. -1.
          6    1    1    2  502    0  0.46514476024E+03  0.81854554857E+02 -0.14474495085E+04  0.15322381981E+04  0.17200000000E+03 0. -1.
         -6    1    1    2    0  501 -0.46514476024E+03 -0.81854554857E+02  0.37410338970E+02  0.50402713180E+03  0.17200000000E+03 0.  1.
</event>
<event>
 4    1  0.3191769E-002  0.2729539E+03  0.7818608E-02  0.1099601E+00
          1   -1    0    0  502    0  0.00000000000E+00  0.00000000000E+00  0.43295152732E+03  0.43295152732E+03  0.00000000000E+00 0. -1.
         -1   -1    0    0    0  501 -0.00000000000E+00 -0.00000000000E+00 -0.22267688470E+03  0.22267688470E+03  0.00000000000E+00 0.  1.
          6    1    1    2  502    0  0.17550747517E+03  0.11881484155E+03  0.26139335948E+03  0.37792899967E+03  0.17200000000E+03 0. -1.
         -6    1    1    2    0  501 -0.17550747517E+03 -0.11881484155E+03 -0.51118716860E+02  0.27769941236E+03  0.17200000000E+03 0.  1.
</event>
<event>
 4    1  0.3191769E-002  0.2011798E+03  0.7818608E-02  0.1148747E+00
          1   -1    0    0  502    0  0.00000000000E+00  0.00000000000E+00  0.25887630940E+04  0.25887630940E+04  0.00000000000E+00 0. -1.
         -1   -1    0    0    0  501 -0.00000000000E+00 -0.00000000000E+00 -0.21625623455E+02  0.21625623455E+02  0.00000000000E+00 0.  1.
          6    1    1    2  502    0 -0.63874604912E+01 -0.10415618761E+03  0.19705658005E+04  0.19808086442E+04  0.17200000000E+03 0.  1.
         -6    1    1    2    0  501  0.63874604912E+01  0.10415618761E+03  0.59657167008E+03  0.62958007323E+03  0.17200000000E+03 0.  1.
</event>
<event>
 4    1  0.3191769E-002  0.1802742E+03  0.7818608E-02  0.1167538E+00
         -1   -1    0    0    0  501 -0.00000000000E+00  0.00000000000E+00  0.41056325161E+02  0.41056325161E+02  0.00000000000E+00 0.  1.
          1   -1    0    0  502    0  0.00000000000E+00 -0.00000000000E+00 -0.94527229402E+03  0.94527229402E+03  0.00000000000E+00 0. -1.
          6    1    1    2  502    0 -0.39229678548E+02  0.37091879516E+02 -0.25324243853E+03  0.31085448023E+03  0.17200000000E+03 0.  1.
         -6    1    1    2    0  501  0.39229678548E+02 -0.37091879516E+02 -0.65097353033E+03  0.67547413896E+03  0.17200000000E+03 0. -1.
</event>
<event>
 4    1  0.3191769E-002  0.2482952E+03  0.7818608E-02  0.1114387E+00
          1   -1    0    0  502    0  0.00000000000E+00  0.00000000000E+00  0.99768572361E+03  0.99768572361E+03  0.00000000000E+00 0. -1.
         -1   -1    0    0    0  501 -0.00000000000E+00 -0.00000000000E+00 -0.61817032291E+02  0.61817032291E+02  0.00000000000E+00 0.  1.
          6    1    1    2  502    0  0.16555536767E+03  0.68249035903E+02  0.45760234394E+03  0.52062502422E+03  0.17200000000E+03 0.  1.
         -6    1    1    2    0  501 -0.16555536767E+03 -0.68249035903E+02  0.47826634738E+03  0.53887773168E+03  0.17200000000E+03 0.  1.
</event>
<event>
 4    1  0.3191769E-002  0.1942821E+03  0.7818608E-02  0.1154655E+00
         -2   -1    0    0    0  501 -0.00000000000E+00  0.00000000000E+00  0.61715247949E+03  0.61715247949E+03  0.00000000000E+00 0.  1.
          2   -1    0    0  502    0  0.00000000000E+00 -0.00000000000E+00 -0.61587067598E+02  0.61587067598E+02  0.00000000000E+00 0. -1.
          6    1    1    2  502    0 -0.76362542187E+02  0.48273264618E+02  0.24954924344E+03  0.31625997348E+03  0.17200000000E+03 0. -1.
         -6    1    1    2    0  501  0.76362542187E+02 -0.48273264618E+02  0.30601616845E+03  0.36247957360E+03  0.17200000000E+03 0.  1.
</event>
<event>
 4    1  0.3191769E-002  0.2692740E+03  0.7818608E-02  0.1101696E+00
         -2   -1    0    0    0  501 -0.00000000000E+00  0.00000000000E+00  0.12616730258E+03  0.12616730258E+03  0.00000000000E+00 0.  1.
          2   -1    0    0  502    0  0.00000000000E+00 -0.00000000000E+00 -0.15110122216E+04  0.15110122216E+04  0.00000000000E+00 0. -1.
          6    1    1    2  502    0 -0.12451014213E+03  0.16559507005E+03 -0.13368029504E+04  0.13636534130E+04  0.17200000000E+03 0. -1.
         -6    1    1    2    0  501  0.12451014213E+03 -0.16559507005E+03 -0.48041968606E+02  0.27352611112E+03  0.17200000000E+03 0.  1.
</event>
<event>
 4    1  0.3191769E-002  0.4172857E+03  0.7818608E-02  0.1037953E+00
          1   -1    0    0  502    0  0.00000000000E+00  0.00000000000E+00  0.31407488461E+03  0.31407488461E+03  0.00000000000E+00 0. -1.
         -1   -1    0    0    0  501 -0.00000000000E+00 -0.00000000000E+00 -0.56247722991E+03  0.56247722991E+03  0.00000000000E+00 0.  1.
          6    1    1    2  502    0 -0.35134102188E+03 -0.14526808654E+03 -0.71724602897E+02  0.42340494717E+03  0.17200000000E+03 0. -1.
         -6    1    1    2    0  501  0.35134102188E+03  0.14526808654E+03 -0.17667774240E+03  0.45314716736E+03  0.17200000000E+03 0.  1.
</event>
<event>
 4    1  0.3191769E-002  0.1828247E+03  0.7818608E-02  0.1165097E+00
          1   -1    0    0  502    0  0.00000000000E+00  0.00000000000E+00  0.40424117291E+03  0.40424117291E+03  0.00000000000E+00 0. -1.
         -1   -1    0    0    0  501 -0.00000000000E+00 -0.00000000000E+00 -0.82724538709E+02  0.82724538709E+02  0.00000000000E+00 0.  1.
          6    1    1    2  502    0  0.20864619596E+02 -0.58357133678E+02  0.16604697246E+03  0.24697466361E+03  0.17200000000E+03 0.  1.
         -6    1    1    2    0  501 -0.20864619596E+02  0.58357133678E+02  0.15546966174E+03  0.23999104801E+03  0.17200000000E+03 0.  1.
</event>
<event>
 4    1  0.3191769E-002  0.2080360E+03  0.7818608E-02  0.1143131E+00
         -1   -1    0    0    0  501 -0.00000000000E+00  0.00000000000E+00  0.30840189338E+03  0.30840189338E+03  0.00000000000E+00 0.  1.
          1   -1    0    0  502    0  0.00000000000E+00 -0.00000000000E+00 -0.24767371552E+03  0.24767371552E+03  0.00000000000E+00 0. -1.
          6    1    1    2  502    0 -0.97077469451E+02 -0.65352324663E+02 -0.15267596854E+03  0.25804827607E+03  0.17200000000E+03 0. -1.
         -6    1    1    2    0  501  0.97077469451E+02  0.65352324663E+02  0.21340414640E+03  0.29802733283E+03  0.17200000000E+03 0.  1.
</event>
<event>
 4    1  0.3191769E-002  0.2454023E+03  0.7818608E-02  0.1116245E+00
          1   -1    0    0  502    0  0.00000000000E+00  0.00000000000E+00  0.30172328025E+03  0.30172328025E+03  0.00000000000E+00 0. -1.
         -1   -1    0    0    0  501 -0.00000000000E+00 -0.00000000000E+00 -0.20080808455E+03  0.20080808455E+03  0.00000000000E+00 0.  1.
          6    1    1    2  502    0  0.14464667030E+03  0.98567776862E+02  0.69992091000E+02  0.25518847675E+03  0.17200000000E+03 0. -1.
         -6    1    1    2    0  501 -0.14464667030E+03 -0.98567776862E+02  0.30923104698E+02  0.24734288805E+03  0.17200000000E+03 0.  1.
</event>
<event>
 4    1  0.3191769E-002  0.1987141E+03  0.7818608E-02  0.1150828E+00
         -1   -1    0    0    0  501 -0.00000000000E+00  0.00000000000E+00  0.72484506752E+03  0.72484506752E+03  0.00000000000E+00 0.  1.
          1   -1    0    0  502    0  0.00000000000E+00 -0.00000000000E+00 -0.13954627350E+03  0.13954627350E+03  0.00000000000E+00 0. -1.
          6    1    1    2  502    0 -0.18714003526E+02  0.97739926848E+02 -0.44799431884E+02  0.20370148827E+03  0.17200000000E+03 0. -1.
         -6    1    1    2    0  501  0.18714003526E+02 -0.97739926848E+02  0.63009822590E+03  0.66068985274E+03  0.17200000000E+03 0.  1.
</event>
<event>
 4    1  0.3191769E-002  0.5547796E+03  0.7818608E-02  0.1000394E+00
          2   -1    0    0  502    0  0.00000000000E+00  0.00000000000E+00  0.10543505466E+04  0.10543505466E+04  0.00000000000E+00 0. -1.
         -2   -1    0    0    0  501 -0.00000000000E+00 -0.00000000000E+00 -0.35986058498E+03  0.35986058498E+03  0.00000000000E+00 0.  1.
          6    1    1    2  502    0  0.33854740428E+03 -0.40445276324E+03  0.39990080144E+02  0.55621901186E+03  0.17200000000E+03 0. -1.
         -6    1    1    2    0  501 -0.33854740428E+03  0.40445276324E+03  0.65449988147E+03  0.85799211971E+03  0.17200000000E+03 0. -1.
</event>
<event>
 4    1  0.3191769E-002  0.3401742E+03  0.7818608E-02  0.1066722E+00
          1   -1    0    0  502    0  0.00000000000E+00  0.00000000000E+00  0.80892165359E+03  0.80892165359E+03  0.00000000000E+00 0. -1.
         -1   -1    0    0    0  501 -0.00000000000E+00 -0.00000000000E+00 -0.20127330246E+03  0.20127330246E+03  0.00000000000E+00 0.  1.
          6    1    1    2  502    0 -0.27749018358E+03  0.95570189165E+02  0.57548079602E+03  0.66850326075E+03  0.17200000000E+03 0. -1.
         -6    1    1    2    0  501  0.27749018358E+03 -0.95570189165E+02  0.32167555107E+02  0.34169169531E+03  0.17200000000E+03 0.  1.
</event>
<event>
 4    1  0.3191769E-002  0.3414393E+03  0.7818608E-02  0.1066185E+00
          1   -1    0    0  502    0  0.00000000000E+00  0.00000000000E+00  0.80623213584E+03  0.80623213584E+03  0.00000000000E+00 0. -1.
         -1   -1    0    0    0  501 -0.00000000000E+00 -0.00000000000E+00 -0.19889842969E+03  0.19889842969E+03  0.00000000000E+00 0.  1.
          6    1    1    2  502    0 -0.36275663136E+02  0.29271298003E+03  0.56625323550E+03  0.66122880997E+03  0.17200000000E+03 0. -1.
         -6    1    1    2    0  501  0.36275663136E+02 -0.29271298003E+03  0.41080470653E+02  0.34390175557E+03  0.17200000000E+03 0.  1.
</event>
<event>
 4    1  0.3191769E-002  0.2285138E+03  0.7818608E-02  0.1127690E+00
          2   -1    0    0  502    0  0.00000000000E+00  0.00000000000E+00  0.30839621066E+04  0.30839621066E+04  0.00000000000E+00 0. -1.
         -2   -1    0    0    0  501 -0.00000000000E+00 -0.00000000000E+00 -0.24267015638E+02  0.24267015638E+02  0.00000000000E+00 0.  1.
          6    1    1    2  502    0 -0.79020288119E+02  0.12802481793E+03  0.23842580849E+04  0.23951837456E+04  0.17200000000E+03 0. -1.
         -6    1    1    2    0  501  0.79020288119E+02 -0.12802481793E+03  0.67543700610E+03  0.71304537664E+03  0.17200000000E+03 0.  1.
</event>
<event>
 4    1  0.3191769E-002  0.3262692E+03  0.7818608E-02  0.1072800E+00
         -2   -1    0    0    0  501 -0.00000000000E+00  0.00000000000E+00  0.22027232350E+03  0.22027232350E+03  0.00000000000E+00 0.  1.
          2   -1    0    0  502    0  0.00000000000E+00 -0.00000000000E+00 -0.51063030192E+03  0.51063030192E+03  0.00000000000E+00 0. -1.
          6    1    1    2  502    0  0.14084821660E+03 -0.23880819496E+03 -0.22976843886E+03  0.39905527135E+03  0.17200000000E+03 0. -1.
         -6    1    1    2    0  501 -0.14084821660E+03  0.23880819496E+03 -0.60589539553E+02  0.33184735407E+03  0.17200000000E+03 0.  1.
</event>
<event>
 4    1  0.3191769E-002  0.2038560E+03  0.7818608E-02  0.1146526E+00
         -2   -1    0    0    0  501 -0.00000000000E+00  0.00000000000E+00  0.51709945599E+02  0.51709945599E+02  0.00000000000E+00 0.  1.
          2   -1    0    0  502    0  0.00000000000E+00 -0.00000000000E+00 -0.86176301613E+03  0.86176301613E+03  0.00000000000E+00 0. -1.
          6    1    1    2  502    0  0.94329860886E+02 -0.55453976709E+02 -0.52362181555E+03  0.56190486019E+03  0.17200000000E+03 0. -1.
         -6    1    1    2    0  501 -0.94329860886E+02  0.55453976709E+02 -0.28643125497E+03  0.35156810153E+03  0.17200000000E+03 0.  1.
</event>
<event>
 4    1  0.3191769E-002  0.2986429E+03  0.7818608E-02  0.1085921E+00
         -2   -1    0    0    0  501 -0.00000000000E+00  0.00000000000E+00  0.32624349190E+03  0.32624349190E+03  0.00000000000E+00 0.  1.
          2   -1    0    0  502    0  0.00000000000E+00 -0.00000000000E+00 -0.27833364991E+03  0.27833364991E+03  0.00000000000E+00 0. -1.
          6    1    1    2  502    0 -0.21716336895E+03  0.11155109973E+03 -0.16383442735E+02  0.29909194884E+03  0.17200000000E+03 0. -1.
         -6    1    1    2    0  501  0.21716336895E+03 -0.11155109973E+03  0.64293284726E+02  0.30548519297E+03  0.17200000000E+03 0.  1.
</event>
<event>
 4    1  0.3191769E-002  0.1762685E+03  0.7818608E-02  0.1171464E+00
         -2   -1    0    0    0  501 -0.00000000000E+00  0.00000000000E+00  0.21853774256E+02  0.21853774256E+02  0.00000000000E+00 0.  1.
          2   -1    0    0  502    0  0.00000000000E+00 -0.00000000000E+00 -0.26177422319E+04  0.26177422319E+04  0.00000000000E+00 0. -1.
          6    1    1    2  502    0 -0.20992318465E+02  0.32340438223E+02 -0.21900336530E+04  0.21971158328E+04  0.17200000000E+03 0. -1.
         -6    1    1    2    0  501  0.20992318465E+02 -0.32340438223E+02 -0.40585480465E+03  0.44248017338E+03  0.17200000000E+03 0.  1.
</event>
<event>
 4    1  0.3191769E-002  0.4616588E+03  0.7818608E-02  0.1024301E+00
         -1   -1    0    0    0  501 -0.00000000000E+00  0.00000000000E+00  0.11980571756E+04  0.11980571756E+04  0.00000000000E+00 0.  1.
          1   -1    0    0  502    0  0.00000000000E+00 -0.00000000000E+00 -0.24472431534E+03  0.24472431534E+03  0.00000000000E+00 0. -1.
          6    1    1    2  502    0  0.22725572155E+03 -0.36317995460E+03  0.85364291516E+03  0.97048187464E+03  0.17200000000E+03 0. -1.
         -6    1    1    2    0  501 -0.22725572155E+03  0.36317995460E+03  0.99689945092E+02  0.47229961629E+03  0.17200000000E+03 0.  1.
</event>
<event>
 4    1  0.3191769E-002  0.3341168E+03  0.7818608E-02  0.1069330E+00
          2   -1    0    0  502    0  0.00000000000E+00  0.00000000000E+00  0.30534455143E+03  0.30534455143E+03  0.00000000000E+00 0. -1.
         -2   -1    0    0    0  501 -0.00000000000E+00 -0.00000000000E+00 -0.81347619989E+03  0.81347619989E+03  0.00000000000E+00 0.  1.
          6    1    1    2  502    0  0.24159203269E+03  0.15389378018E+03  0.16101916084E+03  0.37089240488E+03  0.17200000000E+03 0. -1.
         -6    1    1    2    0  501 -0.24159203269E+03 -0.15389378018E+03 -0.66915080930E+03  0.74792834645E+03  0.17200000000E+03 0.  1.
</event>
<event>
 4    1  0.3191769E-002  0.1960187E+03  0.7818608E-02  0.1153142E+00
          3   -1    0    0  502    0  0.00000000000E+00  0.00000000000E+00  0.12219068607E+03  0.12219068607E+03  0.00000000000E+00 0. -1.
         -3   -1    0    0    0  501 -0.00000000000E+00 -0.00000000000E+00 -0.36993701485E+03  0.36993701485E+03  0.00000000000E+00 0.  1.
          6    1    1    2  502    0  0.19891156568E+02  0.91889363152E+02 -0.28579258683E+02  0.19809110832E+03  0.17200000000E+03 0. -1.
         -6    1    1    2    0  501 -0.19891156568E+02 -0.91889363152E+02 -0.21916707010E+03  0.29403659259E+03  0.17200000000E+03 0.  1.
</event>
<event>
 4    1  0.3191769E-002  0.2909665E+03  0.7818608E-02  0.1089846E+00
          1   -1    0    0  502    0  0.00000000000E+00  0.00000000000E+00  0.33996300602E+03  0.33996300602E+03  0.00000000000E+00 0. -1.
         -1   -1    0    0    0  501 -0.00000000000E+00 -0.00000000000E+00 -0.24918015284E+03  0.24918015284E+03  0.00000000000E+00 0.  1.
          6    1    1    2  502    0 -0.17798021365E+03 -0.15297233440E+03  0.38196181158E+02  0.29346284228E+03  0.17200000000E+03 0.  1.
         -6    1    1    2    0  501  0.17798021365E+03  0.15297233440E+03  0.52586672028E+02  0.29568031659E+03  0.17200000000E+03 0. -1.
</event>
<event>
 4    1  0.3191769E-002  0.3080338E+03  0.7818608E-02  0.1081292E+00
          1   -1    0    0  502    0  0.00000000000E+00  0.00000000000E+00  0.65637454095E+03  0.65637454095E+03  0.00000000000E+00 0. -1.
         -1   -1    0    0    0  501 -0.00000000000E+00 -0.00000000000E+00 -0.16744322693E+03  0.16744322693E+03  0.00000000000E+00 0.  1.
          6    1    1    2  502    0  0.96558462733E+02 -0.23659518730E+03  0.92188102986E+02  0.32153299320E+03  0.17200000000E+03 0.  1.
         -6    1    1    2    0  501 -0.96558462733E+02  0.23659518730E+03  0.39674321103E+03  0.50228477468E+03  0.17200000000E+03 0.  1.
</event>
<event>
 4    1  0.3191769E-002  0.1816556E+03  0.7818608E-02  0.1166210E+00
          2   -1    0    0  502    0  0.00000000000E+00  0.00000000000E+00  0.94736608229E+03  0.94736608229E+03  0.00000000000E+00 0. -1.
         -2   -1    0    0    0  501 -0.00000000000E+00 -0.00000000000E+00 -0.70485797829E+02  0.70485797829E+02  0.00000000000E+00 0.  1.
          6    1    1    2  502    0 -0.56642013090E+02 -0.14368022427E+02  0.80039634082E+03  0.82075152154E+03  0.17200000000E+03 0. -1.
         -6    1    1    2    0  501  0.56642013090E+02  0.14368022427E+02  0.76483943636E+02  0.19710035857E+03  0.17200000000E+03 0.  1.
</event>
<event>
 4    1  0.3191769E-002  0.3076283E+03  0.7818608E-02  0.1081488E+00
         -2   -1    0    0    0  501 -0.00000000000E+00  0.00000000000E+00  0.13884889315E+04  0.13884889315E+04  0.00000000000E+00 0.  1.
          2   -1    0    0  502    0  0.00000000000E+00 -0.00000000000E+00 -0.20896057750E+03  0.20896057750E+03  0.00000000000E+00 0. -1.
          6    1    1    2  502    0 -0.54877108216E+02 -0.24907769009E+03 -0.65885515610E+02  0.31460466283E+03  0.17200000000E+03 0. -1.
         -6    1    1    2    0  501  0.54877108216E+02  0.24907769009E+03  0.12454138697E+04  0.12828448462E+04  0.17200000000E+03 0.  1.
</event>
<event>
 4    1  0.3191769E-002  0.1763769E+03  0.7818608E-02  0.1171356E+00
         -2   -1    0    0    0  501 -0.00000000000E+00  0.00000000000E+00  0.18222772460E+02  0.18222772460E+02  0.00000000000E+00 0.  1.
          2   -1    0    0  502    0  0.00000000000E+00 -0.00000000000E+00 -0.21242315122E+04  0.21242315122E+04  0.00000000000E+00 0. -1.
          6    1    1    2  502    0  0.17517606535E+02  0.34899278754E+02 -0.15276792523E+04  0.15378272738E+04  0.17200000000E+03 0. -1.
         -6    1    1    2    0  501 -0.17517606535E+02 -0.34899278754E+02 -0.57832948747E+03  0.60462701087E+03  0.17200000000E+03 0.  1.
</event>
<event>
 4    1  0.3191769E-002  0.2450630E+03  0.7818608E-02  0.1116465E+00
         -1   -1    0    0    0  501 -0.00000000000E+00  0.00000000000E+00  0.19070613226E+03  0.19070613226E+03  0.00000000000E+00 0.  1.
          1   -1    0    0  502    0  0.00000000000E+00 -0.00000000000E+00 -0.31674109712E+03  0.31674109712E+03  0.00000000000E+00 0. -1.
          6    1    1    2  502    0  0.12766435949E+03 -0.11905328850E+03 -0.43742803065E+02  0.24893635132E+03  0.17200000000E+03 0.  1.
         -6    1    1    2    0  501 -0.12766435949E+03  0.11905328850E+03 -0.82292161796E+02  0.25851087807E+03  0.17200000000E+03 0. -1.
</event>
<event>
 4    1  0.3191769E-002  0.2064003E+03  0.7818608E-02  0.1144449E+00
         -2   -1    0    0    0  501 -0.00000000000E+00  0.00000000000E+00  0.94266999281E+02  0.94266999281E+02  0.00000000000E+00 0.  1.
          2   -1    0    0  502    0  0.00000000000E+00 -0.00000000000E+00 -0.46345330216E+03  0.46345330216E+03  0.00000000000E+00 0. -1.
          6    1    1    2  502    0  0.10993893734E+03 -0.30504579975E+02 -0.14060163984E+03  0.24973970543E+03  0.17200000000E+03 0.  1.
         -6    1    1    2    0  501 -0.10993893734E+03  0.30504579975E+02 -0.22858466304E+03  0.30798059601E+03  0.17200000000E+03 0. -1.
</event>
<event>
 4    1  0.3191769E-002  0.2006518E+03  0.7818608E-02  0.1149190E+00
         -2   -1    0    0    0  501 -0.00000000000E+00  0.00000000000E+00  0.34278846865E+02  0.34278846865E+02  0.00000000000E+00 0.  1.
          2   -1    0    0  502    0  0.00000000000E+00 -0.00000000000E+00 -0.14129397737E+04  0.14129397737E+04  0.00000000000E+00 0. -1.
          6    1    1    2  502    0  0.15897139384E+02  0.10210001442E+03 -0.98657578672E+03  0.10067735172E+04  0.17200000000E+03 0. -1.
         -6    1    1    2    0  501 -0.15897139384E+02 -0.10210001442E+03 -0.39208514014E+03  0.44044510340E+03  0.17200000000E+03 0.  1.
</event>
<event>
 4    1  0.3191769E-002  0.2080846E+03  0.7818608E-02  0.1143092E+00
          1   -1    0    0  502    0  0.00000000000E+00  0.00000000000E+00  0.10467682097E+03  0.10467682097E+03  0.00000000000E+00 0. -1.
         -1   -1    0    0    0  501 -0.00000000000E+00 -0.00000000000E+00 -0.57938964968E+03  0.57938964968E+03  0.00000000000E+00 0.  1.
          6    1    1    2  502    0 -0.87091697530E+02  0.78295817949E+02 -0.54419749252E+02  0.21508302582E+03  0.17200000000E+03 0. -1.
         -6    1    1    2    0  501  0.87091697530E+02 -0.78295817949E+02 -0.42029307946E+03  0.46898344483E+03  0.17200000000E+03 0.  1.
</event>
<event>
 4    1  0.3191769E-002  0.2156431E+03  0.7818608E-02  0.1137174E+00
         -2   -1    0    0    0  501 -0.00000000000E+00  0.00000000000E+00  0.19930983922E+03  0.19930983922E+03  0.00000000000E+00 0.  1.
          2   -1    0    0  502    0  0.00000000000E+00 -0.00000000000E+00 -0.65027923905E+03  0.65027923905E+03  0.00000000000E+00 0. -1.
          6    1    1    2  502    0 -0.58059299831E+02  0.11639193566E+03  0.11467151625E+03  0.24423660992E+03  0.17200000000E+03 0.  1.
         -6    1    1    2    0  501  0.58059299831E+02 -0.11639193566E+03 -0.56564091608E+03  0.60535246835E+03  0.17200000000E+03 0. -1.
</event>
<event>
 4    1  0.3191769E-002  0.3297074E+03  0.7818608E-02  0.1071266E+00
         -2   -1    0    0    0  501 -0.00000000000E+00  0.00000000000E+00  0.60105450409E+02  0.60105450409E+02  0.00000000000E+00 0.  1.
          2   -1    0    0  502    0  0.00000000000E+00 -0.00000000000E+00 -0.37713003159E+04  0.37713003159E+04  0.00000000000E+00 0. -1.
          6    1    1    2  502    0 -0.73655794570E+02  0.27147340291E+03 -0.32376007928E+04  0.32543456912E+04  0.17200000000E+03 0. -1.
         -6    1    1    2    0  501  0.73655794570E+02 -0.27147340291E+03 -0.47359407274E+03  0.57706007512E+03  0.17200000000E+03 0.  1.
</event>
<event>
 4    1  0.3191769E-002  0.1962001E+03  0.7818608E-02  0.1152985E+00
         -1   -1    0    0    0  501 -0.00000000000E+00  0.00000000000E+00  0.73082823085E+02  0.73082823085E+02  0.00000000000E+00 0.  1.
          1   -1    0    0  502    0  0.00000000000E+00 -0.00000000000E+00 -0.61580429809E+03  0.61580429809E+03  0.00000000000E+00 0. -1.
          6    1    1    2  502    0 -0.68205018003E+02 -0.65257496955E+02 -0.40236575427E+03  0.44765239372E+03  0.17200000000E+03 0.  1.
         -6    1    1    2    0  501  0.68205018003E+02  0.65257496955E+02 -0.14035572074E+03  0.24123472746E+03  0.17200000000E+03 0.  1.
</event>
<event>
 4    1  0.3191769E-002  0.1720073E+03  0.7818608E-02  0.1175771E+00
         -2   -1    0    0    0  501 -0.00000000000E+00  0.00000000000E+00  0.20422573089E+02  0.20422573089E+02  0.00000000000E+00 0.  1.
          2   -1    0    0  502    0  0.00000000000E+00 -0.00000000000E+00 -0.16188809039E+04  0.16188809039E+04  0.00000000000E+00 0. -1.
          6    1    1    2  502    0  0.15382297854E+01 -0.39116306055E+00 -0.53348958920E+03  0.56053337184E+03  0.17200000000E+03 0.  1.
         -6    1    1    2    0  501 -0.15382297854E+01  0.39116306055E+00 -0.10649687416E+04  0.10787701052E+04  0.17200000000E+03 0. -1.
</event>
<event>
 4    1  0.3191769E-002  0.2490404E+03  0.7818608E-02  0.1113913E+00
          1   -1    0    0  502    0  0.00000000000E+00  0.00000000000E+00  0.54714729499E+03  0.54714729499E+03  0.00000000000E+00 0. -1.
         -1   -1    0    0    0  501 -0.00000000000E+00 -0.00000000000E+00 -0.12215661535E+03  0.12215661535E+03  0.00000000000E+00 0.  1.
          6    1    1    2  502    0 -0.10035809848E+03 -0.14955053944E+03  0.30233141580E+03  0.39169554090E+03  0.17200000000E+03 0.  1.
         -6    1    1    2    0  501  0.10035809848E+03  0.14955053944E+03  0.12265926383E+03  0.27760836944E+03  0.17200000000E+03 0.  1.
</event>
<event>
 4    1  0.3191769E-002  0.2439718E+03  0.7818608E-02  0.1117175E+00
          1   -1    0    0  502    0  0.00000000000E+00  0.00000000000E+00  0.45055839347E+03  0.45055839347E+03  0.00000000000E+00 0. -1.
         -1   -1    0    0    0  501 -0.00000000000E+00 -0.00000000000E+00 -0.19466850562E+03  0.19466850562E+03  0.00000000000E+00 0.  1.
          6    1    1    2  502    0 -0.33708593087E+02 -0.16971142661E+03  0.31083317237E+03  0.39514490837E+03  0.17200000000E+03 0. -1.
         -6    1    1    2    0  501  0.33708593087E+02  0.16971142661E+03 -0.54943284516E+02  0.25008199072E+03  0.17200000000E+03 0.  1.
</event>
<event>
 4    1  0.3191769E-002  0.4144281E+03  0.7818608E-02  0.1038895E+00
          2   -1    0    0  502    0  0.00000000000E+00  0.00000000000E+00  0.27297346851E+04  0.27297346851E+04  0.00000000000E+00 0. -1.
         -2   -1    0    0    0  501 -0.00000000000E+00 -0.00000000000E+00 -0.80487757155E+02  0.80487757155E+02  0.00000000000E+00 0.  1.
          6    1    1    2  502    0  0.35781634406E+03  0.11888687885E+03  0.19811062307E+04  0.20239892597E+04  0.17200000000E+03 0. -1.
         -6    1    1    2    0  501 -0.35781634406E+03 -0.11888687885E+03  0.66814069723E+03  0.78623318255E+03  0.17200000000E+03 0.  1.
</event>
<event>
 4    1  0.3191769E-002  0.2803700E+03  0.7818608E-02  0.1095487E+00
         -2   -1    0    0    0  501 -0.00000000000E+00  0.00000000000E+00  0.34264514275E+02  0.34264514275E+02  0.00000000000E+00 0.  1.
          2   -1    0    0  502    0  0.00000000000E+00 -0.00000000000E+00 -0.24541102580E+04  0.24541102580E+04  0.00000000000E+00 0. -1.
          6    1    1    2  502    0  0.12556591289E+03 -0.18236379560E+03 -0.89225894305E+03  0.93527181818E+03  0.17200000000E+03 0.  1.
         -6    1    1    2    0  501 -0.12556591289E+03  0.18236379560E+03 -0.15275868007E+04  0.15531029541E+04  0.17200000000E+03 0. -1.
</event>
<event>
 4    1  0.3191769E-002  0.2242631E+03  0.7818608E-02  0.1130744E+00
         -1   -1    0    0    0  501 -0.00000000000E+00  0.00000000000E+00  0.74337280046E+02  0.74337280046E+02  0.00000000000E+00 0.  1.
          1   -1    0    0  502    0  0.00000000000E+00 -0.00000000000E+00 -0.90138115554E+03  0.90138115554E+03  0.00000000000E+00 0. -1.
          6    1    1    2  502    0  0.12797907624E+03  0.65812509064E+02 -0.65716551444E+03  0.69437773846E+03  0.17200000000E+03 0. -1.
         -6    1    1    2    0  501 -0.12797907624E+03 -0.65812509064E+02 -0.16987836105E+03  0.28134069712E+03  0.17200000000E+03 0.  1.
</event>
<event>
 4    1  0.3191769E-002  0.1919652E+03  0.7818608E-02  0.1156701E+00
          1   -1    0    0  502    0  0.00000000000E+00  0.00000000000E+00  0.34980039115E+03  0.34980039115E+03  0.00000000000E+00 0. -1.
         -1   -1    0    0    0  501 -0.00000000000E+00 -0.00000000000E+00 -0.12381224763E+03  0.12381224763E+03  0.00000000000E+00 0.  1.
          6    1    1    2  502    0  0.85673912634E+01 -0.84812988675E+02  0.20444362908E+03  0.28044222348E+03  0.17200000000E+03 0. -1.
         -6    1    1    2    0  501 -0.85673912634E+01  0.84812988675E+02  0.21544514444E+02  0.19317041529E+03  0.17200000000E+03 0.  1.
</event>
<event>
 4    1  0.3191769E-002  0.1819373E+03  0.7818608E-02  0.1165941E+00
          1   -1    0    0  502    0  0.00000000000E+00  0.00000000000E+00  0.70064202471E+03  0.70064202471E+03  0.00000000000E+00 0. -1.
         -1   -1    0    0    0  501 -0.00000000000E+00 -0.00000000000E+00 -0.48382905597E+02  0.48382905597E+02  0.00000000000E+00 0.  1.
          6    1    1    2  502    0 -0.48801109770E+02 -0.33699394487E+02  0.38358700212E+03  0.42454703591E+03  0.17200000000E+03 0.  1.
         -6    1    1    2    0  501  0.48801109770E+02  0.33699394487E+02  0.26867211699E+03  0.32447789439E+03  0.17200000000E+03 0. -1.
</event>
<event>
 4    1  0.3191769E-002  0.2311165E+03  0.7818608E-02  0.1125856E+00
          2   -1    0    0  502    0  0.00000000000E+00  0.00000000000E+00  0.24279010259E+03  0.24279010259E+03  0.00000000000E+00 0. -1.
         -2   -1    0    0    0  501 -0.00000000000E+00 -0.00000000000E+00 -0.22105750464E+03  0.22105750464E+03  0.00000000000E+00 0.  1.
          6    1    1    2  502    0  0.13909326703E+03  0.66961796094E+02 -0.51436300726E+01  0.23117369227E+03  0.17200000000E+03 0. -1.
         -6    1    1    2    0  501 -0.13909326703E+03 -0.66961796094E+02  0.26876228031E+02  0.23267391496E+03  0.17200000000E+03 0. -1.
</event>
<event>
 4    1  0.3191769E-002  0.1862574E+03  0.7818608E-02  0.1161881E+00
          3   -1    0    0  502    0  0.00000000000E+00  0.00000000000E+00  0.59318955084E+02  0.59318955084E+02  0.00000000000E+00 0. -1.
         -3   -1    0    0    0  501 -0.00000000000E+00 -0.00000000000E+00 -0.10084627481E+04  0.10084627481E+04  0.00000000000E+00 0.  1.
          6    1    1    2  502    0 -0.78564333992E+01 -0.71035750582E+02 -0.82060268778E+03  0.84147523588E+03  0.17200000000E+03 0.  1.
         -6    1    1    2    0  501  0.78564333992E+01  0.71035750582E+02 -0.12854110522E+03  0.22630646729E+03  0.17200000000E+03 0. -1.
</event>
<event>
 4    1  0.3191769E-002  0.1929976E+03  0.7818608E-02  0.1155785E+00
         -4   -1    0    0    0  501 -0.00000000000E+00  0.00000000000E+00  0.10748588867E+03  0.10748588867E+03  0.00000000000E+00 0.  1.
          4   -1    0    0  502    0  0.00000000000E+00 -0.00000000000E+00 -0.36112637374E+03  0.36112637374E+03  0.00000000000E+00 0. -1.
          6    1    1    2  502    0 -0.75242643555E+02  0.44750537292E+02 -0.17391154669E+03  0.25979471139E+03  0.17200000000E+03 0. -1.
         -6    1    1    2    0  501  0.75242643555E+02 -0.44750537292E+02 -0.79728938376E+02  0.20881755101E+03  0.17200000000E+03 0.  1.
</event>
<event>
 4    1  0.3191769E-002  0.3200474E+03  0.7818608E-02  0.1075627E+00
          1   -1    0    0  502    0  0.00000000000E+00  0.00000000000E+00  0.31608088047E+03  0.31608088047E+03  0.00000000000E+00 0. -1.
         -1   -1    0    0    0  501 -0.00000000000E+00 -0.00000000000E+00 -0.74143380627E+03  0.74143380627E+03  0.00000000000E+00 0.  1.
          6    1    1    2  502    0 -0.17407727091E+03  0.20626069133E+03  0.18404056473E+03  0.36919005742E+03  0.17200000000E+03 0. -1.
         -6    1    1    2    0  501  0.17407727091E+03 -0.20626069133E+03 -0.60939349053E+03  0.68832462932E+03  0.17200000000E+03 0.  1.
</event>
<event>
 4    1  0.3191769E-002  0.2493973E+03  0.7818608E-02  0.1113686E+00
         -2   -1    0    0    0  501 -0.00000000000E+00  0.00000000000E+00  0.70196631218E+02  0.70196631218E+02  0.00000000000E+00 0.  1.
          2   -1    0    0  502    0  0.00000000000E+00 -0.00000000000E+00 -0.90566215707E+03  0.90566215707E+03  0.00000000000E+00 0. -1.
          6    1    1    2  502    0  0.24162146301E+02  0.17897257321E+03 -0.48950173830E+03  0.54937322748E+03  0.17200000000E+03 0. -1.
         -6    1    1    2    0  501 -0.24162146301E+02 -0.17897257321E+03 -0.34596378755E+03  0.42648556080E+03  0.17200000000E+03 0.  1.
</event>
<event>
 4    1  0.3191769E-002  0.3854031E+03  0.7818608E-02  0.1048955E+00
          2   -1    0    0  502    0  0.00000000000E+00  0.00000000000E+00  0.34045162805E+03  0.34045162805E+03  0.00000000000E+00 0. -1.
         -2   -1    0    0    0  501 -0.00000000000E+00 -0.00000000000E+00 -0.50945441765E+03  0.50945441765E+03  0.00000000000E+00 0.  1.
          6    1    1    2  502    0  0.21039570830E+03  0.27328593396E+03  0.76540531975E+02  0.39293003042E+03  0.17200000000E+03 0. -1.
         -6    1    1    2    0  501 -0.21039570830E+03 -0.27328593396E+03 -0.24554332157E+03  0.45697601528E+03  0.17200000000E+03 0.  1.
</event>
<event>
 4    1  0.3191769E-002  0.2023385E+03  0.7818608E-02  0.1147781E+00
         -2   -1    0    0    0  501 -0.00000000000E+00  0.00000000000E+00  0.13291821950E+03  0.13291821950E+03  0.00000000000E+00 0.  1.
          2   -1    0    0  502    0  0.00000000000E+00 -0.00000000000E+00 -0.30883488896E+03  0.30883488896E+03  0.00000000000E+00 0. -1.
          6    1    1    2  502    0  0.86525520510E+02  0.62211096420E+02 -0.76581987970E+02  0.21634622044E+03  0.17200000000E+03 0.  1.
         -6    1    1    2    0  501 -0.86525520510E+02 -0.62211096420E+02 -0.99334681496E+02  0.22540688802E+03  0.17200000000E+03 0. -1.
</event>
<event>
 4    1  0.3191769E-002  0.1867587E+03  0.7818608E-02  0.1161418E+00
         -1   -1    0    0    0  501 -0.00000000000E+00  0.00000000000E+00  0.63354488024E+03  0.63354488024E+03  0.00000000000E+00 0.  1.
          1   -1    0    0  502    0  0.00000000000E+00 -0.00000000000E+00 -0.60476983114E+02  0.60476983114E+02  0.00000000000E+00 0. -1.
          6    1    1    2  502    0 -0.61440834534E+02  0.38985186787E+02  0.39045173942E+03  0.43281795452E+03  0.17200000000E+03 0.  1.
         -6    1    1    2    0  501  0.61440834534E+02 -0.38985186787E+02  0.18261615771E+03  0.26120390884E+03  0.17200000000E+03 0. -1.
</event>
<event>
 4    1  0.3191769E-002  0.2987209E+03  0.7818608E-02  0.1085882E+00
          2   -1    0    0  502    0  0.00000000000E+00  0.00000000000E+00  0.84893452565E+03  0.84893452565E+03  0.00000000000E+00 0. -1.
         -2   -1    0    0    0  501 -0.00000000000E+00 -0.00000000000E+00 -0.11445070392E+03  0.11445070392E+03  0.00000000000E+00 0.  1.
          6    1    1    2  502    0  0.17167919310E+02 -0.24362968146E+03  0.22965473864E+03  0.37679630853E+03  0.17200000000E+03 0. -1.
         -6    1    1    2    0  501 -0.17167919310E+02  0.24362968146E+03  0.50482908310E+03  0.58658892104E+03  0.17200000000E+03 0. -1.
</event>
<event>
 4    1  0.3191769E-002  0.3408557E+03  0.7818608E-02  0.1066432E+00
         -2   -1    0    0    0  501 -0.00000000000E+00  0.00000000000E+00  0.36002763529E+03  0.36002763529E+03  0.00000000000E+00 0.  1.
          2   -1    0    0  502    0  0.00000000000E+00 -0.00000000000E+00 -0.40319064896E+03  0.40319064896E+03  0.00000000000E+00 0. -1.
          6    1    1    2  502    0  0.23337234739E+02 -0.29334956072E+03 -0.19208124634E+03  0.39125157698E+03  0.17200000000E+03 0. -1.
         -6    1    1    2    0  501 -0.23337234739E+02  0.29334956072E+03  0.14891823266E+03  0.37196670727E+03  0.17200000000E+03 0.  1.
</event>
<event>
 4    1  0.3191769E-002  0.3004190E+03  0.7818608E-02  0.1085031E+00
         -2   -1    0    0    0  501 -0.00000000000E+00  0.00000000000E+00  0.35572893860E+03  0.35572893860E+03  0.00000000000E+00 0.  1.
          2   -1    0    0  502    0  0.00000000000E+00 -0.00000000000E+00 -0.62551110187E+03  0.62551110187E+03  0.00000000000E+00 0. -1.
          6    1    1    2  502    0  0.34952691483E+02 -0.24381524624E+03 -0.51314530645E+03  0.59461724704E+03  0.17200000000E+03 0. -1.
         -6    1    1    2    0  501 -0.34952691483E+02  0.24381524624E+03  0.24336314318E+03  0.38662279343E+03  0.17200000000E+03 0.  1.
</event>
<event>
 4    1  0.3191769E-002  0.2596493E+03  0.7818608E-02  0.1107354E+00
          2   -1    0    0  502    0  0.00000000000E+00  0.00000000000E+00  0.21660947762E+03  0.21660947762E+03  0.00000000000E+00 0. -1.
         -2   -1    0    0    0  501 -0.00000000000E+00 -0.00000000000E+00 -0.31158053733E+03  0.31158053733E+03  0.00000000000E+00 0.  1.
          6    1    1    2  502    0  0.11307843693E+03  0.15826258282E+03 -0.38769126828E+02  0.26252775704E+03  0.17200000000E+03 0. -1.
         -6    1    1    2    0  501 -0.11307843693E+03 -0.15826258282E+03 -0.56201932887E+02  0.26566225791E+03  0.17200000000E+03 0.  1.
</event>
<event>
 4    1  0.3191769E-002  0.2540041E+03  0.7818608E-02  0.1110800E+00
          1   -1    0    0  502    0  0.00000000000E+00  0.00000000000E+00  0.13354673832E+04  0.13354673832E+04  0.00000000000E+00 0. -1.
         -1   -1    0    0    0  501 -0.00000000000E+00 -0.00000000000E+00 -0.56573299582E+02  0.56573299582E+02  0.00000000000E+00 0.  1.
          6    1    1    2  502    0 -0.61628683456E+02  0.17645386810E+03  0.90543427552E+03  0.94038783992E+03  0.17200000000E+03 0. -1.
         -6    1    1    2    0  501  0.61628683456E+02 -0.17645386810E+03  0.37345980807E+03  0.45165284283E+03  0.17200000000E+03 0.  1.
</event>
<event>
 4    1  0.3191769E-002  0.1984508E+03  0.7818608E-02  0.1151053E+00
          2   -1    0    0  502    0  0.00000000000E+00  0.00000000000E+00  0.14160200992E+04  0.14160200992E+04  0.00000000000E+00 0. -1.
         -2   -1    0    0    0  501 -0.00000000000E+00 -0.00000000000E+00 -0.31437591678E+02  0.31437591678E+02  0.00000000000E+00 0.  1.
          6    1    1    2  502    0  0.46067983709E+02  0.87615462447E+02  0.93805891178E+03  0.95882076029E+03  0.17200000000E+03 0.  1.
         -6    1    1    2    0  501 -0.46067983709E+02 -0.87615462447E+02  0.44652359570E+03  0.48863693055E+03  0.17200000000E+03 0.  1.
</event>
<event>
 4    1  0.3191769E-002  0.2011587E+03  0.7818608E-02  0.1148765E+00
         -2   -1    0    0    0  501 -0.00000000000E+00  0.00000000000E+00  0.21340602685E+03  0.21340602685E+03  0.00000000000E+00 0.  1.
          2   -1    0    0  502    0  0.00000000000E+00 -0.00000000000E+00 -0.20479046414E+03  0.20479046414E+03  0.00000000000E+00 0. -1.
          6    1    1    2  502    0 -0.47094889029E+02  0.93074692384E+02  0.61229372481E+02  0.21027092759E+03  0.17200000000E+03 0.  1.
         -6    1    1    2    0  501  0.47094889029E+02 -0.93074692384E+02 -0.52613809780E+02  0.20792556340E+03  0.17200000000E+03 0.  1.
</event>
<event>
 4    1  0.3191769E-002  0.1805455E+03  0.7818608E-02  0.1167276E+00
         -1   -1    0    0    0  501 -0.00000000000E+00  0.00000000000E+00  0.84136245719E+02  0.84136245719E+02  0.00000000000E+00 0.  1.
          1   -1    0    0  502    0  0.00000000000E+00 -0.00000000000E+00 -0.44855522771E+03  0.44855522771E+03  0.00000000000E+00 0. -1.
          6    1    1    2  502    0  0.15331122893E+02  0.52703435751E+02 -0.28053289574E+03  0.33360965373E+03  0.17200000000E+03 0. -1.
         -6    1    1    2    0  501 -0.15331122893E+02 -0.52703435751E+02 -0.83886086253E+02  0.19908181970E+03  0.17200000000E+03 0.  1.
</event>
<event>
 4    1  0.3191769E-002  0.2469778E+03  0.7818608E-02  0.1115230E+00
          2   -1    0    0  502    0  0.00000000000E+00  0.00000000000E+00  0.25209428671E+04  0.25209428671E+04  0.00000000000E+00 0. -1.
         -2   -1    0    0    0  501 -0.00000000000E+00 -0.00000000000E+00 -0.25301883419E+02  0.25301883419E+02  0.00000000000E+00 0.  1.
          6    1    1    2  502    0  0.65647646229E+02 -0.16463413585E+03  0.15139228918E+04  0.15339362876E+04  0.17200000000E+03 0.  1.
         -6    1    1    2    0  501 -0.65647646229E+02  0.16463413585E+03  0.98171809183E+03  0.10123084629E+04  0.17200000000E+03 0.  1.
</event>
<event>
 4    1  0.3191769E-002  0.3938641E+03  0.7818608E-02  0.1045925E+00
         -2   -1    0    0    0  501 -0.00000000000E+00  0.00000000000E+00  0.10857355963E+03  0.10857355963E+03  0.00000000000E+00 0.  1.
          2   -1    0    0  502    0  0.00000000000E+00 -0.00000000000E+00 -0.14353558169E+04  0.14353558169E+04  0.00000000000E+00 0. -1.
          6    1    1    2  502    0  0.23321247777E+03 -0.26675246129E+03 -0.61118448910E+03  0.72710069117E+03  0.17200000000E+03 0. -1.
         -6    1    1    2    0  501 -0.23321247777E+03  0.26675246129E+03 -0.71559776813E+03  0.81682868531E+03  0.17200000000E+03 0.  1.
</event>
<event>
 4    1  0.3191769E-002  0.1933939E+03  0.7818608E-02  0.1155435E+00
          2   -1    0    0  502    0  0.00000000000E+00  0.00000000000E+00  0.13822051522E+04  0.13822051522E+04  0.00000000000E+00 0. -1.
         -2   -1    0    0    0  501 -0.00000000000E+00 -0.00000000000E+00 -0.38406143464E+02  0.38406143464E+02  0.00000000000E+00 0.  1.
          6    1    1    2  502    0 -0.87749468359E+02  0.10826977930E+02  0.28581109967E+03  0.34509299811E+03  0.17200000000E+03 0. -1.
         -6    1    1    2    0  501  0.87749468359E+02 -0.10826977930E+02  0.10579879091E+04  0.10755182976E+04  0.17200000000E+03 0. -1.
</event>
<event>
 4    1  0.3191769E-002  0.2709813E+03  0.7818608E-02  0.1100719E+00
          2   -1    0    0  502    0  0.00000000000E+00  0.00000000000E+00  0.70881338387E+03  0.70881338387E+03  0.00000000000E+00 0. -1.
         -2   -1    0    0    0  501 -0.00000000000E+00 -0.00000000000E+00 -0.10715411308E+03  0.10715411308E+03  0.00000000000E+00 0.  1.
          6    1    1    2  502    0 -0.12217970135E+03 -0.17005587528E+03  0.22649478988E+03  0.35317243661E+03  0.17200000000E+03 0.  1.
         -6    1    1    2    0  501  0.12217970135E+03  0.17005587528E+03  0.37516448091E+03  0.46279506034E+03  0.17200000000E+03 0.  1.
</event>
<event>
 4    1  0.3191769E-002  0.3301405E+03  0.7818608E-02  0.1071075E+00
          1   -1    0    0  502    0  0.00000000000E+00  0.00000000000E+00  0.64391740297E+03  0.64391740297E+03  0.00000000000E+00 0. -1.
         -1   -1    0    0    0  501 -0.00000000000E+00 -0.00000000000E+00 -0.17145885250E+03  0.17145885250E+03  0.00000000000E+00 0.  1.
          6    1    1    2  502    0  0.27122629167E+02 -0.28048733451E+03  0.28234362035E+03  0.43440845041E+03  0.17200000000E+03 0. -1.
         -6    1    1    2    0  501 -0.27122629167E+02  0.28048733451E+03  0.19011493012E+03  0.38096780506E+03  0.17200000000E+03 0.  1.
</event>
<event>
 4    1  0.3191769E-002  0.1721670E+03  0.7818608E-02  0.1175607E+00
         -1   -1    0    0    0  501 -0.00000000000E+00  0.00000000000E+00  0.39570708571E+02  0.39570708571E+02  0.00000000000E+00 0.  1.
          1   -1    0    0  502    0  0.00000000000E+00 -0.00000000000E+00 -0.74969476520E+03  0.74969476520E+03  0.00000000000E+00 0. -1.
          6    1    1    2  502    0  0.39745098590E+01 -0.64553875308E+01 -0.36639928365E+03  0.40483318023E+03  0.17200000000E+03 0. -1.
         -6    1    1    2    0  501 -0.39745098590E+01  0.64553875308E+01 -0.34372477298E+03  0.38443229354E+03  0.17200000000E+03 0.  1.
</event>
<event>
 4    1  0.3191769E-002  0.5235300E+03  0.7818608E-02  0.1007813E+00
         -1   -1    0    0    0  501 -0.00000000000E+00  0.00000000000E+00  0.56479956687E+03  0.56479956687E+03  0.00000000000E+00 0.  1.
          1   -1    0    0  502    0  0.00000000000E+00 -0.00000000000E+00 -0.49923693535E+03  0.49923693535E+03  0.00000000000E+00 0. -1.
          6    1    1    2  502    0  0.93628353794E+02  0.48552383546E+03 -0.56186052286E+02  0.52653635763E+03  0.17200000000E+03 0. -1.
         -6    1    1    2    0  501 -0.93628353794E+02 -0.48552383546E+03  0.12174868381E+03  0.53750014460E+03  0.17200000000E+03 0.  1.
</event>
<event>
 4    1  0.3191769E-002  0.2017195E+03  0.7818608E-02  0.1148296E+00
          2   -1    0    0  502    0  0.00000000000E+00  0.00000000000E+00  0.14430288866E+04  0.14430288866E+04  0.00000000000E+00 0. -1.
         -2   -1    0    0    0  501 -0.00000000000E+00 -0.00000000000E+00 -0.36560517185E+02  0.36560517185E+02  0.00000000000E+00 0.  1.
          6    1    1    2  502    0  0.13715856097E+02  0.10449233543E+03  0.10570434213E+04  0.10761187515E+04  0.17200000000E+03 0. -1.
         -6    1    1    2    0  501 -0.13715856097E+02 -0.10449233543E+03  0.34942494814E+03  0.40347065228E+03  0.17200000000E+03 0.  1.
</event>
<event>
 4    1  0.3191769E-002  0.3717317E+03  0.7818608E-02  0.1054033E+00
         -2   -1    0    0    0  501 -0.00000000000E+00  0.00000000000E+00  0.93672834774E+02  0.93672834774E+02  0.00000000000E+00 0.  1.
          2   -1    0    0  502    0  0.00000000000E+00 -0.00000000000E+00 -0.20105872986E+04  0.20105872986E+04  0.00000000000E+00 0. -1.
          6    1    1    2  502    0 -0.56876951799E+02 -0.32460052562E+03 -0.15013940047E+04  0.15467283039E+04  0.17200000000E+03 0. -1.
         -6    1    1    2    0  501  0.56876951799E+02  0.32460052562E+03 -0.41552045913E+03  0.55753182943E+03  0.17200000000E+03 0.  1.
</event>
<event>
 4    1  0.3191769E-002  0.2736727E+03  0.7818608E-02  0.1099196E+00
          2   -1    0    0  502    0  0.00000000000E+00  0.00000000000E+00  0.11470653009E+04  0.11470653009E+04  0.00000000000E+00 0. -1.
         -2   -1    0    0    0  501 -0.00000000000E+00 -0.00000000000E+00 -0.66136261352E+02  0.66136261352E+02  0.00000000000E+00 0.  1.
          6    1    1    2  502    0  0.11004933233E+03 -0.18221393188E+03  0.60890943961E+03  0.66758331178E+03  0.17200000000E+03 0. -1.
         -6    1    1    2    0  501 -0.11004933233E+03  0.18221393188E+03  0.47201959989E+03  0.54561825043E+03  0.17200000000E+03 0.  1.
</event>
<event>
 4    1  0.3191769E-002  0.1889271E+03  0.7818608E-02  0.1159433E+00
         -2   -1    0    0    0  501 -0.00000000000E+00  0.00000000000E+00  0.55711177707E+02  0.55711177707E+02  0.00000000000E+00 0.  1.
          2   -1    0    0  502    0  0.00000000000E+00 -0.00000000000E+00 -0.72026589092E+03  0.72026589092E+03  0.00000000000E+00 0. -1.
          6    1    1    2  502    0  0.46668606696E+01 -0.78023593097E+02 -0.46124173660E+03  0.49843495087E+03  0.17200000000E+03 0. -1.
         -6    1    1    2    0  501 -0.46668606696E+01  0.78023593097E+02 -0.20331297661E+03  0.27754211775E+03  0.17200000000E+03 0.  1.
</event>
<event>
 4    1  0.3191769E-002  0.2824048E+03  0.7818608E-02  0.1094383E+00
          2   -1    0    0  502    0  0.00000000000E+00  0.00000000000E+00  0.26165499732E+04  0.26165499732E+04  0.00000000000E+00 0. -1.
         -2   -1    0    0    0  501 -0.00000000000E+00 -0.00000000000E+00 -0.49537880638E+02  0.49537880638E+02  0.00000000000E+00 0.  1.
          6    1    1    2  502    0 -0.18149489483E+03  0.13125572888E+03  0.21103298354E+04  0.21291417232E+04  0.17200000000E+03 0. -1.
         -6    1    1    2    0  501  0.18149489483E+03 -0.13125572888E+03  0.45668225711E+03  0.53694613061E+03  0.17200000000E+03 0.  1.
</event>
<event>
 4    1  0.3191769E-002  0.2968911E+03  0.7818608E-02  0.1086805E+00
          2   -1    0    0  502    0  0.00000000000E+00  0.00000000000E+00  0.38336437506E+03  0.38336437506E+03  0.00000000000E+00 0. -1.
         -2   -1    0    0    0  501 -0.00000000000E+00 -0.00000000000E+00 -0.48659728100E+03  0.48659728100E+03  0.00000000000E+00 0.  1.
          6    1    1    2  502    0  0.38973285197E+02 -0.23883338139E+03  0.26430303970E+03  0.39749263870E+03  0.17200000000E+03 0. -1.
         -6    1    1    2    0  501 -0.38973285197E+02  0.23883338139E+03 -0.36753594564E+03  0.47246901736E+03  0.17200000000E+03 0.  1.
</event>
<event>
 4    1  0.3191769E-002  0.3113454E+03  0.7818608E-02  0.1079703E+00
         -1   -1    0    0    0  501 -0.00000000000E+00  0.00000000000E+00  0.12039037098E+03  0.12039037098E+03  0.00000000000E+00 0.  1.
          1   -1    0    0  502    0  0.00000000000E+00 -0.00000000000E+00 -0.13444601855E+04  0.13444601855E+04  0.00000000000E+00 0. -1.
          6    1    1    2  502    0  0.12502014895E+03 -0.22742460546E+03 -0.10759049753E+04  0.11200479921E+04  0.17200000000E+03 0. -1.
         -6    1    1    2    0  501 -0.12502014895E+03  0.22742460546E+03 -0.14816483926E+03  0.34480256438E+03  0.17200000000E+03 0.  1.
</event>
<event>
 4    1  0.3191769E-002  0.2220623E+03  0.7818608E-02  0.1132355E+00
          1   -1    0    0  502    0  0.00000000000E+00  0.00000000000E+00  0.12399551761E+04  0.12399551761E+04  0.00000000000E+00 0. -1.
         -1   -1    0    0    0  501 -0.00000000000E+00 -0.00000000000E+00 -0.39930935729E+02  0.39930935729E+02  0.00000000000E+00 0.  1.
          6    1    1    2  502    0 -0.10064071368E+03  0.97975148113E+02  0.64077455356E+03  0.67816200970E+03  0.17200000000E+03 0. -1.
         -6    1    1    2    0  501  0.10064071368E+03 -0.97975148113E+02  0.55924968682E+03  0.60172410214E+03  0.17200000000E+03 0.  1.
</event>
<event>
 4    1  0.3191769E-002  0.1922606E+03  0.7818608E-02  0.1156438E+00
          2   -1    0    0  502    0  0.00000000000E+00  0.00000000000E+00  0.11488731700E+04  0.11488731700E+04  0.00000000000E+00 0. -1.
         -2   -1    0    0    0  501 -0.00000000000E+00 -0.00000000000E+00 -0.39026618103E+02  0.39026618103E+02  0.00000000000E+00 0.  1.
          6    1    1    2  502    0 -0.78167874541E+02 -0.35636210756E+02  0.80380272865E+03  0.82647624450E+03  0.17200000000E+03 0. -1.
         -6    1    1    2    0  501  0.78167874541E+02  0.35636210756E+02  0.30604382325E+03  0.36142354361E+03  0.17200000000E+03 0.  1.
</event>
<event>
 4    1  0.3191769E-002  0.2484459E+03  0.7818608E-02  0.1114291E+00
          1   -1    0    0  502    0  0.00000000000E+00  0.00000000000E+00  0.87200418764E+03  0.87200418764E+03  0.00000000000E+00 0. -1.
         -1   -1    0    0    0  501 -0.00000000000E+00 -0.00000000000E+00 -0.70912244525E+02  0.70912244525E+02  0.00000000000E+00 0.  1.
          6    1    1    2  502    0 -0.19246651704E+02  0.17824407066E+03  0.42046608553E+03  0.48838213666E+03  0.17200000000E+03 0. -1.
         -6    1    1    2    0  501  0.19246651704E+02 -0.17824407066E+03  0.38062585758E+03  0.45453429550E+03  0.17200000000E+03 0.  1.
</event>
<event>
 4    1  0.3191769E-002  0.1832246E+03  0.7818608E-02  0.1164718E+00
          3   -1    0    0  502    0  0.00000000000E+00  0.00000000000E+00  0.94813721352E+02  0.94813721352E+02  0.00000000000E+00 0. -1.
         -3   -1    0    0    0  501 -0.00000000000E+00 -0.00000000000E+00 -0.45665163304E+03  0.45665163304E+03  0.00000000000E+00 0.  1.
          6    1    1    2  502    0  0.62764679800E+02 -0.69185503828E+01 -0.50236390693E+02  0.18998675301E+03  0.17200000000E+03 0. -1.
         -6    1    1    2    0  501 -0.62764679800E+02  0.69185503828E+01 -0.31160152099E+03  0.36147860138E+03  0.17200000000E+03 0.  1.
</event>
<event>
 4    1  0.3191769E-002  0.1910128E+03  0.7818608E-02  0.1157551E+00
          2   -1    0    0  502    0  0.00000000000E+00  0.00000000000E+00  0.82833148076E+03  0.82833148076E+03  0.00000000000E+00 0. -1.
         -2   -1    0    0    0  501 -0.00000000000E+00 -0.00000000000E+00 -0.63268327791E+02  0.63268327791E+02  0.00000000000E+00 0.  1.
          6    1    1    2  502    0 -0.78864277046E+02  0.26121529863E+02  0.62824740966E+03  0.65664352297E+03  0.17200000000E+03 0. -1.
         -6    1    1    2    0  501  0.78864277046E+02 -0.26121529863E+02  0.13681574331E+03  0.23495628558E+03  0.17200000000E+03 0.  1.
</event>
<event>
 4    1  0.3191769E-002  0.2630615E+03  0.7818608E-02  0.1105318E+00
         -3   -1    0    0    0  501 -0.00000000000E+00  0.00000000000E+00  0.53650581133E+03  0.53650581133E+03  0.00000000000E+00 0.  1.
          3   -1    0    0  502    0  0.00000000000E+00 -0.00000000000E+00 -0.13298956164E+03  0.13298956164E+03  0.00000000000E+00 0. -1.
          6    1    1    2  502    0  0.83680454908E+02  0.18059604730E+03  0.25984409705E+03  0.36975709000E+03  0.17200000000E+03 0. -1.
         -6    1    1    2    0  501 -0.83680454908E+02 -0.18059604730E+03  0.14367215264E+03  0.29973828297E+03  0.17200000000E+03 0.  1.
</event>
<event>
 4    1  0.3191769E-002  0.2898875E+03  0.7818608E-02  0.1090408E+00
         -2   -1    0    0    0  501 -0.00000000000E+00  0.00000000000E+00  0.44850552212E+03  0.44850552212E+03  0.00000000000E+00 0.  1.
          2   -1    0    0  502    0  0.00000000000E+00 -0.00000000000E+00 -0.19575616803E+03  0.19575616803E+03  0.00000000000E+00 0. -1.
          6    1    1    2  502    0 -0.14098929604E+03 -0.18593752432E+03  0.59685322282E+02  0.29596804260E+03  0.17200000000E+03 0. -1.
         -6    1    1    2    0  501  0.14098929604E+03  0.18593752432E+03  0.19306403181E+03  0.34829364755E+03  0.17200000000E+03 0.  1.
</event>
<event>
 4    1  0.3191769E-002  0.1959988E+03  0.7818608E-02  0.1153159E+00
         -2   -1    0    0    0  501 -0.00000000000E+00  0.00000000000E+00  0.18723681656E+02  0.18723681656E+02  0.00000000000E+00 0.  1.
          2   -1    0    0  502    0  0.00000000000E+00 -0.00000000000E+00 -0.20600526898E+04  0.20600526898E+04  0.00000000000E+00 0. -1.
          6    1    1    2  502    0  0.88655972204E+02 -0.31171070064E+02 -0.10868188226E+04  0.11043507912E+04  0.17200000000E+03 0. -1.
         -6    1    1    2    0  501 -0.88655972204E+02  0.31171070064E+02 -0.95451018557E+03  0.97442558022E+03  0.17200000000E+03 0.  1.
</event>
<event>
 4    1  0.3191769E-002  0.1961364E+03  0.7818608E-02  0.1153040E+00
         -2   -1    0    0    0  501 -0.00000000000E+00  0.00000000000E+00  0.22925989999E+03  0.22925989999E+03  0.00000000000E+00 0.  1.
          2   -1    0    0  502    0  0.00000000000E+00 -0.00000000000E+00 -0.29970046747E+03  0.29970046747E+03  0.00000000000E+00 0. -1.
          6    1    1    2  502    0 -0.33580464613E+02  0.88078534386E+02  0.14023845515E+03  0.24111470326E+03  0.17200000000E+03 0.  1.
         -6    1    1    2    0  501  0.33580464613E+02 -0.88078534386E+02 -0.21067902264E+03  0.28784566421E+03  0.17200000000E+03 0. -1.
</event>
<event>
 4    1  0.3191769E-002  0.2046173E+03  0.7818608E-02  0.1145901E+00
         -2   -1    0    0    0  501 -0.00000000000E+00  0.00000000000E+00  0.65523691469E+02  0.65523691469E+02  0.00000000000E+00 0.  1.
          2   -1    0    0  502    0  0.00000000000E+00 -0.00000000000E+00 -0.80271131536E+03  0.80271131536E+03  0.00000000000E+00 0. -1.
          6    1    1    2  502    0 -0.37384050309E+02  0.10433927971E+03 -0.17253109562E+03  0.26764758819E+03  0.17200000000E+03 0.  1.
         -6    1    1    2    0  501  0.37384050309E+02 -0.10433927971E+03 -0.56465652828E+03  0.60058741864E+03  0.17200000000E+03 0.  1.
</event>
<event>
 4    1  0.3191769E-002  0.1757706E+03  0.7818608E-02  0.1171960E+00
          2   -1    0    0  502    0  0.00000000000E+00  0.00000000000E+00  0.25499714663E+04  0.25499714663E+04  0.00000000000E+00 0. -1.
         -2   -1    0    0    0  501 -0.00000000000E+00 -0.00000000000E+00 -0.33329899661E+02  0.33329899661E+02  0.00000000000E+00 0.  1.
          6    1    1    2  502    0  0.36211266328E+02 -0.24569558607E+00  0.22887991632E+04  0.22955384827E+04  0.17200000000E+03 0. -1.
         -6    1    1    2    0  501 -0.36211266328E+02  0.24569558607E+00  0.22784240351E+03  0.28776288331E+03  0.17200000000E+03 0.  1.
</event>
<event>
 4    1  0.3191769E-002  0.4211107E+03  0.7818608E-02  0.1036705E+00
         -2   -1    0    0    0  501 -0.00000000000E+00  0.00000000000E+00  0.15145162530E+03  0.15145162530E+03  0.00000000000E+00 0.  1.
          2   -1    0    0  502    0  0.00000000000E+00 -0.00000000000E+00 -0.12973328415E+04  0.12973328415E+04  0.00000000000E+00 0. -1.
          6    1    1    2  502    0  0.12661134258E+03  0.36293224956E+03 -0.79908364743E+03  0.90325462934E+03  0.17200000000E+03 0. -1.
         -6    1    1    2    0  501 -0.12661134258E+03 -0.36293224956E+03 -0.34679756875E+03  0.54552983743E+03  0.17200000000E+03 0.  1.
</event>
<event>
 4    1  0.3191769E-002  0.3764310E+03  0.7818608E-02  0.1052261E+00
          2   -1    0    0  502    0  0.00000000000E+00  0.00000000000E+00  0.14097191939E+04  0.14097191939E+04  0.00000000000E+00 0. -1.
         -2   -1    0    0    0  501 -0.00000000000E+00 -0.00000000000E+00 -0.15460413493E+03  0.15460413493E+03  0.00000000000E+00 0.  1.
          6    1    1    2  502    0  0.34944773837E+02  0.33300924215E+03  0.10901880159E+04  0.11533473902E+04  0.17200000000E+03 0. -1.
         -6    1    1    2    0  501 -0.34944773837E+02 -0.33300924215E+03  0.16492704310E+03  0.41097593862E+03  0.17200000000E+03 0.  1.
</event>
<event>
 4    1  0.3191769E-002  0.2515316E+03  0.7818608E-02  0.1112341E+00
          2   -1    0    0  502    0  0.00000000000E+00  0.00000000000E+00  0.54998226929E+03  0.54998226929E+03  0.00000000000E+00 0. -1.
         -2   -1    0    0    0  501 -0.00000000000E+00 -0.00000000000E+00 -0.20876508058E+03  0.20876508058E+03  0.00000000000E+00 0.  1.
          6    1    1    2  502    0  0.92714578668E+02 -0.15839242512E+03  0.42480756368E+03  0.49368980098E+03  0.17200000000E+03 0. -1.
         -6    1    1    2    0  501 -0.92714578668E+02  0.15839242512E+03 -0.83590374971E+02  0.26505754889E+03  0.17200000000E+03 0.  1.
</event>
<event>
 4    1  0.3191769E-002  0.2553905E+03  0.7818608E-02  0.1109945E+00
         -2   -1    0    0    0  501 -0.00000000000E+00  0.00000000000E+00  0.31387512102E+02  0.31387512102E+02  0.00000000000E+00 0.  1.
          2   -1    0    0  502    0  0.00000000000E+00 -0.00000000000E+00 -0.22038656338E+04  0.22038656338E+04  0.00000000000E+00 0. -1.
          6    1    1    2  502    0  0.18619155265E+03  0.31192904181E+02 -0.13532939280E+04  0.13771814503E+04  0.17200000000E+03 0. -1.
         -6    1    1    2    0  501 -0.18619155265E+03 -0.31192904181E+02 -0.81918419373E+03  0.85807169561E+03  0.17200000000E+03 0.  1.
</event>
<event>
 4    1  0.3191769E-002  0.3272044E+03  0.7818608E-02  0.1072381E+00
          1   -1    0    0  502    0  0.00000000000E+00  0.00000000000E+00  0.10340576804E+04  0.10340576804E+04  0.00000000000E+00 0. -1.
         -1   -1    0    0    0  501 -0.00000000000E+00 -0.00000000000E+00 -0.13344693580E+03  0.13344693580E+03  0.00000000000E+00 0.  1.
          6    1    1    2  502    0  0.13826654543E+03  0.24158032269E+03  0.17393859102E+03  0.37056352133E+03  0.17200000000E+03 0.  1.
         -6    1    1    2    0  501 -0.13826654543E+03 -0.24158032269E+03  0.72667215354E+03  0.79694109483E+03  0.17200000000E+03 0.  1.
</event>
<event>
 4    1  0.3191769E-002  0.2299172E+03  0.7818608E-02  0.1126698E+00
         -1   -1    0    0    0  501 -0.00000000000E+00  0.00000000000E+00  0.24322341526E+04  0.24322341526E+04  0.00000000000E+00 0.  1.
          1   -1    0    0  502    0  0.00000000000E+00 -0.00000000000E+00 -0.35652416493E+02  0.35652416493E+02  0.00000000000E+00 0. -1.
          6    1    1    2  502    0  0.12089783896E+03  0.93067844603E+02  0.42730337529E+03  0.48523199163E+03  0.17200000000E+03 0. -1.
         -6    1    1    2    0  501 -0.12089783896E+03 -0.93067844603E+02  0.19692783608E+04  0.19826545774E+04  0.17200000000E+03 0.  1.
</event>
<event>
 4    1  0.3191769E-002  0.1821588E+03  0.7818608E-02  0.1165730E+00
          3   -1    0    0  502    0  0.00000000000E+00  0.00000000000E+00  0.29290808548E+02  0.29290808548E+02  0.00000000000E+00 0. -1.
         -3   -1    0    0    0  501 -0.00000000000E+00 -0.00000000000E+00 -0.12141431505E+04  0.12141431505E+04  0.00000000000E+00 0.  1.
          6    1    1    2  502    0 -0.39083727867E+02 -0.45500417169E+02 -0.75330877264E+03  0.77501995631E+03  0.17200000000E+03 0.  1.
         -6    1    1    2    0  501  0.39083727867E+02  0.45500417169E+02 -0.43154356934E+03  0.46841400276E+03  0.17200000000E+03 0.  1.
</event>
<event>
 4    1  0.3191769E-002  0.1865466E+03  0.7818608E-02  0.1161613E+00
         -1   -1    0    0    0  501 -0.00000000000E+00  0.00000000000E+00  0.28258755629E+03  0.28258755629E+03  0.00000000000E+00 0.  1.
          1   -1    0    0  502    0  0.00000000000E+00 -0.00000000000E+00 -0.47851717649E+03  0.47851717649E+03  0.00000000000E+00 0. -1.
          6    1    1    2  502    0 -0.32059322194E+02  0.64713347857E+02 -0.42591400256E+03  0.46497565002E+03  0.17200000000E+03 0. -1.
         -6    1    1    2    0  501  0.32059322194E+02 -0.64713347857E+02  0.22998438236E+03  0.29612908276E+03  0.17200000000E+03 0.  1.
</event>
<event>
 4    1  0.3191769E-002  0.2436253E+03  0.7818608E-02  0.1117401E+00
          1   -1    0    0  502    0  0.00000000000E+00  0.00000000000E+00  0.16229731643E+04  0.16229731643E+04  0.00000000000E+00 0. -1.
         -1   -1    0    0    0  501 -0.00000000000E+00 -0.00000000000E+00 -0.42523581793E+02  0.42523581793E+02  0.00000000000E+00 0.  1.
          6    1    1    2  502    0  0.14419064215E+03 -0.94754248686E+02  0.11017990059E+04  0.11284123175E+04  0.17200000000E+03 0. -1.
         -6    1    1    2    0  501 -0.14419064215E+03  0.94754248686E+02  0.47865057658E+03  0.53708442855E+03  0.17200000000E+03 0. -1.
</event>
<event>
 4    1  0.3191769E-002  0.1821577E+03  0.7818608E-02  0.1165731E+00
         -2   -1    0    0    0  501 -0.00000000000E+00  0.00000000000E+00  0.40540919789E+02  0.40540919789E+02  0.00000000000E+00 0.  1.
          2   -1    0    0  502    0  0.00000000000E+00 -0.00000000000E+00 -0.20978645671E+04  0.20978645671E+04  0.00000000000E+00 0. -1.
          6    1    1    2  502    0 -0.55628918183E+02  0.22424047294E+02 -0.19368569158E+03  0.26588636964E+03  0.17200000000E+03 0.  1.
         -6    1    1    2    0  501  0.55628918183E+02 -0.22424047294E+02 -0.18636379557E+04  0.18725191173E+04  0.17200000000E+03 0. -1.
</event>
<event>
 4    1  0.3191769E-002  0.2007298E+03  0.7818608E-02  0.1149125E+00
          3   -1    0    0  502    0  0.00000000000E+00  0.00000000000E+00  0.38564074546E+03  0.38564074546E+03  0.00000000000E+00 0. -1.
         -3   -1    0    0    0  501 -0.00000000000E+00 -0.00000000000E+00 -0.10606829821E+03  0.10606829821E+03  0.00000000000E+00 0.  1.
          6    1    1    2  502    0  0.10147611110E+03 -0.20274095480E+02  0.16985424831E+03  0.26295038646E+03  0.17200000000E+03 0.  1.
         -6    1    1    2    0  501 -0.10147611110E+03  0.20274095480E+02  0.10971819894E+03  0.22875865721E+03  0.17200000000E+03 0. -1.
</event>
<event>
 4    1  0.3191769E-002  0.1811106E+03  0.7818608E-02  0.1166732E+00
         -2   -1    0    0    0  501 -0.00000000000E+00  0.00000000000E+00  0.99728082572E+02  0.99728082572E+02  0.00000000000E+00 0.  1.
          2   -1    0    0  502    0  0.00000000000E+00 -0.00000000000E+00 -0.76009792875E+03  0.76009792875E+03  0.00000000000E+00 0. -1.
          6    1    1    2  502    0 -0.56633063920E+02  0.31244013484E+01 -0.65398848362E+03  0.67860297857E+03  0.17200000000E+03 0. -1.
         -6    1    1    2    0  501  0.56633063920E+02 -0.31244013484E+01 -0.63813625577E+01  0.18122303275E+03  0.17200000000E+03 0.  1.
</event>
<event>
 4    1  0.3191769E-002  0.2880845E+03  0.7818608E-02  0.1091353E+00
         -1   -1    0    0    0  501 -0.00000000000E+00  0.00000000000E+00  0.33149002648E+03  0.33149002648E+03  0.00000000000E+00 0.  1.
          1   -1    0    0  502    0  0.00000000000E+00 -0.00000000000E+00 -0.27755840006E+03  0.27755840006E+03  0.00000000000E+00 0. -1.
          6    1    1    2  502    0  0.16404516649E+03 -0.16278170003E+03 -0.68356750866E+02  0.29608333946E+03  0.17200000000E+03 0. -1.
         -6    1    1    2    0  501 -0.16404516649E+03  0.16278170003E+03  0.12228837729E+03  0.31296508709E+03  0.17200000000E+03 0.  1.
</event>
<event>
 4    1  0.3191769E-002  0.4138533E+03  0.7818608E-02  0.1039086E+00
         -2   -1    0    0    0  501 -0.00000000000E+00  0.00000000000E+00  0.20447651520E+03  0.20447651520E+03  0.00000000000E+00 0.  1.
          2   -1    0    0  502    0  0.00000000000E+00 -0.00000000000E+00 -0.10543444623E+04  0.10543444623E+04  0.00000000000E+00 0. -1.
          6    1    1    2  502    0  0.24575407986E+03 -0.28512370228E+03 -0.71029319148E+03  0.82206508942E+03  0.17200000000E+03 0. -1.
         -6    1    1    2    0  501 -0.24575407986E+03  0.28512370228E+03 -0.13957475562E+03  0.43675588808E+03  0.17200000000E+03 0.  1.
</event>
<event>
 4    1  0.3191769E-002  0.2098770E+03  0.7818608E-02  0.1141663E+00
         -2   -1    0    0    0  501 -0.00000000000E+00  0.00000000000E+00  0.41615022602E+02  0.41615022602E+02  0.00000000000E+00 0.  1.
          2   -1    0    0  502    0  0.00000000000E+00 -0.00000000000E+00 -0.10784087264E+04  0.10784087264E+04  0.00000000000E+00 0. -1.
          6    1    1    2  502    0  0.11289226665E+03  0.41468967309E+02 -0.44225355095E+03  0.48952685570E+03  0.17200000000E+03 0. -1.
         -6    1    1    2    0  501 -0.11289226665E+03 -0.41468967309E+02 -0.59454015284E+03  0.63049689330E+03  0.17200000000E+03 0.  1.
</event>
<event>
 4    1  0.3191769E-002  0.2352257E+03  0.7818608E-02  0.1123015E+00
          2   -1    0    0  502    0  0.00000000000E+00  0.00000000000E+00  0.18522645968E+04  0.18522645968E+04  0.00000000000E+00 0. -1.
         -2   -1    0    0    0  501 -0.00000000000E+00 -0.00000000000E+00 -0.29883292342E+02  0.29883292342E+02  0.00000000000E+00 0.  1.
          6    1    1    2  502    0  0.51126062266E+01  0.16037760750E+03  0.89301439270E+03  0.92347486230E+03  0.17200000000E+03 0. -1.
         -6    1    1    2    0  501 -0.51126062266E+01 -0.16037760750E+03  0.92936691181E+03  0.95867302690E+03  0.17200000000E+03 0. -1.
</event>
<event>
 4    1  0.3191769E-002  0.4562870E+03  0.7818608E-02  0.1025864E+00
         -1   -1    0    0    0  501 -0.00000000000E+00  0.00000000000E+00  0.51492555209E+03  0.51492555209E+03  0.00000000000E+00 0.  1.
          1   -1    0    0  502    0  0.00000000000E+00 -0.00000000000E+00 -0.40600326464E+03  0.40600326464E+03  0.00000000000E+00 0. -1.
          6    1    1    2  502    0 -0.29397105365E+03  0.30363606160E+03  0.24866054763E+02  0.45696406748E+03  0.17200000000E+03 0. -1.
         -6    1    1    2    0  501  0.29397105365E+03 -0.30363606160E+03  0.84056232685E+02  0.46396474924E+03  0.17200000000E+03 0.  1.
</event>
<event>
 4    1  0.3191769E-002  0.2413417E+03  0.7818608E-02  0.1118902E+00
          2   -1    0    0  502    0  0.00000000000E+00  0.00000000000E+00  0.61657151762E+03  0.61657151762E+03  0.00000000000E+00 0. -1.
         -2   -1    0    0    0  501 -0.00000000000E+00 -0.00000000000E+00 -0.13439186935E+03  0.13439186935E+03  0.00000000000E+00 0.  1.
          6    1    1    2  502    0 -0.12184679562E+03  0.11753792475E+03  0.36434638337E+02  0.24407639834E+03  0.17200000000E+03 0. -1.
         -6    1    1    2    0  501  0.12184679562E+03 -0.11753792475E+03  0.44574500993E+03  0.50688698862E+03  0.17200000000E+03 0. -1.
</event>
<event>
 4    1  0.3191769E-002  0.2540975E+03  0.7818608E-02  0.1110742E+00
          1   -1    0    0  502    0  0.00000000000E+00  0.00000000000E+00  0.13871859633E+04  0.13871859633E+04  0.00000000000E+00 0. -1.
         -1   -1    0    0    0  501 -0.00000000000E+00 -0.00000000000E+00 -0.58990882444E+02  0.58990882444E+02  0.00000000000E+00 0.  1.
          6    1    1    2  502    0 -0.15394173485E+03  0.10622368339E+03  0.99624039568E+03  0.10281344536E+04  0.17200000000E+03 0. -1.
         -6    1    1    2    0  501  0.15394173485E+03 -0.10622368339E+03  0.33195468519E+03  0.41804239218E+03  0.17200000000E+03 0.  1.
</event>
<event>
 4    1  0.3191769E-002  0.2023932E+03  0.7818608E-02  0.1147735E+00
         -2   -1    0    0    0  501 -0.00000000000E+00  0.00000000000E+00  0.13861059175E+03  0.13861059175E+03  0.00000000000E+00 0.  1.
          2   -1    0    0  502    0  0.00000000000E+00 -0.00000000000E+00 -0.56969621056E+03  0.56969621056E+03  0.00000000000E+00 0. -1.
          6    1    1    2  502    0  0.96495388703E+02  0.45471351882E+02  0.30142989968E+02  0.20462552071E+03  0.17200000000E+03 0.  1.
         -6    1    1    2    0  501 -0.96495388703E+02 -0.45471351882E+02 -0.46122860877E+03  0.50368128160E+03  0.17200000000E+03 0. -1.
</event>
<event>
 4    1  0.3191769E-002  0.2353911E+03  0.7818608E-02  0.1122902E+00
          1   -1    0    0  502    0  0.00000000000E+00  0.00000000000E+00  0.14569484812E+04  0.14569484812E+04  0.00000000000E+00 0. -1.
         -1   -1    0    0    0  501 -0.00000000000E+00 -0.00000000000E+00 -0.38093931231E+02  0.38093931231E+02  0.00000000000E+00 0.  1.
          6    1    1    2  502    0  0.55979104421E+02  0.15063632063E+03  0.73985094919E+03  0.77639447978E+03  0.17200000000E+03 0. -1.
         -6    1    1    2    0  501 -0.55979104421E+02 -0.15063632063E+03  0.67900360079E+03  0.71864793266E+03  0.17200000000E+03 0.  1.
</event>
<event>
 4    1  0.3191769E-002  0.1943921E+03  0.7818608E-02  0.1154559E+00
         -1   -1    0    0    0  501 -0.00000000000E+00  0.00000000000E+00  0.25295404450E+02  0.25295404450E+02  0.00000000000E+00 0.  1.
          1   -1    0    0  502    0  0.00000000000E+00 -0.00000000000E+00 -0.19531115635E+04  0.19531115635E+04  0.00000000000E+00 0. -1.
          6    1    1    2  502    0 -0.88385905090E+02  0.19804429306E+02 -0.14435733333E+04  0.14566029838E+04  0.17200000000E+03 0. -1.
         -6    1    1    2    0  501  0.88385905090E+02 -0.19804429306E+02 -0.48424282570E+03  0.52180398416E+03  0.17200000000E+03 0.  1.
</event>
<event>
 4    1  0.3191769E-002  0.2177175E+03  0.7818608E-02  0.1135596E+00
          1   -1    0    0  502    0  0.00000000000E+00  0.00000000000E+00  0.12733307841E+03  0.12733307841E+03  0.00000000000E+00 0. -1.
         -1   -1    0    0    0  501 -0.00000000000E+00 -0.00000000000E+00 -0.73400509844E+03  0.73400509844E+03  0.00000000000E+00 0.  1.
          6    1    1    2  502    0  0.50085064765E+02  0.12372713848E+03 -0.99578632143E+00  0.21771979722E+03  0.17200000000E+03 0. -1.
         -6    1    1    2    0  501 -0.50085064765E+02 -0.12372713848E+03 -0.60567623371E+03  0.64361837963E+03  0.17200000000E+03 0.  1.
</event>
<event>
 4    1  0.3191769E-002  0.3857305E+03  0.7818608E-02  0.1048836E+00
          4   -1    0    0  502    0  0.00000000000E+00  0.00000000000E+00  0.11087918157E+03  0.11087918157E+03  0.00000000000E+00 0. -1.
         -4   -1    0    0    0  501 -0.00000000000E+00 -0.00000000000E+00 -0.18401438249E+04  0.18401438249E+04  0.00000000000E+00 0.  1.
          6    1    1    2  502    0 -0.94147531666E+02 -0.33217503489E+03 -0.35702197116E+03  0.52559746900E+03  0.17200000000E+03 0. -1.
         -6    1    1    2    0  501  0.94147531666E+02  0.33217503489E+03 -0.13722426722E+04  0.14254255375E+04  0.17200000000E+03 0.  1.
</event>
<event>
 4    1  0.3191769E-002  0.4183619E+03  0.7818608E-02  0.1037601E+00
          2   -1    0    0  502    0  0.00000000000E+00  0.00000000000E+00  0.22460693289E+04  0.22460693289E+04  0.00000000000E+00 0. -1.
         -2   -1    0    0    0  501 -0.00000000000E+00 -0.00000000000E+00 -0.87064772814E+02  0.87064772814E+02  0.00000000000E+00 0.  1.
          6    1    1    2  502    0 -0.36809922520E+03  0.99727634697E+02  0.14574557262E+04  0.15163125781E+04  0.17200000000E+03 0. -1.
         -6    1    1    2    0  501  0.36809922520E+03 -0.99727634697E+02  0.70154882995E+03  0.81682152367E+03  0.17200000000E+03 0.  1.
</event>
<event>
 4    1  0.3191769E-002  0.2050156E+03  0.7818608E-02  0.1145575E+00
         -2   -1    0    0    0  501 -0.00000000000E+00  0.00000000000E+00  0.18450069292E+03  0.18450069292E+03  0.00000000000E+00 0.  1.
          2   -1    0    0  502    0  0.00000000000E+00 -0.00000000000E+00 -0.11780004068E+04  0.11780004068E+04  0.00000000000E+00 0. -1.
          6    1    1    2  502    0 -0.56940118676E+02  0.95943751362E+02 -0.11085916266E+04  0.11273893627E+04  0.17200000000E+03 0. -1.
         -6    1    1    2    0  501  0.56940118676E+02 -0.95943751362E+02  0.11509191268E+03  0.23511173706E+03  0.17200000000E+03 0.  1.
</event>
<event>
 4    1  0.3191769E-002  0.2372745E+03  0.7818608E-02  0.1121622E+00
         -4   -1    0    0    0  501 -0.00000000000E+00  0.00000000000E+00  0.55461326759E+02  0.55461326759E+02  0.00000000000E+00 0.  1.
          4   -1    0    0  502    0  0.00000000000E+00 -0.00000000000E+00 -0.10158370276E+04  0.10158370276E+04  0.00000000000E+00 0. -1.
          6    1    1    2  502    0 -0.11547706085E+03 -0.11567302128E+03 -0.49454404353E+03  0.54851892441E+03  0.17200000000E+03 0. -1.
         -6    1    1    2    0  501  0.11547706085E+03  0.11567302128E+03 -0.46583165732E+03  0.52277942997E+03  0.17200000000E+03 0.  1.
</event>
<event>
 4    1  0.3191769E-002  0.1844239E+03  0.7818608E-02  0.1163589E+00
          2   -1    0    0  502    0  0.00000000000E+00  0.00000000000E+00  0.13441141829E+04  0.13441141829E+04  0.00000000000E+00 0. -1.
         -2   -1    0    0    0  501 -0.00000000000E+00 -0.00000000000E+00 -0.33799464563E+02  0.33799464563E+02  0.00000000000E+00 0.  1.
          6    1    1    2  502    0  0.11074226334E+02  0.65616508067E+02  0.10005534060E+04  0.10174081201E+04  0.17200000000E+03 0. -1.
         -6    1    1    2    0  501 -0.11074226334E+02 -0.65616508067E+02  0.30976131227E+03  0.36050552728E+03  0.17200000000E+03 0.  1.
</event>
<event>
 4    1  0.3191769E-002  0.2760821E+03  0.7818608E-02  0.1097848E+00
          2   -1    0    0  502    0  0.00000000000E+00  0.00000000000E+00  0.28771284679E+04  0.28771284679E+04  0.00000000000E+00 0. -1.
         -2   -1    0    0    0  501 -0.00000000000E+00 -0.00000000000E+00 -0.28269626377E+02  0.28269626377E+02  0.00000000000E+00 0.  1.
          6    1    1    2  502    0 -0.19308189753E+03 -0.96730206240E+02  0.17886933219E+04  0.18098743469E+04  0.17200000000E+03 0. -1.
         -6    1    1    2    0  501  0.19308189753E+03  0.96730206240E+02  0.10601655196E+04  0.10955237473E+04  0.17200000000E+03 0.  1.
</event>
<event>
 4    1  0.3191769E-002  0.2429753E+03  0.7818608E-02  0.1117827E+00
          3   -1    0    0  502    0  0.00000000000E+00  0.00000000000E+00  0.41633892541E+02  0.41633892541E+02  0.00000000000E+00 0. -1.
         -3   -1    0    0    0  501 -0.00000000000E+00 -0.00000000000E+00 -0.15803299928E+04  0.15803299928E+04  0.00000000000E+00 0.  1.
          6    1    1    2  502    0  0.16519366537E+03  0.46519087373E+02 -0.10292640705E+04  0.10575544900E+04  0.17200000000E+03 0. -1.
         -6    1    1    2    0  501 -0.16519366537E+03 -0.46519087373E+02 -0.50943202979E+03  0.56440939534E+03  0.17200000000E+03 0. -1.
</event>
<event>
 4    1  0.3191769E-002  0.2194553E+03  0.7818608E-02  0.1134290E+00
         -2   -1    0    0    0  501 -0.00000000000E+00  0.00000000000E+00  0.60762150923E+02  0.60762150923E+02  0.00000000000E+00 0.  1.
          2   -1    0    0  502    0  0.00000000000E+00 -0.00000000000E+00 -0.12343432343E+04  0.12343432343E+04  0.00000000000E+00 0. -1.
          6    1    1    2  502    0  0.12893284012E+03 -0.44192258937E+02 -0.97417092912E+03  0.99858381329E+03  0.17200000000E+03 0. -1.
         -6    1    1    2    0  501 -0.12893284012E+03  0.44192258937E+02 -0.19941015429E+03  0.29652157197E+03  0.17200000000E+03 0.  1.
</event>
<event>
 4    1  0.3191769E-002  0.2001574E+03  0.7818608E-02  0.1149606E+00
         -2   -1    0    0    0  501 -0.00000000000E+00  0.00000000000E+00  0.53927957860E+03  0.53927957860E+03  0.00000000000E+00 0.  1.
          2   -1    0    0  502    0  0.00000000000E+00 -0.00000000000E+00 -0.89408878438E+02  0.89408878438E+02  0.00000000000E+00 0. -1.
          6    1    1    2  502    0  0.10000677679E+03 -0.21854704888E+02  0.95671370712E+02  0.22184678204E+03  0.17200000000E+03 0. -1.
         -6    1    1    2    0  501 -0.10000677679E+03  0.21854704888E+02  0.35419932945E+03  0.40684167499E+03  0.17200000000E+03 0.  1.
</event>
<event>
 4    1  0.3191769E-002  0.1950788E+03  0.7818608E-02  0.1153959E+00
          2   -1    0    0  502    0  0.00000000000E+00  0.00000000000E+00  0.42584577334E+03  0.42584577334E+03  0.00000000000E+00 0. -1.
         -2   -1    0    0    0  501 -0.00000000000E+00 -0.00000000000E+00 -0.37270721019E+03  0.37270721019E+03  0.00000000000E+00 0.  1.
          6    1    1    2  502    0 -0.75386161526E+02 -0.52807701387E+02 -0.32156392308E+03  0.37611046689E+03  0.17200000000E+03 0.  1.
         -6    1    1    2    0  501  0.75386161526E+02  0.52807701387E+02  0.37470248623E+03  0.42244251664E+03  0.17200000000E+03 0. -1.
</event>
<event>
 4    1  0.3191769E-002  0.1788851E+03  0.7818608E-02  0.1168886E+00
         -2   -1    0    0    0  501 -0.00000000000E+00  0.00000000000E+00  0.68874803733E+02  0.68874803733E+02  0.00000000000E+00 0.  1.
          2   -1    0    0  502    0  0.00000000000E+00 -0.00000000000E+00 -0.47772846031E+03  0.47772846031E+03  0.00000000000E+00 0. -1.
          6    1    1    2  502    0 -0.32795567693E+02 -0.36610743997E+02 -0.24971653658E+03  0.30717787108E+03  0.17200000000E+03 0. -1.
         -6    1    1    2    0  501  0.32795567693E+02  0.36610743997E+02 -0.15913711999E+03  0.23942539296E+03  0.17200000000E+03 0.  1.
</event>
<event>
 4    1  0.3191769E-002  0.2801166E+03  0.7818608E-02  0.1095625E+00
          1   -1    0    0  502    0  0.00000000000E+00  0.00000000000E+00  0.40190870223E+03  0.40190870223E+03  0.00000000000E+00 0. -1.
         -1   -1    0    0    0  501 -0.00000000000E+00 -0.00000000000E+00 -0.29780976278E+03  0.29780976278E+03  0.00000000000E+00 0.  1.
          6    1    1    2  502    0  0.11810235870E+03  0.18690413910E+03  0.25737884844E+03  0.38040661925E+03  0.17200000000E+03 0. -1.
         -6    1    1    2    0  501 -0.11810235870E+03 -0.18690413910E+03 -0.15327990899E+03  0.31931184576E+03  0.17200000000E+03 0.  1.
</event>
<event>
 4    1  0.3191769E-002  0.1839749E+03  0.7818608E-02  0.1164011E+00
         -2   -1    0    0    0  501 -0.00000000000E+00  0.00000000000E+00  0.26040526016E+03  0.26040526016E+03  0.00000000000E+00 0.  1.
          2   -1    0    0  502    0  0.00000000000E+00 -0.00000000000E+00 -0.30392703710E+03  0.30392703710E+03  0.00000000000E+00 0. -1.
          6    1    1    2  502    0 -0.35690550765E+02 -0.54671412960E+02 -0.23522855412E+03  0.29862895285E+03  0.17200000000E+03 0. -1.
         -6    1    1    2    0  501  0.35690550765E+02  0.54671412960E+02  0.19170677718E+03  0.26570334440E+03  0.17200000000E+03 0.  1.
</event>
<event>
 4    1  0.3191769E-002  0.4204964E+03  0.7818608E-02  0.1036905E+00
         -2   -1    0    0    0  501 -0.00000000000E+00  0.00000000000E+00  0.24178824126E+03  0.24178824126E+03  0.00000000000E+00 0.  1.
          2   -1    0    0  502    0  0.00000000000E+00 -0.00000000000E+00 -0.78230411352E+03  0.78230411352E+03  0.00000000000E+00 0. -1.
          6    1    1    2  502    0  0.23427535491E+03 -0.30388866586E+03 -0.40101571841E+03  0.58106012561E+03  0.17200000000E+03 0. -1.
         -6    1    1    2    0  501 -0.23427535491E+03  0.30388866586E+03 -0.13950015385E+03  0.44303222917E+03  0.17200000000E+03 0.  1.
</event>
<event>
 4    1  0.3191769E-002  0.1874126E+03  0.7818608E-02  0.1160816E+00
         -2   -1    0    0    0  501 -0.00000000000E+00  0.00000000000E+00  0.24097228130E+02  0.24097228130E+02  0.00000000000E+00 0.  1.
          2   -1    0    0  502    0  0.00000000000E+00 -0.00000000000E+00 -0.16328693730E+04  0.16328693730E+04  0.00000000000E+00 0. -1.
          6    1    1    2  502    0 -0.32072586692E+02 -0.67162662895E+02 -0.53293332286E+03  0.56492601350E+03  0.17200000000E+03 0.  1.
         -6    1    1    2    0  501  0.32072586692E+02  0.67162662895E+02 -0.10758388220E+04  0.10920405876E+04  0.17200000000E+03 0. -1.
</event>
<event>
 4    1  0.3191769E-002  0.2112828E+03  0.7818608E-02  0.1140554E+00
          1   -1    0    0  502    0  0.00000000000E+00  0.00000000000E+00  0.14218940487E+03  0.14218940487E+03  0.00000000000E+00 0. -1.
         -1   -1    0    0    0  501 -0.00000000000E+00 -0.00000000000E+00 -0.37007170945E+03  0.37007170945E+03  0.00000000000E+00 0.  1.
          6    1    1    2  502    0 -0.59467964133E+02 -0.10733118416E+03 -0.14198178331E+02  0.21175932121E+03  0.17200000000E+03 0.  1.
         -6    1    1    2    0  501  0.59467964133E+02  0.10733118416E+03 -0.21368412624E+03  0.30050179311E+03  0.17200000000E+03 0. -1.
</event>
<event>
 4    1  0.3191769E-002  0.2403115E+03  0.7818608E-02  0.1119585E+00
          2   -1    0    0  502    0  0.00000000000E+00  0.00000000000E+00  0.19905230737E+04  0.19905230737E+04  0.00000000000E+00 0. -1.
         -2   -1    0    0    0  501 -0.00000000000E+00 -0.00000000000E+00 -0.29783093050E+02  0.29783093050E+02  0.00000000000E+00 0.  1.
          6    1    1    2  502    0  0.12792253184E+03  0.10863451906E+03  0.81786227825E+03  0.85243670678E+03  0.17200000000E+03 0. -1.
         -6    1    1    2    0  501 -0.12792253184E+03 -0.10863451906E+03  0.11428777024E+04  0.11678694600E+04  0.17200000000E+03 0.  1.
</event>
<event>
 4    1  0.3191769E-002  0.4006936E+03  0.7818608E-02  0.1043540E+00
         -2   -1    0    0    0  501 -0.00000000000E+00  0.00000000000E+00  0.38238639273E+03  0.38238639273E+03  0.00000000000E+00 0.  1.
          2   -1    0    0  502    0  0.00000000000E+00 -0.00000000000E+00 -0.65526183245E+03  0.65526183245E+03  0.00000000000E+00 0. -1.
          6    1    1    2  502    0  0.25984226691E+03 -0.25189945383E+03 -0.44739572613E+03  0.60059826363E+03  0.17200000000E+03 0. -1.
         -6    1    1    2    0  501 -0.25984226691E+03  0.25189945383E+03  0.17452028641E+03  0.43704996154E+03  0.17200000000E+03 0.  1.
</event>
<event>
 4    1  0.3191769E-002  0.4473789E+03  0.7818608E-02  0.1028507E+00
          1   -1    0    0  502    0  0.00000000000E+00  0.00000000000E+00  0.30042247874E+04  0.30042247874E+04  0.00000000000E+00 0. -1.
         -1   -1    0    0    0  501 -0.00000000000E+00 -0.00000000000E+00 -0.10323644522E+03  0.10323644522E+03  0.00000000000E+00 0.  1.
          6    1    1    2  502    0  0.35667072828E+03  0.20820642189E+03  0.23757983555E+04  0.24175536702E+04  0.17200000000E+03 0. -1.
         -6    1    1    2    0  501 -0.35667072828E+03 -0.20820642189E+03  0.52518998669E+03  0.68990756239E+03  0.17200000000E+03 0.  1.
</event>
<event>
 4    1  0.3191769E-002  0.4167945E+03  0.7818608E-02  0.1038115E+00
         -2   -1    0    0    0  501 -0.00000000000E+00  0.00000000000E+00  0.27630977579E+03  0.27630977579E+03  0.00000000000E+00 0.  1.
          2   -1    0    0  502    0  0.00000000000E+00 -0.00000000000E+00 -0.23665070031E+04  0.23665070031E+04  0.00000000000E+00 0. -1.
          6    1    1    2  502    0  0.88120083511E+02  0.36928103140E+03 -0.21774551142E+04  0.22169863337E+04  0.17200000000E+03 0. -1.
         -6    1    1    2    0  501 -0.88120083511E+02 -0.36928103140E+03  0.87257886883E+02  0.42583044524E+03  0.17200000000E+03 0.  1.
</event>
<event>
 4    1  0.3191769E-002  0.2727596E+03  0.7818608E-02  0.1099711E+00
          2   -1    0    0  502    0  0.00000000000E+00  0.00000000000E+00  0.41869459363E+03  0.41869459363E+03  0.00000000000E+00 0. -1.
         -2   -1    0    0    0  501 -0.00000000000E+00 -0.00000000000E+00 -0.17771791517E+03  0.17771791517E+03  0.00000000000E+00 0.  1.
          6    1    1    2  502    0 -0.18006721539E+03 -0.11130863793E+03  0.11674654561E+03  0.29669440650E+03  0.17200000000E+03 0.  1.
         -6    1    1    2    0  501  0.18006721539E+03  0.11130863793E+03  0.12423013286E+03  0.29971810230E+03  0.17200000000E+03 0. -1.
</event>
<event>
 4    1  0.3191769E-002  0.1834317E+03  0.7818608E-02  0.1164523E+00
         -2   -1    0    0    0  501 -0.00000000000E+00  0.00000000000E+00  0.62786728495E+03  0.62786728495E+03  0.00000000000E+00 0.  1.
          2   -1    0    0  502    0  0.00000000000E+00 -0.00000000000E+00 -0.60010745300E+02  0.60010745300E+02  0.00000000000E+00 0. -1.
          6    1    1    2  502    0  0.62022288347E+02 -0.14711375202E+02  0.39643317286E+03  0.43681397568E+03  0.17200000000E+03 0.  1.
         -6    1    1    2    0  501 -0.62022288347E+02  0.14711375202E+02  0.17142336679E+03  0.25106405456E+03  0.17200000000E+03 0. -1.
</event>
<event>
 4    1  0.3191769E-002  0.2012318E+03  0.7818608E-02  0.1148704E+00
          4   -1    0    0  502    0  0.00000000000E+00  0.00000000000E+00  0.66180300783E+03  0.66180300783E+03  0.00000000000E+00 0. -1.
         -4   -1    0    0    0  501 -0.00000000000E+00 -0.00000000000E+00 -0.11955855863E+03  0.11955855863E+03  0.00000000000E+00 0.  1.
          6    1    1    2  502    0 -0.64217775692E+02  0.82379093157E+02 -0.18569808157E+01  0.20124036892E+03  0.17200000000E+03 0.  1.
         -6    1    1    2    0  501  0.64217775692E+02 -0.82379093157E+02  0.54410143001E+03  0.58012119755E+03  0.17200000000E+03 0. -1.
</event>
<event>
 4    1  0.3191769E-002  0.1888461E+03  0.7818608E-02  0.1159506E+00
          2   -1    0    0  502    0  0.00000000000E+00  0.00000000000E+00  0.24747732698E+04  0.24747732698E+04  0.00000000000E+00 0. -1.
         -2   -1    0    0    0  501 -0.00000000000E+00 -0.00000000000E+00 -0.37588680973E+02  0.37588680973E+02  0.00000000000E+00 0.  1.
          6    1    1    2  502    0  0.54368720415E+02  0.55882875050E+02  0.22050144971E+04  0.22130864841E+04  0.17200000000E+03 0. -1.
         -6    1    1    2    0  501 -0.54368720415E+02 -0.55882875050E+02  0.23217009170E+03  0.29927546669E+03  0.17200000000E+03 0.  1.
</event>
<event>
 4    1  0.3191769E-002  0.2288014E+03  0.7818608E-02  0.1127486E+00
          2   -1    0    0  502    0  0.00000000000E+00  0.00000000000E+00  0.34245684492E+04  0.34245684492E+04  0.00000000000E+00 0. -1.
         -2   -1    0    0    0  501 -0.00000000000E+00 -0.00000000000E+00 -0.17951636789E+02  0.17951636789E+02  0.00000000000E+00 0.  1.
          6    1    1    2  502    0 -0.15069394956E+03  0.75776554353E+01  0.10401089219E+04  0.10649773034E+04  0.17200000000E+03 0.  1.
         -6    1    1    2    0  501  0.15069394956E+03 -0.75776554353E+01  0.23665078905E+04  0.23775427826E+04  0.17200000000E+03 0. -1.
</event>
<event>
 4    1  0.3191769E-002  0.3962297E+03  0.7818608E-02  0.1045093E+00
         -2   -1    0    0    0  501 -0.00000000000E+00  0.00000000000E+00  0.28018465153E+03  0.28018465153E+03  0.00000000000E+00 0.  1.
          2   -1    0    0  502    0  0.00000000000E+00 -0.00000000000E+00 -0.15911716439E+04  0.15911716439E+04  0.00000000000E+00 0. -1.
          6    1    1    2  502    0 -0.35675572215E+03 -0.11805017438E+02 -0.14086103065E+04  0.14632774854E+04  0.17200000000E+03 0. -1.
         -6    1    1    2    0  501  0.35675572215E+03  0.11805017438E+02  0.97623314140E+02  0.40807881002E+03  0.17200000000E+03 0.  1.
</event>
<event>
 4    1  0.3191769E-002  0.1948456E+03  0.7818608E-02  0.1154162E+00
          1   -1    0    0  502    0  0.00000000000E+00  0.00000000000E+00  0.26098748012E+03  0.26098748012E+03  0.00000000000E+00 0. -1.
         -1   -1    0    0    0  501 -0.00000000000E+00 -0.00000000000E+00 -0.60030331631E+03  0.60030331631E+03  0.00000000000E+00 0.  1.
          6    1    1    2  502    0 -0.88121184300E+02  0.24808641726E+02  0.20519635926E+03  0.28296706112E+03  0.17200000000E+03 0. -1.
         -6    1    1    2    0  501  0.88121184300E+02 -0.24808641726E+02 -0.54451219545E+03  0.57832373531E+03  0.17200000000E+03 0.  1.
</event>
<event>
 4    1  0.3191769E-002  0.2594516E+03  0.7818608E-02  0.1107473E+00
          1   -1    0    0  502    0  0.00000000000E+00  0.00000000000E+00  0.25093811183E+03  0.25093811183E+03  0.00000000000E+00 0. -1.
         -1   -1    0    0    0  501 -0.00000000000E+00 -0.00000000000E+00 -0.26979008434E+03  0.26979008434E+03  0.00000000000E+00 0.  1.
          6    1    1    2  502    0 -0.19195077450E+03  0.29766531889E+02 -0.29072206889E+02  0.26107535209E+03  0.17200000000E+03 0.  1.
         -6    1    1    2    0  501  0.19195077450E+03 -0.29766531889E+02  0.10220234375E+02  0.25965284409E+03  0.17200000000E+03 0. -1.
</event>
<event>
 4    1  0.3191769E-002  0.3379040E+03  0.7818608E-02  0.1067692E+00
         -2   -1    0    0    0  501 -0.00000000000E+00  0.00000000000E+00  0.15046236661E+03  0.15046236661E+03  0.00000000000E+00 0.  1.
          2   -1    0    0  502    0  0.00000000000E+00 -0.00000000000E+00 -0.98643816769E+03  0.98643816769E+03  0.00000000000E+00 0. -1.
          6    1    1    2  502    0 -0.74964484168E+02 -0.28102571340E+03 -0.69102871472E+03  0.76922026107E+03  0.17200000000E+03 0. -1.
         -6    1    1    2    0  501  0.74964484168E+02  0.28102571340E+03 -0.14494708637E+03  0.36768027323E+03  0.17200000000E+03 0.  1.
</event>
<event>
 4    1  0.3191769E-002  0.1919801E+03  0.7818608E-02  0.1156687E+00
          1   -1    0    0  502    0  0.00000000000E+00  0.00000000000E+00  0.81769022561E+02  0.81769022561E+02  0.00000000000E+00 0. -1.
         -1   -1    0    0    0  501 -0.00000000000E+00 -0.00000000000E+00 -0.48035503811E+03  0.48035503811E+03  0.00000000000E+00 0.  1.
          6    1    1    2  502    0  0.40882889406E+02 -0.74839473316E+02 -0.26908348132E+03  0.33054844929E+03  0.17200000000E+03 0.  1.
         -6    1    1    2    0  501 -0.40882889406E+02  0.74839473316E+02 -0.12950253423E+03  0.23157561138E+03  0.17200000000E+03 0. -1.
</event>
<event>
 4    1  0.3191769E-002  0.2121989E+03  0.7818608E-02  0.1139836E+00
          1   -1    0    0  502    0  0.00000000000E+00  0.00000000000E+00  0.80988449230E+03  0.80988449230E+03  0.00000000000E+00 0. -1.
         -1   -1    0    0    0  501 -0.00000000000E+00 -0.00000000000E+00 -0.10127381395E+03  0.10127381395E+03  0.00000000000E+00 0.  1.
          6    1    1    2  502    0  0.10046075594E+03  0.73157421402E+02  0.66025922877E+03  0.69352045461E+03  0.17200000000E+03 0. -1.
         -6    1    1    2    0  501 -0.10046075594E+03 -0.73157421402E+02  0.48351449574E+02  0.21763785164E+03  0.17200000000E+03 0.  1.
</event>
<event>
 4    1  0.3191769E-002  0.2061973E+03  0.7818608E-02  0.1144613E+00
          1   -1    0    0  502    0  0.00000000000E+00  0.00000000000E+00  0.47779912840E+04  0.47779912840E+04  0.00000000000E+00 0. -1.
         -1   -1    0    0    0  501 -0.00000000000E+00 -0.00000000000E+00 -0.89147481920E+01  0.89147481920E+01  0.00000000000E+00 0.  1.
          6    1    1    2  502    0 -0.31694045281E+01  0.11368069257E+03  0.24864632283E+04  0.24949983429E+04  0.17200000000E+03 0.  1.
         -6    1    1    2    0  501  0.31694045281E+01 -0.11368069257E+03  0.22826133075E+04  0.22919076894E+04  0.17200000000E+03 0. -1.
</event>
<event>
 4    1  0.3191769E-002  0.2171268E+03  0.7818608E-02  0.1136043E+00
          1   -1    0    0  502    0  0.00000000000E+00  0.00000000000E+00  0.31956537012E+03  0.31956537012E+03  0.00000000000E+00 0. -1.
         -1   -1    0    0    0  501 -0.00000000000E+00 -0.00000000000E+00 -0.14831576985E+03  0.14831576985E+03  0.00000000000E+00 0.  1.
          6    1    1    2  502    0 -0.84423404502E+02 -0.10214066957E+03  0.10270178172E+03  0.24019093150E+03  0.17200000000E+03 0. -1.
         -6    1    1    2    0  501  0.84423404502E+02  0.10214066957E+03  0.68547818553E+02  0.22769020848E+03  0.17200000000E+03 0.  1.
</event>
<event>
 4    1  0.3191769E-002  0.5032054E+03  0.7818608E-02  0.1012946E+00
          2   -1    0    0  502    0  0.00000000000E+00  0.00000000000E+00  0.29020194593E+03  0.29020194593E+03  0.00000000000E+00 0. -1.
         -2   -1    0    0    0  501 -0.00000000000E+00 -0.00000000000E+00 -0.97122983474E+03  0.97122983474E+03  0.00000000000E+00 0.  1.
          6    1    1    2  502    0  0.44465103757E+03 -0.16098790397E+03 -0.54155622770E+03  0.73925557029E+03  0.17200000000E+03 0.  1.
         -6    1    1    2    0  501 -0.44465103757E+03  0.16098790397E+03 -0.13947166111E+03  0.52217621039E+03  0.17200000000E+03 0. -1.
</event>
<event>
 4    1  0.3191769E-002  0.2303782E+03  0.7818608E-02  0.1126374E+00
          2   -1    0    0  502    0  0.00000000000E+00  0.00000000000E+00  0.14171995368E+04  0.14171995368E+04  0.00000000000E+00 0. -1.
         -2   -1    0    0    0  501 -0.00000000000E+00 -0.00000000000E+00 -0.64470504835E+02  0.64470504835E+02  0.00000000000E+00 0.  1.
          6    1    1    2  502    0  0.14708719077E+03 -0.43075471784E+02  0.11559738331E+04  0.11787067662E+04  0.17200000000E+03 0. -1.
         -6    1    1    2    0  501 -0.14708719077E+03  0.43075471784E+02  0.19675519885E+03  0.30296327538E+03  0.17200000000E+03 0.  1.
</event>
<event>
 4    1  0.3191769E-002  0.2111190E+03  0.7818608E-02  0.1140683E+00
         -1   -1    0    0    0  501 -0.00000000000E+00  0.00000000000E+00  0.38144879754E+02  0.38144879754E+02  0.00000000000E+00 0.  1.
          1   -1    0    0  502    0  0.00000000000E+00 -0.00000000000E+00 -0.13243904699E+04  0.13243904699E+04  0.00000000000E+00 0. -1.
          6    1    1    2  502    0  0.11857849564E+03  0.30436062474E+02 -0.87687672517E+03  0.90193348129E+03  0.17200000000E+03 0. -1.
         -6    1    1    2    0  501 -0.11857849564E+03 -0.30436062474E+02 -0.40936886496E+03  0.46060186835E+03  0.17200000000E+03 0.  1.
</event>
<event>
 4    1  0.3191769E-002  0.4510231E+03  0.7818608E-02  0.1027417E+00
         -1   -1    0    0    0  501 -0.00000000000E+00  0.00000000000E+00  0.52575874483E+03  0.52575874483E+03  0.00000000000E+00 0.  1.
          1   -1    0    0  502    0  0.00000000000E+00 -0.00000000000E+00 -0.14283061399E+04  0.14283061399E+04  0.00000000000E+00 0. -1.
          6    1    1    2  502    0  0.18679316036E+03  0.37275479088E+03 -0.12855427152E+04  0.13623662839E+04  0.17200000000E+03 0. -1.
         -6    1    1    2    0  501 -0.18679316036E+03 -0.37275479088E+03  0.38299532019E+03  0.59169860078E+03  0.17200000000E+03 0.  1.
</event>
<event>
 4    1  0.3191769E-002  0.1897974E+03  0.7818608E-02  0.1158644E+00
         -2   -1    0    0    0  501 -0.00000000000E+00  0.00000000000E+00  0.71294903187E+02  0.71294903187E+02  0.00000000000E+00 0.  1.
          2   -1    0    0  502    0  0.00000000000E+00 -0.00000000000E+00 -0.77908267765E+03  0.77908267765E+03  0.00000000000E+00 0. -1.
          6    1    1    2  502    0  0.78099313464E+02  0.18427311329E+02 -0.60596205260E+03  0.63499061234E+03  0.17200000000E+03 0. -1.
         -6    1    1    2    0  501 -0.78099313464E+02 -0.18427311329E+02 -0.10182572186E+03  0.21538696850E+03  0.17200000000E+03 0.  1.
</event>
<event>
 4    1  0.3191769E-002  0.2366087E+03  0.7818608E-02  0.1122073E+00
          1   -1    0    0  502    0  0.00000000000E+00  0.00000000000E+00  0.77041781231E+03  0.77041781231E+03  0.00000000000E+00 0. -1.
         -1   -1    0    0    0  501 -0.00000000000E+00 -0.00000000000E+00 -0.72673625663E+02  0.72673625663E+02  0.00000000000E+00 0.  1.
          6    1    1    2  502    0  0.31585115484E+02  0.15938022262E+03  0.35300463284E+03  0.42496581708E+03  0.17200000000E+03 0. -1.
         -6    1    1    2    0  501 -0.31585115484E+02 -0.15938022262E+03  0.34473955380E+03  0.41812562089E+03  0.17200000000E+03 0.  1.
</event>
<event>
 4    1  0.3191769E-002  0.2117511E+03  0.7818608E-02  0.1140187E+00
         -2   -1    0    0    0  501 -0.00000000000E+00  0.00000000000E+00  0.48909743923E+02  0.48909743923E+02  0.00000000000E+00 0.  1.
          2   -1    0    0  502    0  0.00000000000E+00 -0.00000000000E+00 -0.17202335361E+04  0.17202335361E+04  0.00000000000E+00 0. -1.
          6    1    1    2  502    0 -0.11576947578E+03 -0.43034334554E+02 -0.14402017500E+04  0.14556852703E+04  0.17200000000E+03 0. -1.
         -6    1    1    2    0  501  0.11576947578E+03  0.43034334554E+02 -0.23112204214E+03  0.31345800968E+03  0.17200000000E+03 0.  1.
</event>
<event>
 4    1  0.3191769E-002  0.3219941E+03  0.7818608E-02  0.1074735E+00
          1   -1    0    0  502    0  0.00000000000E+00  0.00000000000E+00  0.11036395384E+04  0.11036395384E+04  0.00000000000E+00 0. -1.
         -1   -1    0    0    0  501 -0.00000000000E+00 -0.00000000000E+00 -0.95222030137E+02  0.95222030137E+02  0.00000000000E+00 0.  1.
          6    1    1    2  502    0 -0.22305354904E+03  0.15602351777E+03  0.43476158185E+03  0.54101557915E+03  0.17200000000E+03 0. -1.
         -6    1    1    2    0  501  0.22305354904E+03 -0.15602351777E+03  0.57365592642E+03  0.65784598939E+03  0.17200000000E+03 0.  1.
</event>
<event>
 4    1  0.3191769E-002  0.1734408E+03  0.7818608E-02  0.1174306E+00
         -1   -1    0    0    0  501 -0.00000000000E+00  0.00000000000E+00  0.57266118147E+02  0.57266118147E+02  0.00000000000E+00 0.  1.
          1   -1    0    0  502    0  0.00000000000E+00 -0.00000000000E+00 -0.57125929004E+03  0.57125929004E+03  0.00000000000E+00 0. -1.
          6    1    1    2  502    0  0.22303918830E+02 -0.48452821904E+00 -0.16785533465E+03  0.24136510297E+03  0.17200000000E+03 0.  1.
         -6    1    1    2    0  501 -0.22303918830E+02  0.48452821904E+00 -0.34613783724E+03  0.38716030522E+03  0.17200000000E+03 0. -1.
</event>
<event>
 4    1  0.3191769E-002  0.2263142E+03  0.7818608E-02  0.1129261E+00
         -4   -1    0    0    0  501 -0.00000000000E+00  0.00000000000E+00  0.63904684003E+02  0.63904684003E+02  0.00000000000E+00 0.  1.
          4   -1    0    0  502    0  0.00000000000E+00 -0.00000000000E+00 -0.12050429220E+04  0.12050429220E+04  0.00000000000E+00 0. -1.
          6    1    1    2  502    0 -0.11968644745E+03  0.85494206532E+02 -0.93774143379E+03  0.96466424299E+03  0.17200000000E+03 0. -1.
         -6    1    1    2    0  501  0.11968644745E+03 -0.85494206532E+02 -0.20339680425E+03  0.30428336305E+03  0.17200000000E+03 0.  1.
</event>
<event>
 4    1  0.3191769E-002  0.2197789E+03  0.7818608E-02  0.1134048E+00
         -2   -1    0    0    0  501 -0.00000000000E+00  0.00000000000E+00  0.12378053250E+03  0.12378053250E+03  0.00000000000E+00 0.  1.
          2   -1    0    0  502    0  0.00000000000E+00 -0.00000000000E+00 -0.39432966437E+03  0.39432966437E+03  0.00000000000E+00 0. -1.
          6    1    1    2  502    0 -0.13651922649E+03  0.90142217876E+01 -0.10885725033E+03  0.24526038479E+03  0.17200000000E+03 0.  1.
         -6    1    1    2    0  501  0.13651922649E+03 -0.90142217876E+01 -0.16169188154E+03  0.27284981208E+03  0.17200000000E+03 0. -1.
</event>
<event>
 4    1  0.3191769E-002  0.1897499E+03  0.7818608E-02  0.1158687E+00
          1   -1    0    0  502    0  0.00000000000E+00  0.00000000000E+00  0.18867102611E+03  0.18867102611E+03  0.00000000000E+00 0. -1.
         -1   -1    0    0    0  501 -0.00000000000E+00 -0.00000000000E+00 -0.19270619683E+03  0.19270619683E+03  0.00000000000E+00 0.  1.
          6    1    1    2  502    0 -0.10383342819E+02  0.79455673095E+02  0.16773306763E+02  0.19048979399E+03  0.17200000000E+03 0. -1.
         -6    1    1    2    0  501  0.10383342819E+02 -0.79455673095E+02 -0.20808477488E+02  0.19088742895E+03  0.17200000000E+03 0.  1.
</event>
<event>
 4    1  0.3191769E-002  0.3003919E+03  0.7818608E-02  0.1085045E+00
          1   -1    0    0  502    0  0.00000000000E+00  0.00000000000E+00  0.63897181794E+03  0.63897181794E+03  0.00000000000E+00 0. -1.
         -1   -1    0    0    0  501 -0.00000000000E+00 -0.00000000000E+00 -0.17410423625E+03  0.17410423625E+03  0.00000000000E+00 0.  1.
          6    1    1    2  502    0 -0.66604267657E+02  0.23709738498E+03  0.40911627779E+03  0.50755435885E+03  0.17200000000E+03 0. -1.
         -6    1    1    2    0  501  0.66604267657E+02 -0.23709738498E+03  0.55751303901E+02  0.30552169533E+03  0.17200000000E+03 0.  1.
</event>
<event>
 4    1  0.3191769E-002  0.2046153E+03  0.7818608E-02  0.1145902E+00
         -2   -1    0    0    0  501 -0.00000000000E+00  0.00000000000E+00  0.25131516390E+03  0.25131516390E+03  0.00000000000E+00 0.  1.
          2   -1    0    0  502    0  0.00000000000E+00 -0.00000000000E+00 -0.16878726074E+03  0.16878726074E+03  0.00000000000E+00 0. -1.
          6    1    1    2  502    0  0.88231998646E+02 -0.67071075346E+02  0.65212149703E+02  0.21475576640E+03  0.17200000000E+03 0. -1.
         -6    1    1    2    0  501 -0.88231998646E+02  0.67071075346E+02  0.17315753451E+02  0.20534665824E+03  0.17200000000E+03 0.  1.
</event>
<event>
 4    1  0.3191769E-002  0.1851283E+03  0.7818608E-02  0.1162930E+00
          2   -1    0    0  502    0  0.00000000000E+00  0.00000000000E+00  0.16417755546E+04  0.16417755546E+04  0.00000000000E+00 0. -1.
         -2   -1    0    0    0  501 -0.00000000000E+00 -0.00000000000E+00 -0.22710652941E+02  0.22710652941E+02  0.00000000000E+00 0.  1.
          6    1    1    2  502    0 -0.47120732720E+02  0.49680383571E+02  0.57294100961E+03  0.60210788440E+03  0.17200000000E+03 0.  1.
         -6    1    1    2    0  501  0.47120732720E+02 -0.49680383571E+02  0.10461238920E+04  0.10623783231E+04  0.17200000000E+03 0.  1.
</event>
<event>
 4    1  0.3191769E-002  0.2755052E+03  0.7818608E-02  0.1098170E+00
         -2   -1    0    0    0  501 -0.00000000000E+00  0.00000000000E+00  0.36273661610E+03  0.36273661610E+03  0.00000000000E+00 0.  1.
          2   -1    0    0  502    0  0.00000000000E+00 -0.00000000000E+00 -0.21529310399E+03  0.21529310399E+03  0.00000000000E+00 0. -1.
          6    1    1    2  502    0  0.87317229405E+02  0.19670997902E+03  0.25305874618E+02  0.27666496288E+03  0.17200000000E+03 0. -1.
         -6    1    1    2    0  501 -0.87317229405E+02 -0.19670997902E+03  0.12213763748E+03  0.30136475721E+03  0.17200000000E+03 0. -1.
</event>
<event>
 4    1  0.3191769E-002  0.1745881E+03  0.7818608E-02  0.1173146E+00
          2   -1    0    0  502    0  0.00000000000E+00  0.00000000000E+00  0.13599553196E+04  0.13599553196E+04  0.00000000000E+00 0. -1.
         -2   -1    0    0    0  501 -0.00000000000E+00 -0.00000000000E+00 -0.24908483318E+02  0.24908483318E+02  0.00000000000E+00 0.  1.
          6    1    1    2  502    0  0.28344599623E+02  0.96739681503E+01  0.88668280035E+03  0.90370758015E+03  0.17200000000E+03 0. -1.
         -6    1    1    2    0  501 -0.28344599623E+02 -0.96739681503E+01  0.44836403591E+03  0.48115622274E+03  0.17200000000E+03 0.  1.
</event>
<event>
 4    1  0.3191769E-002  0.1802123E+03  0.7818608E-02  0.1167598E+00
          2   -1    0    0  502    0  0.00000000000E+00  0.00000000000E+00  0.23659652839E+04  0.23659652839E+04  0.00000000000E+00 0. -1.
         -2   -1    0    0    0  501 -0.00000000000E+00 -0.00000000000E+00 -0.18297080629E+02  0.18297080629E+02  0.00000000000E+00 0.  1.
          6    1    1    2  502    0 -0.51015864168E+02  0.17025368623E+02  0.17696576278E+04  0.17788098834E+04  0.17200000000E+03 0. -1.
         -6    1    1    2    0  501  0.51015864168E+02 -0.17025368623E+02  0.57801057546E+03  0.60545248114E+03  0.17200000000E+03 0.  1.
</event>
<event>
 4    1  0.3191769E-002  0.3982332E+03  0.7818608E-02  0.1044393E+00
         -2   -1    0    0    0  501 -0.00000000000E+00  0.00000000000E+00  0.28424580290E+03  0.28424580290E+03  0.00000000000E+00 0.  1.
          2   -1    0    0  502    0  0.00000000000E+00 -0.00000000000E+00 -0.55793394976E+03  0.55793394976E+03  0.00000000000E+00 0. -1.
          6    1    1    2  502    0 -0.21349931890E+03 -0.28883159044E+03 -0.13593649388E+03  0.42079493482E+03  0.17200000000E+03 0. -1.
         -6    1    1    2    0  501  0.21349931890E+03  0.28883159044E+03 -0.13775165298E+03  0.42138481784E+03  0.17200000000E+03 0.  1.
</event>
<event>
 4    1  0.3191769E-002  0.2362854E+03  0.7818608E-02  0.1122292E+00
          1   -1    0    0  502    0  0.00000000000E+00  0.00000000000E+00  0.34487533948E+03  0.34487533948E+03  0.00000000000E+00 0. -1.
         -1   -1    0    0    0  501 -0.00000000000E+00 -0.00000000000E+00 -0.23950302718E+03  0.23950302718E+03  0.00000000000E+00 0.  1.
          6    1    1    2  502    0 -0.42246565478E+02 -0.15640335821E+03  0.21902158113E+03  0.32218199167E+03  0.17200000000E+03 0. -1.
         -6    1    1    2    0  501  0.42246565478E+02  0.15640335821E+03 -0.11364926884E+03  0.26219637499E+03  0.17200000000E+03 0.  1.
</event>
<event>
 4    1  0.3191769E-002  0.3691380E+03  0.7818608E-02  0.1055023E+00
          2   -1    0    0  502    0  0.00000000000E+00  0.00000000000E+00  0.33934387972E+03  0.33934387972E+03  0.00000000000E+00 0. -1.
         -2   -1    0    0    0  501 -0.00000000000E+00 -0.00000000000E+00 -0.11586118372E+04  0.11586118372E+04  0.00000000000E+00 0.  1.
          6    1    1    2  502    0 -0.18479671639E+03  0.26931222260E+03  0.19579919346E+03  0.41785191610E+03  0.17200000000E+03 0. -1.
         -6    1    1    2    0  501  0.18479671639E+03 -0.26931222260E+03 -0.10150671509E+04  0.10801038008E+04  0.17200000000E+03 0.  1.
</event>
<event>
 4    1  0.3191769E-002  0.1884479E+03  0.7818608E-02  0.1159869E+00
         -2   -1    0    0    0  501 -0.00000000000E+00  0.00000000000E+00  0.12829551257E+03  0.12829551257E+03  0.00000000000E+00 0.  1.
          2   -1    0    0  502    0  0.00000000000E+00 -0.00000000000E+00 -0.82935881833E+03  0.82935881833E+03  0.00000000000E+00 0. -1.
          6    1    1    2  502    0  0.28759782366E+02 -0.71424721532E+02 -0.74136852108E+03  0.76494437705E+03  0.17200000000E+03 0. -1.
         -6    1    1    2    0  501 -0.28759782366E+02  0.71424721532E+02  0.40305215328E+02  0.19270995384E+03  0.17200000000E+03 0.  1.
</event>
<event>
 4    1  0.3191769E-002  0.3513091E+03  0.7818608E-02  0.1062079E+00
         -1   -1    0    0    0  501 -0.00000000000E+00  0.00000000000E+00  0.11312560483E+03  0.11312560483E+03  0.00000000000E+00 0.  1.
          1   -1    0    0  502    0  0.00000000000E+00 -0.00000000000E+00 -0.11804859307E+04  0.11804859307E+04  0.00000000000E+00 0. -1.
          6    1    1    2  502    0 -0.30489266970E+03  0.29573053071E+02 -0.35558085252E+03  0.49985582740E+03  0.17200000000E+03 0.  1.
         -6    1    1    2    0  501  0.30489266970E+03 -0.29573053071E+02 -0.71177947337E+03  0.79375570814E+03  0.17200000000E+03 0.  1.
</event>
<event>
 4    1  0.3191769E-002  0.1856885E+03  0.7818608E-02  0.1162409E+00
         -3   -1    0    0    0  501 -0.00000000000E+00  0.00000000000E+00  0.54893783859E+03  0.54893783859E+03  0.00000000000E+00 0.  1.
          3   -1    0    0  502    0  0.00000000000E+00 -0.00000000000E+00 -0.63258974936E+02  0.63258974936E+02  0.00000000000E+00 0. -1.
          6    1    1    2  502    0  0.53319125964E+02 -0.45313148809E+02  0.26855237985E+03  0.32649745997E+03  0.17200000000E+03 0.  1.
         -6    1    1    2    0  501 -0.53319125964E+02  0.45313148809E+02  0.21712648380E+03  0.28569935355E+03  0.17200000000E+03 0.  1.
</event>
<event>
 4    1  0.3191769E-002  0.2052028E+03  0.7818608E-02  0.1145422E+00
         -2   -1    0    0    0  501 -0.00000000000E+00  0.00000000000E+00  0.11543720491E+03  0.11543720491E+03  0.00000000000E+00 0.  1.
          2   -1    0    0  502    0  0.00000000000E+00 -0.00000000000E+00 -0.56779837756E+03  0.56779837756E+03  0.00000000000E+00 0. -1.
          6    1    1    2  502    0 -0.81352993817E+02 -0.76849664730E+02 -0.43045801221E+03  0.47686715220E+03  0.17200000000E+03 0. -1.
         -6    1    1    2    0  501  0.81352993817E+02  0.76849664730E+02 -0.21903160440E+02  0.20636843026E+03  0.17200000000E+03 0.  1.
</event>
<event>
 4    1  0.3191769E-002  0.1874583E+03  0.7818608E-02  0.1160774E+00
         -2   -1    0    0    0  501 -0.00000000000E+00  0.00000000000E+00  0.50170425969E+02  0.50170425969E+02  0.00000000000E+00 0.  1.
          2   -1    0    0  502    0  0.00000000000E+00 -0.00000000000E+00 -0.78694266404E+03  0.78694266404E+03  0.00000000000E+00 0. -1.
          6    1    1    2  502    0  0.51216914767E+02  0.54161194394E+02 -0.22960331807E+03  0.29640899278E+03  0.17200000000E+03 0.  1.
         -6    1    1    2    0  501 -0.51216914767E+02 -0.54161194394E+02 -0.50716892001E+03  0.54070409723E+03  0.17200000000E+03 0. -1.
</event>
<event>
 4    1  0.3191769E-002  0.4249000E+03  0.7818608E-02  0.1035483E+00
          1   -1    0    0  502    0  0.00000000000E+00  0.00000000000E+00  0.12024749055E+04  0.12024749055E+04  0.00000000000E+00 0. -1.
         -1   -1    0    0    0  501 -0.00000000000E+00 -0.00000000000E+00 -0.21107968475E+03  0.21107968475E+03  0.00000000000E+00 0.  1.
          6    1    1    2  502    0  0.20603187127E+03 -0.32940384066E+03  0.87545669260E+03  0.97312098058E+03  0.17200000000E+03 0. -1.
         -6    1    1    2    0  501 -0.20603187127E+03  0.32940384066E+03  0.11593852815E+03  0.44043360968E+03  0.17200000000E+03 0.  1.
</event>
<event>
 4    1  0.3191769E-002  0.3862316E+03  0.7818608E-02  0.1048654E+00
         -2   -1    0    0    0  501 -0.00000000000E+00  0.00000000000E+00  0.92776942824E+03  0.92776942824E+03  0.00000000000E+00 0.  1.
          2   -1    0    0  502    0  0.00000000000E+00 -0.00000000000E+00 -0.34597726094E+03  0.34597726094E+03  0.00000000000E+00 0. -1.
          6    1    1    2  502    0 -0.28014696211E+02  0.34468248619E+03 -0.17505075972E+03  0.42404906316E+03  0.17200000000E+03 0. -1.
         -6    1    1    2    0  501  0.28014696211E+02 -0.34468248619E+03  0.75684292702E+03  0.84969762602E+03  0.17200000000E+03 0.  1.
</event>
<event>
 4    1  0.3191769E-002  0.2092306E+03  0.7818608E-02  0.1142177E+00
          2   -1    0    0  502    0  0.00000000000E+00  0.00000000000E+00  0.75110412560E+03  0.75110412560E+03  0.00000000000E+00 0. -1.
         -2   -1    0    0    0  501 -0.00000000000E+00 -0.00000000000E+00 -0.77896278949E+02  0.77896278949E+02  0.00000000000E+00 0.  1.
          6    1    1    2  502    0  0.11273582390E+03 -0.38523644006E+02  0.54458756546E+03  0.58339785189E+03  0.17200000000E+03 0. -1.
         -6    1    1    2    0  501 -0.11273582390E+03  0.38523644006E+02  0.12862028119E+03  0.24560255265E+03  0.17200000000E+03 0.  1.
</event>
<event>
 4    1  0.3191769E-002  0.2102950E+03  0.7818608E-02  0.1141333E+00
         -3   -1    0    0    0  501 -0.00000000000E+00  0.00000000000E+00  0.53290234294E+02  0.53290234294E+02  0.00000000000E+00 0.  1.
          3   -1    0    0  502    0  0.00000000000E+00 -0.00000000000E+00 -0.21637748968E+04  0.21637748968E+04  0.00000000000E+00 0. -1.
          6    1    1    2  502    0  0.97941848617E+02  0.71044834182E+02 -0.19256141638E+04  0.19370632106E+04  0.17200000000E+03 0.  1.
         -6    1    1    2    0  501 -0.97941848617E+02 -0.71044834182E+02 -0.18487049874E+03  0.28000192049E+03  0.17200000000E+03 0.  1.
</event>
<event>
 4    1  0.3191769E-002  0.6812126E+03  0.7818608E-02  0.9749912E-01
          1   -1    0    0  502    0  0.00000000000E+00  0.00000000000E+00  0.96176500647E+03  0.96176500647E+03  0.00000000000E+00 0. -1.
         -1   -1    0    0    0  501 -0.00000000000E+00 -0.00000000000E+00 -0.53442106733E+03  0.53442106733E+03  0.00000000000E+00 0.  1.
          6    1    1    2  502    0  0.45470456267E+03 -0.47719013004E+03 -0.19507221216E+02  0.68149188638E+03  0.17200000000E+03 0. -1.
         -6    1    1    2    0  501 -0.45470456267E+03  0.47719013004E+03  0.44685116035E+03  0.81469418742E+03  0.17200000000E+03 0.  1.
</event>
<event>
 4    1  0.3191769E-002  0.2397097E+03  0.7818608E-02  0.1119986E+00
          1   -1    0    0  502    0  0.00000000000E+00  0.00000000000E+00  0.61544113752E+03  0.61544113752E+03  0.00000000000E+00 0. -1.
         -1   -1    0    0    0  501 -0.00000000000E+00 -0.00000000000E+00 -0.10907374797E+03  0.10907374797E+03  0.00000000000E+00 0.  1.
          6    1    1    2  502    0  0.10282699511E+03  0.13154213430E+03  0.39065959977E+03  0.45834009961E+03  0.17200000000E+03 0. -1.
         -6    1    1    2    0  501 -0.10282699511E+03 -0.13154213430E+03  0.11570778978E+03  0.26617478588E+03  0.17200000000E+03 0.  1.
</event>
<event>
 4    1  0.3191769E-002  0.2786411E+03  0.7818608E-02  0.1096433E+00
          2   -1    0    0  502    0  0.00000000000E+00  0.00000000000E+00  0.92542823688E+03  0.92542823688E+03  0.00000000000E+00 0. -1.
         -2   -1    0    0    0  501 -0.00000000000E+00 -0.00000000000E+00 -0.83904250635E+02  0.83904250635E+02  0.00000000000E+00 0.  1.
          6    1    1    2  502    0 -0.20814064331E+03  0.68806650452E+02  0.41615163521E+03  0.50082238971E+03  0.17200000000E+03 0. -1.
         -6    1    1    2    0  501  0.20814064331E+03 -0.68806650452E+02  0.42537235103E+03  0.50851009780E+03  0.17200000000E+03 0. -1.
</event>
<event>
 4    1  0.3191769E-002  0.1897336E+03  0.7818608E-02  0.1158702E+00
          1   -1    0    0  502    0  0.00000000000E+00  0.00000000000E+00  0.19259630202E+03  0.19259630202E+03  0.00000000000E+00 0. -1.
         -1   -1    0    0    0  501 -0.00000000000E+00 -0.00000000000E+00 -0.29005059608E+03  0.29005059608E+03  0.00000000000E+00 0.  1.
          6    1    1    2  502    0  0.17298035758E+02  0.78202357900E+02  0.95175999378E+02  0.21226705274E+03  0.17200000000E+03 0. -1.
         -6    1    1    2    0  501 -0.17298035758E+02 -0.78202357900E+02 -0.19263029344E+03  0.27037984535E+03  0.17200000000E+03 0.  1.
</event>
<event>
 4    1  0.3191769E-002  0.2562712E+03  0.7818608E-02  0.1109404E+00
          2   -1    0    0  502    0  0.00000000000E+00  0.00000000000E+00  0.21727987713E+04  0.21727987713E+04  0.00000000000E+00 0. -1.
         -2   -1    0    0    0  501 -0.00000000000E+00 -0.00000000000E+00 -0.36810979345E+02  0.36810979345E+02  0.00000000000E+00 0.  1.
          6    1    1    2  502    0  0.90943109633E+01  0.18975829258E+03  0.60071559328E+03  0.65309581235E+03  0.17200000000E+03 0. -1.
         -6    1    1    2    0  501 -0.90943109633E+01 -0.18975829258E+03  0.15352721987E+04  0.15565139383E+04  0.17200000000E+03 0.  1.
</event>
<event>
 4    1  0.3191769E-002  0.2175423E+03  0.7818608E-02  0.1135729E+00
         -3   -1    0    0    0  501 -0.00000000000E+00  0.00000000000E+00  0.80262036319E+02  0.80262036319E+02  0.00000000000E+00 0.  1.
          3   -1    0    0  502    0  0.00000000000E+00 -0.00000000000E+00 -0.14571184192E+04  0.14571184192E+04  0.00000000000E+00 0. -1.
          6    1    1    2  502    0  0.22348635164E+02  0.13130577246E+03 -0.12815399284E+04  0.12998727844E+04  0.17200000000E+03 0. -1.
         -6    1    1    2    0  501 -0.22348635164E+02 -0.13130577246E+03 -0.95316454474E+02  0.23750767118E+03  0.17200000000E+03 0.  1.
</event>
<event>
 4    1  0.3191769E-002  0.1746339E+03  0.7818608E-02  0.1173100E+00
          2   -1    0    0  502    0  0.00000000000E+00  0.00000000000E+00  0.35902728026E+04  0.35902728026E+04  0.00000000000E+00 0. -1.
         -2   -1    0    0    0  501 -0.00000000000E+00 -0.00000000000E+00 -0.13643319023E+02  0.13643319023E+02  0.00000000000E+00 0.  1.
          6    1    1    2  502    0  0.30076779843E+02 -0.28947461074E+01  0.28953087983E+04  0.29005706387E+04  0.17200000000E+03 0. -1.
         -6    1    1    2    0  501 -0.30076779843E+02  0.28947461074E+01  0.68132068525E+03  0.70334548296E+03  0.17200000000E+03 0.  1.
</event>
<event>
 4    1  0.3191769E-002  0.2367644E+03  0.7818608E-02  0.1121967E+00
         -1   -1    0    0    0  501 -0.00000000000E+00  0.00000000000E+00  0.53992890783E+02  0.53992890783E+02  0.00000000000E+00 0.  1.
          1   -1    0    0  502    0  0.00000000000E+00 -0.00000000000E+00 -0.11000845056E+04  0.11000845056E+04  0.00000000000E+00 0. -1.
          6    1    1    2  502    0  0.10621677581E+03  0.12325327670E+03 -0.65986777240E+03  0.70105837898E+03  0.17200000000E+03 0. -1.
         -6    1    1    2    0  501 -0.10621677581E+03 -0.12325327670E+03 -0.38622384242E+03  0.45301901741E+03  0.17200000000E+03 0.  1.
</event>
<event>
 4    1  0.3191769E-002  0.7410046E+03  0.7818608E-02  0.9649569E-01
          2   -1    0    0  502    0  0.00000000000E+00  0.00000000000E+00  0.20481963875E+04  0.20481963875E+04  0.00000000000E+00 0. -1.
         -2   -1    0    0    0  501 -0.00000000000E+00 -0.00000000000E+00 -0.27391688342E+03  0.27391688342E+03  0.00000000000E+00 0.  1.
          6    1    1    2  502    0 -0.61893144835E+03 -0.36936123786E+03  0.71770576533E+03  0.10315955736E+04  0.17200000000E+03 0. -1.
         -6    1    1    2    0  501  0.61893144835E+03  0.36936123786E+03  0.10565737387E+04  0.12905176973E+04  0.17200000000E+03 0.  1.
</event>
<event>
 4    1  0.3191769E-002  0.1986249E+03  0.7818608E-02  0.1150904E+00
          1   -1    0    0  502    0  0.00000000000E+00  0.00000000000E+00  0.43901630715E+03  0.43901630715E+03  0.00000000000E+00 0. -1.
         -1   -1    0    0    0  501 -0.00000000000E+00 -0.00000000000E+00 -0.23824924847E+03  0.23824924847E+03  0.00000000000E+00 0.  1.
          6    1    1    2  502    0  0.60702365712E+02  0.78632529195E+02  0.36762772791E+03  0.41785403932E+03  0.17200000000E+03 0. -1.
         -6    1    1    2    0  501 -0.60702365712E+02 -0.78632529195E+02 -0.16686066924E+03  0.25941151630E+03  0.17200000000E+03 0.  1.
</event>
<event>
 4    1  0.3191769E-002  0.1832379E+03  0.7818608E-02  0.1164706E+00
          2   -1    0    0  502    0  0.00000000000E+00  0.00000000000E+00  0.14738834468E+04  0.14738834468E+04  0.00000000000E+00 0. -1.
         -2   -1    0    0    0  501 -0.00000000000E+00 -0.00000000000E+00 -0.23736262993E+02  0.23736262993E+02  0.00000000000E+00 0.  1.
          6    1    1    2  502    0 -0.57841050077E+02  0.25427140669E+02  0.87531527036E+03  0.89428907467E+03  0.17200000000E+03 0. -1.
         -6    1    1    2    0  501  0.57841050077E+02 -0.25427140669E+02  0.57483191348E+03  0.60333063515E+03  0.17200000000E+03 0.  1.
</event>
<event>
 4    1  0.3191769E-002  0.2088468E+03  0.7818608E-02  0.1142482E+00
          3   -1    0    0  502    0  0.00000000000E+00  0.00000000000E+00  0.31707124944E+03  0.31707124944E+03  0.00000000000E+00 0. -1.
         -3   -1    0    0    0  501 -0.00000000000E+00 -0.00000000000E+00 -0.16135825835E+03  0.16135825835E+03  0.00000000000E+00 0.  1.
          6    1    1    2  502    0 -0.10687793586E+03 -0.51088882973E+02 -0.14007717205E+02  0.20931598906E+03  0.17200000000E+03 0. -1.
         -6    1    1    2    0  501  0.10687793586E+03  0.51088882973E+02  0.16972070829E+03  0.26911351872E+03  0.17200000000E+03 0. -1.
</event>
<event>
 4    1  0.3191769E-002  0.2585287E+03  0.7818608E-02  0.1108030E+00
          2   -1    0    0  502    0  0.00000000000E+00  0.00000000000E+00  0.35738514155E+04  0.35738514155E+04  0.00000000000E+00 0. -1.
         -2   -1    0    0    0  501 -0.00000000000E+00 -0.00000000000E+00 -0.18702648742E+02  0.18702648742E+02  0.00000000000E+00 0.  1.
          6    1    1    2  502    0 -0.56612729882E+02 -0.18452129312E+03  0.17648029396E+04  0.17836385633E+04  0.17200000000E+03 0. -1.
         -6    1    1    2    0  501  0.56612729882E+02  0.18452129312E+03  0.17903458272E+04  0.18089155010E+04  0.17200000000E+03 0.  1.
</event>
<event>
 4    1  0.3191769E-002  0.2284921E+03  0.7818608E-02  0.1127706E+00
          2   -1    0    0  502    0  0.00000000000E+00  0.00000000000E+00  0.97539431739E+03  0.97539431739E+03  0.00000000000E+00 0. -1.
         -2   -1    0    0    0  501 -0.00000000000E+00 -0.00000000000E+00 -0.79814592505E+02  0.79814592505E+02  0.00000000000E+00 0.  1.
          6    1    1    2  502    0 -0.14489111240E+03 -0.40388394515E+02  0.75058821367E+03  0.78459628050E+03  0.17200000000E+03 0. -1.
         -6    1    1    2    0  501  0.14489111240E+03  0.40388394515E+02  0.14499151121E+03  0.27061262939E+03  0.17200000000E+03 0.  1.
</event>
<event>
 4    1  0.3191769E-002  0.4996151E+03  0.7818608E-02  0.1013879E+00
         -2   -1    0    0    0  501 -0.00000000000E+00  0.00000000000E+00  0.36744989334E+03  0.36744989334E+03  0.00000000000E+00 0.  1.
          2   -1    0    0  502    0  0.00000000000E+00 -0.00000000000E+00 -0.13748487409E+04  0.13748487409E+04  0.00000000000E+00 0. -1.
          6    1    1    2  502    0  0.33260474639E+03  0.33076479262E+03 -0.11233164703E+04  0.12294125255E+04  0.17200000000E+03 0. -1.
         -6    1    1    2    0  501 -0.33260474639E+03 -0.33076479262E+03  0.11591762268E+03  0.51288610881E+03  0.17200000000E+03 0.  1.
</event>
<event>
 4    1  0.3191769E-002  0.5164544E+03  0.7818608E-02  0.1009571E+00
          2   -1    0    0  502    0  0.00000000000E+00  0.00000000000E+00  0.60616386523E+03  0.60616386523E+03  0.00000000000E+00 0. -1.
         -2   -1    0    0    0  501 -0.00000000000E+00 -0.00000000000E+00 -0.45572739072E+03  0.45572739072E+03  0.00000000000E+00 0.  1.
          6    1    1    2  502    0 -0.44648514992E+03  0.19440196069E+03  0.17378472151E+03  0.54490938774E+03  0.17200000000E+03 0. -1.
         -6    1    1    2    0  501  0.44648514992E+03 -0.19440196069E+03 -0.23348247003E+02  0.51698186821E+03  0.17200000000E+03 0.  1.
</event>
<event>
 4    1  0.3191769E-002  0.6449297E+03  0.7818608E-02  0.9816340E-01
          2   -1    0    0  502    0  0.00000000000E+00  0.00000000000E+00  0.65711228756E+03  0.65711228756E+03  0.00000000000E+00 0. -1.
         -2   -1    0    0    0  501 -0.00000000000E+00 -0.00000000000E+00 -0.66590764477E+03  0.66590764477E+03  0.00000000000E+00 0.  1.
          6    1    1    2  502    0 -0.34913152530E+03 -0.51425426822E+03 -0.15151252464E+03  0.66248797684E+03  0.17200000000E+03 0. -1.
         -6    1    1    2    0  501  0.34913152530E+03  0.51425426822E+03  0.14271716744E+03  0.66053195549E+03  0.17200000000E+03 0. -1.
</event>
<event>
 4    1  0.3191769E-002  0.1972861E+03  0.7818608E-02  0.1152049E+00
          2   -1    0    0  502    0  0.00000000000E+00  0.00000000000E+00  0.78714394067E+03  0.78714394067E+03  0.00000000000E+00 0. -1.
         -2   -1    0    0    0  501 -0.00000000000E+00 -0.00000000000E+00 -0.49842837774E+02  0.49842837774E+02  0.00000000000E+00 0.  1.
          6    1    1    2  502    0 -0.57680756852E+02  0.77529059325E+02  0.33135107303E+03  0.38563630320E+03  0.17200000000E+03 0. -1.
         -6    1    1    2    0  501  0.57680756852E+02 -0.77529059325E+02  0.40595002986E+03  0.45135047524E+03  0.17200000000E+03 0. -1.
</event>
<event>
 4    1  0.3191769E-002  0.1852450E+03  0.7818608E-02  0.1162821E+00
         -2   -1    0    0    0  501 -0.00000000000E+00  0.00000000000E+00  0.24945719339E+02  0.24945719339E+02  0.00000000000E+00 0.  1.
          2   -1    0    0  502    0  0.00000000000E+00 -0.00000000000E+00 -0.17263541651E+04  0.17263541651E+04  0.00000000000E+00 0. -1.
          6    1    1    2  502    0 -0.30398971876E+02  0.61705758198E+02 -0.12453958342E+04  0.12590974870E+04  0.17200000000E+03 0. -1.
         -6    1    1    2    0  501  0.30398971876E+02 -0.61705758198E+02 -0.45601261165E+03  0.49220239746E+03  0.17200000000E+03 0.  1.
</event>
<event>
 4    1  0.3191769E-002  0.3256378E+03  0.7818608E-02  0.1073083E+00
         -2   -1    0    0    0  501 -0.00000000000E+00  0.00000000000E+00  0.19781158354E+03  0.19781158354E+03  0.00000000000E+00 0.  1.
          2   -1    0    0  502    0  0.00000000000E+00 -0.00000000000E+00 -0.60178319643E+03  0.60178319643E+03  0.00000000000E+00 0. -1.
          6    1    1    2  502    0 -0.23180604778E+03  0.15073803679E+03 -0.33410335988E+03  0.46654587620E+03  0.17200000000E+03 0. -1.
         -6    1    1    2    0  501  0.23180604778E+03 -0.15073803679E+03 -0.69868253007E+02  0.33304890377E+03  0.17200000000E+03 0.  1.
</event>
<event>
 4    1  0.3191769E-002  0.4273545E+03  0.7818608E-02  0.1034699E+00
         -1   -1    0    0    0  501 -0.00000000000E+00  0.00000000000E+00  0.85288967065E+03  0.85288967065E+03  0.00000000000E+00 0.  1.
          1   -1    0    0  502    0  0.00000000000E+00 -0.00000000000E+00 -0.65554384749E+03  0.65554384749E+03  0.00000000000E+00 0. -1.
          6    1    1    2  502    0 -0.32020657195E+03 -0.22475676207E+03 -0.52022182720E+03  0.67324780008E+03  0.17200000000E+03 0. -1.
         -6    1    1    2    0  501  0.32020657195E+03  0.22475676207E+03  0.71756765035E+03  0.83518571806E+03  0.17200000000E+03 0.  1.
</event>
<event>
 4    1  0.3191769E-002  0.2775076E+03  0.7818608E-02  0.1097058E+00
          2   -1    0    0  502    0  0.00000000000E+00  0.00000000000E+00  0.21930261978E+04  0.21930261978E+04  0.00000000000E+00 0. -1.
         -2   -1    0    0    0  501 -0.00000000000E+00 -0.00000000000E+00 -0.53500077741E+02  0.53500077741E+02  0.00000000000E+00 0.  1.
          6    1    1    2  502    0 -0.13228332272E+02 -0.21737401851E+03  0.17282155506E+04  0.17503540904E+04  0.17200000000E+03 0. -1.
         -6    1    1    2    0  501  0.13228332272E+02  0.21737401851E+03  0.41131056953E+03  0.49617218514E+03  0.17200000000E+03 0.  1.
</event>
<event>
 4    1  0.3191769E-002  0.2347541E+03  0.7818608E-02  0.1123338E+00
         -2   -1    0    0    0  501 -0.00000000000E+00  0.00000000000E+00  0.75182985796E+02  0.75182985796E+02  0.00000000000E+00 0.  1.
          2   -1    0    0  502    0  0.00000000000E+00 -0.00000000000E+00 -0.80025439487E+03  0.80025439487E+03  0.00000000000E+00 0. -1.
          6    1    1    2  502    0  0.15201901092E+03 -0.49149766008E+02 -0.48942539419E+03  0.54281368411E+03  0.17200000000E+03 0. -1.
         -6    1    1    2    0  501 -0.15201901092E+03  0.49149766008E+02 -0.23564601489E+03  0.33262369656E+03  0.17200000000E+03 0.  1.
</event>
<event>
 4    1  0.3191769E-002  0.1027875E+04  0.7818608E-02  0.9278489E-01
          2   -1    0    0  502    0  0.00000000000E+00  0.00000000000E+00  0.13718265831E+04  0.13718265831E+04  0.00000000000E+00 0. -1.
         -2   -1    0    0    0  501 -0.00000000000E+00 -0.00000000000E+00 -0.77858045608E+03  0.77858045608E+03  0.00000000000E+00 0.  1.
          6    1    1    2  502    0 -0.10058871319E+04  0.12302173704E+03  0.40843344639E+03  0.11060493434E+04  0.17200000000E+03 0. -1.
         -6    1    1    2    0  501  0.10058871319E+04 -0.12302173704E+03  0.18481268064E+03  0.10443576958E+04  0.17200000000E+03 0.  1.
</event>
<event>
 4    1  0.3191769E-002  0.2356795E+03  0.7818608E-02  0.1122705E+00
         -2   -1    0    0    0  501 -0.00000000000E+00  0.00000000000E+00  0.34164648629E+03  0.34164648629E+03  0.00000000000E+00 0.  1.
          2   -1    0    0  502    0  0.00000000000E+00 -0.00000000000E+00 -0.95454477645E+03  0.95454477645E+03  0.00000000000E+00 0. -1.
          6    1    1    2  502    0 -0.16084071338E+03  0.95454015806E+01 -0.89677785254E+03  0.92722994267E+03  0.17200000000E+03 0. -1.
         -6    1    1    2    0  501  0.16084071338E+03 -0.95454015806E+01  0.28387956238E+03  0.36896132007E+03  0.17200000000E+03 0.  1.
</event>
<event>
 4    1  0.3191769E-002  0.1743344E+03  0.7818608E-02  0.1173402E+00
          1   -1    0    0  502    0  0.00000000000E+00  0.00000000000E+00  0.36671909812E+03  0.36671909812E+03  0.00000000000E+00 0. -1.
         -1   -1    0    0    0  501 -0.00000000000E+00 -0.00000000000E+00 -0.10571566647E+03  0.10571566647E+03  0.00000000000E+00 0.  1.
          6    1    1    2  502    0  0.28432443271E+02 -0.27343643068E+00  0.24029610393E+03  0.29687488301E+03  0.17200000000E+03 0. -1.
         -6    1    1    2    0  501 -0.28432443271E+02  0.27343643068E+00  0.20707327718E+02  0.17555988158E+03  0.17200000000E+03 0.  1.
</event>
<event>
 4    1  0.3191769E-002  0.4855736E+03  0.7818608E-02  0.1017615E+00
          2   -1    0    0  502    0  0.00000000000E+00  0.00000000000E+00  0.18570255326E+04  0.18570255326E+04  0.00000000000E+00 0. -1.
         -2   -1    0    0    0  501 -0.00000000000E+00 -0.00000000000E+00 -0.13561990782E+03  0.13561990782E+03  0.00000000000E+00 0.  1.
          6    1    1    2  502    0  0.40957264596E+03  0.19608161206E+03  0.60904601080E+03  0.77892155842E+03  0.17200000000E+03 0. -1.
         -6    1    1    2    0  501 -0.40957264596E+03 -0.19608161206E+03  0.11123596140E+04  0.12137238820E+04  0.17200000000E+03 0.  1.
</event>
<event>
 4    1  0.3191769E-002  0.3596147E+03  0.7818608E-02  0.1058737E+00
         -1   -1    0    0    0  501 -0.00000000000E+00  0.00000000000E+00  0.71901056791E+03  0.71901056791E+03  0.00000000000E+00 0.  1.
          1   -1    0    0  502    0  0.00000000000E+00 -0.00000000000E+00 -0.17996901060E+03  0.17996901060E+03  0.00000000000E+00 0. -1.
          6    1    1    2  502    0 -0.17099341317E+02  0.31535118335E+03  0.28047585487E+03  0.45605861627E+03  0.17200000000E+03 0. -1.
         -6    1    1    2    0  501  0.17099341317E+02 -0.31535118335E+03  0.25856570243E+03  0.44292096223E+03  0.17200000000E+03 0.  1.
</event>
<event>
 4    1  0.3191769E-002  0.1999360E+03  0.7818608E-02  0.1149793E+00
         -1   -1    0    0    0  501 -0.00000000000E+00  0.00000000000E+00  0.33974095753E+02  0.33974095753E+02  0.00000000000E+00 0.  1.
          1   -1    0    0  502    0  0.00000000000E+00 -0.00000000000E+00 -0.16584250282E+04  0.16584250282E+04  0.00000000000E+00 0. -1.
          6    1    1    2  502    0  0.75436960151E+02 -0.68554055473E+02 -0.12683288408E+04  0.12839908263E+04  0.17200000000E+03 0. -1.
         -6    1    1    2    0  501 -0.75436960151E+02  0.68554055473E+02 -0.35612209167E+03  0.40840829773E+03  0.17200000000E+03 0.  1.
</event>
<event>
 4    1  0.3191769E-002  0.1922931E+03  0.7818608E-02  0.1156409E+00
          2   -1    0    0  502    0  0.00000000000E+00  0.00000000000E+00  0.23089072604E+03  0.23089072604E+03  0.00000000000E+00 0. -1.
         -2   -1    0    0    0  501 -0.00000000000E+00 -0.00000000000E+00 -0.31517322730E+03  0.31517322730E+03  0.00000000000E+00 0.  1.
          6    1    1    2  502    0 -0.40739495266E+02 -0.75716187873E+02  0.14934618686E+03  0.24347675682E+03  0.17200000000E+03 0. -1.
         -6    1    1    2    0  501  0.40739495266E+02  0.75716187873E+02 -0.23362868813E+03  0.30258719652E+03  0.17200000000E+03 0.  1.
</event>
<event>
 4    1  0.3191769E-002  0.3052163E+03  0.7818608E-02  0.1082662E+00
         -2   -1    0    0    0  501 -0.00000000000E+00  0.00000000000E+00  0.73768965268E+02  0.73768965268E+02  0.00000000000E+00 0.  1.
          2   -1    0    0  502    0  0.00000000000E+00 -0.00000000000E+00 -0.16683856855E+04  0.16683856855E+04  0.00000000000E+00 0. -1.
          6    1    1    2  502    0  0.23257193872E+03  0.97382257218E+02 -0.12267839242E+04  0.12641818727E+04  0.17200000000E+03 0. -1.
         -6    1    1    2    0  501 -0.23257193872E+03 -0.97382257218E+02 -0.36783279606E+03  0.47797277805E+03  0.17200000000E+03 0.  1.
</event>
<event>
 4    1  0.3191769E-002  0.1858851E+03  0.7818608E-02  0.1162226E+00
          2   -1    0    0  502    0  0.00000000000E+00  0.00000000000E+00  0.20085746792E+03  0.20085746792E+03  0.00000000000E+00 0. -1.
         -2   -1    0    0    0  501 -0.00000000000E+00 -0.00000000000E+00 -0.17506276713E+03  0.17506276713E+03  0.00000000000E+00 0.  1.
          6    1    1    2  502    0 -0.70479597805E+02  0.13739720657E+01  0.37641753527E+02  0.18965801621E+03  0.17200000000E+03 0.  1.
         -6    1    1    2    0  501  0.70479597805E+02 -0.13739720657E+01 -0.11847052739E+02  0.18626221883E+03  0.17200000000E+03 0. -1.
</event>
<event>
 4    1  0.3191769E-002  0.2706277E+03  0.7818608E-02  0.1100921E+00
          3   -1    0    0  502    0  0.00000000000E+00  0.00000000000E+00  0.28125276579E+03  0.28125276579E+03  0.00000000000E+00 0. -1.
         -3   -1    0    0    0  501 -0.00000000000E+00 -0.00000000000E+00 -0.72709146111E+03  0.72709146111E+03  0.00000000000E+00 0.  1.
          6    1    1    2  502    0 -0.85613980251E+02  0.19059272106E+03  0.18100252852E+03  0.32557833814E+03  0.17200000000E+03 0. -1.
         -6    1    1    2    0  501  0.85613980251E+02 -0.19059272106E+03 -0.62684122385E+03  0.68276588876E+03  0.17200000000E+03 0.  1.
</event>
<event>
 4    1  0.3191769E-002  0.1783708E+03  0.7818608E-02  0.1169389E+00
         -1   -1    0    0    0  501 -0.00000000000E+00  0.00000000000E+00  0.17554880487E+03  0.17554880487E+03  0.00000000000E+00 0.  1.
          1   -1    0    0  502    0  0.00000000000E+00 -0.00000000000E+00 -0.27965033749E+03  0.27965033749E+03  0.00000000000E+00 0. -1.
          6    1    1    2  502    0  0.41333182804E+02  0.22884819263E+02 -0.18706766521E+03  0.25847719110E+03  0.17200000000E+03 0. -1.
         -6    1    1    2    0  501 -0.41333182804E+02 -0.22884819263E+02  0.82966132589E+02  0.19672195127E+03  0.17200000000E+03 0.  1.
</event>
<event>
 4    1  0.3191769E-002  0.1727978E+03  0.7818608E-02  0.1174961E+00
         -2   -1    0    0    0  501 -0.00000000000E+00  0.00000000000E+00  0.10243221173E+02  0.10243221173E+02  0.00000000000E+00 0.  1.
          2   -1    0    0  502    0  0.00000000000E+00 -0.00000000000E+00 -0.29983445164E+04  0.29983445164E+04  0.00000000000E+00 0. -1.
          6    1    1    2  502    0  0.11029710678E+02 -0.12387104237E+02 -0.12432644170E+04  0.12552153224E+04  0.17200000000E+03 0.  1.
         -6    1    1    2    0  501 -0.11029710678E+02  0.12387104237E+02 -0.17448368782E+04  0.17533724152E+04  0.17200000000E+03 0. -1.
</event>
<event>
 4    1  0.3191769E-002  0.2883444E+03  0.7818608E-02  0.1091217E+00
          2   -1    0    0  502    0  0.00000000000E+00  0.00000000000E+00  0.49890925003E+03  0.49890925003E+03  0.00000000000E+00 0. -1.
         -2   -1    0    0    0  501 -0.00000000000E+00 -0.00000000000E+00 -0.16669981898E+03  0.16669981898E+03  0.00000000000E+00 0.  1.
          6    1    1    2  502    0 -0.16684968536E+03  0.16037356775E+03  0.17194166606E+03  0.33571779111E+03  0.17200000000E+03 0.  1.
         -6    1    1    2    0  501  0.16684968536E+03 -0.16037356775E+03  0.16026776499E+03  0.32989127790E+03  0.17200000000E+03 0. -1.
</event>
<event>
 4    1  0.3191769E-002  0.1725972E+03  0.7818608E-02  0.1175166E+00
          2   -1    0    0  502    0  0.00000000000E+00  0.00000000000E+00  0.57347968933E+03  0.57347968933E+03  0.00000000000E+00 0. -1.
         -2   -1    0    0    0  501 -0.00000000000E+00 -0.00000000000E+00 -0.52488002147E+02  0.52488002147E+02  0.00000000000E+00 0.  1.
          6    1    1    2  502    0  0.57671290665E+01 -0.13135261269E+02  0.29230988699E+03  0.33946261193E+03  0.17200000000E+03 0. -1.
         -6    1    1    2    0  501 -0.57671290665E+01  0.13135261269E+02  0.22868180020E+03  0.28650507955E+03  0.17200000000E+03 0.  1.
</event>
<event>
 4    1  0.3191769E-002  0.1843686E+03  0.7818608E-02  0.1163641E+00
         -2   -1    0    0    0  501 -0.00000000000E+00  0.00000000000E+00  0.16074987551E+02  0.16074987551E+02  0.00000000000E+00 0.  1.
          2   -1    0    0  502    0  0.00000000000E+00 -0.00000000000E+00 -0.21262201324E+04  0.21262201324E+04  0.00000000000E+00 0. -1.
          6    1    1    2  502    0  0.38663944248E+02 -0.53971229054E+02 -0.11343383411E+04  0.11492237669E+04  0.17200000000E+03 0. -1.
         -6    1    1    2    0  501 -0.38663944248E+02  0.53971229054E+02 -0.97580680367E+03  0.99307135304E+03  0.17200000000E+03 0.  1.
</event>
<event>
 4    1  0.3191769E-002  0.1750262E+03  0.7818608E-02  0.1172705E+00
          2   -1    0    0  502    0  0.00000000000E+00  0.00000000000E+00  0.50307150193E+03  0.50307150193E+03  0.00000000000E+00 0. -1.
         -2   -1    0    0    0  501 -0.00000000000E+00 -0.00000000000E+00 -0.60916318444E+02  0.60916318444E+02  0.00000000000E+00 0.  1.
          6    1    1    2  502    0  0.32068854523E+02 -0.46649529304E+01  0.21571301482E+03  0.27778818905E+03  0.17200000000E+03 0.  1.
         -6    1    1    2    0  501 -0.32068854523E+02  0.46649529304E+01  0.22644216867E+03  0.28619963132E+03  0.17200000000E+03 0. -1.
</event>
<event>
 4    1  0.3191769E-002  0.3253189E+03  0.7818608E-02  0.1073227E+00
         -2   -1    0    0    0  501 -0.00000000000E+00  0.00000000000E+00  0.99078536835E+02  0.99078536835E+02  0.00000000000E+00 0.  1.
          2   -1    0    0  502    0  0.00000000000E+00 -0.00000000000E+00 -0.12821974933E+04  0.12821974933E+04  0.00000000000E+00 0. -1.
          6    1    1    2  502    0 -0.14642905599E+03 -0.23410883545E+03 -0.30938941986E+03  0.44894791279E+03  0.17200000000E+03 0. -1.
         -6    1    1    2    0  501  0.14642905599E+03  0.23410883545E+03 -0.87372953662E+03  0.93232811737E+03  0.17200000000E+03 0.  1.
</event>
<event>
 4    1  0.3191769E-002  0.1957066E+03  0.7818608E-02  0.1153413E+00
          2   -1    0    0  502    0  0.00000000000E+00  0.00000000000E+00  0.15131854944E+04  0.15131854944E+04  0.00000000000E+00 0. -1.
         -2   -1    0    0    0  501 -0.00000000000E+00 -0.00000000000E+00 -0.29928384359E+02  0.29928384359E+02  0.00000000000E+00 0.  1.
          6    1    1    2  502    0 -0.92736875149E+02 -0.10814858622E+02  0.43858998695E+03  0.48027311587E+03  0.17200000000E+03 0. -1.
         -6    1    1    2    0  501  0.92736875149E+02  0.10814858622E+02  0.10446671231E+04  0.10628407629E+04  0.17200000000E+03 0. -1.
</event>
<event>
 4    1  0.3191769E-002  0.2633974E+03  0.7818608E-02  0.1105119E+00
         -1   -1    0    0    0  501 -0.00000000000E+00  0.00000000000E+00  0.31912846133E+03  0.31912846133E+03  0.00000000000E+00 0.  1.
          1   -1    0    0  502    0  0.00000000000E+00 -0.00000000000E+00 -0.24622656454E+03  0.24622656454E+03  0.00000000000E+00 0. -1.
          6    1    1    2  502    0 -0.76877440620E+02  0.18407614126E+03 -0.60271831450E+02  0.27020521891E+03  0.17200000000E+03 0. -1.
         -6    1    1    2    0  501  0.76877440620E+02 -0.18407614126E+03  0.13317372823E+03  0.29514980696E+03  0.17200000000E+03 0.  1.
</event>
<event>
 4    1  0.3191769E-002  0.1835356E+03  0.7818608E-02  0.1164424E+00
          1   -1    0    0  502    0  0.00000000000E+00  0.00000000000E+00  0.70776566004E+02  0.70776566004E+02  0.00000000000E+00 0. -1.
         -1   -1    0    0    0  501 -0.00000000000E+00 -0.00000000000E+00 -0.59567818792E+03  0.59567818792E+03  0.00000000000E+00 0.  1.
          6    1    1    2  502    0 -0.62978061094E+01  0.63731240042E+02 -0.11305003787E+03  0.21555891162E+03  0.17200000000E+03 0. -1.
         -6    1    1    2    0  501  0.62978061094E+01 -0.63731240042E+02 -0.41185158405E+03  0.45089584230E+03  0.17200000000E+03 0.  1.
</event>
<event>
 4    1  0.3191769E-002  0.1820836E+03  0.7818608E-02  0.1165802E+00
         -1   -1    0    0    0  501 -0.00000000000E+00  0.00000000000E+00  0.54966820905E+02  0.54966820905E+02  0.00000000000E+00 0.  1.
          1   -1    0    0  502    0  0.00000000000E+00 -0.00000000000E+00 -0.66375130729E+03  0.66375130729E+03  0.00000000000E+00 0. -1.
          6    1    1    2  502    0  0.38854338610E+02  0.45395662871E+02 -0.41295714899E+03  0.45131810593E+03  0.17200000000E+03 0. -1.
         -6    1    1    2    0  501 -0.38854338610E+02 -0.45395662871E+02 -0.19582733739E+03  0.26740002226E+03  0.17200000000E+03 0. -1.
</event>
<event>
 4    1  0.3191769E-002  0.3082799E+03  0.7818608E-02  0.1081173E+00
         -2   -1    0    0    0  501 -0.00000000000E+00  0.00000000000E+00  0.31877950825E+03  0.31877950825E+03  0.00000000000E+00 0.  1.
          2   -1    0    0  502    0  0.00000000000E+00 -0.00000000000E+00 -0.38843958458E+03  0.38843958458E+03  0.00000000000E+00 0. -1.
          6    1    1    2  502    0  0.25482566576E+03 -0.22724037974E+02 -0.20533556568E+03  0.37040409874E+03  0.17200000000E+03 0. -1.
         -6    1    1    2    0  501 -0.25482566576E+03  0.22724037974E+02  0.13567548935E+03  0.33681499409E+03  0.17200000000E+03 0.  1.
</event>
<event>
 4    1  0.3191769E-002  0.4571167E+03  0.7818608E-02  0.1025621E+00
          1   -1    0    0  502    0  0.00000000000E+00  0.00000000000E+00  0.54941360760E+03  0.54941360760E+03  0.00000000000E+00 0. -1.
         -1   -1    0    0    0  501 -0.00000000000E+00 -0.00000000000E+00 -0.38103499922E+03  0.38103499922E+03  0.00000000000E+00 0.  1.
          6    1    1    2  502    0 -0.19650416680E+03 -0.37517695531E+03  0.64104770972E+02  0.46158970637E+03  0.17200000000E+03 0. -1.
         -6    1    1    2    0  501  0.19650416680E+03  0.37517695531E+03  0.10427383741E+03  0.46885890045E+03  0.17200000000E+03 0.  1.
</event>
<event>
 4    1  0.3191769E-002  0.3196618E+03  0.7818608E-02  0.1075805E+00
         -1   -1    0    0    0  501 -0.00000000000E+00  0.00000000000E+00  0.58230175376E+03  0.58230175376E+03  0.00000000000E+00 0.  1.
          1   -1    0    0  502    0  0.00000000000E+00 -0.00000000000E+00 -0.58505310571E+03  0.58505310571E+03  0.00000000000E+00 0. -1.
          6    1    1    2  502    0  0.29420627002E+02  0.26783220587E+03 -0.48973528789E+03  0.58482845006E+03  0.17200000000E+03 0. -1.
         -6    1    1    2    0  501 -0.29420627002E+02 -0.26783220587E+03  0.48698393594E+03  0.58252640941E+03  0.17200000000E+03 0.  1.
</event>
<event>
 4    1  0.3191769E-002  0.1727119E+03  0.7818608E-02  0.1175049E+00
          2   -1    0    0  502    0  0.00000000000E+00  0.00000000000E+00  0.21956540754E+04  0.21956540754E+04  0.00000000000E+00 0. -1.
         -2   -1    0    0    0  501 -0.00000000000E+00 -0.00000000000E+00 -0.15392115588E+02  0.15392115588E+02  0.00000000000E+00 0.  1.
          6    1    1    2  502    0  0.75462362171E+01 -0.13727574492E+02  0.14688640940E+04  0.14789831367E+04  0.17200000000E+03 0. -1.
         -6    1    1    2    0  501 -0.75462362171E+01  0.13727574492E+02  0.71139786584E+03  0.73206305433E+03  0.17200000000E+03 0.  1.
</event>
<event>
 4    1  0.3191769E-002  0.3454184E+03  0.7818608E-02  0.1064511E+00
          2   -1    0    0  502    0  0.00000000000E+00  0.00000000000E+00  0.52958199460E+03  0.52958199460E+03  0.00000000000E+00 0. -1.
         -2   -1    0    0    0  501 -0.00000000000E+00 -0.00000000000E+00 -0.26492526808E+03  0.26492526808E+03  0.00000000000E+00 0.  1.
          6    1    1    2  502    0 -0.91440630784E+02 -0.28525157931E+03 -0.21310943193E+02  0.34607514901E+03  0.17200000000E+03 0. -1.
         -6    1    1    2    0  501  0.91440630784E+02  0.28525157931E+03  0.28596766971E+03  0.44843211368E+03  0.17200000000E+03 0.  1.
</event>
<event>
 4    1  0.3191769E-002  0.1884309E+03  0.7818608E-02  0.1159884E+00
         -4   -1    0    0    0  501 -0.00000000000E+00  0.00000000000E+00  0.57098192502E+02  0.57098192502E+02  0.00000000000E+00 0.  1.
          4   -1    0    0  502    0  0.00000000000E+00 -0.00000000000E+00 -0.62373666104E+03  0.62373666104E+03  0.00000000000E+00 0. -1.
          6    1    1    2  502    0  0.61807491281E+02 -0.45848163250E+02 -0.30206675290E+03  0.35602042534E+03  0.17200000000E+03 0.  1.
         -6    1    1    2    0  501 -0.61807491281E+02  0.45848163250E+02 -0.26457171564E+03  0.32481442820E+03  0.17200000000E+03 0.  1.
</event>
<event>
 4    1  0.3191769E-002  0.1741915E+03  0.7818608E-02  0.1173546E+00
          1   -1    0    0  502    0  0.00000000000E+00  0.00000000000E+00  0.42755456007E+03  0.42755456007E+03  0.00000000000E+00 0. -1.
         -1   -1    0    0    0  501 -0.00000000000E+00 -0.00000000000E+00 -0.77804851831E+02  0.77804851831E+02  0.00000000000E+00 0.  1.
          6    1    1    2  502    0 -0.22588067695E+02 -0.15762855870E+02  0.24977719205E+03  0.30451819994E+03  0.17200000000E+03 0. -1.
         -6    1    1    2    0  501  0.22588067695E+02  0.15762855870E+02  0.99972516186E+02  0.20084121196E+03  0.17200000000E+03 0.  1.
</event>
<event>
 4    1  0.3191769E-002  0.2571158E+03  0.7818608E-02  0.1108889E+00
         -2   -1    0    0    0  501 -0.00000000000E+00  0.00000000000E+00  0.30018254381E+03  0.30018254381E+03  0.00000000000E+00 0.  1.
          2   -1    0    0  502    0  0.00000000000E+00 -0.00000000000E+00 -0.22440138913E+03  0.22440138913E+03  0.00000000000E+00 0. -1.
          6    1    1    2  502    0 -0.87031605432E+02  0.17014703662E+03  0.21195254732E+01  0.25712449670E+03  0.17200000000E+03 0. -1.
         -6    1    1    2    0  501  0.87031605432E+02 -0.17014703662E+03  0.73661629212E+02  0.26745943624E+03  0.17200000000E+03 0.  1.
</event>
<event>
 4    1  0.3191769E-002  0.1857608E+03  0.7818608E-02  0.1162341E+00
          1   -1    0    0  502    0  0.00000000000E+00  0.00000000000E+00  0.11197532612E+04  0.11197532612E+04  0.00000000000E+00 0. -1.
         -1   -1    0    0    0  501 -0.00000000000E+00 -0.00000000000E+00 -0.56495568682E+02  0.56495568682E+02  0.00000000000E+00 0.  1.
          6    1    1    2  502    0 -0.63709299432E+02 -0.29397404558E+02  0.92813515002E+03  0.94654209570E+03  0.17200000000E+03 0. -1.
         -6    1    1    2    0  501  0.63709299432E+02  0.29397404558E+02  0.13512254245E+03  0.22970673414E+03  0.17200000000E+03 0.  1.
</event>
<event>
 4    1  0.3191769E-002  0.1844151E+03  0.7818608E-02  0.1163597E+00
          1   -1    0    0  502    0  0.00000000000E+00  0.00000000000E+00  0.37855677889E+03  0.37855677889E+03  0.00000000000E+00 0. -1.
         -1   -1    0    0    0  501 -0.00000000000E+00 -0.00000000000E+00 -0.95447483454E+02  0.95447483454E+02  0.00000000000E+00 0.  1.
          6    1    1    2  502    0 -0.62562655616E+02  0.22602019773E+02  0.19900805261E+03  0.27131741960E+03  0.17200000000E+03 0. -1.
         -6    1    1    2    0  501  0.62562655616E+02 -0.22602019773E+02  0.84101242825E+02  0.20268684274E+03  0.17200000000E+03 0.  1.
</event>
<event>
 4    1  0.3191769E-002  0.5628461E+03  0.7818608E-02  0.9985635E-01
          2   -1    0    0  502    0  0.00000000000E+00  0.00000000000E+00  0.10177908247E+04  0.10177908247E+04  0.00000000000E+00 0. -1.
         -2   -1    0    0    0  501 -0.00000000000E+00 -0.00000000000E+00 -0.37430767349E+03  0.37430767349E+03  0.00000000000E+00 0.  1.
          6    1    1    2  502    0  0.28817496428E+03  0.45184834759E+03  0.60741269661E+03  0.82809777397E+03  0.17200000000E+03 0. -1.
         -6    1    1    2    0  501 -0.28817496428E+03 -0.45184834759E+03  0.36070454647E+02  0.56400072425E+03  0.17200000000E+03 0.  1.
</event>
<event>
 4    1  0.3191769E-002  0.1982655E+03  0.7818608E-02  0.1151211E+00
          2   -1    0    0  502    0  0.00000000000E+00  0.00000000000E+00  0.17554076316E+04  0.17554076316E+04  0.00000000000E+00 0. -1.
         -2   -1    0    0    0  501 -0.00000000000E+00 -0.00000000000E+00 -0.24488452308E+02  0.24488452308E+02  0.00000000000E+00 0.  1.
          6    1    1    2  502    0  0.78757636164E+02 -0.59350245805E+02  0.11257755542E+04  0.11431009646E+04  0.17200000000E+03 0. -1.
         -6    1    1    2    0  501 -0.78757636164E+02  0.59350245805E+02  0.60514362509E+03  0.63679511927E+03  0.17200000000E+03 0.  1.
</event>
<event>
 4    1  0.3191769E-002  0.1913078E+03  0.7818608E-02  0.1157287E+00
         -2   -1    0    0    0  501 -0.00000000000E+00  0.00000000000E+00  0.32808011871E+02  0.32808011871E+02  0.00000000000E+00 0.  1.
          2   -1    0    0  502    0  0.00000000000E+00 -0.00000000000E+00 -0.11240035619E+04  0.11240035619E+04  0.00000000000E+00 0. -1.
          6    1    1    2  502    0  0.68308629456E+02 -0.48462492517E+02 -0.59578578489E+03  0.62574706033E+03  0.17200000000E+03 0. -1.
         -6    1    1    2    0  501 -0.68308629456E+02  0.48462492517E+02 -0.49540976516E+03  0.53106451346E+03  0.17200000000E+03 0. -1.
</event>
<event>
 4    1  0.3191769E-002  0.2086299E+03  0.7818608E-02  0.1142656E+00
          1   -1    0    0  502    0  0.00000000000E+00  0.00000000000E+00  0.65072900607E+02  0.65072900607E+02  0.00000000000E+00 0. -1.
         -1   -1    0    0    0  501 -0.00000000000E+00 -0.00000000000E+00 -0.68672930712E+03  0.68672930712E+03  0.00000000000E+00 0.  1.
          6    1    1    2  502    0  0.89291017574E+02 -0.77262729040E+02 -0.25023739894E+03  0.32579928015E+03  0.17200000000E+03 0.  1.
         -6    1    1    2    0  501 -0.89291017574E+02  0.77262729040E+02 -0.37141900758E+03  0.42600292758E+03  0.17200000000E+03 0.  1.
</event>
<event>
 4    1  0.3191769E-002  0.1998665E+03  0.7818608E-02  0.1149852E+00
          2   -1    0    0  502    0  0.00000000000E+00  0.00000000000E+00  0.13016882181E+04  0.13016882181E+04  0.00000000000E+00 0. -1.
         -2   -1    0    0    0  501 -0.00000000000E+00 -0.00000000000E+00 -0.30874702036E+02  0.30874702036E+02  0.00000000000E+00 0.  1.
          6    1    1    2  502    0 -0.53694511446E+02 -0.86484177733E+02  0.68717557367E+03  0.71565136946E+03  0.17200000000E+03 0.  1.
         -6    1    1    2    0  501  0.53694511446E+02  0.86484177733E+02  0.58363794236E+03  0.61691155064E+03  0.17200000000E+03 0.  1.
</event>
<event>
 4    1  0.3191769E-002  0.2507486E+03  0.7818608E-02  0.1112833E+00
         -2   -1    0    0    0  501 -0.00000000000E+00  0.00000000000E+00  0.16474411247E+03  0.16474411247E+03  0.00000000000E+00 0.  1.
          2   -1    0    0  502    0  0.00000000000E+00 -0.00000000000E+00 -0.63127095759E+03  0.63127095759E+03  0.00000000000E+00 0. -1.
          6    1    1    2  502    0 -0.86205166583E+02  0.16080905379E+03 -0.48354124630E+03  0.54468983779E+03  0.17200000000E+03 0.  1.
         -6    1    1    2    0  501  0.86205166583E+02 -0.16080905379E+03  0.17014401171E+02  0.25132523226E+03  0.17200000000E+03 0. -1.
</event>
<event>
 4    1  0.3191769E-002  0.3679755E+03  0.7818608E-02  0.1055470E+00
         -1   -1    0    0    0  501 -0.00000000000E+00  0.00000000000E+00  0.55827841233E+03  0.55827841233E+03  0.00000000000E+00 0.  1.
          1   -1    0    0  502    0  0.00000000000E+00 -0.00000000000E+00 -0.53963110049E+03  0.53963110049E+03  0.00000000000E+00 0. -1.
          6    1    1    2  502    0  0.24935137003E+03  0.20891587301E+03 -0.39799232111E+03  0.54203674728E+03  0.17200000000E+03 0. -1.
         -6    1    1    2    0  501 -0.24935137003E+03 -0.20891587301E+03  0.41663963295E+03  0.55587276554E+03  0.17200000000E+03 0.  1.
</event>
<event>
 4    1  0.3191769E-002  0.3201062E+03  0.7818608E-02  0.1075600E+00
          2   -1    0    0  502    0  0.00000000000E+00  0.00000000000E+00  0.25909629783E+04  0.25909629783E+04  0.00000000000E+00 0. -1.
         -2   -1    0    0    0  501 -0.00000000000E+00 -0.00000000000E+00 -0.50735360232E+02  0.50735360232E+02  0.00000000000E+00 0.  1.
          6    1    1    2  502    0  0.22735462379E+03 -0.14558112949E+03  0.64987737818E+03  0.72443674458E+03  0.17200000000E+03 0. -1.
         -6    1    1    2    0  501 -0.22735462379E+03  0.14558112949E+03  0.18903502398E+04  0.19172615939E+04  0.17200000000E+03 0. -1.
</event>
<event>
 4    1  0.3191769E-002  0.2581971E+03  0.7818608E-02  0.1108231E+00
         -2   -1    0    0    0  501 -0.00000000000E+00  0.00000000000E+00  0.13395230810E+03  0.13395230810E+03  0.00000000000E+00 0.  1.
          2   -1    0    0  502    0  0.00000000000E+00 -0.00000000000E+00 -0.60475323192E+03  0.60475323192E+03  0.00000000000E+00 0. -1.
          6    1    1    2  502    0  0.95902381440E+01 -0.19232719001E+03 -0.39081356443E+03  0.46840256492E+03  0.17200000000E+03 0. -1.
         -6    1    1    2    0  501 -0.95902381440E+01  0.19232719001E+03 -0.79987359386E+02  0.27030297509E+03  0.17200000000E+03 0.  1.
</event>
<event>
 4    1  0.3191769E-002  0.5338642E+03  0.7818608E-02  0.1005299E+00
         -1   -1    0    0    0  501 -0.00000000000E+00  0.00000000000E+00  0.37048414782E+03  0.37048414782E+03  0.00000000000E+00 0.  1.
          1   -1    0    0  502    0  0.00000000000E+00 -0.00000000000E+00 -0.78348549682E+03  0.78348549682E+03  0.00000000000E+00 0. -1.
          6    1    1    2  502    0 -0.29295853429E+03 -0.41182795125E+03 -0.28415650507E+03  0.60477754887E+03  0.17200000000E+03 0. -1.
         -6    1    1    2    0  501  0.29295853429E+03  0.41182795125E+03 -0.12884484393E+03  0.54919209577E+03  0.17200000000E+03 0.  1.
</event>
<event>
 4    1  0.3191769E-002  0.1720056E+03  0.7818608E-02  0.1175772E+00
         -1   -1    0    0    0  501 -0.00000000000E+00  0.00000000000E+00  0.23451201567E+03  0.23451201567E+03  0.00000000000E+00 0.  1.
          1   -1    0    0  502    0  0.00000000000E+00 -0.00000000000E+00 -0.14863980514E+03  0.14863980514E+03  0.00000000000E+00 0. -1.
          6    1    1    2  502    0 -0.12766752089E+01  0.54108269579E+00 -0.31566981982E+02  0.17487823484E+03  0.17200000000E+03 0. -1.
         -6    1    1    2    0  501  0.12766752089E+01 -0.54108269579E+00  0.11743919251E+03  0.20827358596E+03  0.17200000000E+03 0.  1.
</event>
<event>
 4    1  0.3191769E-002  0.2918657E+03  0.7818608E-02  0.1089379E+00
         -1   -1    0    0    0  501 -0.00000000000E+00  0.00000000000E+00  0.58068351813E+02  0.58068351813E+02  0.00000000000E+00 0.  1.
          1   -1    0    0  502    0  0.00000000000E+00 -0.00000000000E+00 -0.14777246865E+04  0.14777246865E+04  0.00000000000E+00 0. -1.
          6    1    1    2  502    0  0.13214108618E+03 -0.19529542161E+03 -0.64437306835E+03  0.70739113620E+03  0.17200000000E+03 0. -1.
         -6    1    1    2    0  501 -0.13214108618E+03  0.19529542161E+03 -0.77528326634E+03  0.82840190212E+03  0.17200000000E+03 0.  1.
</event>
<event>
 4    1  0.3191769E-002  0.1813554E+03  0.7818608E-02  0.1166498E+00
          2   -1    0    0  502    0  0.00000000000E+00  0.00000000000E+00  0.47554692709E+02  0.47554692709E+02  0.00000000000E+00 0. -1.
         -2   -1    0    0    0  501 -0.00000000000E+00 -0.00000000000E+00 -0.72863876807E+03  0.72863876807E+03  0.00000000000E+00 0.  1.
          6    1    1    2  502    0 -0.49966767097E+02 -0.28444642806E+02 -0.25306482078E+03  0.31133836743E+03  0.17200000000E+03 0. -1.
         -6    1    1    2    0  501  0.49966767097E+02  0.28444642806E+02 -0.42801925458E+03  0.46485509335E+03  0.17200000000E+03 0.  1.
</event>
<event>
 4    1  0.3191769E-002  0.3051933E+03  0.7818608E-02  0.1082673E+00
          1   -1    0    0  502    0  0.00000000000E+00  0.00000000000E+00  0.55030740853E+03  0.55030740853E+03  0.00000000000E+00 0. -1.
         -1   -1    0    0    0  501 -0.00000000000E+00 -0.00000000000E+00 -0.25271498933E+03  0.25271498933E+03  0.00000000000E+00 0.  1.
          6    1    1    2  502    0  0.24625248046E+03  0.54024827498E+02  0.37953365635E+03  0.48702028954E+03  0.17200000000E+03 0. -1.
         -6    1    1    2    0  501 -0.24625248046E+03 -0.54024827498E+02 -0.81941237148E+02  0.31600210832E+03  0.17200000000E+03 0.  1.
</event>
<event>
 4    1  0.3191769E-002  0.2734563E+03  0.7818608E-02  0.1099318E+00
          2   -1    0    0  502    0  0.00000000000E+00  0.00000000000E+00  0.95826734946E+03  0.95826734946E+03  0.00000000000E+00 0. -1.
         -2   -1    0    0    0  501 -0.00000000000E+00 -0.00000000000E+00 -0.91493276180E+02  0.91493276180E+02  0.00000000000E+00 0.  1.
          6    1    1    2  502    0  0.14187291156E+03 -0.15832383811E+03  0.23207907619E+03  0.35866287562E+03  0.17200000000E+03 0.  1.
         -6    1    1    2    0  501 -0.14187291156E+03  0.15832383811E+03  0.63469499709E+03  0.69109775001E+03  0.17200000000E+03 0.  1.
</event>
<event>
 4    1  0.3191769E-002  0.2118043E+03  0.7818608E-02  0.1140145E+00
         -4   -1    0    0    0  501 -0.00000000000E+00  0.00000000000E+00  0.13422269226E+04  0.13422269226E+04  0.00000000000E+00 0.  1.
          4   -1    0    0  502    0  0.00000000000E+00 -0.00000000000E+00 -0.34997568455E+02  0.34997568455E+02  0.00000000000E+00 0. -1.
          6    1    1    2  502    0  0.12238226734E+03  0.17309660605E+02  0.79968359708E+03  0.82725745639E+03  0.17200000000E+03 0.  1.
         -6    1    1    2    0  501 -0.12238226734E+03 -0.17309660605E+02  0.50754575711E+03  0.54996703471E+03  0.17200000000E+03 0. -1.
</event>
<event>
 4    1  0.3191769E-002  0.2056929E+03  0.7818608E-02  0.1145023E+00
          2   -1    0    0  502    0  0.00000000000E+00  0.00000000000E+00  0.12293555942E+04  0.12293555942E+04  0.00000000000E+00 0. -1.
         -2   -1    0    0    0  501 -0.00000000000E+00 -0.00000000000E+00 -0.34449222933E+02  0.34449222933E+02  0.00000000000E+00 0.  1.
          6    1    1    2  502    0 -0.91058111050E+02 -0.66588222562E+02  0.61706026731E+03  0.65044057720E+03  0.17200000000E+03 0. -1.
         -6    1    1    2    0  501  0.91058111050E+02  0.66588222562E+02  0.57784610394E+03  0.61336423992E+03  0.17200000000E+03 0. -1.
</event>
<event>
 4    1  0.3191769E-002  0.2073393E+03  0.7818608E-02  0.1143690E+00
         -1   -1    0    0    0  501 -0.00000000000E+00  0.00000000000E+00  0.52574192412E+03  0.52574192412E+03  0.00000000000E+00 0.  1.
          1   -1    0    0  502    0  0.00000000000E+00 -0.00000000000E+00 -0.20659447338E+03  0.20659447338E+03  0.00000000000E+00 0. -1.
          6    1    1    2  502    0 -0.86860300997E+02  0.76556258887E+02 -0.12505077743E+03  0.24213068703E+03  0.17200000000E+03 0. -1.
         -6    1    1    2    0  501  0.86860300997E+02 -0.76556258887E+02  0.44419822817E+03  0.49020571047E+03  0.17200000000E+03 0.  1.
</event>
<event>
 4    1  0.3191769E-002  0.2636021E+03  0.7818608E-02  0.1104998E+00
          1   -1    0    0  502    0  0.00000000000E+00  0.00000000000E+00  0.77654690540E+03  0.77654690540E+03  0.00000000000E+00 0. -1.
         -1   -1    0    0    0  501 -0.00000000000E+00 -0.00000000000E+00 -0.10624174508E+03  0.10624174508E+03  0.00000000000E+00 0.  1.
          6    1    1    2  502    0  0.11103665449E+03 -0.16605090348E+03  0.51047132450E+03  0.57451459018E+03  0.17200000000E+03 0. -1.
         -6    1    1    2    0  501 -0.11103665449E+03  0.16605090348E+03  0.15983383582E+03  0.30827406031E+03  0.17200000000E+03 0.  1.
</event>
<event>
 4    1  0.3191769E-002  0.2081239E+03  0.7818608E-02  0.1143060E+00
          2   -1    0    0  502    0  0.00000000000E+00  0.00000000000E+00  0.11141200749E+03  0.11141200749E+03  0.00000000000E+00 0. -1.
         -2   -1    0    0    0  501 -0.00000000000E+00 -0.00000000000E+00 -0.56948441836E+03  0.56948441836E+03  0.00000000000E+00 0.  1.
          6    1    1    2  502    0 -0.11292750643E+03 -0.31287919445E+02 -0.37263876216E+02  0.21143356423E+03  0.17200000000E+03 0. -1.
         -6    1    1    2    0  501  0.11292750643E+03  0.31287919445E+02 -0.42080853465E+03  0.46946286163E+03  0.17200000000E+03 0.  1.
</event>
<event>
 4    1  0.3191769E-002  0.1724938E+03  0.7818608E-02  0.1175272E+00
         -4   -1    0    0    0  501 -0.00000000000E+00  0.00000000000E+00  0.18306881134E+04  0.18306881134E+04  0.00000000000E+00 0.  1.
          4   -1    0    0  502    0  0.00000000000E+00 -0.00000000000E+00 -0.18814859787E+02  0.18814859787E+02  0.00000000000E+00 0. -1.
          6    1    1    2  502    0 -0.11571420544E+02  0.60176388891E+01  0.12471729029E+04  0.12590450189E+04  0.17200000000E+03 0.  1.
         -6    1    1    2    0  501  0.11571420544E+02 -0.60176388891E+01  0.56470035071E+03  0.59045795434E+03  0.17200000000E+03 0. -1.
</event>
<event>
 4    1  0.3191769E-002  0.2634471E+03  0.7818608E-02  0.1105090E+00
          2   -1    0    0  502    0  0.00000000000E+00  0.00000000000E+00  0.16852101393E+04  0.16852101393E+04  0.00000000000E+00 0. -1.
         -2   -1    0    0    0  501 -0.00000000000E+00 -0.00000000000E+00 -0.41655043540E+02  0.41655043540E+02  0.00000000000E+00 0.  1.
          6    1    1    2  502    0  0.18755945577E+03 -0.68130869040E+02  0.91355620604E+03  0.95078352234E+03  0.17200000000E+03 0. -1.
         -6    1    1    2    0  501 -0.18755945577E+03  0.68130869040E+02  0.72999888971E+03  0.77608166049E+03  0.17200000000E+03 0.  1.
</event>
<event>
 4    1  0.3191769E-002  0.1860913E+03  0.7818608E-02  0.1162035E+00
         -2   -1    0    0    0  501 -0.00000000000E+00  0.00000000000E+00  0.20881572364E+03  0.20881572364E+03  0.00000000000E+00 0.  1.
          2   -1    0    0  502    0  0.00000000000E+00 -0.00000000000E+00 -0.23724474130E+03  0.23724474130E+03  0.00000000000E+00 0. -1.
          6    1    1    2  502    0 -0.68948307695E+02 -0.17091384688E+02 -0.13657161126E+03  0.23082848517E+03  0.17200000000E+03 0. -1.
         -6    1    1    2    0  501  0.68948307695E+02  0.17091384688E+02  0.10814259360E+03  0.21523197977E+03  0.17200000000E+03 0.  1.
</event>
<event>
 4    1  0.3191769E-002  0.3089835E+03  0.7818608E-02  0.1080834E+00
          2   -1    0    0  502    0  0.00000000000E+00  0.00000000000E+00  0.12353826184E+04  0.12353826184E+04  0.00000000000E+00 0. -1.
         -2   -1    0    0    0  501 -0.00000000000E+00 -0.00000000000E+00 -0.12319084762E+03  0.12319084762E+03  0.00000000000E+00 0.  1.
          6    1    1    2  502    0 -0.30906804108E+02  0.25481679335E+03  0.97078229755E+03  0.10187684221E+04  0.17200000000E+03 0. -1.
         -6    1    1    2    0  501  0.30906804108E+02 -0.25481679335E+03  0.14140947321E+03  0.33980504385E+03  0.17200000000E+03 0.  1.
</event>
<event>
 4    1  0.3191769E-002  0.2737423E+03  0.7818608E-02  0.1099157E+00
          2   -1    0    0  502    0  0.00000000000E+00  0.00000000000E+00  0.79059613135E+03  0.79059613135E+03  0.00000000000E+00 0. -1.
         -2   -1    0    0    0  501 -0.00000000000E+00 -0.00000000000E+00 -0.10048349650E+03  0.10048349650E+03  0.00000000000E+00 0.  1.
          6    1    1    2  502    0 -0.18229984270E+03 -0.11007999487E+03  0.45117865886E+03  0.52772816878E+03  0.17200000000E+03 0. -1.
         -6    1    1    2    0  501  0.18229984270E+03  0.11007999487E+03  0.23893397599E+03  0.36335145906E+03  0.17200000000E+03 0.  1.
</event>
<event>
 4    1  0.3191769E-002  0.1828916E+03  0.7818608E-02  0.1165034E+00
          2   -1    0    0  502    0  0.00000000000E+00  0.00000000000E+00  0.13385182189E+04  0.13385182189E+04  0.00000000000E+00 0. -1.
         -2   -1    0    0    0  501 -0.00000000000E+00 -0.00000000000E+00 -0.25783338814E+02  0.25783338814E+02  0.00000000000E+00 0.  1.
          6    1    1    2  502    0  0.30414410553E+02 -0.54224418797E+02  0.77603888039E+03  0.79729898272E+03  0.17200000000E+03 0. -1.
         -6    1    1    2    0  501 -0.30414410553E+02  0.54224418797E+02  0.53669599966E+03  0.56700257496E+03  0.17200000000E+03 0.  1.
</event>
<event>
 4    1  0.3191769E-002  0.6496965E+03  0.7818608E-02  0.9807349E-01
         -2   -1    0    0    0  501 -0.00000000000E+00  0.00000000000E+00  0.37274512040E+03  0.37274512040E+03  0.00000000000E+00 0.  1.
          2   -1    0    0  502    0  0.00000000000E+00 -0.00000000000E+00 -0.11691998527E+04  0.11691998527E+04  0.00000000000E+00 0. -1.
          6    1    1    2  502    0  0.47683078452E+03  0.40639142654E+03 -0.53496082366E+03  0.84159887802E+03  0.17200000000E+03 0. -1.
         -6    1    1    2    0  501 -0.47683078452E+03 -0.40639142654E+03 -0.26149390863E+03  0.70034609507E+03  0.17200000000E+03 0.  1.
</event>
<event>
 4    1  0.3191769E-002  0.1725820E+03  0.7818608E-02  0.1175182E+00
         -1   -1    0    0    0  501 -0.00000000000E+00  0.00000000000E+00  0.29653499460E+03  0.29653499460E+03  0.00000000000E+00 0.  1.
          1   -1    0    0  502    0  0.00000000000E+00 -0.00000000000E+00 -0.14721085510E+03  0.14721085510E+03  0.00000000000E+00 0. -1.
          6    1    1    2  502    0 -0.67422934982E+01  0.12452988179E+02  0.19972058516E+03  0.26395614707E+03  0.17200000000E+03 0.  1.
         -6    1    1    2    0  501  0.67422934982E+01 -0.12452988179E+02 -0.50396445670E+02  0.17978970263E+03  0.17200000000E+03 0. -1.
</event>
<event>
 4    1  0.3191769E-002  0.2442366E+03  0.7818608E-02  0.1117002E+00
         -1   -1    0    0    0  501 -0.00000000000E+00  0.00000000000E+00  0.21404643820E+03  0.21404643820E+03  0.00000000000E+00 0.  1.
          1   -1    0    0  502    0  0.00000000000E+00 -0.00000000000E+00 -0.36050004406E+03  0.36050004406E+03  0.00000000000E+00 0. -1.
          6    1    1    2  502    0 -0.16948476281E+03  0.36639324015E+02 -0.21008133407E+03  0.32215786784E+03  0.17200000000E+03 0.  1.
         -6    1    1    2    0  501  0.16948476281E+03 -0.36639324015E+02  0.63627728212E+02  0.25238861442E+03  0.17200000000E+03 0.  1.
</event>
<event>
 4    1  0.3191769E-002  0.2060682E+03  0.7818608E-02  0.1144718E+00
          1   -1    0    0  502    0  0.00000000000E+00  0.00000000000E+00  0.36639632422E+02  0.36639632422E+02  0.00000000000E+00 0. -1.
         -1   -1    0    0    0  501 -0.00000000000E+00 -0.00000000000E+00 -0.11592234450E+04  0.11592234450E+04  0.00000000000E+00 0.  1.
          6    1    1    2  502    0 -0.96086295912E+02  0.60394596258E+02 -0.55237901748E+03  0.58956480770E+03  0.17200000000E+03 0. -1.
         -6    1    1    2    0  501  0.96086295912E+02 -0.60394596258E+02 -0.57020479505E+03  0.60629826968E+03  0.17200000000E+03 0.  1.
</event>
<event>
 4    1  0.3191769E-002  0.2041442E+03  0.7818608E-02  0.1146289E+00
         -2   -1    0    0    0  501 -0.00000000000E+00  0.00000000000E+00  0.93566254581E+02  0.93566254581E+02  0.00000000000E+00 0.  1.
          2   -1    0    0  502    0  0.00000000000E+00 -0.00000000000E+00 -0.56151873923E+03  0.56151873923E+03  0.00000000000E+00 0. -1.
          6    1    1    2  502    0 -0.95227341754E+01  0.10954525432E+03 -0.38292194634E+03  0.43394015970E+03  0.17200000000E+03 0. -1.
         -6    1    1    2    0  501  0.95227341754E+01 -0.10954525432E+03 -0.85030538312E+02  0.22114483411E+03  0.17200000000E+03 0.  1.
</event>
<event>
 4    1  0.3191769E-002  0.2230871E+03  0.7818608E-02  0.1131602E+00
         -2   -1    0    0    0  501 -0.00000000000E+00  0.00000000000E+00  0.28977867359E+02  0.28977867359E+02  0.00000000000E+00 0.  1.
          2   -1    0    0  502    0  0.00000000000E+00 -0.00000000000E+00 -0.24096851067E+04  0.24096851067E+04  0.00000000000E+00 0. -1.
          6    1    1    2  502    0  0.10703188220E+03 -0.93423910351E+02 -0.18438910735E+04  0.18573373797E+04  0.17200000000E+03 0. -1.
         -6    1    1    2    0  501 -0.10703188220E+03  0.93423910351E+02 -0.53681616584E+03  0.58132559444E+03  0.17200000000E+03 0.  1.
</event>
<event>
 4    1  0.3191769E-002  0.2028155E+03  0.7818608E-02  0.1147385E+00
          1   -1    0    0  502    0  0.00000000000E+00  0.00000000000E+00  0.25804235138E+03  0.25804235138E+03  0.00000000000E+00 0. -1.
         -1   -1    0    0    0  501 -0.00000000000E+00 -0.00000000000E+00 -0.49497153132E+03  0.49497153132E+03  0.00000000000E+00 0.  1.
          6    1    1    2  502    0 -0.14179982048E+02  0.10653199815E+03  0.19154130018E+03  0.27896632090E+03  0.17200000000E+03 0. -1.
         -6    1    1    2    0  501  0.14179982048E+02 -0.10653199815E+03 -0.42847048012E+03  0.47404756181E+03  0.17200000000E+03 0.  1.
</event>
<event>
 4    1  0.3191769E-002  0.1982813E+03  0.7818608E-02  0.1151197E+00
         -2   -1    0    0    0  501 -0.00000000000E+00  0.00000000000E+00  0.12834216791E+03  0.12834216791E+03  0.00000000000E+00 0.  1.
          2   -1    0    0  502    0  0.00000000000E+00 -0.00000000000E+00 -0.32009915029E+03  0.32009915029E+03  0.00000000000E+00 0. -1.
          6    1    1    2  502    0 -0.66924439975E+02  0.72474854926E+02 -0.14237648514E+03  0.24410356160E+03  0.17200000000E+03 0. -1.
         -6    1    1    2    0  501  0.66924439975E+02 -0.72474854926E+02 -0.49380497236E+02  0.20433775659E+03  0.17200000000E+03 0.  1.
</event>
<event>
 4    1  0.3191769E-002  0.1791868E+03  0.7818608E-02  0.1168592E+00
         -1   -1    0    0    0  501 -0.00000000000E+00  0.00000000000E+00  0.11166145125E+03  0.11166145125E+03  0.00000000000E+00 0.  1.
          1   -1    0    0  502    0  0.00000000000E+00 -0.00000000000E+00 -0.29431906301E+03  0.29431906301E+03  0.00000000000E+00 0. -1.
          6    1    1    2  502    0  0.16181149490E+02 -0.47561366487E+02 -0.12212004084E+03  0.21684376301E+03  0.17200000000E+03 0. -1.
         -6    1    1    2    0  501 -0.16181149490E+02  0.47561366487E+02 -0.60537570914E+02  0.18913675125E+03  0.17200000000E+03 0.  1.
</event>
<event>
 4    1  0.3191769E-002  0.2948136E+03  0.7818608E-02  0.1087862E+00
         -2   -1    0    0    0  501 -0.00000000000E+00  0.00000000000E+00  0.33432418570E+02  0.33432418570E+02  0.00000000000E+00 0.  1.
          2   -1    0    0  502    0  0.00000000000E+00 -0.00000000000E+00 -0.31950199266E+04  0.31950199266E+04  0.00000000000E+00 0. -1.
          6    1    1    2  502    0  0.23876069434E+03 -0.18010751988E+02 -0.88401627609E+03  0.93187973084E+03  0.17200000000E+03 0. -1.
         -6    1    1    2    0  501 -0.23876069434E+03  0.18010751988E+02 -0.22775712320E+04  0.22965726144E+04  0.17200000000E+03 0.  1.
</event>
<event>
 4    1  0.3191769E-002  0.2646220E+03  0.7818608E-02  0.1104398E+00
          1   -1    0    0  502    0  0.00000000000E+00  0.00000000000E+00  0.29493414244E+03  0.29493414244E+03  0.00000000000E+00 0. -1.
         -1   -1    0    0    0  501 -0.00000000000E+00 -0.00000000000E+00 -0.26296018682E+03  0.26296018682E+03  0.00000000000E+00 0.  1.
          6    1    1    2  502    0  0.15560250833E+03  0.12739170546E+03  0.10291205288E+03  0.28392900141E+03  0.17200000000E+03 0. -1.
         -6    1    1    2    0  501 -0.15560250833E+03 -0.12739170546E+03 -0.70938097262E+02  0.27396532784E+03  0.17200000000E+03 0.  1.
</event>
<event>
 4    1  0.3191769E-002  0.2045627E+03  0.7818608E-02  0.1145946E+00
         -2   -1    0    0    0  501 -0.00000000000E+00  0.00000000000E+00  0.46655111517E+02  0.46655111517E+02  0.00000000000E+00 0.  1.
          2   -1    0    0  502    0  0.00000000000E+00 -0.00000000000E+00 -0.11596987802E+04  0.11596987802E+04  0.00000000000E+00 0. -1.
          6    1    1    2  502    0  0.73462440405E+02 -0.82856348633E+02 -0.84364434556E+03  0.86809082846E+03  0.17200000000E+03 0. -1.
         -6    1    1    2    0  501 -0.73462440405E+02  0.82856348633E+02 -0.26939932308E+03  0.33826306321E+03  0.17200000000E+03 0.  1.
</event>
<event>
 4    1  0.3191769E-002  0.2220140E+03  0.7818608E-02  0.1132390E+00
          2   -1    0    0  502    0  0.00000000000E+00  0.00000000000E+00  0.13600902431E+04  0.13600902431E+04  0.00000000000E+00 0. -1.
         -2   -1    0    0    0  501 -0.00000000000E+00 -0.00000000000E+00 -0.44518707643E+02  0.44518707643E+02  0.00000000000E+00 0.  1.
          6    1    1    2  502    0  0.14036393499E+03 -0.20398461941E+01  0.96063418851E+03  0.98595549562E+03  0.17200000000E+03 0. -1.
         -6    1    1    2    0  501 -0.14036393499E+03  0.20398461941E+01  0.35493734690E+03  0.41865345508E+03  0.17200000000E+03 0.  1.
</event>
<event>
 4    1  0.3191769E-002  0.3352910E+03  0.7818608E-02  0.1068819E+00
         -2   -1    0    0    0  501 -0.00000000000E+00  0.00000000000E+00  0.62301963496E+03  0.62301963496E+03  0.00000000000E+00 0.  1.
          2   -1    0    0  502    0  0.00000000000E+00 -0.00000000000E+00 -0.75006919505E+03  0.75006919505E+03  0.00000000000E+00 0. -1.
          6    1    1    2  502    0 -0.18743050165E+03 -0.21841670583E+03 -0.66181600471E+03  0.74190327835E+03  0.17200000000E+03 0. -1.
         -6    1    1    2    0  501  0.18743050165E+03  0.21841670583E+03  0.53476644462E+03  0.63118555166E+03  0.17200000000E+03 0.  1.
</event>
<event>
 4    1  0.3191769E-002  0.3796090E+03  0.7818608E-02  0.1051078E+00
         -1   -1    0    0    0  501 -0.00000000000E+00  0.00000000000E+00  0.27536410957E+03  0.27536410957E+03  0.00000000000E+00 0.  1.
          1   -1    0    0  502    0  0.00000000000E+00 -0.00000000000E+00 -0.61192287872E+03  0.61192287872E+03  0.00000000000E+00 0. -1.
          6    1    1    2  502    0 -0.90802339324E+02  0.32599681377E+03 -0.33709579350E+03  0.50767761563E+03  0.17200000000E+03 0. -1.
         -6    1    1    2    0  501  0.90802339324E+02 -0.32599681377E+03  0.53702434414E+00  0.37960937266E+03  0.17200000000E+03 0. -1.
</event>
<event>
 4    1  0.3191769E-002  0.4679555E+03  0.7818608E-02  0.1022499E+00
          2   -1    0    0  502    0  0.00000000000E+00  0.00000000000E+00  0.46311428580E+03  0.46311428580E+03  0.00000000000E+00 0. -1.
         -2   -1    0    0    0  501 -0.00000000000E+00 -0.00000000000E+00 -0.47850468300E+03  0.47850468300E+03  0.00000000000E+00 0.  1.
          6    1    1    2  502    0  0.41628421248E+03  0.12690875827E+03  0.43497341291E+02  0.46997276217E+03  0.17200000000E+03 0. -1.
         -6    1    1    2    0  501 -0.41628421248E+03 -0.12690875827E+03 -0.58887738494E+02  0.47164620663E+03  0.17200000000E+03 0.  1.
</event>
<event>
 4    1  0.3191769E-002  0.2529649E+03  0.7818608E-02  0.1111445E+00
          2   -1    0    0  502    0  0.00000000000E+00  0.00000000000E+00  0.11319124167E+04  0.11319124167E+04  0.00000000000E+00 0. -1.
         -2   -1    0    0    0  501 -0.00000000000E+00 -0.00000000000E+00 -0.98892595483E+02  0.98892595483E+02  0.00000000000E+00 0.  1.
          6    1    1    2  502    0 -0.17914917867E+03 -0.48091777418E+02  0.91927281014E+03  0.95344310094E+03  0.17200000000E+03 0. -1.
         -6    1    1    2    0  501  0.17914917867E+03  0.48091777418E+02  0.11374701106E+03  0.27736191122E+03  0.17200000000E+03 0.  1.
</event>
<event>
 4    1  0.3191769E-002  0.6311745E+03  0.7818608E-02  0.9842759E-01
         -1   -1    0    0    0  501 -0.00000000000E+00  0.00000000000E+00  0.20685904899E+03  0.20685904899E+03  0.00000000000E+00 0.  1.
          1   -1    0    0  502    0  0.00000000000E+00 -0.00000000000E+00 -0.20382868906E+04  0.20382868906E+04  0.00000000000E+00 0. -1.
          6    1    1    2  502    0 -0.41570005760E+03 -0.44270842179E+03 -0.11793590010E+04  0.13376355774E+04  0.17200000000E+03 0. -1.
         -6    1    1    2    0  501  0.41570005760E+03  0.44270842179E+03 -0.65206884059E+03  0.90751036219E+03  0.17200000000E+03 0.  1.
</event>
<event>
 4    1  0.3191769E-002  0.1939913E+03  0.7818608E-02  0.1154910E+00
          2   -1    0    0  502    0  0.00000000000E+00  0.00000000000E+00  0.84193062612E+03  0.84193062612E+03  0.00000000000E+00 0. -1.
         -2   -1    0    0    0  501 -0.00000000000E+00 -0.00000000000E+00 -0.44812569514E+02  0.44812569514E+02  0.00000000000E+00 0.  1.
          6    1    1    2  502    0 -0.85840916006E+02  0.26076090243E+02  0.42097613090E+03  0.46352295319E+03  0.17200000000E+03 0.  1.
         -6    1    1    2    0  501  0.85840916006E+02 -0.26076090243E+02  0.37614192571E+03  0.42322024245E+03  0.17200000000E+03 0.  1.
</event>
<event>
 4    1  0.3191769E-002  0.2707665E+03  0.7818608E-02  0.1100842E+00
         -2   -1    0    0    0  501 -0.00000000000E+00  0.00000000000E+00  0.11704038073E+03  0.11704038073E+03  0.00000000000E+00 0.  1.
          2   -1    0    0  502    0  0.00000000000E+00 -0.00000000000E+00 -0.85464175296E+03  0.85464175296E+03  0.00000000000E+00 0. -1.
          6    1    1    2  502    0 -0.20564372128E+03 -0.37962795102E+02 -0.11772982835E+03  0.29525383384E+03  0.17200000000E+03 0. -1.
         -6    1    1    2    0  501  0.20564372128E+03  0.37962795102E+02 -0.61987154388E+03  0.67642829984E+03  0.17200000000E+03 0.  1.
</event>
<event>
 4    1  0.3191769E-002  0.1854219E+03  0.7818608E-02  0.1162657E+00
         -2   -1    0    0    0  501 -0.00000000000E+00  0.00000000000E+00  0.77509130646E+02  0.77509130646E+02  0.00000000000E+00 0.  1.
          2   -1    0    0  502    0  0.00000000000E+00 -0.00000000000E+00 -0.51709186739E+03  0.51709186739E+03  0.00000000000E+00 0. -1.
          6    1    1    2  502    0  0.56009846127E+02 -0.40745073446E+02 -0.10769294169E+03  0.21442722206E+03  0.17200000000E+03 0.  1.
         -6    1    1    2    0  501 -0.56009846127E+02  0.40745073446E+02 -0.33188979506E+03  0.38017377597E+03  0.17200000000E+03 0. -1.
</event>
<event>
 4    1  0.3191769E-002  0.4112091E+03  0.7818608E-02  0.1039966E+00
          2   -1    0    0  502    0  0.00000000000E+00  0.00000000000E+00  0.29073798728E+04  0.29073798728E+04  0.00000000000E+00 0. -1.
         -2   -1    0    0    0  501 -0.00000000000E+00 -0.00000000000E+00 -0.62624880183E+02  0.62624880183E+02  0.00000000000E+00 0.  1.
          6    1    1    2  502    0 -0.22369466640E+03 -0.29911476454E+03  0.10258593476E+04  0.11052060202E+04  0.17200000000E+03 0. -1.
         -6    1    1    2    0  501  0.22369466640E+03  0.29911476454E+03  0.18188956450E+04  0.18647987327E+04  0.17200000000E+03 0.  1.
</event>
<event>
 4    1  0.3191769E-002  0.1754083E+03  0.7818608E-02  0.1172322E+00
         -1   -1    0    0    0  501 -0.00000000000E+00  0.00000000000E+00  0.48855380297E+02  0.48855380297E+02  0.00000000000E+00 0.  1.
          1   -1    0    0  502    0  0.00000000000E+00 -0.00000000000E+00 -0.64924309666E+03  0.64924309666E+03  0.00000000000E+00 0. -1.
          6    1    1    2  502    0  0.26099385063E+02  0.22425073043E+02 -0.36063145288E+03  0.40102756340E+03  0.17200000000E+03 0. -1.
         -6    1    1    2    0  501 -0.26099385063E+02 -0.22425073043E+02 -0.23975626348E+03  0.29707091356E+03  0.17200000000E+03 0.  1.
</event>
<event>
 4    1  0.3191769E-002  0.2684505E+03  0.7818608E-02  0.1102170E+00
          1   -1    0    0  502    0  0.00000000000E+00  0.00000000000E+00  0.11673960807E+04  0.11673960807E+04  0.00000000000E+00 0. -1.
         -1   -1    0    0    0  501 -0.00000000000E+00 -0.00000000000E+00 -0.75753727122E+02  0.75753727122E+02  0.00000000000E+00 0.  1.
          6    1    1    2  502    0 -0.10993298717E+03  0.17434566033E+03  0.81324034989E+03  0.85640267260E+03  0.17200000000E+03 0. -1.
         -6    1    1    2    0  501  0.10993298717E+03 -0.17434566033E+03  0.27840200366E+03  0.38674713520E+03  0.17200000000E+03 0.  1.
</event>
<event>
 4    1  0.3191769E-002  0.2115052E+03  0.7818608E-02  0.1140380E+00
          1   -1    0    0  502    0  0.00000000000E+00  0.00000000000E+00  0.16826771883E+03  0.16826771883E+03  0.00000000000E+00 0. -1.
         -1   -1    0    0    0  501 -0.00000000000E+00 -0.00000000000E+00 -0.26595162578E+03  0.26595162578E+03  0.00000000000E+00 0.  1.
          6    1    1    2  502    0 -0.58742479204E+02  0.10816543021E+03 -0.53027756782E+02  0.21805132915E+03  0.17200000000E+03 0. -1.
         -6    1    1    2    0  501  0.58742479204E+02 -0.10816543021E+03 -0.44656150174E+02  0.21616801545E+03  0.17200000000E+03 0. -1.
</event>
<event>
 4    1  0.3191769E-002  0.1952632E+03  0.7818608E-02  0.1153798E+00
          2   -1    0    0  502    0  0.00000000000E+00  0.00000000000E+00  0.15564893164E+03  0.15564893164E+03  0.00000000000E+00 0. -1.
         -2   -1    0    0    0  501 -0.00000000000E+00 -0.00000000000E+00 -0.24574779984E+03  0.24574779984E+03  0.00000000000E+00 0.  1.
          6    1    1    2  502    0 -0.89046650735E+02  0.24787121011E+02 -0.33683524576E+02  0.19814713524E+03  0.17200000000E+03 0. -1.
         -6    1    1    2    0  501  0.89046650735E+02 -0.24787121011E+02 -0.56415343627E+02  0.20324959624E+03  0.17200000000E+03 0. -1.
</event>
<event>
 4    1  0.3191769E-002  0.3168525E+03  0.7818608E-02  0.1077107E+00
          2   -1    0    0  502    0  0.00000000000E+00  0.00000000000E+00  0.30388726824E+03  0.30388726824E+03  0.00000000000E+00 0. -1.
         -2   -1    0    0    0  501 -0.00000000000E+00 -0.00000000000E+00 -0.94078795644E+03  0.94078795644E+03  0.00000000000E+00 0.  1.
          6    1    1    2  502    0  0.23986646629E+03 -0.11521977296E+03  0.18284479822E+03  0.36582473668E+03  0.17200000000E+03 0. -1.
         -6    1    1    2    0  501 -0.23986646629E+03  0.11521977296E+03 -0.81974548643E+03  0.87885048800E+03  0.17200000000E+03 0.  1.
</event>
<event>
 4    1  0.3191769E-002  0.4635672E+03  0.7818608E-02  0.1023752E+00
         -1   -1    0    0    0  501 -0.00000000000E+00  0.00000000000E+00  0.33319213862E+03  0.33319213862E+03  0.00000000000E+00 0.  1.
          1   -1    0    0  502    0  0.00000000000E+00 -0.00000000000E+00 -0.97774254727E+03  0.97774254727E+03  0.00000000000E+00 0. -1.
          6    1    1    2  502    0 -0.35258633378E+02 -0.42903076266E+03 -0.70467803632E+03  0.84348426269E+03  0.17200000000E+03 0. -1.
         -6    1    1    2    0  501  0.35258633378E+02  0.42903076266E+03  0.60127627668E+02  0.46745042319E+03  0.17200000000E+03 0.  1.
</event>
<event>
 4    1  0.3191769E-002  0.2421895E+03  0.7818608E-02  0.1118343E+00
         -1   -1    0    0    0  501 -0.00000000000E+00  0.00000000000E+00  0.21133552982E+03  0.21133552982E+03  0.00000000000E+00 0.  1.
          1   -1    0    0  502    0  0.00000000000E+00 -0.00000000000E+00 -0.36031406598E+03  0.36031406598E+03  0.00000000000E+00 0. -1.
          6    1    1    2  502    0 -0.62280123237E+02  0.15872281193E+03 -0.21147822638E+03  0.32152571438E+03  0.17200000000E+03 0. -1.
         -6    1    1    2    0  501  0.62280123237E+02 -0.15872281193E+03  0.62499690219E+02  0.25012388142E+03  0.17200000000E+03 0.  1.
</event>
<event>
 4    1  0.3191769E-002  0.2011264E+03  0.7818608E-02  0.1148792E+00
          2   -1    0    0  502    0  0.00000000000E+00  0.00000000000E+00  0.94602952626E+03  0.94602952626E+03  0.00000000000E+00 0. -1.
         -2   -1    0    0    0  501 -0.00000000000E+00 -0.00000000000E+00 -0.67735729752E+02  0.67735729752E+02  0.00000000000E+00 0.  1.
          6    1    1    2  502    0 -0.93724741311E+02  0.45645470265E+02  0.74694160374E+03  0.77354611724E+03  0.17200000000E+03 0. -1.
         -6    1    1    2    0  501  0.93724741311E+02 -0.45645470265E+02  0.13135219276E+03  0.24021913877E+03  0.17200000000E+03 0. -1.
</event>
<event>
 4    1  0.3191769E-002  0.3275138E+03  0.7818608E-02  0.1072242E+00
         -2   -1    0    0    0  501 -0.00000000000E+00  0.00000000000E+00  0.47565597298E+03  0.47565597298E+03  0.00000000000E+00 0.  1.
          2   -1    0    0  502    0  0.00000000000E+00 -0.00000000000E+00 -0.42120225481E+03  0.42120225481E+03  0.00000000000E+00 0. -1.
          6    1    1    2  502    0 -0.23052702664E+03  0.15664792592E+03 -0.27843062414E+03  0.42987078892E+03  0.17200000000E+03 0. -1.
         -6    1    1    2    0  501  0.23052702664E+03 -0.15664792592E+03  0.33288434231E+03  0.46698743887E+03  0.17200000000E+03 0.  1.
</event>
<event>
 4    1  0.3191769E-002  0.3185144E+03  0.7818608E-02  0.1076335E+00
          1   -1    0    0  502    0  0.00000000000E+00  0.00000000000E+00  0.44771268294E+03  0.44771268294E+03  0.00000000000E+00 0. -1.
         -1   -1    0    0    0  501 -0.00000000000E+00 -0.00000000000E+00 -0.22659941040E+03  0.22659941040E+03  0.00000000000E+00 0.  1.
          6    1    1    2  502    0  0.89783067586E+02  0.25259934329E+03  0.11050343856E+03  0.33713860264E+03  0.17200000000E+03 0. -1.
         -6    1    1    2    0  501 -0.89783067586E+02 -0.25259934329E+03  0.11060983398E+03  0.33717349070E+03  0.17200000000E+03 0.  1.
</event>
<event>
 4    1  0.3191769E-002  0.5214955E+03  0.7818608E-02  0.1008316E+00
         -2   -1    0    0    0  501 -0.00000000000E+00  0.00000000000E+00  0.27615351680E+03  0.27615351680E+03  0.00000000000E+00 0.  1.
          2   -1    0    0  502    0  0.00000000000E+00 -0.00000000000E+00 -0.13134734005E+04  0.13134734005E+04  0.00000000000E+00 0. -1.
          6    1    1    2  502    0 -0.30656774212E+03  0.38521387036E+03 -0.91624788550E+03  0.10542616820E+04  0.17200000000E+03 0. -1.
         -6    1    1    2    0  501  0.30656774212E+03 -0.38521387036E+03 -0.12107199819E+03  0.53536523530E+03  0.17200000000E+03 0.  1.
</event>
<event>
 4    1  0.3191769E-002  0.2148119E+03  0.7818608E-02  0.1137811E+00
          2   -1    0    0  502    0  0.00000000000E+00  0.00000000000E+00  0.44189129313E+03  0.44189129313E+03  0.00000000000E+00 0. -1.
         -2   -1    0    0    0  501 -0.00000000000E+00 -0.00000000000E+00 -0.13084748393E+03  0.13084748393E+03  0.00000000000E+00 0.  1.
          6    1    1    2  502    0  0.86464701540E+02  0.95310165090E+02  0.28420953089E+03  0.35625725204E+03  0.17200000000E+03 0. -1.
         -6    1    1    2    0  501 -0.86464701540E+02 -0.95310165090E+02  0.26834278302E+02  0.21648152502E+03  0.17200000000E+03 0.  1.
</event>
<event>
 4    1  0.3191769E-002  0.2969624E+03  0.7818608E-02  0.1086769E+00
         -2   -1    0    0    0  501 -0.00000000000E+00  0.00000000000E+00  0.25595312802E+03  0.25595312802E+03  0.00000000000E+00 0.  1.
          2   -1    0    0  502    0  0.00000000000E+00 -0.00000000000E+00 -0.37477970608E+03  0.37477970608E+03  0.00000000000E+00 0. -1.
          6    1    1    2  502    0  0.15716701586E+03  0.18412280920E+03  0.30164361619E+02  0.29849048302E+03  0.17200000000E+03 0. -1.
         -6    1    1    2    0  501 -0.15716701586E+03 -0.18412280920E+03 -0.14899093968E+03  0.33224235108E+03  0.17200000000E+03 0.  1.
</event>
<event>
 4    1  0.3191769E-002  0.2285879E+03  0.7818608E-02  0.1127638E+00
          1   -1    0    0  502    0  0.00000000000E+00  0.00000000000E+00  0.38131852930E+03  0.38131852930E+03  0.00000000000E+00 0. -1.
         -1   -1    0    0    0  501 -0.00000000000E+00 -0.00000000000E+00 -0.14252865702E+03  0.14252865702E+03  0.00000000000E+00 0.  1.
          6    1    1    2  502    0 -0.13639429147E+03  0.63757667998E+02  0.17083648597E+03  0.28537264745E+03  0.17200000000E+03 0. -1.
         -6    1    1    2    0  501  0.13639429147E+03 -0.63757667998E+02  0.67953386311E+02  0.23847453886E+03  0.17200000000E+03 0.  1.
</event>
<event>
 4    1  0.3191769E-002  0.1799522E+03  0.7818608E-02  0.1167849E+00
         -3   -1    0    0    0  501 -0.00000000000E+00  0.00000000000E+00  0.22342875899E+03  0.22342875899E+03  0.00000000000E+00 0.  1.
          3   -1    0    0  502    0  0.00000000000E+00 -0.00000000000E+00 -0.14986480289E+03  0.14986480289E+03  0.00000000000E+00 0. -1.
          6    1    1    2  502    0  0.43330101181E+02  0.30353055795E+02  0.29323257228E+01  0.17997612119E+03  0.17200000000E+03 0.  1.
         -6    1    1    2    0  501 -0.43330101181E+02 -0.30353055795E+02  0.70631630385E+02  0.19331744069E+03  0.17200000000E+03 0.  1.
</event>
<event>
 4    1  0.3191769E-002  0.2137331E+03  0.7818608E-02  0.1138643E+00
          1   -1    0    0  502    0  0.00000000000E+00  0.00000000000E+00  0.65958026422E+03  0.65958026422E+03  0.00000000000E+00 0. -1.
         -1   -1    0    0    0  501 -0.00000000000E+00 -0.00000000000E+00 -0.81355272566E+02  0.81355272566E+02  0.00000000000E+00 0.  1.
          6    1    1    2  502    0  0.11213637126E+03 -0.59357309091E+02  0.43196364217E+03  0.48194859068E+03  0.17200000000E+03 0.  1.
         -6    1    1    2    0  501 -0.11213637126E+03  0.59357309091E+02  0.14626134949E+03  0.25898694611E+03  0.17200000000E+03 0.  1.
</event>
<event>
 4    1  0.3191769E-002  0.1779015E+03  0.7818608E-02  0.1169850E+00
         -2   -1    0    0    0  501 -0.00000000000E+00  0.00000000000E+00  0.45133412097E+02  0.45133412097E+02  0.00000000000E+00 0.  1.
          2   -1    0    0  502    0  0.00000000000E+00 -0.00000000000E+00 -0.99342950707E+03  0.99342950707E+03  0.00000000000E+00 0. -1.
          6    1    1    2  502    0 -0.30248738563E+01  0.45340675735E+02 -0.75577462058E+03  0.77643042435E+03  0.17200000000E+03 0. -1.
         -6    1    1    2    0  501  0.30248738563E+01 -0.45340675735E+02 -0.19252147439E+03  0.26213249482E+03  0.17200000000E+03 0.  1.
</event>
<event>
 4    1  0.3191769E-002  0.1766261E+03  0.7818608E-02  0.1171109E+00
         -1   -1    0    0    0  501 -0.00000000000E+00  0.00000000000E+00  0.20357705679E+03  0.20357705679E+03  0.00000000000E+00 0.  1.
          1   -1    0    0  502    0  0.00000000000E+00 -0.00000000000E+00 -0.55098852938E+03  0.55098852938E+03  0.00000000000E+00 0. -1.
          6    1    1    2  502    0  0.39258793011E+02  0.84578062126E+01 -0.49425759320E+03  0.52486889387E+03  0.17200000000E+03 0. -1.
         -6    1    1    2    0  501 -0.39258793011E+02 -0.84578062126E+01  0.14684612061E+03  0.22969669230E+03  0.17200000000E+03 0.  1.
</event>
<event>
 4    1  0.3191769E-002  0.8036555E+03  0.7818608E-02  0.9554741E-01
         -1   -1    0    0    0  501 -0.00000000000E+00  0.00000000000E+00  0.13599484716E+04  0.13599484716E+04  0.00000000000E+00 0.  1.
          1   -1    0    0  502    0  0.00000000000E+00 -0.00000000000E+00 -0.79417121152E+03  0.79417121152E+03  0.00000000000E+00 0. -1.
          6    1    1    2  502    0 -0.21562938080E+03 -0.75483918021E+03 -0.40000222401E+03  0.89769927986E+03  0.17200000000E+03 0. -1.
         -6    1    1    2    0  501  0.21562938080E+03  0.75483918021E+03  0.96577948406E+03  0.12564204032E+04  0.17200000000E+03 0.  1.
</event>
<event>
 4    1  0.3191769E-002  0.2334521E+03  0.7818608E-02  0.1124233E+00
         -2   -1    0    0    0  501 -0.00000000000E+00  0.00000000000E+00  0.30192665563E+02  0.30192665563E+02  0.00000000000E+00 0.  1.
          2   -1    0    0  502    0  0.00000000000E+00 -0.00000000000E+00 -0.27571415392E+04  0.27571415392E+04  0.00000000000E+00 0. -1.
          6    1    1    2  502    0 -0.11658929208E+03 -0.10640864799E+03 -0.21824376527E+04  0.21948881455E+04  0.17200000000E+03 0. -1.
         -6    1    1    2    0  501  0.11658929208E+03  0.10640864799E+03 -0.54451122095E+03  0.59244605926E+03  0.17200000000E+03 0.  1.
</event>
<event>
 4    1  0.3191769E-002  0.2950316E+03  0.7818608E-02  0.1087751E+00
          2   -1    0    0  502    0  0.00000000000E+00  0.00000000000E+00  0.47302995193E+04  0.47302995193E+04  0.00000000000E+00 0. -1.
         -2   -1    0    0    0  501 -0.00000000000E+00 -0.00000000000E+00 -0.18664515615E+02  0.18664515615E+02  0.00000000000E+00 0.  1.
          6    1    1    2  502    0  0.23891871615E+03 -0.19429709733E+02  0.26377955509E+04  0.26542435900E+04  0.17200000000E+03 0.  1.
         -6    1    1    2    0  501 -0.23891871615E+03  0.19429709733E+02  0.20738394528E+04  0.20947204450E+04  0.17200000000E+03 0. -1.
</event>
<event>
 4    1  0.3191769E-002  0.2426085E+03  0.7818608E-02  0.1118067E+00
          1   -1    0    0  502    0  0.00000000000E+00  0.00000000000E+00  0.27792165405E+04  0.27792165405E+04  0.00000000000E+00 0. -1.
         -1   -1    0    0    0  501 -0.00000000000E+00 -0.00000000000E+00 -0.21499506543E+02  0.21499506543E+02  0.00000000000E+00 0.  1.
          6    1    1    2  502    0 -0.67560578357E+02  0.15719561907E+03  0.15500422824E+04  0.15689136278E+04  0.17200000000E+03 0. -1.
         -6    1    1    2    0  501  0.67560578357E+02 -0.15719561907E+03  0.12076747516E+04  0.12318024193E+04  0.17200000000E+03 0.  1.
</event>
<event>
 4    1  0.3191769E-002  0.2141515E+03  0.7818608E-02  0.1138320E+00
         -2   -1    0    0    0  501 -0.00000000000E+00  0.00000000000E+00  0.15889217120E+03  0.15889217120E+03  0.00000000000E+00 0.  1.
          2   -1    0    0  502    0  0.00000000000E+00 -0.00000000000E+00 -0.34977556373E+03  0.34977556373E+03  0.00000000000E+00 0. -1.
          6    1    1    2  502    0 -0.12566340522E+03 -0.22035775003E+02 -0.20178152963E+03  0.29423910769E+03  0.17200000000E+03 0. -1.
         -6    1    1    2    0  501  0.12566340522E+03  0.22035775003E+02  0.10898137107E+02  0.21442862725E+03  0.17200000000E+03 0.  1.
</event>
<event>
 4    1  0.3191769E-002  0.5183871E+03  0.7818608E-02  0.1009088E+00
         -1   -1    0    0    0  501 -0.00000000000E+00  0.00000000000E+00  0.14227245288E+03  0.14227245288E+03  0.00000000000E+00 0.  1.
          1   -1    0    0  502    0  0.00000000000E+00 -0.00000000000E+00 -0.21810300823E+04  0.21810300823E+04  0.00000000000E+00 0. -1.
          6    1    1    2  502    0  0.39010925904E+03 -0.29488295433E+03 -0.59416998395E+03  0.78851960063E+03  0.17200000000E+03 0. -1.
         -6    1    1    2    0  501 -0.39010925904E+03  0.29488295433E+03 -0.14445876454E+04  0.15347829345E+04  0.17200000000E+03 0.  1.
</event>
<event>
 4    1  0.3191769E-002  0.2624568E+03  0.7818608E-02  0.1105676E+00
          2   -1    0    0  502    0  0.00000000000E+00  0.00000000000E+00  0.65872367946E+03  0.65872367946E+03  0.00000000000E+00 0. -1.
         -2   -1    0    0    0  501 -0.00000000000E+00 -0.00000000000E+00 -0.12672337189E+03  0.12672337189E+03  0.00000000000E+00 0.  1.
          6    1    1    2  502    0 -0.23791597895E+02  0.19680837689E+03  0.43019742851E+03  0.50393789780E+03  0.17200000000E+03 0. -1.
         -6    1    1    2    0  501  0.23791597895E+02 -0.19680837689E+03  0.10180287906E+03  0.28150915355E+03  0.17200000000E+03 0.  1.
</event>
<event>
 4    1  0.3191769E-002  0.3200322E+03  0.7818608E-02  0.1075634E+00
         -2   -1    0    0    0  501 -0.00000000000E+00  0.00000000000E+00  0.19031701497E+03  0.19031701497E+03  0.00000000000E+00 0.  1.
          2   -1    0    0  502    0  0.00000000000E+00 -0.00000000000E+00 -0.57145018732E+03  0.57145018732E+03  0.00000000000E+00 0. -1.
          6    1    1    2  502    0 -0.14039817994E+02  0.26951711528E+03 -0.98632756004E+02  0.33488656658E+03  0.17200000000E+03 0. -1.
         -6    1    1    2    0  501  0.14039817994E+02 -0.26951711528E+03 -0.28250041635E+03  0.42688063572E+03  0.17200000000E+03 0.  1.
</event>
<event>
 4    1  0.3191769E-002  0.3611067E+03  0.7818608E-02  0.1058147E+00
         -2   -1    0    0    0  501 -0.00000000000E+00  0.00000000000E+00  0.11490686565E+03  0.11490686565E+03  0.00000000000E+00 0.  1.
          2   -1    0    0  502    0  0.00000000000E+00 -0.00000000000E+00 -0.26020629536E+04  0.26020629536E+04  0.00000000000E+00 0. -1.
          6    1    1    2  502    0 -0.31749006838E+03 -0.37537645746E+01 -0.22636896194E+04  0.22923107833E+04  0.17200000000E+03 0. -1.
         -6    1    1    2    0  501  0.31749006838E+03  0.37537645746E+01 -0.22346646859E+03  0.42465903599E+03  0.17200000000E+03 0.  1.
</event>
<event>
 4    1  0.3191769E-002  0.1812355E+03  0.7818608E-02  0.1166613E+00
         -3   -1    0    0    0  501 -0.00000000000E+00  0.00000000000E+00  0.24598322244E+02  0.24598322244E+02  0.00000000000E+00 0.  1.
          3   -1    0    0  502    0  0.00000000000E+00 -0.00000000000E+00 -0.20573534930E+04  0.20573534930E+04  0.00000000000E+00 0. -1.
          6    1    1    2  502    0 -0.54621339324E+02 -0.16697545662E+02 -0.16330705037E+04  0.16430963358E+04  0.17200000000E+03 0. -1.
         -6    1    1    2    0  501  0.54621339324E+02  0.16697545662E+02 -0.39968466710E+03  0.43885547947E+03  0.17200000000E+03 0.  1.
</event>
<event>
 4    1  0.3191769E-002  0.3095460E+03  0.7818608E-02  0.1080564E+00
          2   -1    0    0  502    0  0.00000000000E+00  0.00000000000E+00  0.45817273266E+03  0.45817273266E+03  0.00000000000E+00 0. -1.
         -2   -1    0    0    0  501 -0.00000000000E+00 -0.00000000000E+00 -0.28102434996E+03  0.28102434996E+03  0.00000000000E+00 0.  1.
          6    1    1    2  502    0 -0.22099864214E+03 -0.13188753485E+03 -0.98364276105E+02  0.32479878770E+03  0.17200000000E+03 0.  1.
         -6    1    1    2    0  501  0.22099864214E+03  0.13188753485E+03  0.27551265881E+03  0.41439829493E+03  0.17200000000E+03 0.  1.
</event>
<event>
 4    1  0.3191769E-002  0.3607769E+03  0.7818608E-02  0.1058277E+00
          2   -1    0    0  502    0  0.00000000000E+00  0.00000000000E+00  0.13630089753E+04  0.13630089753E+04  0.00000000000E+00 0. -1.
         -2   -1    0    0    0  501 -0.00000000000E+00 -0.00000000000E+00 -0.11230863125E+03  0.11230863125E+03  0.00000000000E+00 0.  1.
          6    1    1    2  502    0  0.31382838500E+03 -0.45691322789E+02  0.91077076955E+03  0.97962408447E+03  0.17200000000E+03 0. -1.
         -6    1    1    2    0  501 -0.31382838500E+03  0.45691322789E+02  0.33992957447E+03  0.49569352206E+03  0.17200000000E+03 0.  1.
</event>
<event>
 4    1  0.3191769E-002  0.2675714E+03  0.7818608E-02  0.1102678E+00
         -2   -1    0    0    0  501 -0.00000000000E+00  0.00000000000E+00  0.58449816019E+02  0.58449816019E+02  0.00000000000E+00 0.  1.
          2   -1    0    0  502    0  0.00000000000E+00 -0.00000000000E+00 -0.13825850778E+04  0.13825850778E+04  0.00000000000E+00 0. -1.
          6    1    1    2  502    0 -0.33642094003E+02  0.20218471753E+03 -0.90540625346E+03  0.94411595384E+03  0.17200000000E+03 0. -1.
         -6    1    1    2    0  501  0.33642094003E+02 -0.20218471753E+03 -0.41872900828E+03  0.49691893993E+03  0.17200000000E+03 0.  1.
</event>
<event>
 4    1  0.3191769E-002  0.1744440E+03  0.7818608E-02  0.1173291E+00
          2   -1    0    0  502    0  0.00000000000E+00  0.00000000000E+00  0.10258744089E+04  0.10258744089E+04  0.00000000000E+00 0. -1.
         -2   -1    0    0    0  501 -0.00000000000E+00 -0.00000000000E+00 -0.51165010957E+02  0.51165010957E+02  0.00000000000E+00 0.  1.
          6    1    1    2  502    0  0.12724847899E+02  0.26168360845E+02  0.83645700217E+03  0.85445363909E+03  0.17200000000E+03 0. -1.
         -6    1    1    2    0  501 -0.12724847899E+02 -0.26168360845E+02  0.13825239576E+03  0.22258578076E+03  0.17200000000E+03 0.  1.
</event>
<event>
 4    1  0.3191769E-002  0.1997379E+03  0.7818608E-02  0.1149960E+00
         -1   -1    0    0    0  501 -0.00000000000E+00  0.00000000000E+00  0.29032577484E+03  0.29032577484E+03  0.00000000000E+00 0.  1.
          1   -1    0    0  502    0  0.00000000000E+00 -0.00000000000E+00 -0.20238670951E+03  0.20238670951E+03  0.00000000000E+00 0. -1.
          6    1    1    2  502    0  0.83748317917E+02 -0.57423431365E+02 -0.95613747753E+02  0.22144349162E+03  0.17200000000E+03 0. -1.
         -6    1    1    2    0  501 -0.83748317917E+02  0.57423431365E+02  0.18355281308E+03  0.27126899272E+03  0.17200000000E+03 0.  1.
</event>
<event>
 4    1  0.3191769E-002  0.3836844E+03  0.7818608E-02  0.1049580E+00
         -1   -1    0    0    0  501 -0.00000000000E+00  0.00000000000E+00  0.79278354404E+03  0.79278354404E+03  0.00000000000E+00 0.  1.
          1   -1    0    0  502    0  0.00000000000E+00 -0.00000000000E+00 -0.66656306593E+03  0.66656306593E+03  0.00000000000E+00 0. -1.
          6    1    1    2  502    0  0.10757711798E+03  0.32566375934E+03 -0.55664765585E+03  0.67606976949E+03  0.17200000000E+03 0. -1.
         -6    1    1    2    0  501 -0.10757711798E+03 -0.32566375934E+03  0.68286813395E+03  0.78327684048E+03  0.17200000000E+03 0.  1.
</event>
<event>
 4    1  0.3191769E-002  0.2858821E+03  0.7818608E-02  0.1092519E+00
         -1   -1    0    0    0  501 -0.00000000000E+00  0.00000000000E+00  0.94182431811E+02  0.94182431811E+02  0.00000000000E+00 0.  1.
          1   -1    0    0  502    0  0.00000000000E+00 -0.00000000000E+00 -0.88711409081E+03  0.88711409081E+03  0.00000000000E+00 0. -1.
          6    1    1    2  502    0  0.10571408120E+03 -0.20240824516E+03 -0.46892101740E+03  0.54919530700E+03  0.17200000000E+03 0. -1.
         -6    1    1    2    0  501 -0.10571408120E+03  0.20240824516E+03 -0.32401064160E+03  0.43210121562E+03  0.17200000000E+03 0. -1.
</event>
<event>
 4    1  0.3191769E-002  0.6418191E+03  0.7818608E-02  0.9822252E-01
          1   -1    0    0  502    0  0.00000000000E+00  0.00000000000E+00  0.31712059542E+03  0.31712059542E+03  0.00000000000E+00 0. -1.
         -1   -1    0    0    0  501 -0.00000000000E+00 -0.00000000000E+00 -0.13988003225E+04  0.13988003225E+04  0.00000000000E+00 0.  1.
          6    1    1    2  502    0 -0.57293658284E+03  0.23257574831E+03 -0.77003701445E+03  0.10024414249E+04  0.17200000000E+03 0.  1.
         -6    1    1    2    0  501  0.57293658284E+03 -0.23257574831E+03 -0.31164271260E+03  0.71347949303E+03  0.17200000000E+03 0. -1.
</event>
<event>
 4    1  0.3191769E-002  0.1990973E+03  0.7818608E-02  0.1150503E+00
         -1   -1    0    0    0  501 -0.00000000000E+00  0.00000000000E+00  0.90122874910E+02  0.90122874910E+02  0.00000000000E+00 0.  1.
          1   -1    0    0  502    0  0.00000000000E+00 -0.00000000000E+00 -0.46904475284E+03  0.46904475284E+03  0.00000000000E+00 0. -1.
          6    1    1    2  502    0  0.39390725572E+02 -0.92217616521E+02 -0.25922401939E+03  0.32685900674E+03  0.17200000000E+03 0. -1.
         -6    1    1    2    0  501 -0.39390725572E+02  0.92217616521E+02 -0.11969785855E+03  0.23230862102E+03  0.17200000000E+03 0.  1.
</event>
<event>
 4    1  0.3191769E-002  0.1828492E+03  0.7818608E-02  0.1165074E+00
         -3   -1    0    0    0  501 -0.00000000000E+00  0.00000000000E+00  0.53930044987E+03  0.53930044987E+03  0.00000000000E+00 0.  1.
          3   -1    0    0  502    0  0.00000000000E+00 -0.00000000000E+00 -0.66059664566E+02  0.66059664566E+02  0.00000000000E+00 0. -1.
          6    1    1    2  502    0 -0.59129679271E+02 -0.18801938261E+02  0.16153804544E+03  0.24398436831E+03  0.17200000000E+03 0. -1.
         -6    1    1    2    0  501  0.59129679271E+02  0.18801938261E+02  0.31170273986E+03  0.36137574613E+03  0.17200000000E+03 0.  1.
</event>
<event>
 4    1  0.3191769E-002  0.2777275E+03  0.7818608E-02  0.1096937E+00
          1   -1    0    0  502    0  0.00000000000E+00  0.00000000000E+00  0.56499757310E+03  0.56499757310E+03  0.00000000000E+00 0. -1.
         -1   -1    0    0    0  501 -0.00000000000E+00 -0.00000000000E+00 -0.13821631837E+03  0.13821631837E+03  0.00000000000E+00 0.  1.
          6    1    1    2  502    0 -0.46927910393E+02  0.21294675403E+03  0.25236146840E+03  0.37525839039E+03  0.17200000000E+03 0. -1.
         -6    1    1    2    0  501  0.46927910393E+02 -0.21294675403E+03  0.17441978633E+03  0.32795550108E+03  0.17200000000E+03 0.  1.
</event>
<event>
 4    1  0.3191769E-002  0.1764128E+03  0.7818608E-02  0.1171321E+00
         -2   -1    0    0    0  501 -0.00000000000E+00  0.00000000000E+00  0.22948370597E+02  0.22948370597E+02  0.00000000000E+00 0.  1.
          2   -1    0    0  502    0  0.00000000000E+00 -0.00000000000E+00 -0.14131955893E+04  0.14131955893E+04  0.00000000000E+00 0. -1.
          6    1    1    2  502    0  0.39093669924E+02 -0.30245603011E+01 -0.55085466025E+03  0.57841362338E+03  0.17200000000E+03 0.  1.
         -6    1    1    2    0  501 -0.39093669924E+02  0.30245603011E+01 -0.83939255844E+03  0.85773033651E+03  0.17200000000E+03 0. -1.
</event>
<event>
 4    1  0.3191769E-002  0.2274539E+03  0.7818608E-02  0.1128445E+00
         -1   -1    0    0    0  501 -0.00000000000E+00  0.00000000000E+00  0.32176542151E+03  0.32176542151E+03  0.00000000000E+00 0.  1.
          1   -1    0    0  502    0  0.00000000000E+00 -0.00000000000E+00 -0.18873687203E+03  0.18873687203E+03  0.00000000000E+00 0. -1.
          6    1    1    2  502    0 -0.14196192137E+03 -0.44699952907E+02 -0.31714668696E+02  0.22965429044E+03  0.17200000000E+03 0. -1.
         -6    1    1    2    0  501  0.14196192137E+03  0.44699952907E+02  0.16474321818E+03  0.28084800310E+03  0.17200000000E+03 0.  1.
</event>
<event>
 4    1  0.3191769E-002  0.7185597E+03  0.7818608E-02  0.9686009E-01
          2   -1    0    0  502    0  0.00000000000E+00  0.00000000000E+00  0.35116014865E+03  0.35116014865E+03  0.00000000000E+00 0. -1.
         -2   -1    0    0    0  501 -0.00000000000E+00 -0.00000000000E+00 -0.14768430619E+04  0.14768430619E+04  0.00000000000E+00 0.  1.
          6    1    1    2  502    0  0.17974126305E+03  0.67411947634E+03 -0.62345035877E+03  0.95132451869E+03  0.17200000000E+03 0. -1.
         -6    1    1    2    0  501 -0.17974126305E+03 -0.67411947634E+03 -0.50223255453E+03  0.87667869191E+03  0.17200000000E+03 0.  1.
</event>
<event>
 4    1  0.3191769E-002  0.2026489E+03  0.7818608E-02  0.1147523E+00
         -1   -1    0    0    0  501 -0.00000000000E+00  0.00000000000E+00  0.47912103527E+02  0.47912103527E+02  0.00000000000E+00 0.  1.
          1   -1    0    0  502    0  0.00000000000E+00 -0.00000000000E+00 -0.86058420948E+03  0.86058420948E+03  0.00000000000E+00 0. -1.
          6    1    1    2  502    0 -0.42112403632E+02  0.98534807764E+02 -0.43514413852E+03  0.48001769152E+03  0.17200000000E+03 0. -1.
         -6    1    1    2    0  501  0.42112403632E+02 -0.98534807764E+02 -0.37752796744E+03  0.42847862149E+03  0.17200000000E+03 0. -1.
</event>
<event>
 4    1  0.3191769E-002  0.2547739E+03  0.7818608E-02  0.1110324E+00
         -3   -1    0    0    0  501 -0.00000000000E+00  0.00000000000E+00  0.29881656146E+03  0.29881656146E+03  0.00000000000E+00 0.  1.
          3   -1    0    0  502    0  0.00000000000E+00 -0.00000000000E+00 -0.22370916699E+03  0.22370916699E+03  0.00000000000E+00 0. -1.
          6    1    1    2  502    0 -0.14442120666E+03  0.12028412556E+03 -0.69338192441E+01  0.25486826724E+03  0.17200000000E+03 0. -1.
         -6    1    1    2    0  501  0.14442120666E+03 -0.12028412556E+03  0.82041213714E+02  0.26765746121E+03  0.17200000000E+03 0. -1.
</event>
<event>
 4    1  0.3191769E-002  0.5075564E+03  0.7818608E-02  0.1011825E+00
         -2   -1    0    0    0  501 -0.00000000000E+00  0.00000000000E+00  0.92356840454E+02  0.92356840454E+02  0.00000000000E+00 0.  1.
          2   -1    0    0  502    0  0.00000000000E+00 -0.00000000000E+00 -0.29655855522E+04  0.29655855522E+04  0.00000000000E+00 0. -1.
          6    1    1    2  502    0 -0.47740507757E+03  0.10670871029E+02 -0.10638635857E+04  0.11787362744E+04  0.17200000000E+03 0. -1.
         -6    1    1    2    0  501  0.47740507757E+03 -0.10670871029E+02 -0.18093651261E+04  0.18792061183E+04  0.17200000000E+03 0.  1.
</event>
<event>
 4    1  0.3191769E-002  0.2084913E+03  0.7818608E-02  0.1142766E+00
          2   -1    0    0  502    0  0.00000000000E+00  0.00000000000E+00  0.47713953880E+03  0.47713953880E+03  0.00000000000E+00 0. -1.
         -2   -1    0    0    0  501 -0.00000000000E+00 -0.00000000000E+00 -0.17220569740E+03  0.17220569740E+03  0.00000000000E+00 0.  1.
          6    1    1    2  502    0  0.38611693800E+02 -0.11132726445E+03  0.37528005758E+03  0.42930611960E+03  0.17200000000E+03 0. -1.
         -6    1    1    2    0  501 -0.38611693800E+02  0.11132726445E+03 -0.70346216181E+02  0.22003911661E+03  0.17200000000E+03 0.  1.
</event>
<event>
 4    1  0.3191769E-002  0.1751827E+03  0.7818608E-02  0.1172548E+00
         -1   -1    0    0    0  501 -0.00000000000E+00  0.00000000000E+00  0.27938408634E+02  0.27938408634E+02  0.00000000000E+00 0.  1.
          1   -1    0    0  502    0  0.00000000000E+00 -0.00000000000E+00 -0.11347434604E+04  0.11347434604E+04  0.00000000000E+00 0. -1.
          6    1    1    2  502    0 -0.26492011431E+02 -0.20078349109E+02 -0.65736858418E+03  0.68031053368E+03  0.17200000000E+03 0.  1.
         -6    1    1    2    0  501  0.26492011431E+02  0.20078349109E+02 -0.44943646758E+03  0.48237133534E+03  0.17200000000E+03 0.  1.
</event>
<event>
 4    1  0.3191769E-002  0.8589033E+03  0.7818608E-02  0.9478465E-01
         -2   -1    0    0    0  501 -0.00000000000E+00  0.00000000000E+00  0.59869047246E+03  0.59869047246E+03  0.00000000000E+00 0.  1.
          2   -1    0    0  502    0  0.00000000000E+00 -0.00000000000E+00 -0.21834474843E+04  0.21834474843E+04  0.00000000000E+00 0. -1.
          6    1    1    2  502    0 -0.63815833200E+03  0.54852970680E+03  0.12578665866E+03  0.86806519309E+03  0.17200000000E+03 0. -1.
         -6    1    1    2    0  501  0.63815833200E+03 -0.54852970680E+03 -0.17105436705E+04  0.19140727637E+04  0.17200000000E+03 0.  1.
</event>
<event>
 4    1  0.3191769E-002  0.5812513E+03  0.7818608E-02  0.9945086E-01
          2   -1    0    0  502    0  0.00000000000E+00  0.00000000000E+00  0.27506446630E+04  0.27506446630E+04  0.00000000000E+00 0. -1.
         -2   -1    0    0    0  501 -0.00000000000E+00 -0.00000000000E+00 -0.19119250960E+03  0.19119250960E+03  0.00000000000E+00 0.  1.
          6    1    1    2  502    0 -0.14272645988E+03  0.53656144460E+03  0.21592996957E+04  0.22361637243E+04  0.17200000000E+03 0.  1.
         -6    1    1    2    0  501  0.14272645988E+03 -0.53656144460E+03  0.40015245771E+03  0.70567344827E+03  0.17200000000E+03 0.  1.
</event>
<event>
 4    1  0.3191769E-002  0.2038883E+03  0.7818608E-02  0.1146499E+00
          2   -1    0    0  502    0  0.00000000000E+00  0.00000000000E+00  0.89088618930E+02  0.89088618930E+02  0.00000000000E+00 0. -1.
         -2   -1    0    0    0  501 -0.00000000000E+00 -0.00000000000E+00 -0.81847618776E+03  0.81847618776E+03  0.00000000000E+00 0.  1.
          6    1    1    2  502    0 -0.10702651555E+03  0.23059819524E+02 -0.67165729529E+02  0.21466640522E+03  0.17200000000E+03 0. -1.
         -6    1    1    2    0  501  0.10702651555E+03 -0.23059819524E+02 -0.66222183930E+03  0.69289840147E+03  0.17200000000E+03 0.  1.
</event>
<event>
 4    1  0.3191769E-002  0.4630572E+03  0.7818608E-02  0.1023898E+00
         -1   -1    0    0    0  501 -0.00000000000E+00  0.00000000000E+00  0.23865789737E+03  0.23865789737E+03  0.00000000000E+00 0.  1.
          1   -1    0    0  502    0  0.00000000000E+00 -0.00000000000E+00 -0.14693627469E+04  0.14693627469E+04  0.00000000000E+00 0. -1.
          6    1    1    2  502    0 -0.20785843636E+03 -0.37634142747E+03 -0.11476859002E+04  0.12375802702E+04  0.17200000000E+03 0. -1.
         -6    1    1    2    0  501  0.20785843636E+03  0.37634142747E+03 -0.83018949265E+02  0.47044037405E+03  0.17200000000E+03 0.  1.
</event>
<event>
 4    1  0.3191769E-002  0.2528437E+03  0.7818608E-02  0.1111521E+00
         -1   -1    0    0    0  501 -0.00000000000E+00  0.00000000000E+00  0.17369179240E+03  0.17369179240E+03  0.00000000000E+00 0.  1.
          1   -1    0    0  502    0  0.00000000000E+00 -0.00000000000E+00 -0.36920210391E+03  0.36920210391E+03  0.00000000000E+00 0. -1.
          6    1    1    2  502    0 -0.17935985934E+03  0.46647250601E+02 -0.82692835972E+02  0.26602261229E+03  0.17200000000E+03 0. -1.
         -6    1    1    2    0  501  0.17935985934E+03 -0.46647250601E+02 -0.11281747554E+03  0.27687128402E+03  0.17200000000E+03 0.  1.
</event>
<event>
 4    1  0.3191769E-002  0.3224730E+03  0.7818608E-02  0.1074517E+00
          1   -1    0    0  502    0  0.00000000000E+00  0.00000000000E+00  0.10499843940E+04  0.10499843940E+04  0.00000000000E+00 0. -1.
         -1   -1    0    0    0  501 -0.00000000000E+00 -0.00000000000E+00 -0.24185241189E+03  0.24185241189E+03  0.00000000000E+00 0.  1.
          6    1    1    2  502    0 -0.57365023382E+02 -0.26667219996E+03  0.90041574138E+03  0.95641900622E+03  0.17200000000E+03 0. -1.
         -6    1    1    2    0  501  0.57365023382E+02  0.26667219996E+03 -0.92283759229E+02  0.33541779970E+03  0.17200000000E+03 0.  1.
</event>
<event>
 4    1  0.3191769E-002  0.2260173E+03  0.7818608E-02  0.1129475E+00
          2   -1    0    0  502    0  0.00000000000E+00  0.00000000000E+00  0.14885427586E+04  0.14885427586E+04  0.00000000000E+00 0. -1.
         -2   -1    0    0    0  501 -0.00000000000E+00 -0.00000000000E+00 -0.47973416624E+02  0.47973416624E+02  0.00000000000E+00 0.  1.
          6    1    1    2  502    0  0.12678737840E+03  0.73653101210E+02  0.11301670095E+04  0.11525455688E+04  0.17200000000E+03 0. -1.
         -6    1    1    2    0  501 -0.12678737840E+03 -0.73653101210E+02  0.31040233245E+03  0.38397060647E+03  0.17200000000E+03 0.  1.
</event>
<event>
 4    1  0.3191769E-002  0.2131582E+03  0.7818608E-02  0.1139089E+00
          1   -1    0    0  502    0  0.00000000000E+00  0.00000000000E+00  0.83203313815E+03  0.83203313815E+03  0.00000000000E+00 0. -1.
         -1   -1    0    0    0  501 -0.00000000000E+00 -0.00000000000E+00 -0.55026562141E+02  0.55026562141E+02  0.00000000000E+00 0.  1.
          6    1    1    2  502    0  0.50581206676E+02  0.11529936209E+03  0.34986148466E+03  0.40968214485E+03  0.17200000000E+03 0.  1.
         -6    1    1    2    0  501 -0.50581206676E+02 -0.11529936209E+03  0.42714509135E+03  0.47737755544E+03  0.17200000000E+03 0.  1.
</event>
<event>
 4    1  0.3191769E-002  0.1734111E+03  0.7818608E-02  0.1174337E+00
          2   -1    0    0  502    0  0.00000000000E+00  0.00000000000E+00  0.30500306578E+04  0.30500306578E+04  0.00000000000E+00 0. -1.
         -2   -1    0    0    0  501 -0.00000000000E+00 -0.00000000000E+00 -0.12324271974E+02  0.12324271974E+02  0.00000000000E+00 0.  1.
          6    1    1    2  502    0  0.75235969474E+00  0.22064712880E+02  0.83408488191E+03  0.85192077556E+03  0.17200000000E+03 0.  1.
         -6    1    1    2    0  501 -0.75235969474E+00 -0.22064712880E+02  0.22036215040E+04  0.22104341543E+04  0.17200000000E+03 0. -1.
</event>
<event>
 4    1  0.3191769E-002  0.1727832E+03  0.7818608E-02  0.1174976E+00
         -1   -1    0    0    0  501 -0.00000000000E+00  0.00000000000E+00  0.16067620254E+03  0.16067620254E+03  0.00000000000E+00 0.  1.
          1   -1    0    0  502    0  0.00000000000E+00 -0.00000000000E+00 -0.21739651084E+03  0.21739651084E+03  0.00000000000E+00 0. -1.
          6    1    1    2  502    0 -0.15334257345E+02 -0.59062404117E+01 -0.10042478433E+03  0.19984784320E+03  0.17200000000E+03 0. -1.
         -6    1    1    2    0  501  0.15334257345E+02  0.59062404117E+01  0.43704476034E+02  0.17822487018E+03  0.17200000000E+03 0. -1.
</event>
<event>
 4    1  0.3191769E-002  0.2948489E+03  0.7818608E-02  0.1087844E+00
          2   -1    0    0  502    0  0.00000000000E+00  0.00000000000E+00  0.84521525109E+03  0.84521525109E+03  0.00000000000E+00 0. -1.
         -2   -1    0    0    0  501 -0.00000000000E+00 -0.00000000000E+00 -0.14516343124E+03  0.14516343124E+03  0.00000000000E+00 0.  1.
          6    1    1    2  502    0  0.20605594507E+03  0.12203616934E+03  0.61735637758E+03  0.68415259706E+03  0.17200000000E+03 0. -1.
         -6    1    1    2    0  501 -0.20605594507E+03 -0.12203616934E+03  0.82695442279E+02  0.30622608527E+03  0.17200000000E+03 0.  1.
</event>
<event>
 4    1  0.3191769E-002  0.2306906E+03  0.7818608E-02  0.1126155E+00
          2   -1    0    0  502    0  0.00000000000E+00  0.00000000000E+00  0.26409100165E+03  0.26409100165E+03  0.00000000000E+00 0. -1.
         -2   -1    0    0    0  501 -0.00000000000E+00 -0.00000000000E+00 -0.23550435689E+03  0.23550435689E+03  0.00000000000E+00 0.  1.
          6    1    1    2  502    0  0.78356257025E+02 -0.13226667352E+03  0.10919269854E+03  0.25522778327E+03  0.17200000000E+03 0. -1.
         -6    1    1    2    0  501 -0.78356257025E+02  0.13226667352E+03 -0.80606053781E+02  0.24436757527E+03  0.17200000000E+03 0.  1.
</event>
<event>
 4    1  0.3191769E-002  0.3718972E+03  0.7818608E-02  0.1053970E+00
         -3   -1    0    0    0  501 -0.00000000000E+00  0.00000000000E+00  0.15288817019E+03  0.15288817019E+03  0.00000000000E+00 0.  1.
          3   -1    0    0  502    0  0.00000000000E+00 -0.00000000000E+00 -0.90588091026E+03  0.90588091026E+03  0.00000000000E+00 0. -1.
          6    1    1    2  502    0  0.10739439193E+03 -0.31175302147E+03 -0.39615416080E+03  0.54336508991E+03  0.17200000000E+03 0. -1.
         -6    1    1    2    0  501 -0.10739439193E+03  0.31175302147E+03 -0.35683857927E+03  0.51540399054E+03  0.17200000000E+03 0.  1.
</event>
<event>
 4    1  0.3191769E-002  0.3977203E+03  0.7818608E-02  0.1044572E+00
         -2   -1    0    0    0  501 -0.00000000000E+00  0.00000000000E+00  0.18674930654E+03  0.18674930654E+03  0.00000000000E+00 0.  1.
          2   -1    0    0  502    0  0.00000000000E+00 -0.00000000000E+00 -0.12605153163E+04  0.12605153163E+04  0.00000000000E+00 0. -1.
          6    1    1    2  502    0  0.99576046541E+02  0.34450258566E+03 -0.95133697842E+03  0.10311272798E+04  0.17200000000E+03 0. -1.
         -6    1    1    2    0  501 -0.99576046541E+02 -0.34450258566E+03 -0.12242903131E+03  0.41613734305E+03  0.17200000000E+03 0.  1.
</event>
<event>
 4    1  0.3191769E-002  0.2103582E+03  0.7818608E-02  0.1141283E+00
         -2   -1    0    0    0  501 -0.00000000000E+00  0.00000000000E+00  0.33482284887E+02  0.33482284887E+02  0.00000000000E+00 0.  1.
          2   -1    0    0  502    0  0.00000000000E+00 -0.00000000000E+00 -0.14089989169E+04  0.14089989169E+04  0.00000000000E+00 0. -1.
          6    1    1    2  502    0  0.87533167082E+02 -0.83693007158E+02 -0.50814061353E+03  0.54996132401E+03  0.17200000000E+03 0. -1.
         -6    1    1    2    0  501 -0.87533167082E+02  0.83693007158E+02 -0.86737601844E+03  0.89251987774E+03  0.17200000000E+03 0. -1.
</event>
<event>
 4    1  0.3191769E-002  0.1758948E+03  0.7818608E-02  0.1171836E+00
         -2   -1    0    0    0  501 -0.00000000000E+00  0.00000000000E+00  0.18611055844E+02  0.18611055844E+02  0.00000000000E+00 0.  1.
          2   -1    0    0  502    0  0.00000000000E+00 -0.00000000000E+00 -0.20078599652E+04  0.20078599652E+04  0.00000000000E+00 0. -1.
          6    1    1    2  502    0 -0.29747623920E+01  0.36689625342E+02 -0.14149095154E+04  0.14258007976E+04  0.17200000000E+03 0. -1.
         -6    1    1    2    0  501  0.29747623920E+01 -0.36689625342E+02 -0.57433939397E+03  0.60067022341E+03  0.17200000000E+03 0.  1.
</event>
<event>
 4    1  0.3191769E-002  0.3042630E+03  0.7818608E-02  0.1083129E+00
         -2   -1    0    0    0  501 -0.00000000000E+00  0.00000000000E+00  0.28514409009E+03  0.28514409009E+03  0.00000000000E+00 0.  1.
          2   -1    0    0  502    0  0.00000000000E+00 -0.00000000000E+00 -0.33843575473E+03  0.33843575473E+03  0.00000000000E+00 0. -1.
          6    1    1    2  502    0 -0.80150787456E+02  0.23783992170E+03  0.36249876386E+02  0.30641480158E+03  0.17200000000E+03 0.  1.
         -6    1    1    2    0  501  0.80150787456E+02 -0.23783992170E+03 -0.89541541020E+02  0.31716504324E+03  0.17200000000E+03 0.  1.
</event>
<event>
 4    1  0.3191769E-002  0.2030172E+03  0.7818608E-02  0.1147218E+00
          2   -1    0    0  502    0  0.00000000000E+00  0.00000000000E+00  0.29271661833E+03  0.29271661833E+03  0.00000000000E+00 0. -1.
         -2   -1    0    0    0  501 -0.00000000000E+00 -0.00000000000E+00 -0.48420613383E+03  0.48420613383E+03  0.00000000000E+00 0.  1.
          6    1    1    2  502    0 -0.42892482942E+02  0.98955664830E+02  0.23139513635E+03  0.30783063171E+03  0.17200000000E+03 0. -1.
         -6    1    1    2    0  501  0.42892482942E+02 -0.98955664830E+02 -0.42288465185E+03  0.46909212045E+03  0.17200000000E+03 0.  1.
</event>
<event>
 4    1  0.3191769E-002  0.3314323E+03  0.7818608E-02  0.1070505E+00
          2   -1    0    0  502    0  0.00000000000E+00  0.00000000000E+00  0.15643449780E+04  0.15643449780E+04  0.00000000000E+00 0. -1.
         -2   -1    0    0    0  501 -0.00000000000E+00 -0.00000000000E+00 -0.72312694998E+02  0.72312694998E+02  0.00000000000E+00 0.  1.
          6    1    1    2  502    0  0.19897318785E+03  0.20167558404E+03  0.88524699085E+03  0.94525637025E+03  0.17200000000E+03 0. -1.
         -6    1    1    2    0  501 -0.19897318785E+03 -0.20167558404E+03  0.60678529217E+03  0.69140130277E+03  0.17200000000E+03 0.  1.
</event>
<event>
 4    1  0.3191769E-002  0.1792270E+03  0.7818608E-02  0.1168553E+00
         -1   -1    0    0    0  501 -0.00000000000E+00  0.00000000000E+00  0.71621716493E+03  0.71621716493E+03  0.00000000000E+00 0.  1.
          1   -1    0    0  502    0  0.00000000000E+00 -0.00000000000E+00 -0.72090665713E+02  0.72090665713E+02  0.00000000000E+00 0. -1.
          6    1    1    2  502    0 -0.25598160230E+02 -0.43394112001E+02  0.79773263777E+02  0.19617871540E+03  0.17200000000E+03 0. -1.
         -6    1    1    2    0  501  0.25598160230E+02  0.43394112001E+02  0.56435323544E+03  0.59212911524E+03  0.17200000000E+03 0.  1.
</event>
<event>
 4    1  0.3191769E-002  0.2349040E+03  0.7818608E-02  0.1123235E+00
         -1   -1    0    0    0  501 -0.00000000000E+00  0.00000000000E+00  0.33320412749E+02  0.33320412749E+02  0.00000000000E+00 0.  1.
          1   -1    0    0  502    0  0.00000000000E+00 -0.00000000000E+00 -0.17674199405E+04  0.17674199405E+04  0.00000000000E+00 0. -1.
          6    1    1    2  502    0 -0.15974128648E+03  0.88669952053E+01 -0.10930748863E+04  0.11180306835E+04  0.17200000000E+03 0. -1.
         -6    1    1    2    0  501  0.15974128648E+03 -0.88669952053E+01 -0.64102464150E+03  0.68270966978E+03  0.17200000000E+03 0. -1.
</event>
<event>
 4    1  0.3191769E-002  0.3855899E+03  0.7818608E-02  0.1048887E+00
          2   -1    0    0  502    0  0.00000000000E+00  0.00000000000E+00  0.11156531216E+04  0.11156531216E+04  0.00000000000E+00 0. -1.
         -2   -1    0    0    0  501 -0.00000000000E+00 -0.00000000000E+00 -0.30345214346E+03  0.30345214346E+03  0.00000000000E+00 0.  1.
          6    1    1    2  502    0 -0.22655124259E+03  0.26032687908E+03  0.93747480217E+03  0.10136757638E+04  0.17200000000E+03 0. -1.
         -6    1    1    2    0  501  0.22655124259E+03 -0.26032687908E+03 -0.12527382402E+03  0.40542950124E+03  0.17200000000E+03 0.  1.
</event>
<event>
 4    1  0.3191769E-002  0.2761943E+03  0.7818608E-02  0.1097786E+00
         -1   -1    0    0    0  501 -0.00000000000E+00  0.00000000000E+00  0.12588207496E+04  0.12588207496E+04  0.00000000000E+00 0.  1.
          1   -1    0    0  502    0  0.00000000000E+00 -0.00000000000E+00 -0.61082201567E+02  0.61082201567E+02  0.00000000000E+00 0. -1.
          6    1    1    2  502    0 -0.42902646690E+02  0.21179860539E+03  0.54017225180E+03  0.60668719119E+03  0.17200000000E+03 0.  1.
         -6    1    1    2    0  501  0.42902646690E+02 -0.21179860539E+03  0.65756629624E+03  0.71321575999E+03  0.17200000000E+03 0.  1.
</event>
<event>
 4    1  0.3191769E-002  0.1926757E+03  0.7818608E-02  0.1156070E+00
          1   -1    0    0  502    0  0.00000000000E+00  0.00000000000E+00  0.64486309662E+03  0.64486309662E+03  0.00000000000E+00 0. -1.
         -1   -1    0    0    0  501 -0.00000000000E+00 -0.00000000000E+00 -0.93563570616E+02  0.93563570616E+02  0.00000000000E+00 0.  1.
          6    1    1    2  502    0 -0.78301655078E+02 -0.37533646591E+02  0.50465443925E+03  0.54018517831E+03  0.17200000000E+03 0. -1.
         -6    1    1    2    0  501  0.78301655078E+02  0.37533646591E+02  0.46645086761E+02  0.19824148893E+03  0.17200000000E+03 0.  1.
</event>
<event>
 4    1  0.3191769E-002  0.2110583E+03  0.7818608E-02  0.1140731E+00
          2   -1    0    0  502    0  0.00000000000E+00  0.00000000000E+00  0.66930312457E+03  0.66930312457E+03  0.00000000000E+00 0. -1.
         -2   -1    0    0    0  501 -0.00000000000E+00 -0.00000000000E+00 -0.15898963449E+03  0.15898963449E+03  0.00000000000E+00 0.  1.
          6    1    1    2  502    0  0.53541914591E+02 -0.10997674548E+03  0.57093796287E+03  0.60870007278E+03  0.17200000000E+03 0. -1.
         -6    1    1    2    0  501 -0.53541914591E+02  0.10997674548E+03 -0.60624472791E+02  0.21959268627E+03  0.17200000000E+03 0.  1.
</event>
<event>
 4    1  0.3191769E-002  0.2993690E+03  0.7818608E-02  0.1085556E+00
         -3   -1    0    0    0  501 -0.00000000000E+00  0.00000000000E+00  0.50584121620E+03  0.50584121620E+03  0.00000000000E+00 0.  1.
          3   -1    0    0  502    0  0.00000000000E+00 -0.00000000000E+00 -0.19376496922E+03  0.19376496922E+03  0.00000000000E+00 0. -1.
          6    1    1    2  502    0 -0.88036533747E+02  0.22866427343E+03  0.53679304483E+02  0.30414346770E+03  0.17200000000E+03 0. -1.
         -6    1    1    2    0  501  0.88036533747E+02 -0.22866427343E+03  0.25839694250E+03  0.39546271772E+03  0.17200000000E+03 0.  1.
</event>
<event>
 4    1  0.3191769E-002  0.1903958E+03  0.7818608E-02  0.1158105E+00
          4   -1    0    0  502    0  0.00000000000E+00  0.00000000000E+00  0.12419575081E+04  0.12419575081E+04  0.00000000000E+00 0. -1.
         -4   -1    0    0    0  501 -0.00000000000E+00 -0.00000000000E+00 -0.61049768628E+02  0.61049768628E+02  0.00000000000E+00 0.  1.
          6    1    1    2  502    0  0.52898470698E+02 -0.62195690748E+02  0.10611147985E+04  0.10780608368E+04  0.17200000000E+03 0. -1.
         -6    1    1    2    0  501 -0.52898470698E+02  0.62195690748E+02  0.11979294097E+03  0.22494643997E+03  0.17200000000E+03 0.  1.
</event>
<event>
 4    1  0.3191769E-002  0.1907593E+03  0.7818608E-02  0.1157778E+00
          1   -1    0    0  502    0  0.00000000000E+00  0.00000000000E+00  0.78842178079E+02  0.78842178079E+02  0.00000000000E+00 0. -1.
         -1   -1    0    0    0  501 -0.00000000000E+00 -0.00000000000E+00 -0.48996333436E+03  0.48996333436E+03  0.00000000000E+00 0.  1.
          6    1    1    2  502    0  0.33700850559E+02  0.75295194475E+02 -0.13706524892E+03  0.23489571325E+03  0.17200000000E+03 0. -1.
         -6    1    1    2    0  501 -0.33700850559E+02 -0.75295194475E+02 -0.27405590736E+03  0.33390979919E+03  0.17200000000E+03 0.  1.
</event>
<event>
 4    1  0.3191769E-002  0.1839875E+03  0.7818608E-02  0.1163999E+00
         -2   -1    0    0    0  501 -0.00000000000E+00  0.00000000000E+00  0.11839539034E+02  0.11839539034E+02  0.00000000000E+00 0.  1.
          2   -1    0    0  502    0  0.00000000000E+00 -0.00000000000E+00 -0.28868250559E+04  0.28868250559E+04  0.00000000000E+00 0. -1.
          6    1    1    2  502    0 -0.40996001637E+02  0.50859919738E+02 -0.15793156460E+04  0.15899966394E+04  0.17200000000E+03 0.  1.
         -6    1    1    2    0  501  0.40996001637E+02 -0.50859919738E+02 -0.12956698708E+04  0.13086679555E+04  0.17200000000E+03 0.  1.
</event>
<event>
 4    1  0.3191769E-002  0.2449940E+03  0.7818608E-02  0.1116510E+00
         -1   -1    0    0    0  501 -0.00000000000E+00  0.00000000000E+00  0.30166280933E+03  0.30166280933E+03  0.00000000000E+00 0.  1.
          1   -1    0    0  502    0  0.00000000000E+00 -0.00000000000E+00 -0.20665103453E+03  0.20665103453E+03  0.00000000000E+00 0. -1.
          6    1    1    2  502    0 -0.72090565863E+02  0.15887413776E+03 -0.14917341997E+01  0.24499850327E+03  0.17200000000E+03 0.  1.
         -6    1    1    2    0  501  0.72090565863E+02 -0.15887413776E+03  0.96503508999E+02  0.26331534058E+03  0.17200000000E+03 0.  1.
</event>
<event>
 4    1  0.3191769E-002  0.2717779E+03  0.7818608E-02  0.1100266E+00
         -2   -1    0    0    0  501 -0.00000000000E+00  0.00000000000E+00  0.35564286612E+03  0.35564286612E+03  0.00000000000E+00 0.  1.
          2   -1    0    0  502    0  0.00000000000E+00 -0.00000000000E+00 -0.35821316408E+03  0.35821316408E+03  0.00000000000E+00 0. -1.
          6    1    1    2  502    0  0.16159659927E+03 -0.13478044857E+03 -0.23265805180E+03  0.35776109246E+03  0.17200000000E+03 0. -1.
         -6    1    1    2    0  501 -0.16159659927E+03  0.13478044857E+03  0.23008775384E+03  0.35609493774E+03  0.17200000000E+03 0.  1.
</event>
<event>
 4    1  0.3191769E-002  0.2448619E+03  0.7818608E-02  0.1116596E+00
          2   -1    0    0  502    0  0.00000000000E+00  0.00000000000E+00  0.97978028934E+03  0.97978028934E+03  0.00000000000E+00 0. -1.
         -2   -1    0    0    0  501 -0.00000000000E+00 -0.00000000000E+00 -0.10137298741E+03  0.10137298741E+03  0.00000000000E+00 0.  1.
          6    1    1    2  502    0 -0.59454950768E+01  0.17417813223E+03  0.77952704773E+03  0.81708003819E+03  0.17200000000E+03 0. -1.
         -6    1    1    2    0  501  0.59454950768E+01 -0.17417813223E+03  0.98880254199E+02  0.26407323857E+03  0.17200000000E+03 0.  1.
</event>
<event>
 4    1  0.3191769E-002  0.1975543E+03  0.7818608E-02  0.1151819E+00
          2   -1    0    0  502    0  0.00000000000E+00  0.00000000000E+00  0.13454923136E+03  0.13454923136E+03  0.00000000000E+00 0. -1.
         -2   -1    0    0    0  501 -0.00000000000E+00 -0.00000000000E+00 -0.29223433792E+03  0.29223433792E+03  0.00000000000E+00 0.  1.
          6    1    1    2  502    0 -0.31117006364E+02 -0.92062027254E+02 -0.60446406099E+02  0.20659490061E+03  0.17200000000E+03 0.  1.
         -6    1    1    2    0  501  0.31117006364E+02  0.92062027254E+02 -0.97238700457E+02  0.22018866868E+03  0.17200000000E+03 0.  1.
</event>
<event>
 4    1  0.3191769E-002  0.1764307E+03  0.7818608E-02  0.1171303E+00
         -2   -1    0    0    0  501 -0.00000000000E+00  0.00000000000E+00  0.47263779867E+03  0.47263779867E+03  0.00000000000E+00 0.  1.
          2   -1    0    0  502    0  0.00000000000E+00 -0.00000000000E+00 -0.10424143298E+03  0.10424143298E+03  0.00000000000E+00 0. -1.
          6    1    1    2  502    0  0.31989632792E+02  0.22813735768E+02  0.91745160303E+01  0.17666911131E+03  0.17200000000E+03 0. -1.
         -6    1    1    2    0  501 -0.31989632792E+02 -0.22813735768E+02  0.35922184966E+03  0.40021012034E+03  0.17200000000E+03 0.  1.
</event>
<event>
 4    1  0.3191769E-002  0.3783368E+03  0.7818608E-02  0.1051550E+00
         -2   -1    0    0    0  501 -0.00000000000E+00  0.00000000000E+00  0.11686086035E+03  0.11686086035E+03  0.00000000000E+00 0.  1.
          2   -1    0    0  502    0  0.00000000000E+00 -0.00000000000E+00 -0.31911460829E+04  0.31911460829E+04  0.00000000000E+00 0. -1.
          6    1    1    2  502    0  0.33132875405E+03 -0.61449326531E+02 -0.28354749913E+04  0.28606043398E+04  0.17200000000E+03 0. -1.
         -6    1    1    2    0  501 -0.33132875405E+03  0.61449326531E+02 -0.23881023132E+03  0.44740260345E+03  0.17200000000E+03 0.  1.
</event>
<event>
 4    1  0.3191769E-002  0.2059654E+03  0.7818608E-02  0.1144801E+00
         -1   -1    0    0    0  501 -0.00000000000E+00  0.00000000000E+00  0.11822379111E+03  0.11822379111E+03  0.00000000000E+00 0.  1.
          1   -1    0    0  502    0  0.00000000000E+00 -0.00000000000E+00 -0.36724953349E+03  0.36724953349E+03  0.00000000000E+00 0. -1.
          6    1    1    2  502    0  0.56805508357E+02  0.98035025805E+02 -0.87749935043E+02  0.22387894757E+03  0.17200000000E+03 0. -1.
         -6    1    1    2    0  501 -0.56805508357E+02 -0.98035025805E+02 -0.16127580734E+03  0.26159437704E+03  0.17200000000E+03 0.  1.
</event>
<event>
 4    1  0.3191769E-002  0.1752855E+03  0.7818608E-02  0.1172445E+00
          1   -1    0    0  502    0  0.00000000000E+00  0.00000000000E+00  0.12576669223E+04  0.12576669223E+04  0.00000000000E+00 0. -1.
         -1   -1    0    0    0  501 -0.00000000000E+00 -0.00000000000E+00 -0.29843237760E+02  0.29843237760E+02  0.00000000000E+00 0.  1.
          6    1    1    2  502    0  0.73060103214E+01 -0.32979040487E+02  0.33974171897E+03  0.38229495224E+03  0.17200000000E+03 0.  1.
         -6    1    1    2    0  501 -0.73060103214E+01  0.32979040487E+02  0.88808196555E+03  0.90521520780E+03  0.17200000000E+03 0. -1.
</event>
<event>
 4    1  0.3191769E-002  0.1900641E+03  0.7818608E-02  0.1158404E+00
          1   -1    0    0  502    0  0.00000000000E+00  0.00000000000E+00  0.51909936570E+02  0.51909936570E+02  0.00000000000E+00 0. -1.
         -1   -1    0    0    0  501 -0.00000000000E+00 -0.00000000000E+00 -0.69740712554E+03  0.69740712554E+03  0.00000000000E+00 0.  1.
          6    1    1    2  502    0 -0.42377254009E+02  0.68880626177E+02 -0.34013777892E+03  0.38963839770E+03  0.17200000000E+03 0.  1.
         -6    1    1    2    0  501  0.42377254009E+02 -0.68880626177E+02 -0.30535941005E+03  0.35967866441E+03  0.17200000000E+03 0. -1.
</event>
<event>
 4    1  0.3191769E-002  0.2356393E+03  0.7818608E-02  0.1122732E+00
          2   -1    0    0  502    0  0.00000000000E+00  0.00000000000E+00  0.21808404923E+03  0.21808404923E+03  0.00000000000E+00 0. -1.
         -2   -1    0    0    0  501 -0.00000000000E+00 -0.00000000000E+00 -0.26009686810E+03  0.26009686810E+03  0.00000000000E+00 0.  1.
          6    1    1    2  502    0  0.11811072143E+03 -0.10950676276E+03  0.13727109019E+02  0.23603878310E+03  0.17200000000E+03 0. -1.
         -6    1    1    2    0  501 -0.11811072143E+03  0.10950676276E+03 -0.55739927893E+02  0.24214213423E+03  0.17200000000E+03 0.  1.
</event>
<event>
 4    1  0.3191769E-002  0.1999876E+03  0.7818608E-02  0.1149749E+00
         -2   -1    0    0    0  501 -0.00000000000E+00  0.00000000000E+00  0.42942039833E+02  0.42942039833E+02  0.00000000000E+00 0.  1.
          2   -1    0    0  502    0  0.00000000000E+00 -0.00000000000E+00 -0.13053630696E+04  0.13053630696E+04  0.00000000000E+00 0. -1.
          6    1    1    2  502    0 -0.53488547606E+02 -0.86890931406E+02 -0.99205704132E+03  0.10120139485E+04  0.17200000000E+03 0. -1.
         -6    1    1    2    0  501  0.53488547606E+02  0.86890931406E+02 -0.27036398844E+03  0.33629116095E+03  0.17200000000E+03 0.  1.
</event>
<event>
 4    1  0.3191769E-002  0.1842452E+03  0.7818608E-02  0.1163757E+00
         -1   -1    0    0    0  501 -0.00000000000E+00  0.00000000000E+00  0.38491292665E+03  0.38491292665E+03  0.00000000000E+00 0.  1.
          1   -1    0    0  502    0  0.00000000000E+00 -0.00000000000E+00 -0.98113747979E+02  0.98113747979E+02  0.00000000000E+00 0. -1.
          6    1    1    2  502    0 -0.63089049981E+02  0.19546813190E+02  0.22020053515E+03  0.28711423130E+03  0.17200000000E+03 0.  1.
         -6    1    1    2    0  501  0.63089049981E+02 -0.19546813190E+02  0.66598643521E+02  0.19591244333E+03  0.17200000000E+03 0. -1.
</event>
<event>
 4    1  0.3191769E-002  0.3095921E+03  0.7818608E-02  0.1080542E+00
          2   -1    0    0  502    0  0.00000000000E+00  0.00000000000E+00  0.39139690149E+04  0.39139690149E+04  0.00000000000E+00 0. -1.
         -2   -1    0    0    0  501 -0.00000000000E+00 -0.00000000000E+00 -0.28942688794E+02  0.28942688794E+02  0.00000000000E+00 0.  1.
          6    1    1    2  502    0 -0.25324029942E+03 -0.46180014000E+02  0.11691174318E+04  0.12094142435E+04  0.17200000000E+03 0.  1.
         -6    1    1    2    0  501  0.25324029942E+03  0.46180014000E+02  0.27159088943E+04  0.27334974602E+04  0.17200000000E+03 0. -1.
</event>
<event>
 4    1  0.3191769E-002  0.1859651E+03  0.7818608E-02  0.1162152E+00
         -2   -1    0    0    0  501 -0.00000000000E+00  0.00000000000E+00  0.15904231739E+03  0.15904231739E+03  0.00000000000E+00 0.  1.
          2   -1    0    0  502    0  0.00000000000E+00 -0.00000000000E+00 -0.32242520427E+03  0.32242520427E+03  0.00000000000E+00 0. -1.
          6    1    1    2  502    0  0.67031770165E+02 -0.22489369539E+02  0.55673294784E+02  0.19411992609E+03  0.17200000000E+03 0.  1.
         -6    1    1    2    0  501 -0.67031770165E+02  0.22489369539E+02 -0.21905618166E+03  0.28734759556E+03  0.17200000000E+03 0.  1.
</event>
<event>
 4    1  0.3191769E-002  0.2337070E+03  0.7818608E-02  0.1124057E+00
         -2   -1    0    0    0  501 -0.00000000000E+00  0.00000000000E+00  0.58801962039E+02  0.58801962039E+02  0.00000000000E+00 0.  1.
          2   -1    0    0  502    0  0.00000000000E+00 -0.00000000000E+00 -0.10152914182E+04  0.10152914182E+04  0.00000000000E+00 0. -1.
          6    1    1    2  502    0 -0.11027026550E+03 -0.11346996920E+03 -0.63493608205E+03  0.67658169769E+03  0.17200000000E+03 0. -1.
         -6    1    1    2    0  501  0.11027026550E+03  0.11346996920E+03 -0.32155337414E+03  0.39751168258E+03  0.17200000000E+03 0.  1.
</event>
<event>
 4    1  0.3191769E-002  0.1767180E+03  0.7818608E-02  0.1171018E+00
          1   -1    0    0  502    0  0.00000000000E+00  0.00000000000E+00  0.55400564340E+03  0.55400564340E+03  0.00000000000E+00 0. -1.
         -1   -1    0    0    0  501 -0.00000000000E+00 -0.00000000000E+00 -0.64915767810E+02  0.64915767810E+02  0.00000000000E+00 0.  1.
          6    1    1    2  502    0 -0.22543773839E+02 -0.33719952177E+02  0.13226353067E+03  0.22073264022E+03  0.17200000000E+03 0.  1.
         -6    1    1    2    0  501  0.22543773839E+02  0.33719952177E+02  0.35682634492E+03  0.39818877099E+03  0.17200000000E+03 0. -1.
</event>
<event>
 4    1  0.3191769E-002  0.2161944E+03  0.7818608E-02  0.1136752E+00
         -2   -1    0    0    0  501 -0.00000000000E+00  0.00000000000E+00  0.35858362600E+02  0.35858362600E+02  0.00000000000E+00 0.  1.
          2   -1    0    0  502    0  0.00000000000E+00 -0.00000000000E+00 -0.13044265526E+04  0.13044265526E+04  0.00000000000E+00 0. -1.
          6    1    1    2  502    0 -0.13070471700E+03 -0.85037084836E+01 -0.65250103289E+03  0.68738463325E+03  0.17200000000E+03 0. -1.
         -6    1    1    2    0  501  0.13070471700E+03  0.85037084836E+01 -0.61606715714E+03  0.65290028198E+03  0.17200000000E+03 0.  1.
</event>
<event>
 4    1  0.3191769E-002  0.2159261E+03  0.7818608E-02  0.1136957E+00
          2   -1    0    0  502    0  0.00000000000E+00  0.00000000000E+00  0.50760436931E+03  0.50760436931E+03  0.00000000000E+00 0. -1.
         -2   -1    0    0    0  501 -0.00000000000E+00 -0.00000000000E+00 -0.10134609759E+03  0.10134609759E+03  0.00000000000E+00 0.  1.
          6    1    1    2  502    0  0.12368648045E+03 -0.41734298447E+02  0.29632408975E+03  0.36664978287E+03  0.17200000000E+03 0. -1.
         -6    1    1    2    0  501 -0.12368648045E+03  0.41734298447E+02  0.10993418197E+03  0.24230068402E+03  0.17200000000E+03 0. -1.
</event>
<event>
 4    1  0.3191769E-002  0.2577266E+03  0.7818608E-02  0.1108517E+00
         -1   -1    0    0    0  501 -0.00000000000E+00  0.00000000000E+00  0.88843655266E+02  0.88843655266E+02  0.00000000000E+00 0.  1.
          1   -1    0    0  502    0  0.00000000000E+00 -0.00000000000E+00 -0.75320535022E+03  0.75320535022E+03  0.00000000000E+00 0. -1.
          6    1    1    2  502    0  0.92012695103E+02 -0.16844182953E+03 -0.36837463214E+03  0.44958075537E+03  0.17200000000E+03 0. -1.
         -6    1    1    2    0  501 -0.92012695103E+02  0.16844182953E+03 -0.29598706281E+03  0.39246825011E+03  0.17200000000E+03 0.  1.
</event>
<event>
 4    1  0.3191769E-002  0.1753918E+03  0.7818608E-02  0.1172339E+00
         -2   -1    0    0    0  501 -0.00000000000E+00  0.00000000000E+00  0.44245561871E+02  0.44245561871E+02  0.00000000000E+00 0.  1.
          2   -1    0    0  502    0  0.00000000000E+00 -0.00000000000E+00 -0.70617223569E+03  0.70617223569E+03  0.00000000000E+00 0. -1.
          6    1    1    2  502    0  0.32226520609E+02  0.11820408826E+02 -0.28432649939E+03  0.33407159256E+03  0.17200000000E+03 0. -1.
         -6    1    1    2    0  501 -0.32226520609E+02 -0.11820408826E+02 -0.37760017442E+03  0.41634620500E+03  0.17200000000E+03 0.  1.
</event>
<event>
 4    1  0.3191769E-002  0.2496466E+03  0.7818608E-02  0.1113528E+00
          2   -1    0    0  502    0  0.00000000000E+00  0.00000000000E+00  0.74448345377E+03  0.74448345377E+03  0.00000000000E+00 0. -1.
         -2   -1    0    0    0  501 -0.00000000000E+00 -0.00000000000E+00 -0.11604915534E+03  0.11604915534E+03  0.00000000000E+00 0.  1.
          6    1    1    2  502    0 -0.15676233894E+03  0.90360359793E+02  0.54133757131E+03  0.59612900588E+03  0.17200000000E+03 0. -1.
         -6    1    1    2    0  501  0.15676233894E+03 -0.90360359793E+02  0.87096727120E+02  0.26440360324E+03  0.17200000000E+03 0.  1.
</event>
<event>
 4    1  0.3191769E-002  0.2239625E+03  0.7818608E-02  0.1130963E+00
          1   -1    0    0  502    0  0.00000000000E+00  0.00000000000E+00  0.12506615558E+04  0.12506615558E+04  0.00000000000E+00 0. -1.
         -1   -1    0    0    0  501 -0.00000000000E+00 -0.00000000000E+00 -0.40189494023E+02  0.40189494023E+02  0.00000000000E+00 0.  1.
          6    1    1    2  502    0 -0.65085785279E+02  0.12782422858E+03  0.57584034896E+03  0.61786025956E+03  0.17200000000E+03 0.  1.
         -6    1    1    2    0  501  0.65085785279E+02 -0.12782422858E+03  0.63463171279E+03  0.67299079023E+03  0.17200000000E+03 0.  1.
</event>
<event>
 4    1  0.3191769E-002  0.5078953E+03  0.7818608E-02  0.1011738E+00
          2   -1    0    0  502    0  0.00000000000E+00  0.00000000000E+00  0.23366039213E+03  0.23366039213E+03  0.00000000000E+00 0. -1.
         -2   -1    0    0    0  501 -0.00000000000E+00 -0.00000000000E+00 -0.16483608317E+04  0.16483608317E+04  0.00000000000E+00 0.  1.
          6    1    1    2  502    0 -0.37195469212E+03 -0.30003895682E+03 -0.12481264875E+04  0.13475078469E+04  0.17200000000E+03 0. -1.
         -6    1    1    2    0  501  0.37195469212E+03  0.30003895682E+03 -0.16657395202E+03  0.53451337690E+03  0.17200000000E+03 0.  1.
</event>
<event>
 4    1  0.3191769E-002  0.1789747E+03  0.7818608E-02  0.1168799E+00
          2   -1    0    0  502    0  0.00000000000E+00  0.00000000000E+00  0.52752432446E+03  0.52752432446E+03  0.00000000000E+00 0. -1.
         -2   -1    0    0    0  501 -0.00000000000E+00 -0.00000000000E+00 -0.89822468471E+02  0.89822468471E+02  0.00000000000E+00 0.  1.
          6    1    1    2  502    0 -0.59237538422E+01 -0.49120751793E+02  0.39454708234E+03  0.43324281795E+03  0.17200000000E+03 0. -1.
         -6    1    1    2    0  501  0.59237538422E+01  0.49120751793E+02  0.43154773643E+02  0.18410397498E+03  0.17200000000E+03 0.  1.
</event>
<event>
 4    1  0.3191769E-002  0.2450546E+03  0.7818608E-02  0.1116471E+00
         -1   -1    0    0    0  501 -0.00000000000E+00  0.00000000000E+00  0.34946703216E+02  0.34946703216E+02  0.00000000000E+00 0.  1.
          1   -1    0    0  502    0  0.00000000000E+00 -0.00000000000E+00 -0.17411564530E+04  0.17411564530E+04  0.00000000000E+00 0. -1.
          6    1    1    2  502    0  0.16746701416E+03 -0.49219412914E+02 -0.95467187710E+03  0.98562170450E+03  0.17200000000E+03 0.  1.
         -6    1    1    2    0  501 -0.16746701416E+03  0.49219412914E+02 -0.75153787270E+03  0.79048145174E+03  0.17200000000E+03 0.  1.
</event>
<event>
 4    1  0.3191769E-002  0.2580408E+03  0.7818608E-02  0.1108326E+00
         -2   -1    0    0    0  501 -0.00000000000E+00  0.00000000000E+00  0.17443406145E+03  0.17443406145E+03  0.00000000000E+00 0.  1.
          2   -1    0    0  502    0  0.00000000000E+00 -0.00000000000E+00 -0.38823360800E+03  0.38823360800E+03  0.00000000000E+00 0. -1.
          6    1    1    2  502    0 -0.18792895222E+03 -0.41033971170E+02 -0.70460846159E+02  0.26748795994E+03  0.17200000000E+03 0. -1.
         -6    1    1    2    0  501  0.18792895222E+03  0.41033971170E+02 -0.14333870039E+03  0.29517970950E+03  0.17200000000E+03 0.  1.
</event>
<event>
 4    1  0.3191769E-002  0.1973492E+03  0.7818608E-02  0.1151995E+00
          2   -1    0    0  502    0  0.00000000000E+00  0.00000000000E+00  0.95023120303E+03  0.95023120303E+03  0.00000000000E+00 0. -1.
         -2   -1    0    0    0  501 -0.00000000000E+00 -0.00000000000E+00 -0.13317934183E+03  0.13317934183E+03  0.00000000000E+00 0.  1.
          6    1    1    2  502    0 -0.37360884435E+02  0.89257332488E+02  0.85923167471E+03  0.88160409364E+03  0.17200000000E+03 0. -1.
         -6    1    1    2    0  501  0.37360884435E+02 -0.89257332488E+02 -0.42179813514E+02  0.20180645123E+03  0.17200000000E+03 0.  1.
</event>
<event>
 4    1  0.3191769E-002  0.3899428E+03  0.7818608E-02  0.1047319E+00
         -2   -1    0    0    0  501 -0.00000000000E+00  0.00000000000E+00  0.20697154790E+03  0.20697154790E+03  0.00000000000E+00 0.  1.
          2   -1    0    0  502    0  0.00000000000E+00 -0.00000000000E+00 -0.73683437635E+03  0.73683437635E+03  0.00000000000E+00 0. -1.
          6    1    1    2  502    0 -0.30296248721E+03  0.17517172897E+03 -0.23934436987E+03  0.45753811937E+03  0.17200000000E+03 0. -1.
         -6    1    1    2    0  501  0.30296248721E+03 -0.17517172897E+03 -0.29051845859E+03  0.48626780488E+03  0.17200000000E+03 0.  1.
</event>
<event>
 4    1  0.3191769E-002  0.4064706E+03  0.7818608E-02  0.1041562E+00
         -1   -1    0    0    0  501 -0.00000000000E+00  0.00000000000E+00  0.34533826742E+03  0.34533826742E+03  0.00000000000E+00 0.  1.
          1   -1    0    0  502    0  0.00000000000E+00 -0.00000000000E+00 -0.72860358721E+03  0.72860358721E+03  0.00000000000E+00 0. -1.
          6    1    1    2  502    0 -0.17649827917E+03  0.32323790833E+03 -0.50628456869E+03  0.64926300712E+03  0.17200000000E+03 0. -1.
         -6    1    1    2    0  501  0.17649827917E+03 -0.32323790833E+03  0.12301924890E+03  0.42467884751E+03  0.17200000000E+03 0.  1.
</event>
<event>
 4    1  0.3191769E-002  0.1991945E+03  0.7818608E-02  0.1150420E+00
         -2   -1    0    0    0  501 -0.00000000000E+00  0.00000000000E+00  0.33653744650E+02  0.33653744650E+02  0.00000000000E+00 0.  1.
          2   -1    0    0  502    0  0.00000000000E+00 -0.00000000000E+00 -0.12095139229E+04  0.12095139229E+04  0.00000000000E+00 0. -1.
          6    1    1    2  502    0 -0.80675239551E+02  0.59882933525E+02 -0.68662534372E+03  0.71493553741E+03  0.17200000000E+03 0.  1.
         -6    1    1    2    0  501  0.80675239551E+02 -0.59882933525E+02 -0.48923483455E+03  0.52823213017E+03  0.17200000000E+03 0.  1.
</event>
<event>
 4    1  0.3191769E-002  0.2000118E+03  0.7818608E-02  0.1149729E+00
          1   -1    0    0  502    0  0.00000000000E+00  0.00000000000E+00  0.19190197071E+04  0.19190197071E+04  0.00000000000E+00 0. -1.
         -1   -1    0    0    0  501 -0.00000000000E+00 -0.00000000000E+00 -0.61378025053E+02  0.61378025053E+02  0.00000000000E+00 0.  1.
          6    1    1    2  502    0 -0.23261780507E+01 -0.10205535735E+03  0.17334816050E+04  0.17449822870E+04  0.17200000000E+03 0. -1.
         -6    1    1    2    0  501  0.23261780507E+01  0.10205535735E+03  0.12416007697E+03  0.23541544508E+03  0.17200000000E+03 0.  1.
</event>
<event>
 4    1  0.3191769E-002  0.2362112E+03  0.7818608E-02  0.1122343E+00
          2   -1    0    0  502    0  0.00000000000E+00  0.00000000000E+00  0.25496509783E+04  0.25496509783E+04  0.00000000000E+00 0. -1.
         -2   -1    0    0    0  501 -0.00000000000E+00 -0.00000000000E+00 -0.26752068177E+02  0.26752068177E+02  0.00000000000E+00 0.  1.
          6    1    1    2  502    0 -0.14033098935E+03 -0.80740116196E+02  0.71191160868E+03  0.75007592383E+03  0.17200000000E+03 0.  1.
         -6    1    1    2    0  501  0.14033098935E+03  0.80740116196E+02  0.18109873015E+04  0.18263271227E+04  0.17200000000E+03 0. -1.
</event>
<event>
 4    1  0.3191769E-002  0.2286714E+03  0.7818608E-02  0.1127578E+00
         -2   -1    0    0    0  501 -0.00000000000E+00  0.00000000000E+00  0.28655325031E+02  0.28655325031E+02  0.00000000000E+00 0.  1.
          2   -1    0    0  502    0  0.00000000000E+00 -0.00000000000E+00 -0.19903860424E+04  0.19903860424E+04  0.00000000000E+00 0. -1.
          6    1    1    2  502    0 -0.74638514211E+02 -0.13090341328E+03 -0.68969893252E+03  0.72661903975E+03  0.17200000000E+03 0. -1.
         -6    1    1    2    0  501  0.74638514211E+02  0.13090341328E+03 -0.12720317848E+04  0.12924223277E+04  0.17200000000E+03 0. -1.
</event>
<event>
 4    1  0.3191769E-002  0.1833890E+03  0.7818608E-02  0.1164563E+00
         -1   -1    0    0    0  501 -0.00000000000E+00  0.00000000000E+00  0.45266895918E+02  0.45266895918E+02  0.00000000000E+00 0.  1.
          1   -1    0    0  502    0  0.00000000000E+00 -0.00000000000E+00 -0.74296336162E+03  0.74296336162E+03  0.00000000000E+00 0. -1.
          6    1    1    2  502    0  0.92404589379E+01 -0.62945488166E+02 -0.34960682408E+03  0.39478659046E+03  0.17200000000E+03 0. -1.
         -6    1    1    2    0  501 -0.92404589379E+01  0.62945488166E+02 -0.34808964162E+03  0.39344366708E+03  0.17200000000E+03 0.  1.
</event>
<event>
 4    1  0.3191769E-002  0.2076511E+03  0.7818608E-02  0.1143440E+00
         -1   -1    0    0    0  501 -0.00000000000E+00  0.00000000000E+00  0.25780092528E+03  0.25780092528E+03  0.00000000000E+00 0.  1.
          1   -1    0    0  502    0  0.00000000000E+00 -0.00000000000E+00 -0.38670396807E+03  0.38670396807E+03  0.00000000000E+00 0. -1.
          6    1    1    2  502    0  0.83800955069E+02  0.80699234818E+02 -0.30720857952E+03  0.37080463576E+03  0.17200000000E+03 0. -1.
         -6    1    1    2    0  501 -0.83800955069E+02 -0.80699234818E+02  0.17830553674E+03  0.27370025759E+03  0.17200000000E+03 0.  1.
</event>
<event>
 4    1  0.3191769E-002  0.2299504E+03  0.7818608E-02  0.1126675E+00
         -4   -1    0    0    0  501 -0.00000000000E+00  0.00000000000E+00  0.89650947878E+02  0.89650947878E+02  0.00000000000E+00 0.  1.
          4   -1    0    0  502    0  0.00000000000E+00 -0.00000000000E+00 -0.61928739770E+03  0.61928739770E+03  0.00000000000E+00 0. -1.
          6    1    1    2  502    0  0.62792075452E+02  0.13910547758E+03 -0.34215113324E+03  0.41224334635E+03  0.17200000000E+03 0.  1.
         -6    1    1    2    0  501 -0.62792075452E+02 -0.13910547758E+03 -0.18748531658E+03  0.29669499923E+03  0.17200000000E+03 0.  1.
</event>
<event>
 4    1  0.3191769E-002  0.1991691E+03  0.7818608E-02  0.1150442E+00
          2   -1    0    0  502    0  0.00000000000E+00  0.00000000000E+00  0.13836823565E+04  0.13836823565E+04  0.00000000000E+00 0. -1.
         -2   -1    0    0    0  501 -0.00000000000E+00 -0.00000000000E+00 -0.30753609483E+02  0.30753609483E+02  0.00000000000E+00 0.  1.
          6    1    1    2  502    0  0.10026836816E+03  0.55309473463E+01  0.86060586688E+03  0.88335202221E+03  0.17200000000E+03 0. -1.
         -6    1    1    2    0  501 -0.10026836816E+03 -0.55309473463E+01  0.49232288018E+03  0.53108394382E+03  0.17200000000E+03 0.  1.
</event>
<event>
 4    1  0.3191769E-002  0.2967733E+03  0.7818608E-02  0.1086865E+00
         -2   -1    0    0    0  501 -0.00000000000E+00  0.00000000000E+00  0.22737032789E+03  0.22737032789E+03  0.00000000000E+00 0.  1.
          2   -1    0    0  502    0  0.00000000000E+00 -0.00000000000E+00 -0.42656458851E+03  0.42656458851E+03  0.00000000000E+00 0. -1.
          6    1    1    2  502    0  0.24180150218E+03 -0.47378982005E+01 -0.19872017631E+03  0.35716119976E+03  0.17200000000E+03 0. -1.
         -6    1    1    2    0  501 -0.24180150218E+03  0.47378982005E+01 -0.47408430603E+00  0.29677371665E+03  0.17200000000E+03 0.  1.
</event>
<event>
 4    1  0.3191769E-002  0.2079782E+03  0.7818608E-02  0.1143177E+00
          2   -1    0    0  502    0  0.00000000000E+00  0.00000000000E+00  0.16954429657E+04  0.16954429657E+04  0.00000000000E+00 0. -1.
         -2   -1    0    0    0  501 -0.00000000000E+00 -0.00000000000E+00 -0.30984823794E+02  0.30984823794E+02  0.00000000000E+00 0.  1.
          6    1    1    2  502    0 -0.59020320720E+02 -0.10093324072E+03  0.11949991582E+04  0.12129624502E+04  0.17200000000E+03 0.  1.
         -6    1    1    2    0  501  0.59020320720E+02  0.10093324072E+03  0.46945898371E+03  0.51346533937E+03  0.17200000000E+03 0.  1.
</event>
<event>
 4    1  0.3191769E-002  0.2369863E+03  0.7818608E-02  0.1121817E+00
         -1   -1    0    0    0  501 -0.00000000000E+00  0.00000000000E+00  0.65603195240E+02  0.65603195240E+02  0.00000000000E+00 0.  1.
          1   -1    0    0  502    0  0.00000000000E+00 -0.00000000000E+00 -0.12109916153E+04  0.12109916153E+04  0.00000000000E+00 0. -1.
          6    1    1    2  502    0  0.10503607583E+03 -0.12468332639E+03 -0.91823870906E+03  0.94832738857E+03  0.17200000000E+03 0. -1.
         -6    1    1    2    0  501 -0.10503607583E+03  0.12468332639E+03 -0.22714971096E+03  0.32826742192E+03  0.17200000000E+03 0.  1.
</event>
<event>
 4    1  0.3191769E-002  0.7821959E+03  0.7818608E-02  0.9586151E-01
          3   -1    0    0  502    0  0.00000000000E+00  0.00000000000E+00  0.44381385385E+03  0.44381385385E+03  0.00000000000E+00 0. -1.
         -3   -1    0    0    0  501 -0.00000000000E+00 -0.00000000000E+00 -0.15800459478E+04  0.15800459478E+04  0.00000000000E+00 0.  1.
          6    1    1    2  502    0 -0.97766536197E+02 -0.75676160048E+03 -0.20677072540E+03  0.80906399527E+03  0.17200000000E+03 0. -1.
         -6    1    1    2    0  501  0.97766536197E+02  0.75676160048E+03 -0.92946136853E+03  0.12147958064E+04  0.17200000000E+03 0.  1.
</event>
<event>
 4    1  0.3191769E-002  0.1806257E+03  0.7818608E-02  0.1167199E+00
          2   -1    0    0  502    0  0.00000000000E+00  0.00000000000E+00  0.14450936819E+03  0.14450936819E+03  0.00000000000E+00 0. -1.
         -2   -1    0    0    0  501 -0.00000000000E+00 -0.00000000000E+00 -0.51800312171E+03  0.51800312171E+03  0.00000000000E+00 0.  1.
          6    1    1    2  502    0 -0.13823009901E+02  0.53390778345E+02  0.62060804214E+02  0.19099003700E+03  0.17200000000E+03 0. -1.
         -6    1    1    2    0  501  0.13823009901E+02 -0.53390778345E+02 -0.43555455774E+03  0.47152245289E+03  0.17200000000E+03 0.  1.
</event>
<event>
 4    1  0.3191769E-002  0.2031564E+03  0.7818608E-02  0.1147103E+00
          2   -1    0    0  502    0  0.00000000000E+00  0.00000000000E+00  0.37283040019E+03  0.37283040019E+03  0.00000000000E+00 0. -1.
         -2   -1    0    0    0  501 -0.00000000000E+00 -0.00000000000E+00 -0.11205122342E+03  0.11205122342E+03  0.00000000000E+00 0.  1.
          6    1    1    2  502    0  0.10750549305E+03 -0.11450328737E+02  0.10377204391E+03  0.22812535624E+03  0.17200000000E+03 0.  1.
         -6    1    1    2    0  501 -0.10750549305E+03  0.11450328737E+02  0.15700713286E+03  0.25675626737E+03  0.17200000000E+03 0.  1.
</event>
<event>
 4    1  0.3191769E-002  0.2225063E+03  0.7818608E-02  0.1132028E+00
         -2   -1    0    0    0  501 -0.00000000000E+00  0.00000000000E+00  0.15446983592E+03  0.15446983592E+03  0.00000000000E+00 0.  1.
          2   -1    0    0  502    0  0.00000000000E+00 -0.00000000000E+00 -0.35656714231E+03  0.35656714231E+03  0.00000000000E+00 0. -1.
          6    1    1    2  502    0 -0.13274030410E+03 -0.48011278930E+02 -0.18230354211E+03  0.28765196454E+03  0.17200000000E+03 0. -1.
         -6    1    1    2    0  501  0.13274030410E+03  0.48011278930E+02 -0.19793764276E+02  0.22338501369E+03  0.17200000000E+03 0.  1.
</event>
<event>
 4    1  0.3191769E-002  0.4915397E+03  0.7818608E-02  0.1016011E+00
         -2   -1    0    0    0  501 -0.00000000000E+00  0.00000000000E+00  0.53465039532E+03  0.53465039532E+03  0.00000000000E+00 0.  1.
          2   -1    0    0  502    0  0.00000000000E+00 -0.00000000000E+00 -0.20742126275E+04  0.20742126275E+04  0.00000000000E+00 0. -1.
          6    1    1    2  502    0 -0.42757051840E+02 -0.45847475690E+03 -0.19233970060E+04  0.19852121576E+04  0.17200000000E+03 0. -1.
         -6    1    1    2    0  501  0.42757051840E+02  0.45847475690E+03  0.38383477373E+03  0.62365086525E+03  0.17200000000E+03 0.  1.
</event>
<event>
 4    1  0.3191769E-002  0.5377629E+03  0.7818608E-02  0.1004367E+00
          2   -1    0    0  502    0  0.00000000000E+00  0.00000000000E+00  0.18259932521E+04  0.18259932521E+04  0.00000000000E+00 0. -1.
         -2   -1    0    0    0  501 -0.00000000000E+00 -0.00000000000E+00 -0.16084682928E+03  0.16084682928E+03  0.00000000000E+00 0.  1.
          6    1    1    2  502    0  0.89509069455E+02 -0.50159058655E+03  0.95576034234E+03  0.10966616716E+04  0.17200000000E+03 0. -1.
         -6    1    1    2    0  501 -0.89509069455E+02  0.50159058655E+03  0.70938608051E+03  0.89017840979E+03  0.17200000000E+03 0.  1.
</event>
<event>
 4    1  0.3191769E-002  0.4954254E+03  0.7818608E-02  0.1014980E+00
          2   -1    0    0  502    0  0.00000000000E+00  0.00000000000E+00  0.12490309536E+04  0.12490309536E+04  0.00000000000E+00 0. -1.
         -2   -1    0    0    0  501 -0.00000000000E+00 -0.00000000000E+00 -0.21990374104E+03  0.21990374104E+03  0.00000000000E+00 0.  1.
          6    1    1    2  502    0 -0.40921488347E+03  0.22001246490E+03  0.75412218290E+03  0.90230071057E+03  0.17200000000E+03 0. -1.
         -6    1    1    2    0  501  0.40921488347E+03 -0.22001246490E+03  0.27500502965E+03  0.56663398406E+03  0.17200000000E+03 0.  1.
</event>
<event>
 4    1  0.3191769E-002  0.2900974E+03  0.7818608E-02  0.1090298E+00
          2   -1    0    0  502    0  0.00000000000E+00  0.00000000000E+00  0.85561054142E+03  0.85561054142E+03  0.00000000000E+00 0. -1.
         -2   -1    0    0    0  501 -0.00000000000E+00 -0.00000000000E+00 -0.12406068368E+03  0.12406068368E+03  0.00000000000E+00 0.  1.
          6    1    1    2  502    0  0.16138715215E+03 -0.16889852978E+03  0.58873069540E+03  0.65632336385E+03  0.17200000000E+03 0. -1.
         -6    1    1    2    0  501 -0.16138715215E+03  0.16889852978E+03  0.14281916234E+03  0.32334786124E+03  0.17200000000E+03 0.  1.
</event>
<event>
 4    1  0.3191769E-002  0.3353784E+03  0.7818608E-02  0.1068782E+00
          1   -1    0    0  502    0  0.00000000000E+00  0.00000000000E+00  0.17379433564E+04  0.17379433564E+04  0.00000000000E+00 0. -1.
         -1   -1    0    0    0  501 -0.00000000000E+00 -0.00000000000E+00 -0.65413704622E+02  0.65413704622E+02  0.00000000000E+00 0.  1.
          6    1    1    2  502    0  0.25013118107E+03 -0.14258000313E+03  0.92915930539E+03  0.98783383209E+03  0.17200000000E+03 0. -1.
         -6    1    1    2    0  501 -0.25013118107E+03  0.14258000313E+03  0.74337034637E+03  0.81552322892E+03  0.17200000000E+03 0. -1.
</event>
<event>
 4    1  0.3191769E-002  0.4280377E+03  0.7818608E-02  0.1034482E+00
         -1   -1    0    0    0  501 -0.00000000000E+00  0.00000000000E+00  0.48657624057E+03  0.48657624057E+03  0.00000000000E+00 0.  1.
          1   -1    0    0  502    0  0.00000000000E+00 -0.00000000000E+00 -0.60081736213E+03  0.60081736213E+03  0.00000000000E+00 0. -1.
          6    1    1    2  502    0 -0.32974255135E+03  0.21190128177E+03 -0.38930286865E+03  0.57859573704E+03  0.17200000000E+03 0. -1.
         -6    1    1    2    0  501  0.32974255135E+03 -0.21190128177E+03  0.27506174709E+03  0.50879786566E+03  0.17200000000E+03 0.  1.
</event>
<event>
 4    1  0.3191769E-002  0.1816964E+03  0.7818608E-02  0.1166171E+00
          1   -1    0    0  502    0  0.00000000000E+00  0.00000000000E+00  0.15442374582E+03  0.15442374582E+03  0.00000000000E+00 0. -1.
         -1   -1    0    0    0  501 -0.00000000000E+00 -0.00000000000E+00 -0.21430057875E+03  0.21430057875E+03  0.00000000000E+00 0.  1.
          6    1    1    2  502    0 -0.52929149812E+02  0.25061895337E+02 -0.38974894949E+02  0.18582958842E+03  0.17200000000E+03 0.  1.
         -6    1    1    2    0  501  0.52929149812E+02 -0.25061895337E+02 -0.20901937977E+02  0.18289473614E+03  0.17200000000E+03 0.  1.
</event>
<event>
 4    1  0.3191769E-002  0.2931555E+03  0.7818608E-02  0.1088713E+00
         -1   -1    0    0    0  501 -0.00000000000E+00  0.00000000000E+00  0.24202245019E+02  0.24202245019E+02  0.00000000000E+00 0.  1.
          1   -1    0    0  502    0  0.00000000000E+00 -0.00000000000E+00 -0.35967447386E+04  0.35967447386E+04  0.00000000000E+00 0. -1.
          6    1    1    2  502    0  0.21791994582E+03 -0.94164842285E+02 -0.15819046148E+04  0.16088388144E+04  0.17200000000E+03 0. -1.
         -6    1    1    2    0  501 -0.21791994582E+03  0.94164842285E+02 -0.19906378787E+04  0.20121081692E+04  0.17200000000E+03 0.  1.
</event>
<event>
 4    1  0.3191769E-002  0.2279839E+03  0.7818608E-02  0.1128067E+00
          1   -1    0    0  502    0  0.00000000000E+00  0.00000000000E+00  0.89107922169E+02  0.89107922169E+02  0.00000000000E+00 0. -1.
         -1   -1    0    0    0  501 -0.00000000000E+00 -0.00000000000E+00 -0.72065925156E+03  0.72065925156E+03  0.00000000000E+00 0.  1.
          6    1    1    2  502    0 -0.27496086894E+02  0.14709392829E+03 -0.49253974290E+03  0.54274492800E+03  0.17200000000E+03 0. -1.
         -6    1    1    2    0  501  0.27496086894E+02 -0.14709392829E+03 -0.13901158650E+03  0.26702224573E+03  0.17200000000E+03 0. -1.
</event>
<event>
 4    1  0.3191769E-002  0.2101945E+03  0.7818608E-02  0.1141412E+00
         -2   -1    0    0    0  501 -0.00000000000E+00  0.00000000000E+00  0.13416231375E+03  0.13416231375E+03  0.00000000000E+00 0.  1.
          2   -1    0    0  502    0  0.00000000000E+00 -0.00000000000E+00 -0.38884003610E+03  0.38884003610E+03  0.00000000000E+00 0. -1.
          6    1    1    2  502    0  0.18894842626E+02  0.11933448842E+03 -0.22965308406E+03  0.31132342382E+03  0.17200000000E+03 0. -1.
         -6    1    1    2    0  501 -0.18894842626E+02 -0.11933448842E+03 -0.25024638298E+02  0.21167892603E+03  0.17200000000E+03 0.  1.
</event>
<event>
 4    1  0.3191769E-002  0.4548611E+03  0.7818608E-02  0.1026282E+00
          2   -1    0    0  502    0  0.00000000000E+00  0.00000000000E+00  0.23007846518E+04  0.23007846518E+04  0.00000000000E+00 0. -1.
         -2   -1    0    0    0  501 -0.00000000000E+00 -0.00000000000E+00 -0.11920060897E+03  0.11920060897E+03  0.00000000000E+00 0.  1.
          6    1    1    2  502    0  0.36377450768E+03 -0.21209124125E+03  0.16904377677E+04  0.17505651754E+04  0.17200000000E+03 0. -1.
         -6    1    1    2    0  501 -0.36377450768E+03  0.21209124125E+03  0.49114627512E+03  0.66942008531E+03  0.17200000000E+03 0.  1.
</event>
<event>
 4    1  0.3191769E-002  0.1776083E+03  0.7818608E-02  0.1170138E+00
          1   -1    0    0  502    0  0.00000000000E+00  0.00000000000E+00  0.46925724949E+03  0.46925724949E+03  0.00000000000E+00 0. -1.
         -1   -1    0    0    0  501 -0.00000000000E+00 -0.00000000000E+00 -0.13030781429E+03  0.13030781429E+03  0.00000000000E+00 0.  1.
          6    1    1    2  502    0 -0.11329093539E+02 -0.42805969028E+02 -0.39111127509E+02  0.18186362924E+03  0.17200000000E+03 0.  1.
         -6    1    1    2    0  501  0.11329093539E+02  0.42805969028E+02  0.37806056270E+03  0.41770143454E+03  0.17200000000E+03 0. -1.
</event>
<event>
 4    1  0.3191769E-002  0.2108525E+03  0.7818608E-02  0.1140893E+00
         -1   -1    0    0    0  501 -0.00000000000E+00  0.00000000000E+00  0.11356540469E+03  0.11356540469E+03  0.00000000000E+00 0.  1.
          1   -1    0    0  502    0  0.00000000000E+00 -0.00000000000E+00 -0.60989607732E+03  0.60989607732E+03  0.00000000000E+00 0. -1.
          6    1    1    2  502    0 -0.80034555750E+02 -0.92028618410E+02 -0.31695223865E+02  0.21322144343E+03  0.17200000000E+03 0.  1.
         -6    1    1    2    0  501  0.80034555750E+02  0.92028618410E+02 -0.46463544877E+03  0.51024003859E+03  0.17200000000E+03 0. -1.
</event>
<event>
 4    1  0.3191769E-002  0.2235537E+03  0.7818608E-02  0.1131261E+00
          2   -1    0    0  502    0  0.00000000000E+00  0.00000000000E+00  0.17022553575E+04  0.17022553575E+04  0.00000000000E+00 0. -1.
         -2   -1    0    0    0  501 -0.00000000000E+00 -0.00000000000E+00 -0.29537622625E+02  0.29537622625E+02  0.00000000000E+00 0.  1.
          6    1    1    2  502    0  0.14175973890E+03  0.17217397597E+02  0.90372270634E+03  0.93096240112E+03  0.17200000000E+03 0. -1.
         -6    1    1    2    0  501 -0.14175973890E+03 -0.17217397597E+02  0.76899502858E+03  0.80083057905E+03  0.17200000000E+03 0.  1.
</event>
<event>
 4    1  0.3191769E-002  0.3287873E+03  0.7818608E-02  0.1071675E+00
         -1   -1    0    0    0  501 -0.00000000000E+00  0.00000000000E+00  0.24561788108E+03  0.24561788108E+03  0.00000000000E+00 0.  1.
          1   -1    0    0  502    0  0.00000000000E+00 -0.00000000000E+00 -0.60952084127E+03  0.60952084127E+03  0.00000000000E+00 0. -1.
          6    1    1    2  502    0  0.25211518217E+03  0.12229083525E+03 -0.40736048931E+03  0.52349181628E+03  0.17200000000E+03 0. -1.
         -6    1    1    2    0  501 -0.25211518217E+03 -0.12229083525E+03  0.43457529122E+02  0.33164690607E+03  0.17200000000E+03 0.  1.
</event>
<event>
 4    1  0.3191769E-002  0.2519792E+03  0.7818608E-02  0.1112060E+00
          3   -1    0    0  502    0  0.00000000000E+00  0.00000000000E+00  0.14415355872E+04  0.14415355872E+04  0.00000000000E+00 0. -1.
         -3   -1    0    0    0  501 -0.00000000000E+00 -0.00000000000E+00 -0.57952731052E+02  0.57952731052E+02  0.00000000000E+00 0.  1.
          6    1    1    2  502    0  0.75692673032E+02  0.16786935316E+03  0.32451526893E+03  0.41085722611E+03  0.17200000000E+03 0.  1.
         -6    1    1    2    0  501 -0.75692673032E+02 -0.16786935316E+03  0.10590675872E+04  0.10886310922E+04  0.17200000000E+03 0. -1.
</event>
<event>
 4    1  0.3191769E-002  0.1722080E+03  0.7818608E-02  0.1175565E+00
         -2   -1    0    0    0  501 -0.00000000000E+00  0.00000000000E+00  0.13944112521E+03  0.13944112521E+03  0.00000000000E+00 0.  1.
          2   -1    0    0  502    0  0.00000000000E+00 -0.00000000000E+00 -0.21317754374E+03  0.21317754374E+03  0.00000000000E+00 0. -1.
          6    1    1    2  502    0 -0.12018771232E+01  0.83755374896E+01 -0.28304978952E+02  0.17451866940E+03  0.17200000000E+03 0. -1.
         -6    1    1    2    0  501  0.12018771232E+01 -0.83755374896E+01 -0.45431439571E+02  0.17809999955E+03  0.17200000000E+03 0. -1.
</event>
<event>
 4    1  0.3191769E-002  0.2004259E+03  0.7818608E-02  0.1149380E+00
         -1   -1    0    0    0  501 -0.00000000000E+00  0.00000000000E+00  0.23108154044E+02  0.23108154044E+02  0.00000000000E+00 0.  1.
          1   -1    0    0  502    0  0.00000000000E+00 -0.00000000000E+00 -0.20792880200E+04  0.20792880200E+04  0.00000000000E+00 0. -1.
          6    1    1    2  502    0 -0.60191821379E+02  0.83447578945E+02 -0.60244121311E+03  0.63490626792E+03  0.17200000000E+03 0.  1.
         -6    1    1    2    0  501  0.60191821379E+02 -0.83447578945E+02 -0.14537386528E+04  0.14674899061E+04  0.17200000000E+03 0.  1.
</event>
<event>
 4    1  0.3191769E-002  0.2229711E+03  0.7818608E-02  0.1131687E+00
          1   -1    0    0  502    0  0.00000000000E+00  0.00000000000E+00  0.46037674686E+03  0.46037674686E+03  0.00000000000E+00 0. -1.
         -1   -1    0    0    0  501 -0.00000000000E+00 -0.00000000000E+00 -0.23306784865E+03  0.23306784865E+03  0.00000000000E+00 0.  1.
          6    1    1    2  502    0  0.12277162003E+03  0.71128311880E+02  0.36765268760E+03  0.42998209979E+03  0.17200000000E+03 0. -1.
         -6    1    1    2    0  501 -0.12277162003E+03 -0.71128311880E+02 -0.14034378939E+03  0.26346249573E+03  0.17200000000E+03 0.  1.
</event>
<event>
 4    1  0.3191769E-002  0.1845170E+03  0.7818608E-02  0.1163502E+00
         -2   -1    0    0    0  501 -0.00000000000E+00  0.00000000000E+00  0.56290998790E+02  0.56290998790E+02  0.00000000000E+00 0.  1.
          2   -1    0    0  502    0  0.00000000000E+00 -0.00000000000E+00 -0.65634508001E+03  0.65634508001E+03  0.00000000000E+00 0. -1.
          6    1    1    2  502    0 -0.65683323912E+02  0.12174848355E+02 -0.20020284965E+03  0.27226403909E+03  0.17200000000E+03 0.  1.
         -6    1    1    2    0  501  0.65683323912E+02 -0.12174848355E+02 -0.39985123157E+03  0.44037203971E+03  0.17200000000E+03 0.  1.
</event>
<event>
 4    1  0.3191769E-002  0.2197783E+03  0.7818608E-02  0.1134048E+00
         -1   -1    0    0    0  501 -0.00000000000E+00  0.00000000000E+00  0.25519630978E+03  0.25519630978E+03  0.00000000000E+00 0.  1.
          1   -1    0    0  502    0  0.00000000000E+00 -0.00000000000E+00 -0.19980849210E+03  0.19980849210E+03  0.00000000000E+00 0. -1.
          6    1    1    2  502    0 -0.35351286038E+02 -0.13216960949E+03 -0.24539216056E+02  0.22114405310E+03  0.17200000000E+03 0. -1.
         -6    1    1    2    0  501  0.35351286038E+02  0.13216960949E+03  0.79927033735E+02  0.23386074878E+03  0.17200000000E+03 0.  1.
</event>
<event>
 4    1  0.3191769E-002  0.1903530E+03  0.7818608E-02  0.1158143E+00
          2   -1    0    0  502    0  0.00000000000E+00  0.00000000000E+00  0.32579880509E+03  0.32579880509E+03  0.00000000000E+00 0. -1.
         -2   -1    0    0    0  501 -0.00000000000E+00 -0.00000000000E+00 -0.11774896004E+03  0.11774896004E+03  0.00000000000E+00 0.  1.
          6    1    1    2  502    0 -0.43495427294E+02 -0.68981226403E+02  0.51789607039E+02  0.19727246435E+03  0.17200000000E+03 0. -1.
         -6    1    1    2    0  501  0.43495427294E+02  0.68981226403E+02  0.15626023801E+03  0.24627530078E+03  0.17200000000E+03 0. -1.
</event>
<event>
 4    1  0.3191769E-002  0.1774179E+03  0.7818608E-02  0.1170326E+00
         -1   -1    0    0    0  501 -0.00000000000E+00  0.00000000000E+00  0.13606693314E+03  0.13606693314E+03  0.00000000000E+00 0.  1.
          1   -1    0    0  502    0  0.00000000000E+00 -0.00000000000E+00 -0.33323376672E+03  0.33323376672E+03  0.00000000000E+00 0. -1.
          6    1    1    2  502    0  0.28673871357E+02  0.32724798830E+02 -0.22834025037E+03  0.28916495862E+03  0.17200000000E+03 0. -1.
         -6    1    1    2    0  501 -0.28673871357E+02 -0.32724798830E+02  0.31173416780E+02  0.18013574124E+03  0.17200000000E+03 0.  1.
</event>
<event>
 4    1  0.3191769E-002  0.3426122E+03  0.7818608E-02  0.1065689E+00
          1   -1    0    0  502    0  0.00000000000E+00  0.00000000000E+00  0.10371076835E+04  0.10371076835E+04  0.00000000000E+00 0. -1.
         -1   -1    0    0    0  501 -0.00000000000E+00 -0.00000000000E+00 -0.12373738520E+03  0.12373738520E+03  0.00000000000E+00 0.  1.
          6    1    1    2  502    0 -0.27717456616E+03 -0.10475379885E+03  0.62619990153E+03  0.71379928214E+03  0.17200000000E+03 0. -1.
         -6    1    1    2    0  501  0.27717456616E+03  0.10475379885E+03  0.28717039675E+03  0.44704578655E+03  0.17200000000E+03 0.  1.
</event>
<event>
 4    1  0.3191769E-002  0.2026303E+03  0.7818608E-02  0.1147539E+00
         -1   -1    0    0    0  501 -0.00000000000E+00  0.00000000000E+00  0.63967797622E+03  0.63967797622E+03  0.00000000000E+00 0.  1.
          1   -1    0    0  502    0  0.00000000000E+00 -0.00000000000E+00 -0.13308655566E+03  0.13308655566E+03  0.00000000000E+00 0. -1.
          6    1    1    2  502    0  0.68182348526E+02  0.82620896504E+02 -0.24712825755E+02  0.20413174409E+03  0.17200000000E+03 0. -1.
         -6    1    1    2    0  501 -0.68182348526E+02 -0.82620896504E+02  0.53130424632E+03  0.56863278778E+03  0.17200000000E+03 0.  1.
</event>
<event>
 4    1  0.3191769E-002  0.1841856E+03  0.7818608E-02  0.1163813E+00
         -1   -1    0    0    0  501 -0.00000000000E+00  0.00000000000E+00  0.88313174262E+02  0.88313174262E+02  0.00000000000E+00 0.  1.
          1   -1    0    0  502    0  0.00000000000E+00 -0.00000000000E+00 -0.69858342766E+03  0.69858342766E+03  0.00000000000E+00 0. -1.
          6    1    1    2  502    0  0.55161082203E+02 -0.36022197441E+02 -0.56910354971E+03  0.59816652697E+03  0.17200000000E+03 0. -1.
         -6    1    1    2    0  501 -0.55161082203E+02  0.36022197441E+02 -0.41166703689E+02  0.18873007495E+03  0.17200000000E+03 0.  1.
</event>
<event>
 4    1  0.3191769E-002  0.2561093E+03  0.7818608E-02  0.1109504E+00
         -2   -1    0    0    0  501 -0.00000000000E+00  0.00000000000E+00  0.21424957161E+03  0.21424957161E+03  0.00000000000E+00 0.  1.
          2   -1    0    0  502    0  0.00000000000E+00 -0.00000000000E+00 -0.37181769409E+03  0.37181769409E+03  0.00000000000E+00 0. -1.
          6    1    1    2  502    0 -0.16379759714E+03  0.95803432660E+02  0.44366644256E+02  0.25992373816E+03  0.17200000000E+03 0.  1.
         -6    1    1    2    0  501  0.16379759714E+03 -0.95803432660E+02 -0.20193476674E+03  0.32614352754E+03  0.17200000000E+03 0. -1.
</event>
<event>
 4    1  0.3191769E-002  0.4177685E+03  0.7818608E-02  0.1037795E+00
         -1   -1    0    0    0  501 -0.00000000000E+00  0.00000000000E+00  0.94251521519E+02  0.94251521519E+02  0.00000000000E+00 0.  1.
          1   -1    0    0  502    0  0.00000000000E+00 -0.00000000000E+00 -0.19915292578E+04  0.19915292578E+04  0.00000000000E+00 0. -1.
          6    1    1    2  502    0  0.28382112905E+03  0.25375603284E+03 -0.12249266619E+04  0.12942085939E+04  0.17200000000E+03 0.  1.
         -6    1    1    2    0  501 -0.28382112905E+03 -0.25375603284E+03 -0.67235107435E+03  0.79157218539E+03  0.17200000000E+03 0.  1.
</event>
<event>
 4    1  0.3191769E-002  0.2090577E+03  0.7818608E-02  0.1142314E+00
          2   -1    0    0  502    0  0.00000000000E+00  0.00000000000E+00  0.58840973361E+03  0.58840973361E+03  0.00000000000E+00 0. -1.
         -2   -1    0    0    0  501 -0.00000000000E+00 -0.00000000000E+00 -0.10488906723E+03  0.10488906723E+03  0.00000000000E+00 0.  1.
          6    1    1    2  502    0 -0.94464106462E+02 -0.72094732402E+02  0.42903282312E+03  0.47725703888E+03  0.17200000000E+03 0. -1.
         -6    1    1    2    0  501  0.94464106462E+02  0.72094732402E+02  0.54487843260E+02  0.21604176197E+03  0.17200000000E+03 0.  1.
</event>
<event>
 4    1  0.3191769E-002  0.2659126E+03  0.7818608E-02  0.1103642E+00
          1   -1    0    0  502    0  0.00000000000E+00  0.00000000000E+00  0.73577296503E+03  0.73577296503E+03  0.00000000000E+00 0. -1.
         -1   -1    0    0    0  501 -0.00000000000E+00 -0.00000000000E+00 -0.12648578432E+03  0.12648578432E+03  0.00000000000E+00 0.  1.
          6    1    1    2  502    0 -0.80643450509E+02  0.18607026209E+03  0.51594636989E+03  0.58043963092E+03  0.17200000000E+03 0. -1.
         -6    1    1    2    0  501  0.80643450509E+02 -0.18607026209E+03  0.93340810828E+02  0.28181911843E+03  0.17200000000E+03 0.  1.
</event>
<event>
 4    1  0.3191769E-002  0.1821171E+03  0.7818608E-02  0.1165770E+00
          2   -1    0    0  502    0  0.00000000000E+00  0.00000000000E+00  0.80674257965E+03  0.80674257965E+03  0.00000000000E+00 0. -1.
         -2   -1    0    0    0  501 -0.00000000000E+00 -0.00000000000E+00 -0.21387512241E+03  0.21387512241E+03  0.00000000000E+00 0.  1.
          6    1    1    2  502    0 -0.47776399616E+02 -0.36056421642E+02  0.75508090383E+03  0.77673278625E+03  0.17200000000E+03 0. -1.
         -6    1    1    2    0  501  0.47776399616E+02  0.36056421642E+02 -0.16221344659E+03  0.24388491580E+03  0.17200000000E+03 0.  1.
</event>
<event>
 4    1  0.3191769E-002  0.1067198E+04  0.7818608E-02  0.9237766E-01
         -2   -1    0    0    0  501 -0.00000000000E+00  0.00000000000E+00  0.89884126291E+03  0.89884126291E+03  0.00000000000E+00 0.  1.
          2   -1    0    0  502    0  0.00000000000E+00 -0.00000000000E+00 -0.16853751502E+04  0.16853751502E+04  0.00000000000E+00 0. -1.
          6    1    1    2  502    0 -0.66529294727E+03  0.81652521311E+03 -0.10369723970E+04  0.14880268416E+04  0.17200000000E+03 0. -1.
         -6    1    1    2    0  501  0.66529294727E+03 -0.81652521311E+03  0.25043850973E+03  0.10961895714E+04  0.17200000000E+03 0.  1.
</event>
<event>
 4    1  0.3191769E-002  0.2085906E+03  0.7818608E-02  0.1142687E+00
          1   -1    0    0  502    0  0.00000000000E+00  0.00000000000E+00  0.20327324876E+04  0.20327324876E+04  0.00000000000E+00 0. -1.
         -1   -1    0    0    0  501 -0.00000000000E+00 -0.00000000000E+00 -0.27674442491E+02  0.27674442491E+02  0.00000000000E+00 0.  1.
          6    1    1    2  502    0  0.29892823776E+02  0.11415985035E+03  0.14928811021E+04  0.15073831754E+04  0.17200000000E+03 0. -1.
         -6    1    1    2    0  501 -0.29892823776E+02 -0.11415985035E+03  0.51217694295E+03  0.55302375468E+03  0.17200000000E+03 0.  1.
</event>
<event>
 4    1  0.3191769E-002  0.2034236E+03  0.7818608E-02  0.1146882E+00
         -2   -1    0    0    0  501 -0.00000000000E+00  0.00000000000E+00  0.21697161848E+02  0.21697161848E+02  0.00000000000E+00 0.  1.
          2   -1    0    0  502    0  0.00000000000E+00 -0.00000000000E+00 -0.19072270907E+04  0.19072270907E+04  0.00000000000E+00 0. -1.
          6    1    1    2  502    0 -0.27680957591E+02  0.10502825584E+03 -0.94041855416E+03  0.96216850237E+03  0.17200000000E+03 0.  1.
         -6    1    1    2    0  501  0.27680957591E+02 -0.10502825584E+03 -0.94511137469E+03  0.96675575018E+03  0.17200000000E+03 0.  1.
</event>
<event>
 4    1  0.3191769E-002  0.1767647E+03  0.7818608E-02  0.1170971E+00
          2   -1    0    0  502    0  0.00000000000E+00  0.00000000000E+00  0.85988473071E+03  0.85988473071E+03  0.00000000000E+00 0. -1.
         -2   -1    0    0    0  501 -0.00000000000E+00 -0.00000000000E+00 -0.57727685837E+02  0.57727685837E+02  0.00000000000E+00 0.  1.
          6    1    1    2  502    0 -0.40762722291E+02  0.40964960112E+00  0.68036374838E+03  0.70295134786E+03  0.17200000000E+03 0. -1.
         -6    1    1    2    0  501  0.40762722291E+02 -0.40964960112E+00  0.12179329649E+03  0.21466106869E+03  0.17200000000E+03 0.  1.
</event>
<event>
 4    1  0.3191769E-002  0.2804015E+03  0.7818608E-02  0.1095470E+00
          2   -1    0    0  502    0  0.00000000000E+00  0.00000000000E+00  0.51984130371E+03  0.51984130371E+03  0.00000000000E+00 0. -1.
         -2   -1    0    0    0  501 -0.00000000000E+00 -0.00000000000E+00 -0.17715306952E+03  0.17715306952E+03  0.00000000000E+00 0.  1.
          6    1    1    2  502    0 -0.17737356263E+03  0.13258819301E+03  0.30460923129E+03  0.41401907375E+03  0.17200000000E+03 0. -1.
         -6    1    1    2    0  501  0.17737356263E+03 -0.13258819301E+03  0.38079002902E+02  0.28297529947E+03  0.17200000000E+03 0.  1.
</event>
<event>
 4    1  0.3191769E-002  0.2387461E+03  0.7818608E-02  0.1120631E+00
          1   -1    0    0  502    0  0.00000000000E+00  0.00000000000E+00  0.62077525355E+03  0.62077525355E+03  0.00000000000E+00 0. -1.
         -1   -1    0    0    0  501 -0.00000000000E+00 -0.00000000000E+00 -0.11852662543E+03  0.11852662543E+03  0.00000000000E+00 0.  1.
          6    1    1    2  502    0  0.10738241054E+02  0.16522827433E+03  0.42658989500E+03  0.48885440673E+03  0.17200000000E+03 0. -1.
         -6    1    1    2    0  501 -0.10738241054E+02 -0.16522827433E+03  0.75658733121E+02  0.25044747225E+03  0.17200000000E+03 0.  1.
</event>
<event>
 4    1  0.3191769E-002  0.1789495E+03  0.7818608E-02  0.1168824E+00
          2   -1    0    0  502    0  0.00000000000E+00  0.00000000000E+00  0.71009361764E+03  0.71009361764E+03  0.00000000000E+00 0. -1.
         -2   -1    0    0    0  501 -0.00000000000E+00 -0.00000000000E+00 -0.45655432619E+02  0.45655432619E+02  0.00000000000E+00 0.  1.
          6    1    1    2  502    0  0.29061053409E+02  0.39929474044E+02  0.37402018108E+03  0.41462513621E+03  0.17200000000E+03 0. -1.
         -6    1    1    2    0  501 -0.29061053409E+02 -0.39929474044E+02  0.29041800394E+03  0.34112391404E+03  0.17200000000E+03 0.  1.
</event>
<event>
 4    1  0.3191769E-002  0.1916711E+03  0.7818608E-02  0.1156963E+00
          1   -1    0    0  502    0  0.00000000000E+00  0.00000000000E+00  0.31212670625E+03  0.31212670625E+03  0.00000000000E+00 0. -1.
         -1   -1    0    0    0  501 -0.00000000000E+00 -0.00000000000E+00 -0.14256533726E+03  0.14256533726E+03  0.00000000000E+00 0.  1.
          6    1    1    2  502    0 -0.76825669534E+02 -0.35378333570E+02  0.17972384112E+03  0.26275172512E+03  0.17200000000E+03 0. -1.
         -6    1    1    2    0  501  0.76825669534E+02  0.35378333570E+02 -0.10162472129E+02  0.19194031839E+03  0.17200000000E+03 0.  1.
</event>
<event>
 4    1  0.3191769E-002  0.2477465E+03  0.7818608E-02  0.1114737E+00
          2   -1    0    0  502    0  0.00000000000E+00  0.00000000000E+00  0.16968198253E+03  0.16968198253E+03  0.00000000000E+00 0. -1.
         -2   -1    0    0    0  501 -0.00000000000E+00 -0.00000000000E+00 -0.39910881449E+03  0.39910881449E+03  0.00000000000E+00 0.  1.
          6    1    1    2  502    0  0.15512134452E+03 -0.87929939478E+02 -0.27674072070E+02  0.24928730423E+03  0.17200000000E+03 0. -1.
         -6    1    1    2    0  501 -0.15512134452E+03  0.87929939478E+02 -0.20175275989E+03  0.31950349279E+03  0.17200000000E+03 0.  1.
</event>
<event>
 4    1  0.3191769E-002  0.1940223E+03  0.7818608E-02  0.1154883E+00
          1   -1    0    0  502    0  0.00000000000E+00  0.00000000000E+00  0.10090691081E+03  0.10090691081E+03  0.00000000000E+00 0. -1.
         -1   -1    0    0    0  501 -0.00000000000E+00 -0.00000000000E+00 -0.47898205882E+03  0.47898205882E+03  0.00000000000E+00 0.  1.
          6    1    1    2  502    0 -0.78447696509E+02  0.43664806046E+02 -0.52691747589E+02  0.20104993568E+03  0.17200000000E+03 0. -1.
         -6    1    1    2    0  501  0.78447696509E+02 -0.43664806046E+02 -0.32538340041E+03  0.37883903394E+03  0.17200000000E+03 0.  1.
</event>
<event>
 4    1  0.3191769E-002  0.2818946E+03  0.7818608E-02  0.1094659E+00
          2   -1    0    0  502    0  0.00000000000E+00  0.00000000000E+00  0.26891647399E+04  0.26891647399E+04  0.00000000000E+00 0. -1.
         -2   -1    0    0    0  501 -0.00000000000E+00 -0.00000000000E+00 -0.33996376727E+02  0.33996376727E+02  0.00000000000E+00 0.  1.
          6    1    1    2  502    0 -0.14636168740E+03 -0.16869737324E+03  0.18200034865E+04  0.18417049813E+04  0.17200000000E+03 0. -1.
         -6    1    1    2    0  501  0.14636168740E+03  0.16869737324E+03  0.83516487667E+03  0.88145613532E+03  0.17200000000E+03 0.  1.
</event>
<event>
 4    1  0.3191769E-002  0.1936871E+03  0.7818608E-02  0.1155177E+00
          1   -1    0    0  502    0  0.00000000000E+00  0.00000000000E+00  0.25086164095E+04  0.25086164095E+04  0.00000000000E+00 0. -1.
         -1   -1    0    0    0  501 -0.00000000000E+00 -0.00000000000E+00 -0.17140831236E+02  0.17140831236E+02  0.00000000000E+00 0.  1.
          6    1    1    2  502    0 -0.88527566835E+02 -0.96723738632E+01  0.16967831779E+04  0.17078020487E+04  0.17200000000E+03 0.  1.
         -6    1    1    2    0  501  0.88527566835E+02  0.96723738632E+01  0.79469240041E+03  0.81795519204E+03  0.17200000000E+03 0.  1.
</event>
<event>
 4    1  0.3191769E-002  0.3631772E+03  0.7818608E-02  0.1057333E+00
         -4   -1    0    0    0  501 -0.00000000000E+00  0.00000000000E+00  0.69124188667E+03  0.69124188667E+03  0.00000000000E+00 0.  1.
          4   -1    0    0  502    0  0.00000000000E+00 -0.00000000000E+00 -0.20926282270E+03  0.20926282270E+03  0.00000000000E+00 0. -1.
          6    1    1    2  502    0 -0.21316630784E+03  0.23848224694E+03  0.10729586363E+03  0.37869520628E+03  0.17200000000E+03 0. -1.
         -6    1    1    2    0  501  0.21316630784E+03 -0.23848224694E+03  0.37468320033E+03  0.52180950309E+03  0.17200000000E+03 0.  1.
</event>
<event>
 4    1  0.3191769E-002  0.2303339E+03  0.7818608E-02  0.1126405E+00
          1   -1    0    0  502    0  0.00000000000E+00  0.00000000000E+00  0.39987564128E+03  0.39987564128E+03  0.00000000000E+00 0. -1.
         -1   -1    0    0    0  501 -0.00000000000E+00 -0.00000000000E+00 -0.13512314324E+03  0.13512314324E+03  0.00000000000E+00 0.  1.
          6    1    1    2  502    0 -0.21433891716E+02  0.15169148129E+03  0.16837838874E+03  0.28531561297E+03  0.17200000000E+03 0. -1.
         -6    1    1    2    0  501  0.21433891716E+02 -0.15169148129E+03  0.96374109307E+02  0.24968317155E+03  0.17200000000E+03 0.  1.
</event>
<event>
 4    1  0.3191769E-002  0.2624116E+03  0.7818608E-02  0.1105703E+00
         -2   -1    0    0    0  501 -0.00000000000E+00  0.00000000000E+00  0.32780032430E+02  0.32780032430E+02  0.00000000000E+00 0.  1.
          2   -1    0    0  502    0  0.00000000000E+00 -0.00000000000E+00 -0.21226893148E+04  0.21226893148E+04  0.00000000000E+00 0. -1.
          6    1    1    2  502    0 -0.18124110088E+03  0.80171746725E+02 -0.11547353976E+04  0.11841763737E+04  0.17200000000E+03 0. -1.
         -6    1    1    2    0  501  0.18124110088E+03 -0.80171746725E+02 -0.93517388477E+03  0.97129297350E+03  0.17200000000E+03 0.  1.
</event>
<event>
 4    1  0.3191769E-002  0.6204787E+03  0.7818608E-02  0.9863807E-01
          2   -1    0    0  502    0  0.00000000000E+00  0.00000000000E+00  0.16633560533E+04  0.16633560533E+04  0.00000000000E+00 0. -1.
         -2   -1    0    0    0  501 -0.00000000000E+00 -0.00000000000E+00 -0.63161854951E+03  0.63161854951E+03  0.00000000000E+00 0.  1.
          6    1    1    2  502    0 -0.42620907591E+03  0.41683999420E+03  0.14292217629E+04  0.15580977519E+04  0.17200000000E+03 0. -1.
         -6    1    1    2    0  501  0.42620907591E+03 -0.41683999420E+03 -0.39748425907E+03  0.73687685088E+03  0.17200000000E+03 0.  1.
</event>
<event>
 4    1  0.3191769E-002  0.2452198E+03  0.7818608E-02  0.1116364E+00
         -2   -1    0    0    0  501 -0.00000000000E+00  0.00000000000E+00  0.19510778038E+03  0.19510778038E+03  0.00000000000E+00 0.  1.
          2   -1    0    0  502    0  0.00000000000E+00 -0.00000000000E+00 -0.98368741441E+03  0.98368741441E+03  0.00000000000E+00 0. -1.
          6    1    1    2  502    0  0.99426741068E+02  0.14374658664E+03 -0.88270318781E+03  0.91613190960E+03  0.17200000000E+03 0. -1.
         -6    1    1    2    0  501 -0.99426741068E+02 -0.14374658664E+03  0.94123553780E+02  0.26266328519E+03  0.17200000000E+03 0.  1.
</event>
<event>
 4    1  0.3191769E-002  0.4062538E+03  0.7818608E-02  0.1041635E+00
         -2   -1    0    0    0  501 -0.00000000000E+00  0.00000000000E+00  0.20801646579E+03  0.20801646579E+03  0.00000000000E+00 0.  1.
          2   -1    0    0  502    0  0.00000000000E+00 -0.00000000000E+00 -0.89659633730E+03  0.89659633730E+03  0.00000000000E+00 0. -1.
          6    1    1    2  502    0  0.32925128686E+03 -0.16447418558E+03 -0.53165753012E+03  0.66910529586E+03  0.17200000000E+03 0. -1.
         -6    1    1    2    0  501 -0.32925128686E+03  0.16447418558E+03 -0.15692234139E+03  0.43550750722E+03  0.17200000000E+03 0.  1.
</event>
