<event>
 4    1  0.5640532E+000  0.1732638E+03  0.7818608E-02  0.1174486E+00
         21   -1    0    0  501  502  0.00000000000E+00  0.00000000000E+00  0.12960919295E+03  0.12960919295E+03  0.00000000000E+00 0.  1.
         21   -1    0    0  502  503 -0.00000000000E+00 -0.00000000000E+00 -0.38158404425E+03  0.38158404425E+03  0.00000000000E+00 0.  1.
          6    1    1    2  501    0  0.16651076253E+02 -0.12613081360E+02  0.34245067822E+02  0.17661560755E+03  0.17200000000E+03 0. -1.
         -6    1    1    2    0  503 -0.16651076253E+02  0.12613081360E+02 -0.28621991912E+03  0.33457762965E+03  0.17200000000E+03 0. -1.
</event>
<event>
 4    1  0.5640532E+000  0.1756001E+03  0.7818608E-02  0.1172130E+00
         21   -1    0    0  503  502  0.00000000000E+00  0.00000000000E+00  0.34675572517E+02  0.34675572517E+02  0.00000000000E+00 0. -1.
         21   -1    0    0  501  503 -0.00000000000E+00 -0.00000000000E+00 -0.11025063434E+04  0.11025063434E+04  0.00000000000E+00 0. -1.
          6    1    1    2  501    0 -0.14228513087E+02 -0.32387587757E+02 -0.78398208967E+03  0.80340732095E+03  0.17200000000E+03 0. -1.
         -6    1    1    2    0  502  0.14228513087E+02  0.32387587757E+02 -0.28384868124E+03  0.33377459500E+03  0.17200000000E+03 0. -1.
</event>
<event>
 4    1  0.5640532E+000  0.2107086E+03  0.7818608E-02  0.1141006E+00
         21   -1    0    0  501  502  0.00000000000E+00  0.00000000000E+00  0.62935115498E+03  0.62935115498E+03  0.00000000000E+00 0. -1.
         21   -1    0    0  502  503 -0.00000000000E+00 -0.00000000000E+00 -0.70868466636E+02  0.70868466636E+02  0.00000000000E+00 0. -1.
          6    1    1    2  501    0  0.10726849268E+03  0.57511549887E+02  0.30286383692E+03  0.36895068994E+03  0.17200000000E+03 0. -1.
         -6    1    1    2    0  503 -0.10726849268E+03 -0.57511549887E+02  0.25561885142E+03  0.33126893167E+03  0.17200000000E+03 0. -1.
</event>
<event>
 4    1  0.5640532E+000  0.1735946E+03  0.7818608E-02  0.1174150E+00
         21   -1    0    0  503  502  0.00000000000E+00  0.00000000000E+00  0.39761992132E+02  0.39761992132E+02  0.00000000000E+00 0.  1.
         21   -1    0    0  501  503 -0.00000000000E+00 -0.00000000000E+00 -0.11231818414E+04  0.11231818414E+04  0.00000000000E+00 0.  1.
          6    1    1    2  501    0 -0.11399051777E+01  0.23447322029E+02 -0.87331852529E+03  0.89040458384E+03  0.17200000000E+03 0.  1.
         -6    1    1    2    0  502  0.11399051777E+01 -0.23447322029E+02 -0.21010132402E+03  0.27253924974E+03  0.17200000000E+03 0.  1.
</event>
<event>
 4    1  0.5640532E+000  0.2243103E+03  0.7818608E-02  0.1130710E+00
         21   -1    0    0  501  502  0.00000000000E+00  0.00000000000E+00  0.11521432793E+04  0.11521432793E+04  0.00000000000E+00 0. -1.
         21   -1    0    0  502  503 -0.00000000000E+00 -0.00000000000E+00 -0.43779371265E+02  0.43779371265E+02  0.00000000000E+00 0. -1.
          6    1    1    2  501    0  0.10529327569E+03 -0.98206056209E+02  0.52441401474E+03  0.57037282741E+03  0.17200000000E+03 0. -1.
         -6    1    1    2    0  503 -0.10529327569E+03  0.98206056209E+02  0.58394989331E+03  0.62554982318E+03  0.17200000000E+03 0. -1.
</event>
<event>
 4    1  0.5640532E+000  0.1771619E+03  0.7818608E-02  0.1170578E+00
         21   -1    0    0  503  502  0.00000000000E+00  0.00000000000E+00  0.20704632061E+03  0.20704632061E+03  0.00000000000E+00 0.  1.
         21   -1    0    0  501  503 -0.00000000000E+00 -0.00000000000E+00 -0.28502846154E+03  0.28502846154E+03  0.00000000000E+00 0.  1.
          6    1    1    2  501    0  0.22307514900E+02 -0.36120634340E+02 -0.20733449077E+03  0.27271581639E+03  0.17200000000E+03 0.  1.
         -6    1    1    2    0  502 -0.22307514900E+02  0.36120634340E+02  0.12935234985E+03  0.21935896576E+03  0.17200000000E+03 0.  1.
</event>
<event>
 4    1  0.5640532E+000  0.1782836E+03  0.7818608E-02  0.1169475E+00
         21   -1    0    0  501  502  0.00000000000E+00  0.00000000000E+00  0.61256576381E+02  0.61256576381E+02  0.00000000000E+00 0. -1.
         21   -1    0    0  502  503 -0.00000000000E+00 -0.00000000000E+00 -0.65622285229E+03  0.65622285229E+03  0.00000000000E+00 0. -1.
          6    1    1    2  501    0  0.46038831780E+02 -0.90258300504E+01 -0.13336712878E+03  0.22264732354E+03  0.17200000000E+03 0. -1.
         -6    1    1    2    0  503 -0.46038831780E+02  0.90258300504E+01 -0.46159914713E+03  0.49483210513E+03  0.17200000000E+03 0. -1.
</event>
<event>
 4    1  0.5640532E+000  0.1835950E+03  0.7818608E-02  0.1164368E+00
         21   -1    0    0  503  502  0.00000000000E+00  0.00000000000E+00  0.16669198971E+03  0.16669198971E+03  0.00000000000E+00 0. -1.
         21   -1    0    0  501  503 -0.00000000000E+00 -0.00000000000E+00 -0.43803566488E+03  0.43803566488E+03  0.00000000000E+00 0. -1.
          6    1    1    2  501    0 -0.64137261973E+02 -0.30901843539E+01 -0.35752656951E+03  0.40191091739E+03  0.17200000000E+03 0. -1.
         -6    1    1    2    0  502  0.64137261973E+02  0.30901843539E+01  0.86182894343E+02  0.20281673720E+03  0.17200000000E+03 0. -1.
</event>
<event>
 4    1  0.5640532E+000  0.1846582E+03  0.7818608E-02  0.1163369E+00
         21   -1    0    0  503  502  0.00000000000E+00  0.00000000000E+00  0.12747356298E+03  0.12747356298E+03  0.00000000000E+00 0.  1.
         21   -1    0    0  501  503 -0.00000000000E+00 -0.00000000000E+00 -0.26949643658E+03  0.26949643658E+03  0.00000000000E+00 0.  1.
          6    1    1    2  501    0 -0.42363973759E+02  0.52153081009E+02 -0.88112730236E+02  0.20460328287E+03  0.17200000000E+03 0. -1.
         -6    1    1    2    0  502  0.42363973759E+02 -0.52153081009E+02 -0.53910143362E+02  0.19236671669E+03  0.17200000000E+03 0. -1.
</event>
<event>
 4    1  0.5640532E+000  0.1765471E+03  0.7818608E-02  0.1171187E+00
         21   -1    0    0  501  502  0.00000000000E+00  0.00000000000E+00  0.20281733807E+03  0.20281733807E+03  0.00000000000E+00 0.  1.
         21   -1    0    0  502  503 -0.00000000000E+00 -0.00000000000E+00 -0.15382806949E+03  0.15382806949E+03  0.00000000000E+00 0.  1.
          6    1    1    2  501    0 -0.34615348117E+02 -0.19663664906E+02  0.18954172117E+02  0.17756165882E+03  0.17200000000E+03 0.  1.
         -6    1    1    2    0  503  0.34615348117E+02  0.19663664906E+02  0.30035096459E+02  0.17908374874E+03  0.17200000000E+03 0.  1.
</event>
<event>
 4    1  0.5640532E+000  0.3122965E+03  0.7818608E-02  0.1079250E+00
         21   -1    0    0  503  502  0.00000000000E+00  0.00000000000E+00  0.18833405000E+03  0.18833405000E+03  0.00000000000E+00 0.  1.
         21   -1    0    0  501  503 -0.00000000000E+00 -0.00000000000E+00 -0.68488185762E+03  0.68488185762E+03  0.00000000000E+00 0. -1.
          6    1    1    2  501    0 -0.97527058306E+02 -0.24173034257E+03 -0.46389011573E+03  0.55921652791E+03  0.17200000000E+03 0. -1.
         -6    1    1    2    0  502  0.97527058306E+02  0.24173034257E+03 -0.32657691898E+02  0.31399937971E+03  0.17200000000E+03 0.  1.
</event>
<event>
 4    1  0.5640532E+000  0.1887822E+03  0.7818608E-02  0.1159564E+00
         21   -1    0    0  501  502  0.00000000000E+00  0.00000000000E+00  0.85499205642E+03  0.85499205642E+03  0.00000000000E+00 0.  1.
         21   -1    0    0  502  503 -0.00000000000E+00 -0.00000000000E+00 -0.60656281956E+02  0.60656281956E+02  0.00000000000E+00 0.  1.
          6    1    1    2  501    0  0.49425873786E+02 -0.60098166705E+02  0.65322160120E+03  0.67995379763E+03  0.17200000000E+03 0.  1.
         -6    1    1    2    0  503 -0.49425873786E+02  0.60098166705E+02  0.14111417327E+03  0.23569454075E+03  0.17200000000E+03 0.  1.
</event>
<event>
 4    1  0.5640532E+000  0.2134648E+03  0.7818608E-02  0.1138851E+00
         21   -1    0    0  501  502  0.00000000000E+00  0.00000000000E+00  0.15247030394E+04  0.15247030394E+04  0.00000000000E+00 0. -1.
         21   -1    0    0  502  503 -0.00000000000E+00 -0.00000000000E+00 -0.67751112484E+02  0.67751112484E+02  0.00000000000E+00 0. -1.
          6    1    1    2  501    0  0.11314649321E+02 -0.12591748413E+03  0.13237247326E+04  0.13408260147E+04  0.17200000000E+03 0. -1.
         -6    1    1    2    0  503 -0.11314649321E+02  0.12591748413E+03  0.13322719431E+03  0.25162813714E+03  0.17200000000E+03 0. -1.
</event>
<event>
 4    1  0.5640532E+000  0.2132810E+03  0.7818608E-02  0.1138994E+00
         21   -1    0    0  503  502  0.00000000000E+00  0.00000000000E+00  0.60869545397E+02  0.60869545397E+02  0.00000000000E+00 0. -1.
         21   -1    0    0  501  503 -0.00000000000E+00 -0.00000000000E+00 -0.74739570966E+03  0.74739570966E+03  0.00000000000E+00 0. -1.
          6    1    1    2  501    0  0.11497114966E+03  0.51830878531E+02 -0.33909817282E+03  0.40059502747E+03  0.17200000000E+03 0. -1.
         -6    1    1    2    0  502 -0.11497114966E+03 -0.51830878531E+02 -0.34742799144E+03  0.40767022759E+03  0.17200000000E+03 0. -1.
</event>
<event>
 4    1  0.5640532E+000  0.1761662E+03  0.7818608E-02  0.1171566E+00
         21   -1    0    0  501  502  0.00000000000E+00  0.00000000000E+00  0.79757590376E+03  0.79757590376E+03  0.00000000000E+00 0. -1.
         21   -1    0    0  502  503 -0.00000000000E+00 -0.00000000000E+00 -0.23913137580E+03  0.23913137580E+03  0.00000000000E+00 0. -1.
          6    1    1    2  501    0  0.13609034257E+02  0.35571492899E+02  0.75353187443E+03  0.77385064626E+03  0.17200000000E+03 0. -1.
         -6    1    1    2    0  503 -0.13609034257E+02 -0.35571492899E+02 -0.19508734647E+03  0.26285663331E+03  0.17200000000E+03 0. -1.
</event>
<event>
 4    1  0.5640532E+000  0.2028052E+03  0.7818608E-02  0.1147394E+00
         21   -1    0    0  501  502  0.00000000000E+00  0.00000000000E+00  0.11417000492E+04  0.11417000492E+04  0.00000000000E+00 0.  1.
         21   -1    0    0  502  503 -0.00000000000E+00 -0.00000000000E+00 -0.70479233625E+02  0.70479233625E+02  0.00000000000E+00 0. -1.
          6    1    1    2  501    0 -0.10744734382E+03  0.99977410637E+00  0.95937682838E+03  0.98057831409E+03  0.17200000000E+03 0.  1.
         -6    1    1    2    0  503  0.10744734382E+03 -0.99977410637E+00  0.11184398718E+03  0.23160096872E+03  0.17200000000E+03 0. -1.
</event>
<event>
 4    1  0.5640532E+000  0.1840983E+03  0.7818608E-02  0.1163895E+00
         21   -1    0    0  503  502  0.00000000000E+00  0.00000000000E+00  0.17817369709E+03  0.17817369709E+03  0.00000000000E+00 0.  1.
         21   -1    0    0  501  503 -0.00000000000E+00 -0.00000000000E+00 -0.19282290252E+03  0.19282290252E+03  0.00000000000E+00 0.  1.
          6    1    1    2  501    0  0.58416546857E+02  0.29928236321E+02 -0.28876896717E+02  0.18634931564E+03  0.17200000000E+03 0. -1.
         -6    1    1    2    0  502 -0.58416546857E+02 -0.29928236321E+02  0.14227691285E+02  0.18464728396E+03  0.17200000000E+03 0. -1.
</event>
<event>
 4    1  0.5640532E+000  0.1851895E+03  0.7818608E-02  0.1162873E+00
         21   -1    0    0  501  502  0.00000000000E+00  0.00000000000E+00  0.78438956139E+03  0.78438956139E+03  0.00000000000E+00 0. -1.
         21   -1    0    0  502  503 -0.00000000000E+00 -0.00000000000E+00 -0.58260071950E+02  0.58260071950E+02  0.00000000000E+00 0. -1.
          6    1    1    2  501    0 -0.20055689053E+02 -0.65642300273E+02  0.57353162394E+03  0.60268869734E+03  0.17200000000E+03 0. -1.
         -6    1    1    2    0  503  0.20055689053E+02  0.65642300273E+02  0.15259786550E+03  0.23996093600E+03  0.17200000000E+03 0. -1.
</event>
<event>
 4    1  0.5640532E+000  0.1743885E+03  0.7818608E-02  0.1173347E+00
         21   -1    0    0  503  502  0.00000000000E+00  0.00000000000E+00  0.92161589113E+02  0.92161589113E+02  0.00000000000E+00 0.  1.
         21   -1    0    0  501  503 -0.00000000000E+00 -0.00000000000E+00 -0.85840002168E+03  0.85840002168E+03  0.00000000000E+00 0.  1.
          6    1    1    2  501    0  0.28649617368E+02 -0.25595930043E+01 -0.75602199812E+03  0.77587409657E+03  0.17200000000E+03 0.  1.
         -6    1    1    2    0  502 -0.28649617368E+02  0.25595930043E+01 -0.10216434448E+02  0.17468751422E+03  0.17200000000E+03 0.  1.
</event>
<event>
 4    1  0.5640532E+000  0.2585893E+03  0.7818608E-02  0.1107994E+00
         21   -1    0    0  503  502  0.00000000000E+00  0.00000000000E+00  0.32327459626E+03  0.32327459626E+03  0.00000000000E+00 0. -1.
         21   -1    0    0  501  503 -0.00000000000E+00 -0.00000000000E+00 -0.26227519951E+03  0.26227519951E+03  0.00000000000E+00 0.  1.
          6    1    1    2  501    0  0.62701556556E+02  0.18262789616E+03 -0.10409252447E+03  0.27875381127E+03  0.17200000000E+03 0.  1.
         -6    1    1    2    0  502 -0.62701556556E+02 -0.18262789616E+03  0.16509192122E+03  0.30679598449E+03  0.17200000000E+03 0. -1.
</event>
<event>
 4    1  0.5640532E+000  0.2944207E+03  0.7818608E-02  0.1088063E+00
         21   -1    0    0  503  502  0.00000000000E+00  0.00000000000E+00  0.28326397600E+03  0.28326397600E+03  0.00000000000E+00 0. -1.
         21   -1    0    0  501  503 -0.00000000000E+00 -0.00000000000E+00 -0.38734593041E+03  0.38734593041E+03  0.00000000000E+00 0. -1.
          6    1    1    2  501    0  0.23352494785E+03 -0.50652391639E+02 -0.20568414281E+03  0.35915112787E+03  0.17200000000E+03 0. -1.
         -6    1    1    2    0  502 -0.23352494785E+03  0.50652391639E+02  0.10160218839E+03  0.31145877854E+03  0.17200000000E+03 0. -1.
</event>
<event>
 4    1  0.5640532E+000  0.2593707E+03  0.7818608E-02  0.1107522E+00
         21   -1    0    0  503  502  0.00000000000E+00  0.00000000000E+00  0.27115551824E+03  0.27115551824E+03  0.00000000000E+00 0.  1.
         21   -1    0    0  501  503 -0.00000000000E+00 -0.00000000000E+00 -0.40722070103E+03  0.40722070103E+03  0.00000000000E+00 0.  1.
          6    1    1    2  501    0  0.15163168999E+03 -0.12123118367E+03 -0.28005981591E+03  0.38171543038E+03  0.17200000000E+03 0.  1.
         -6    1    1    2    0  502 -0.15163168999E+03  0.12123118367E+03  0.14399463311E+03  0.29666078889E+03  0.17200000000E+03 0.  1.
</event>
<event>
 4    1  0.5640532E+000  0.1984966E+03  0.7818608E-02  0.1151014E+00
         21   -1    0    0  503  502  0.00000000000E+00  0.00000000000E+00  0.11628671551E+03  0.11628671551E+03  0.00000000000E+00 0. -1.
         21   -1    0    0  501  503 -0.00000000000E+00 -0.00000000000E+00 -0.73940869622E+03  0.73940869622E+03  0.00000000000E+00 0. -1.
          6    1    1    2  501    0  0.70924931934E+02 -0.69184823873E+02 -0.62647601509E+03  0.65717051311E+03  0.17200000000E+03 0. -1.
         -6    1    1    2    0  502 -0.70924931934E+02  0.69184823873E+02  0.33540343787E+01  0.19852489862E+03  0.17200000000E+03 0. -1.
</event>
<event>
 4    1  0.5640532E+000  0.1895501E+03  0.7818608E-02  0.1158868E+00
         21   -1    0    0  503  502  0.00000000000E+00  0.00000000000E+00  0.25974757728E+03  0.25974757728E+03  0.00000000000E+00 0. -1.
         21   -1    0    0  501  503 -0.00000000000E+00 -0.00000000000E+00 -0.16364619898E+03  0.16364619898E+03  0.00000000000E+00 0. -1.
          6    1    1    2  501    0 -0.71879254506E+02 -0.34330822452E+02 -0.35224424685E+02  0.19279520921E+03  0.17200000000E+03 0. -1.
         -6    1    1    2    0  502  0.71879254506E+02  0.34330822452E+02  0.13132580299E+03  0.23059856706E+03  0.17200000000E+03 0. -1.
</event>
<event>
 4    1  0.5640532E+000  0.2269079E+03  0.7818608E-02  0.1128835E+00
         21   -1    0    0  503  502  0.00000000000E+00  0.00000000000E+00  0.91408790988E+02  0.91408790988E+02  0.00000000000E+00 0. -1.
         21   -1    0    0  501  503 -0.00000000000E+00 -0.00000000000E+00 -0.73678135186E+03  0.73678135186E+03  0.00000000000E+00 0.  1.
          6    1    1    2  501    0 -0.48242100187E+02 -0.13991392998E+03 -0.52364331195E+03  0.57069214659E+03  0.17200000000E+03 0.  1.
         -6    1    1    2    0  502  0.48242100187E+02  0.13991392998E+03 -0.12172924892E+03  0.25749799625E+03  0.17200000000E+03 0. -1.
</event>
<event>
 4    1  0.5640532E+000  0.1727144E+03  0.7818608E-02  0.1175046E+00
         21   -1    0    0  503  502  0.00000000000E+00  0.00000000000E+00  0.59213963584E+03  0.59213963584E+03  0.00000000000E+00 0. -1.
         21   -1    0    0  501  503 -0.00000000000E+00 -0.00000000000E+00 -0.89476130506E+02  0.89476130506E+02  0.00000000000E+00 0. -1.
          6    1    1    2  501    0  0.14619387090E+02  0.57055212024E+01  0.26043258514E+02  0.17466691377E+03  0.17200000000E+03 0. -1.
         -6    1    1    2    0  502 -0.14619387090E+02 -0.57055212024E+01  0.47662024682E+03  0.50694885258E+03  0.17200000000E+03 0. -1.
</event>
<event>
 4    1  0.5640532E+000  0.2589085E+03  0.7818608E-02  0.1107801E+00
         21   -1    0    0  503  502  0.00000000000E+00  0.00000000000E+00  0.23279859638E+02  0.23279859638E+02  0.00000000000E+00 0.  1.
         21   -1    0    0  501  503 -0.00000000000E+00 -0.00000000000E+00 -0.30330847232E+04  0.30330847232E+04  0.00000000000E+00 0. -1.
          6    1    1    2  501    0  0.19248711181E+03 -0.19957602550E+02 -0.18488190472E+04  0.18668597868E+04  0.17200000000E+03 0. -1.
         -6    1    1    2    0  502 -0.19248711181E+03  0.19957602550E+02 -0.11609858164E+04  0.11895047961E+04  0.17200000000E+03 0.  1.
</event>
<event>
 4    1  0.5640532E+000  0.2270732E+03  0.7818608E-02  0.1128717E+00
         21   -1    0    0  501  502  0.00000000000E+00  0.00000000000E+00  0.60155117475E+03  0.60155117475E+03  0.00000000000E+00 0. -1.
         21   -1    0    0  502  503 -0.00000000000E+00 -0.00000000000E+00 -0.85964717848E+02  0.85964717848E+02  0.00000000000E+00 0. -1.
          6    1    1    2  501    0  0.82120682302E+01  0.14802304791E+03  0.23928432604E+03  0.32987762802E+03  0.17200000000E+03 0. -1.
         -6    1    1    2    0  503 -0.82120682302E+01 -0.14802304791E+03  0.27630213086E+03  0.35763826459E+03  0.17200000000E+03 0. -1.
</event>
<event>
 4    1  0.5640532E+000  0.1752134E+03  0.7818608E-02  0.1172518E+00
         21   -1    0    0  501  502  0.00000000000E+00  0.00000000000E+00  0.21956083372E+03  0.21956083372E+03  0.00000000000E+00 0.  1.
         21   -1    0    0  502  503 -0.00000000000E+00 -0.00000000000E+00 -0.15648404060E+03  0.15648404060E+03  0.00000000000E+00 0.  1.
          6    1    1    2  501    0  0.30990919616E+02  0.12461982870E+02  0.92889269569E+02  0.19831327368E+03  0.17200000000E+03 0.  1.
         -6    1    1    2    0  503 -0.30990919616E+02 -0.12461982870E+02 -0.29812476445E+02  0.17773160064E+03  0.17200000000E+03 0.  1.
</event>
<event>
 4    1  0.5640532E+000  0.1778047E+03  0.7818608E-02  0.1169945E+00
         21   -1    0    0  501  502  0.00000000000E+00  0.00000000000E+00  0.63210149433E+02  0.63210149433E+02  0.00000000000E+00 0. -1.
         21   -1    0    0  502  503 -0.00000000000E+00 -0.00000000000E+00 -0.12628946932E+04  0.12628946932E+04  0.00000000000E+00 0.  1.
          6    1    1    2  501    0 -0.26651457457E+02 -0.36334574769E+02 -0.84549393829E+02  0.19688347189E+03  0.17200000000E+03 0. -1.
         -6    1    1    2    0  503  0.26651457457E+02  0.36334574769E+02 -0.11151351500E+04  0.11292213708E+04  0.17200000000E+03 0.  1.
</event>
<event>
 4    1  0.5640532E+000  0.1826276E+03  0.7818608E-02  0.1165284E+00
         21   -1    0    0  501  502  0.00000000000E+00  0.00000000000E+00  0.13550641675E+03  0.13550641675E+03  0.00000000000E+00 0. -1.
         21   -1    0    0  502  503 -0.00000000000E+00 -0.00000000000E+00 -0.31077874809E+03  0.31077874809E+03  0.00000000000E+00 0. -1.
          6    1    1    2  501    0 -0.10511971677E+02  0.60484181744E+02  0.14134099996E+02  0.18317371693E+03  0.17200000000E+03 0. -1.
         -6    1    1    2    0  503  0.10511971677E+02 -0.60484181744E+02 -0.18940643133E+03  0.26311144791E+03  0.17200000000E+03 0. -1.
</event>
<event>
 4    1  0.5640532E+000  0.2523676E+03  0.7818608E-02  0.1111818E+00
         21   -1    0    0  501  502  0.00000000000E+00  0.00000000000E+00  0.77883359715E+03  0.77883359715E+03  0.00000000000E+00 0.  1.
         21   -1    0    0  502  503 -0.00000000000E+00 -0.00000000000E+00 -0.11264115267E+03  0.11264115267E+03  0.00000000000E+00 0.  1.
          6    1    1    2  501    0 -0.14469769085E+03 -0.11475190822E+03  0.56642537552E+03  0.62010251427E+03  0.17200000000E+03 0. -1.
         -6    1    1    2    0  503  0.14469769085E+03  0.11475190822E+03  0.99767068961E+02  0.27137223555E+03  0.17200000000E+03 0. -1.
</event>
<event>
 4    1  0.5640532E+000  0.1834826E+03  0.7818608E-02  0.1164475E+00
         21   -1    0    0  501  502  0.00000000000E+00  0.00000000000E+00  0.63221165937E+03  0.63221165937E+03  0.00000000000E+00 0. -1.
         21   -1    0    0  502  503 -0.00000000000E+00 -0.00000000000E+00 -0.87297321557E+02  0.87297321557E+02  0.00000000000E+00 0. -1.
          6    1    1    2  501    0 -0.50315225929E+02 -0.39373076552E+02  0.49712520325E+03  0.52990501868E+03  0.17200000000E+03 0. -1.
         -6    1    1    2    0  503  0.50315225929E+02  0.39373076552E+02  0.47789134565E+02  0.18960396225E+03  0.17200000000E+03 0. -1.
</event>
<event>
 4    1  0.5640532E+000  0.2049104E+03  0.7818608E-02  0.1145661E+00
         21   -1    0    0  503  502  0.00000000000E+00  0.00000000000E+00  0.23237172692E+03  0.23237172692E+03  0.00000000000E+00 0.  1.
         21   -1    0    0  501  503 -0.00000000000E+00 -0.00000000000E+00 -0.28268204518E+03  0.28268204518E+03  0.00000000000E+00 0.  1.
          6    1    1    2  501    0 -0.10264350304E+03  0.43227160544E+02 -0.17983979813E+03  0.27263644129E+03  0.17200000000E+03 0.  1.
         -6    1    1    2    0  502  0.10264350304E+03 -0.43227160544E+02  0.12952947986E+03  0.24241733081E+03  0.17200000000E+03 0.  1.
</event>
<event>
 4    1  0.5640532E+000  0.1926131E+03  0.7818608E-02  0.1156125E+00
         21   -1    0    0  501  502  0.00000000000E+00  0.00000000000E+00  0.80770846608E+03  0.80770846608E+03  0.00000000000E+00 0.  1.
         21   -1    0    0  502  503 -0.00000000000E+00 -0.00000000000E+00 -0.21508762745E+03  0.21508762745E+03  0.00000000000E+00 0. -1.
          6    1    1    2  501    0 -0.86504662171E+02 -0.57235057874E+01  0.74982821959E+03  0.77417192792E+03  0.17200000000E+03 0.  1.
         -6    1    1    2    0  503  0.86504662171E+02  0.57235057874E+01 -0.15720738096E+03  0.24862416561E+03  0.17200000000E+03 0. -1.
</event>
<event>
 4    1  0.5640532E+000  0.2335236E+03  0.7818608E-02  0.1124184E+00
         21   -1    0    0  501  502  0.00000000000E+00  0.00000000000E+00  0.68547322921E+03  0.68547322921E+03  0.00000000000E+00 0.  1.
         21   -1    0    0  502  503 -0.00000000000E+00 -0.00000000000E+00 -0.82812894719E+02  0.82812894719E+02  0.00000000000E+00 0.  1.
          6    1    1    2  501    0  0.14618730156E+03 -0.59820950852E+02  0.22514529914E+03  0.32438199553E+03  0.17200000000E+03 0.  1.
         -6    1    1    2    0  503 -0.14618730156E+03  0.59820950852E+02  0.37751503535E+03  0.44390412840E+03  0.17200000000E+03 0.  1.
</event>
<event>
 4    1  0.5640532E+000  0.2043529E+03  0.7818608E-02  0.1146118E+00
         21   -1    0    0  501  502  0.00000000000E+00  0.00000000000E+00  0.24851083403E+02  0.24851083403E+02  0.00000000000E+00 0. -1.
         21   -1    0    0  502  503 -0.00000000000E+00 -0.00000000000E+00 -0.19180327886E+04  0.19180327886E+04  0.00000000000E+00 0.  1.
          6    1    1    2  501    0  0.50658799191E+02  0.98029560570E+02 -0.60466714443E+03  0.63826519898E+03  0.17200000000E+03 0. -1.
         -6    1    1    2    0  503 -0.50658799191E+02 -0.98029560570E+02 -0.12885145608E+04  0.13046186731E+04  0.17200000000E+03 0.  1.
</event>
<event>
 4    1  0.5640532E+000  0.1745970E+03  0.7818608E-02  0.1173137E+00
         21   -1    0    0  501  502  0.00000000000E+00  0.00000000000E+00  0.23130888135E+03  0.23130888135E+03  0.00000000000E+00 0.  1.
         21   -1    0    0  502  503 -0.00000000000E+00 -0.00000000000E+00 -0.14816032417E+03  0.14816032417E+03  0.00000000000E+00 0.  1.
          6    1    1    2  501    0  0.60116954817E+01  0.29393450329E+02  0.10464298576E+03  0.20355409570E+03  0.17200000000E+03 0.  1.
         -6    1    1    2    0  503 -0.60116954817E+01 -0.29393450329E+02 -0.21494428591E+02  0.17591510983E+03  0.17200000000E+03 0.  1.
</event>
<event>
 4    1  0.5640532E+000  0.1823599E+03  0.7818608E-02  0.1165539E+00
         21   -1    0    0  503  502  0.00000000000E+00  0.00000000000E+00  0.15051630152E+03  0.15051630152E+03  0.00000000000E+00 0.  1.
         21   -1    0    0  501  503 -0.00000000000E+00 -0.00000000000E+00 -0.23032441101E+03  0.23032441101E+03  0.00000000000E+00 0.  1.
          6    1    1    2  501    0  0.66130273875E+01  0.60227770676E+02 -0.78340215987E+02  0.19847495039E+03  0.17200000000E+03 0. -1.
         -6    1    1    2    0  502 -0.66130273875E+01 -0.60227770676E+02 -0.14678935030E+01  0.18236576215E+03  0.17200000000E+03 0. -1.
</event>
<event>
 4    1  0.5640532E+000  0.2962427E+03  0.7818608E-02  0.1087134E+00
         21   -1    0    0  501  502  0.00000000000E+00  0.00000000000E+00  0.18262892559E+03  0.18262892559E+03  0.00000000000E+00 0.  1.
         21   -1    0    0  502  503 -0.00000000000E+00 -0.00000000000E+00 -0.56088242971E+03  0.56088242971E+03  0.00000000000E+00 0. -1.
          6    1    1    2  501    0 -0.20854103170E+03 -0.12118745145E+03 -0.48423162315E+02  0.30017422098E+03  0.17200000000E+03 0. -1.
         -6    1    1    2    0  503  0.20854103170E+03  0.12118745145E+03 -0.32983034180E+03  0.44333713432E+03  0.17200000000E+03 0. -1.
</event>
<event>
 4    1  0.5640532E+000  0.1859986E+03  0.7818608E-02  0.1162121E+00
         21   -1    0    0  501  502  0.00000000000E+00  0.00000000000E+00  0.18727001749E+04  0.18727001749E+04  0.00000000000E+00 0. -1.
         21   -1    0    0  502  503 -0.00000000000E+00 -0.00000000000E+00 -0.20562840585E+02  0.20562840585E+02  0.00000000000E+00 0.  1.
          6    1    1    2  501    0 -0.14633452697E+02  0.69262827850E+02  0.12278105975E+04  0.12418189645E+04  0.17200000000E+03 0.  1.
         -6    1    1    2    0  503  0.14633452697E+02 -0.69262827850E+02  0.62432673680E+03  0.65144405097E+03  0.17200000000E+03 0.  1.
</event>
<event>
 4    1  0.5640532E+000  0.2364465E+03  0.7818608E-02  0.1122183E+00
         21   -1    0    0  501  502  0.00000000000E+00  0.00000000000E+00  0.11016453271E+04  0.11016453271E+04  0.00000000000E+00 0.  1.
         21   -1    0    0  502  503 -0.00000000000E+00 -0.00000000000E+00 -0.87137620723E+02  0.87137620723E+02  0.00000000000E+00 0. -1.
          6    1    1    2  501    0  0.15637404154E+03 -0.43244527395E+02  0.89136336201E+03  0.92219063818E+03  0.17200000000E+03 0.  1.
         -6    1    1    2    0  503 -0.15637404154E+03  0.43244527395E+02  0.12314434440E+03  0.26659230967E+03  0.17200000000E+03 0. -1.
</event>
<event>
 4    1  0.5640532E+000  0.1918572E+03  0.7818608E-02  0.1156797E+00
         21   -1    0    0  501  502  0.00000000000E+00  0.00000000000E+00  0.10002755867E+04  0.10002755867E+04  0.00000000000E+00 0.  1.
         21   -1    0    0  502  503 -0.00000000000E+00 -0.00000000000E+00 -0.41860957728E+02  0.41860957728E+02  0.00000000000E+00 0.  1.
          6    1    1    2  501    0 -0.39709029422E+02 -0.75155632268E+02  0.66040298476E+03  0.68770726211E+03  0.17200000000E+03 0.  1.
         -6    1    1    2    0  503  0.39709029422E+02  0.75155632268E+02  0.29801164422E+03  0.35442928232E+03  0.17200000000E+03 0.  1.
</event>
<event>
 4    1  0.5640532E+000  0.2255789E+03  0.7818608E-02  0.1129791E+00
         21   -1    0    0  501  502  0.00000000000E+00  0.00000000000E+00  0.55600050956E+03  0.55600050956E+03  0.00000000000E+00 0.  1.
         21   -1    0    0  502  503 -0.00000000000E+00 -0.00000000000E+00 -0.10539352199E+03  0.10539352199E+03  0.00000000000E+00 0.  1.
          6    1    1    2  501    0 -0.91923406179E+02 -0.11336631024E+03  0.34528047315E+03  0.41243719284E+03  0.17200000000E+03 0.  1.
         -6    1    1    2    0  503  0.91923406179E+02  0.11336631024E+03  0.10532651442E+03  0.24895683871E+03  0.17200000000E+03 0.  1.
</event>
<event>
 4    1  0.5640532E+000  0.1726290E+03  0.7818608E-02  0.1175134E+00
         21   -1    0    0  503  502  0.00000000000E+00  0.00000000000E+00  0.83012292544E+02  0.83012292544E+02  0.00000000000E+00 0. -1.
         21   -1    0    0  501  503 -0.00000000000E+00 -0.00000000000E+00 -0.36439146738E+03  0.36439146738E+03  0.00000000000E+00 0. -1.
          6    1    1    2  501    0 -0.10110494925E+02 -0.10703550874E+02 -0.11345994041E+03  0.20657673196E+03  0.17200000000E+03 0. -1.
         -6    1    1    2    0  502  0.10110494925E+02  0.10703550874E+02 -0.16791923443E+03  0.24082702797E+03  0.17200000000E+03 0. -1.
</event>
<event>
 4    1  0.5640532E+000  0.2024019E+03  0.7818608E-02  0.1147728E+00
         21   -1    0    0  503  502  0.00000000000E+00  0.00000000000E+00  0.42993316195E+03  0.42993316195E+03  0.00000000000E+00 0. -1.
         21   -1    0    0  501  503 -0.00000000000E+00 -0.00000000000E+00 -0.10645828573E+03  0.10645828573E+03  0.00000000000E+00 0. -1.
          6    1    1    2  501    0 -0.10651577662E+03  0.60755298127E+01  0.24862090346E+03  0.32059144775E+03  0.17200000000E+03 0. -1.
         -6    1    1    2    0  502  0.10651577662E+03 -0.60755298127E+01  0.74853972756E+02  0.21579999993E+03  0.17200000000E+03 0. -1.
</event>
<event>
 4    1  0.5640532E+000  0.1817184E+03  0.7818608E-02  0.1166150E+00
         21   -1    0    0  503  502  0.00000000000E+00  0.00000000000E+00  0.65421948359E+03  0.65421948359E+03  0.00000000000E+00 0.  1.
         21   -1    0    0  501  503 -0.00000000000E+00 -0.00000000000E+00 -0.50486486767E+02  0.50486486767E+02  0.00000000000E+00 0.  1.
          6    1    1    2  501    0 -0.43872457872E+02  0.38894464982E+02  0.30723637270E+03  0.35695344329E+03  0.17200000000E+03 0.  1.
         -6    1    1    2    0  502  0.43872457872E+02 -0.38894464982E+02  0.29649662412E+03  0.34775252706E+03  0.17200000000E+03 0.  1.
</event>
<event>
 4    1  0.5640532E+000  0.2413746E+03  0.7818608E-02  0.1118880E+00
         21   -1    0    0  501  502  0.00000000000E+00  0.00000000000E+00  0.37009332176E+03  0.37009332176E+03  0.00000000000E+00 0.  1.
         21   -1    0    0  502  503 -0.00000000000E+00 -0.00000000000E+00 -0.48506148465E+03  0.48506148465E+03  0.00000000000E+00 0. -1.
          6    1    1    2  501    0 -0.20387596831E+01  0.16933262074E+03  0.29392495307E+03  0.38033349974E+03  0.17200000000E+03 0.  1.
         -6    1    1    2    0  503  0.20387596831E+01 -0.16933262074E+03 -0.40889311595E+03  0.47482130666E+03  0.17200000000E+03 0.  1.
</event>
<event>
 4    1  0.5640532E+000  0.2176432E+03  0.7818608E-02  0.1135652E+00
         21   -1    0    0  503  502  0.00000000000E+00  0.00000000000E+00  0.50933900824E+03  0.50933900824E+03  0.00000000000E+00 0.  1.
         21   -1    0    0  501  503 -0.00000000000E+00 -0.00000000000E+00 -0.19211486090E+03  0.19211486090E+03  0.00000000000E+00 0. -1.
          6    1    1    2  501    0 -0.25683870921E+02 -0.13086207995E+03 -0.93305202578E+02  0.23680035056E+03  0.17200000000E+03 0. -1.
         -6    1    1    2    0  502  0.25683870921E+02  0.13086207995E+03  0.41052934992E+03  0.46465351859E+03  0.17200000000E+03 0.  1.
</event>
<event>
 4    1  0.5640532E+000  0.2672766E+03  0.7818608E-02  0.1102848E+00
         21   -1    0    0  503  502  0.00000000000E+00  0.00000000000E+00  0.61228666400E+03  0.61228666400E+03  0.00000000000E+00 0.  1.
         21   -1    0    0  501  503 -0.00000000000E+00 -0.00000000000E+00 -0.15180391452E+03  0.15180391452E+03  0.00000000000E+00 0. -1.
          6    1    1    2  501    0 -0.12703232740E+03 -0.16036081794E+03  0.46450764942E+02  0.27128302140E+03  0.17200000000E+03 0. -1.
         -6    1    1    2    0  502  0.12703232740E+03  0.16036081794E+03  0.41403198454E+03  0.49280755712E+03  0.17200000000E+03 0.  1.
</event>
<event>
 4    1  0.5640532E+000  0.1752221E+03  0.7818608E-02  0.1172509E+00
         21   -1    0    0  501  502  0.00000000000E+00  0.00000000000E+00  0.38997893955E+02  0.38997893955E+02  0.00000000000E+00 0.  1.
         21   -1    0    0  502  503 -0.00000000000E+00 -0.00000000000E+00 -0.13057671069E+04  0.13057671069E+04  0.00000000000E+00 0.  1.
          6    1    1    2  501    0  0.36989414209E+01 -0.33243232267E+02 -0.20969598630E+03  0.27326763681E+03  0.17200000000E+03 0.  1.
         -6    1    1    2    0  503 -0.36989414209E+01  0.33243232267E+02 -0.10570732266E+04  0.10714973640E+04  0.17200000000E+03 0.  1.
</event>
<event>
 4    1  0.5640532E+000  0.2124510E+03  0.7818608E-02  0.1139640E+00
         21   -1    0    0  503  502  0.00000000000E+00  0.00000000000E+00  0.12206245853E+04  0.12206245853E+04  0.00000000000E+00 0. -1.
         21   -1    0    0  501  503 -0.00000000000E+00 -0.00000000000E+00 -0.36986457365E+02  0.36986457365E+02  0.00000000000E+00 0. -1.
          6    1    1    2  501    0 -0.12135024892E+03  0.28731995796E+02  0.58192886543E+03  0.61949706611E+03  0.17200000000E+03 0.  1.
         -6    1    1    2    0  502  0.12135024892E+03 -0.28731995796E+02  0.60170926252E+03  0.63811397658E+03  0.17200000000E+03 0.  1.
</event>
<event>
 4    1  0.5640532E+000  0.2622488E+03  0.7818608E-02  0.1105800E+00
         21   -1    0    0  503  502  0.00000000000E+00  0.00000000000E+00  0.16098065919E+04  0.16098065919E+04  0.00000000000E+00 0.  1.
         21   -1    0    0  501  503 -0.00000000000E+00 -0.00000000000E+00 -0.31524594239E+03  0.31524594239E+03  0.00000000000E+00 0. -1.
          6    1    1    2  501    0  0.46512048165E+02 -0.19242422642E+03 -0.24765164406E+03  0.36070180252E+03  0.17200000000E+03 0. -1.
         -6    1    1    2    0  502 -0.46512048165E+02  0.19242422642E+03  0.15422122936E+04  0.15643507318E+04  0.17200000000E+03 0.  1.
</event>
<event>
 4    1  0.5640532E+000  0.3651377E+03  0.7818608E-02  0.1056568E+00
         21   -1    0    0  503  502  0.00000000000E+00  0.00000000000E+00  0.16285007708E+03  0.16285007708E+03  0.00000000000E+00 0. -1.
         21   -1    0    0  501  503 -0.00000000000E+00 -0.00000000000E+00 -0.99176465739E+03  0.99176465739E+03  0.00000000000E+00 0.  1.
          6    1    1    2  501    0  0.16092657794E+03 -0.27900565245E+03 -0.65561755415E+03  0.75043980098E+03  0.17200000000E+03 0.  1.
         -6    1    1    2    0  502 -0.16092657794E+03  0.27900565245E+03 -0.17329702616E+03  0.40417493349E+03  0.17200000000E+03 0. -1.
</event>
<event>
 4    1  0.5640532E+000  0.1916245E+03  0.7818608E-02  0.1157004E+00
         21   -1    0    0  503  502  0.00000000000E+00  0.00000000000E+00  0.10004724650E+03  0.10004724650E+03  0.00000000000E+00 0. -1.
         21   -1    0    0  501  503 -0.00000000000E+00 -0.00000000000E+00 -0.50287045652E+03  0.50287045652E+03  0.00000000000E+00 0.  1.
          6    1    1    2  501    0 -0.84100609524E+02  0.79394282239E+01 -0.35809422976E+03  0.40614212344E+03  0.17200000000E+03 0.  1.
         -6    1    1    2    0  502  0.84100609524E+02 -0.79394282239E+01 -0.44728980259E+02  0.19677557958E+03  0.17200000000E+03 0. -1.
</event>
<event>
 4    1  0.5640532E+000  0.2364325E+03  0.7818608E-02  0.1122192E+00
         21   -1    0    0  501  502  0.00000000000E+00  0.00000000000E+00  0.10043557632E+03  0.10043557632E+03  0.00000000000E+00 0. -1.
         21   -1    0    0  502  503 -0.00000000000E+00 -0.00000000000E+00 -0.74376059674E+03  0.74376059674E+03  0.00000000000E+00 0.  1.
          6    1    1    2  501    0  0.33076645982E+02  0.15881518695E+03 -0.10991006882E+03  0.26073080244E+03  0.17200000000E+03 0. -1.
         -6    1    1    2    0  503 -0.33076645982E+02 -0.15881518695E+03 -0.53341495160E+03  0.58346537061E+03  0.17200000000E+03 0. -1.
</event>
<event>
 4    1  0.5640532E+000  0.2153667E+03  0.7818608E-02  0.1137385E+00
         21   -1    0    0  503  502  0.00000000000E+00  0.00000000000E+00  0.45693902690E+03  0.45693902690E+03  0.00000000000E+00 0. -1.
         21   -1    0    0  501  503 -0.00000000000E+00 -0.00000000000E+00 -0.10155909581E+03  0.10155909581E+03  0.00000000000E+00 0. -1.
          6    1    1    2  501    0 -0.12204914728E+03 -0.43621247730E+02  0.17140504181E+03  0.27524987913E+03  0.17200000000E+03 0.  1.
         -6    1    1    2    0  502  0.12204914728E+03  0.43621247730E+02  0.18397488928E+03  0.28324824358E+03  0.17200000000E+03 0.  1.
</event>
<event>
 4    1  0.5640532E+000  0.2355508E+03  0.7818608E-02  0.1122793E+00
         21   -1    0    0  503  502  0.00000000000E+00  0.00000000000E+00  0.17957618788E+03  0.17957618788E+03  0.00000000000E+00 0.  1.
         21   -1    0    0  501  503 -0.00000000000E+00 -0.00000000000E+00 -0.53919251349E+03  0.53919251349E+03  0.00000000000E+00 0. -1.
          6    1    1    2  501    0 -0.35666528853E+02  0.15693335219E+03 -0.41464075973E+03  0.47687643886E+03  0.17200000000E+03 0. -1.
         -6    1    1    2    0  502  0.35666528853E+02 -0.15693335219E+03  0.55024434120E+02  0.24189226251E+03  0.17200000000E+03 0.  1.
</event>
<event>
 4    1  0.5640532E+000  0.2631564E+03  0.7818608E-02  0.1105261E+00
         21   -1    0    0  501  502  0.00000000000E+00  0.00000000000E+00  0.24550677336E+03  0.24550677336E+03  0.00000000000E+00 0.  1.
         21   -1    0    0  502  503 -0.00000000000E+00 -0.00000000000E+00 -0.33144551999E+03  0.33144551999E+03  0.00000000000E+00 0. -1.
          6    1    1    2  501    0  0.17741571169E+03 -0.90503946249E+02  0.68367267351E+02  0.27189222550E+03  0.17200000000E+03 0.  1.
         -6    1    1    2    0  503 -0.17741571169E+03  0.90503946249E+02 -0.15430601398E+03  0.30506006784E+03  0.17200000000E+03 0. -1.
</event>
<event>
 4    1  0.5640532E+000  0.4907690E+03  0.7818608E-02  0.1016217E+00
         21   -1    0    0  503  502  0.00000000000E+00  0.00000000000E+00  0.17151828379E+03  0.17151828379E+03  0.00000000000E+00 0.  1.
         21   -1    0    0  501  503 -0.00000000000E+00 -0.00000000000E+00 -0.14320524687E+04  0.14320524687E+04  0.00000000000E+00 0. -1.
          6    1    1    2  501    0 -0.41231009481E+03  0.20315155835E+03 -0.51854536238E+03  0.71396320829E+03  0.17200000000E+03 0.  1.
         -6    1    1    2    0  502  0.41231009481E+03 -0.20315155835E+03 -0.74198882258E+03  0.88960754424E+03  0.17200000000E+03 0. -1.
</event>
<event>
 4    1  0.5640532E+000  0.2092768E+03  0.7818608E-02  0.1142140E+00
         21   -1    0    0  503  502  0.00000000000E+00  0.00000000000E+00  0.44117944108E+03  0.44117944108E+03  0.00000000000E+00 0. -1.
         21   -1    0    0  501  503 -0.00000000000E+00 -0.00000000000E+00 -0.66648812270E+03  0.66648812270E+03  0.00000000000E+00 0. -1.
          6    1    1    2  501    0  0.29278617423E+02 -0.11556624570E+03 -0.62357974081E+03  0.65776020535E+03  0.17200000000E+03 0. -1.
         -6    1    1    2    0  502 -0.29278617423E+02  0.11556624570E+03  0.39827105920E+03  0.44990735844E+03  0.17200000000E+03 0. -1.
</event>
<event>
 4    1  0.5640532E+000  0.2000498E+03  0.7818608E-02  0.1149697E+00
         21   -1    0    0  503  502  0.00000000000E+00  0.00000000000E+00  0.55006376652E+02  0.55006376652E+02  0.00000000000E+00 0. -1.
         21   -1    0    0  501  503 -0.00000000000E+00 -0.00000000000E+00 -0.73231143041E+03  0.73231143041E+03  0.00000000000E+00 0.  1.
          6    1    1    2  501    0 -0.94412044748E+02 -0.39016297178E+02 -0.30691103219E+03  0.36635268160E+03  0.17200000000E+03 0. -1.
         -6    1    1    2    0  502  0.94412044748E+02  0.39016297178E+02 -0.37039402157E+03  0.42096512546E+03  0.17200000000E+03 0. -1.
</event>
<event>
 4    1  0.5640532E+000  0.1771140E+03  0.7818608E-02  0.1170626E+00
         21   -1    0    0  503  502  0.00000000000E+00  0.00000000000E+00  0.50532814920E+02  0.50532814920E+02  0.00000000000E+00 0. -1.
         21   -1    0    0  501  503 -0.00000000000E+00 -0.00000000000E+00 -0.11625975128E+04  0.11625975128E+04  0.00000000000E+00 0. -1.
          6    1    1    2  501    0 -0.23515541534E+02 -0.35105622975E+02 -0.97011998741E+03  0.98615524915E+03  0.17200000000E+03 0. -1.
         -6    1    1    2    0  502  0.23515541534E+02  0.35105622975E+02 -0.14194471046E+03  0.22697507855E+03  0.17200000000E+03 0. -1.
</event>
<event>
 4    1  0.5640532E+000  0.2054952E+03  0.7818608E-02  0.1145184E+00
         21   -1    0    0  501  502  0.00000000000E+00  0.00000000000E+00  0.21912049452E+03  0.21912049452E+03  0.00000000000E+00 0.  1.
         21   -1    0    0  502  503 -0.00000000000E+00 -0.00000000000E+00 -0.90297613719E+03  0.90297613719E+03  0.00000000000E+00 0. -1.
          6    1    1    2  501    0 -0.10589280688E+03  0.37828695200E+02  0.15566083144E+03  0.25779563839E+03  0.17200000000E+03 0.  1.
         -6    1    1    2    0  503  0.10589280688E+03 -0.37828695200E+02 -0.83951647412E+03  0.86430099332E+03  0.17200000000E+03 0. -1.
</event>
<event>
 4    1  0.5640532E+000  0.3280751E+03  0.7818608E-02  0.1071992E+00
         21   -1    0    0  503  502  0.00000000000E+00  0.00000000000E+00  0.59995475820E+03  0.59995475820E+03  0.00000000000E+00 0. -1.
         21   -1    0    0  501  503 -0.00000000000E+00 -0.00000000000E+00 -0.18332613321E+03  0.18332613321E+03  0.00000000000E+00 0.  1.
          6    1    1    2  501    0 -0.13652585252E+03  0.24374156288E+03  0.15101741107E+03  0.36116411273E+03  0.17200000000E+03 0.  1.
         -6    1    1    2    0  502  0.13652585252E+03 -0.24374156288E+03  0.26561121392E+03  0.42211677867E+03  0.17200000000E+03 0. -1.
</event>
<event>
 4    1  0.5640532E+000  0.2562514E+03  0.7818608E-02  0.1109417E+00
         21   -1    0    0  503  502  0.00000000000E+00  0.00000000000E+00  0.10306074785E+03  0.10306074785E+03  0.00000000000E+00 0.  1.
         21   -1    0    0  501  503 -0.00000000000E+00 -0.00000000000E+00 -0.76917189446E+03  0.76917189446E+03  0.00000000000E+00 0. -1.
          6    1    1    2  501    0 -0.16892509184E+03  0.86862540139E+02 -0.51373948706E+03  0.57410194922E+03  0.17200000000E+03 0. -1.
         -6    1    1    2    0  502  0.16892509184E+03 -0.86862540139E+02 -0.15237165955E+03  0.29813069310E+03  0.17200000000E+03 0.  1.
</event>
<event>
 4    1  0.5640532E+000  0.1879260E+03  0.7818608E-02  0.1160345E+00
         21   -1    0    0  501  502  0.00000000000E+00  0.00000000000E+00  0.10440825431E+03  0.10440825431E+03  0.00000000000E+00 0. -1.
         21   -1    0    0  502  503 -0.00000000000E+00 -0.00000000000E+00 -0.35466275384E+03  0.35466275384E+03  0.00000000000E+00 0. -1.
          6    1    1    2  501    0  0.73813797834E+02 -0.16843094277E+02 -0.75750402100E+02  0.20261858255E+03  0.17200000000E+03 0. -1.
         -6    1    1    2    0  503 -0.73813797834E+02  0.16843094277E+02 -0.17450409743E+03  0.25645242560E+03  0.17200000000E+03 0. -1.
</event>
<event>
 4    1  0.5640532E+000  0.1996783E+03  0.7818608E-02  0.1150011E+00
         21   -1    0    0  501  502  0.00000000000E+00  0.00000000000E+00  0.73588071993E+02  0.73588071993E+02  0.00000000000E+00 0. -1.
         21   -1    0    0  502  503 -0.00000000000E+00 -0.00000000000E+00 -0.69328188464E+03  0.69328188464E+03  0.00000000000E+00 0. -1.
          6    1    1    2  501    0  0.60191863413E+02 -0.81635459983E+02 -0.48906838125E+03  0.52826062723E+03  0.17200000000E+03 0. -1.
         -6    1    1    2    0  503 -0.60191863413E+02  0.81635459983E+02 -0.13062543139E+03  0.23860932940E+03  0.17200000000E+03 0. -1.
</event>
<event>
 4    1  0.5640532E+000  0.1729515E+03  0.7818608E-02  0.1174804E+00
         21   -1    0    0  501  502  0.00000000000E+00  0.00000000000E+00  0.39293176107E+03  0.39293176107E+03  0.00000000000E+00 0.  1.
         21   -1    0    0  502  503 -0.00000000000E+00 -0.00000000000E+00 -0.21891065395E+03  0.21891065395E+03  0.00000000000E+00 0.  1.
          6    1    1    2  501    0 -0.17287415785E+02  0.54206054058E+01  0.33407897096E+03  0.37619276515E+03  0.17200000000E+03 0.  1.
         -6    1    1    2    0  503  0.17287415785E+02 -0.54206054058E+01 -0.16005786384E+03  0.23564964987E+03  0.17200000000E+03 0.  1.
</event>
<event>
 4    1  0.5640532E+000  0.2261209E+03  0.7818608E-02  0.1129400E+00
         21   -1    0    0  501  502  0.00000000000E+00  0.00000000000E+00  0.83767008639E+03  0.83767008639E+03  0.00000000000E+00 0. -1.
         21   -1    0    0  502  503 -0.00000000000E+00 -0.00000000000E+00 -0.62316167305E+02  0.62316167305E+02  0.00000000000E+00 0.  1.
          6    1    1    2  501    0 -0.12450356953E+03 -0.77753102687E+02  0.32325986786E+03  0.39449667422E+03  0.17200000000E+03 0. -1.
         -6    1    1    2    0  503  0.12450356953E+03  0.77753102687E+02  0.45209405123E+03  0.50548957947E+03  0.17200000000E+03 0. -1.
</event>
<event>
 4    1  0.5640532E+000  0.2068385E+03  0.7818608E-02  0.1144094E+00
         21   -1    0    0  501  502  0.00000000000E+00  0.00000000000E+00  0.66008104701E+02  0.66008104701E+02  0.00000000000E+00 0.  1.
         21   -1    0    0  502  503 -0.00000000000E+00 -0.00000000000E+00 -0.13991366036E+04  0.13991366036E+04  0.00000000000E+00 0.  1.
          6    1    1    2  501    0 -0.10700422411E+03  0.41812132807E+02 -0.12985272850E+03  0.24422098503E+03  0.17200000000E+03 0.  1.
         -6    1    1    2    0  503  0.10700422411E+03 -0.41812132807E+02 -0.12032757704E+04  0.12209237233E+04  0.17200000000E+03 0.  1.
</event>
<event>
 4    1  0.5640532E+000  0.3502205E+03  0.7818608E-02  0.1062525E+00
         21   -1    0    0  503  502  0.00000000000E+00  0.00000000000E+00  0.52535430562E+03  0.52535430562E+03  0.00000000000E+00 0.  1.
         21   -1    0    0  501  503 -0.00000000000E+00 -0.00000000000E+00 -0.25202622630E+03  0.25202622630E+03  0.00000000000E+00 0. -1.
          6    1    1    2  501    0  0.30192522358E+03  0.43721291960E+02  0.31194425346E+02  0.35160700246E+03  0.17200000000E+03 0. -1.
         -6    1    1    2    0  502 -0.30192522358E+03 -0.43721291960E+02  0.24213365397E+03  0.42577352946E+03  0.17200000000E+03 0.  1.
</event>
<event>
 4    1  0.5640532E+000  0.2616806E+03  0.7818608E-02  0.1106138E+00
         21   -1    0    0  503  502  0.00000000000E+00  0.00000000000E+00  0.23716327181E+03  0.23716327181E+03  0.00000000000E+00 0.  1.
         21   -1    0    0  501  503 -0.00000000000E+00 -0.00000000000E+00 -0.30525753290E+03  0.30525753290E+03  0.00000000000E+00 0.  1.
          6    1    1    2  501    0 -0.16717790199E+03 -0.10461485141E+03  0.29055254335E+02  0.26328867399E+03  0.17200000000E+03 0.  1.
         -6    1    1    2    0  502  0.16717790199E+03  0.10461485141E+03 -0.97149515425E+02  0.27913213071E+03  0.17200000000E+03 0.  1.
</event>
<event>
 4    1  0.5640532E+000  0.2582300E+03  0.7818608E-02  0.1108211E+00
         21   -1    0    0  501  502  0.00000000000E+00  0.00000000000E+00  0.68836958444E+02  0.68836958444E+02  0.00000000000E+00 0. -1.
         21   -1    0    0  502  503 -0.00000000000E+00 -0.00000000000E+00 -0.13156263651E+04  0.13156263651E+04  0.00000000000E+00 0.  1.
          6    1    1    2  501    0  0.13881397860E+03  0.13352688049E+03 -0.26792686676E+03  0.37211228735E+03  0.17200000000E+03 0. -1.
         -6    1    1    2    0  503 -0.13881397860E+03 -0.13352688049E+03 -0.97886253993E+03  0.10123510362E+04  0.17200000000E+03 0.  1.
</event>
<event>
 4    1  0.5640532E+000  0.1776210E+03  0.7818608E-02  0.1170126E+00
         21   -1    0    0  503  502  0.00000000000E+00  0.00000000000E+00  0.48031766294E+02  0.48031766294E+02  0.00000000000E+00 0. -1.
         21   -1    0    0  501  503 -0.00000000000E+00 -0.00000000000E+00 -0.13269736494E+04  0.13269736494E+04  0.00000000000E+00 0. -1.
          6    1    1    2  501    0  0.44300674217E+02 -0.16327660867E+01 -0.11280375396E+04  0.11419360343E+04  0.17200000000E+03 0. -1.
         -6    1    1    2    0  502 -0.44300674217E+02  0.16327660867E+01 -0.15090434352E+03  0.23306938142E+03  0.17200000000E+03 0. -1.
</event>
<event>
 4    1  0.5640532E+000  0.2333995E+03  0.7818608E-02  0.1124270E+00
         21   -1    0    0  503  502  0.00000000000E+00  0.00000000000E+00  0.61314156094E+03  0.61314156094E+03  0.00000000000E+00 0. -1.
         21   -1    0    0  501  503 -0.00000000000E+00 -0.00000000000E+00 -0.89286646217E+02  0.89286646217E+02  0.00000000000E+00 0.  1.
          6    1    1    2  501    0  0.24618942080E+02 -0.15583717584E+03  0.23726086784E+03  0.33281832445E+03  0.17200000000E+03 0.  1.
         -6    1    1    2    0  502 -0.24618942080E+02  0.15583717584E+03  0.28659404689E+03  0.36960988271E+03  0.17200000000E+03 0.  1.
</event>
<event>
 4    1  0.5640532E+000  0.2708056E+03  0.7818608E-02  0.1100819E+00
         21   -1    0    0  501  502  0.00000000000E+00  0.00000000000E+00  0.82819571809E+02  0.82819571809E+02  0.00000000000E+00 0.  1.
         21   -1    0    0  502  503 -0.00000000000E+00 -0.00000000000E+00 -0.12912824457E+04  0.12912824457E+04  0.00000000000E+00 0.  1.
          6    1    1    2  501    0 -0.19952590052E+03  0.62777889279E+02 -0.21907959429E+03  0.34832673884E+03  0.17200000000E+03 0.  1.
         -6    1    1    2    0  503  0.19952590052E+03 -0.62777889279E+02 -0.98938327963E+03  0.10257752787E+04  0.17200000000E+03 0.  1.
</event>
<event>
 4    1  0.5640532E+000  0.1871632E+03  0.7818608E-02  0.1161045E+00
         21   -1    0    0  503  502  0.00000000000E+00  0.00000000000E+00  0.86194406472E+02  0.86194406472E+02  0.00000000000E+00 0. -1.
         21   -1    0    0  501  503 -0.00000000000E+00 -0.00000000000E+00 -0.41006159436E+03  0.41006159436E+03  0.00000000000E+00 0. -1.
          6    1    1    2  501    0  0.73167308780E+02 -0.96228824193E+01 -0.18535645488E+03  0.26341425608E+03  0.17200000000E+03 0.  1.
         -6    1    1    2    0  502 -0.73167308780E+02  0.96228824193E+01 -0.13851073301E+03  0.23284174475E+03  0.17200000000E+03 0.  1.
</event>
<event>
 4    1  0.5640532E+000  0.2036011E+03  0.7818608E-02  0.1146736E+00
         21   -1    0    0  501  502  0.00000000000E+00  0.00000000000E+00  0.68264084202E+03  0.68264084202E+03  0.00000000000E+00 0.  1.
         21   -1    0    0  502  503 -0.00000000000E+00 -0.00000000000E+00 -0.12225461251E+03  0.12225461251E+03  0.00000000000E+00 0.  1.
          6    1    1    2  501    0  0.86929398555E+02 -0.65670905033E+02  0.56570147102E+03  0.60122503475E+03  0.17200000000E+03 0.  1.
         -6    1    1    2    0  503 -0.86929398555E+02  0.65670905033E+02 -0.53152415066E+01  0.20367041978E+03  0.17200000000E+03 0.  1.
</event>
<event>
 4    1  0.5640532E+000  0.2378874E+03  0.7818608E-02  0.1121208E+00
         21   -1    0    0  503  502  0.00000000000E+00  0.00000000000E+00  0.14839437074E+04  0.14839437074E+04  0.00000000000E+00 0.  1.
         21   -1    0    0  501  503 -0.00000000000E+00 -0.00000000000E+00 -0.18451778527E+03  0.18451778527E+03  0.00000000000E+00 0.  1.
          6    1    1    2  501    0  0.13430848836E+03  0.94697762011E+02 -0.93326426701E+02  0.25553915179E+03  0.17200000000E+03 0.  1.
         -6    1    1    2    0  502 -0.13430848836E+03 -0.94697762011E+02  0.13927523489E+04  0.14129223409E+04  0.17200000000E+03 0.  1.
</event>
<event>
 4    1  0.5640532E+000  0.1804935E+03  0.7818608E-02  0.1167326E+00
         21   -1    0    0  501  502  0.00000000000E+00  0.00000000000E+00  0.33025829800E+03  0.33025829800E+03  0.00000000000E+00 0. -1.
         21   -1    0    0  502  503 -0.00000000000E+00 -0.00000000000E+00 -0.10354337775E+03  0.10354337775E+03  0.00000000000E+00 0. -1.
          6    1    1    2  501    0 -0.49455038330E+01  0.54492708489E+02  0.66174834522E+02  0.19224209219E+03  0.17200000000E+03 0. -1.
         -6    1    1    2    0  503  0.49455038330E+01 -0.54492708489E+02  0.16054008573E+03  0.24155958357E+03  0.17200000000E+03 0. -1.
</event>
<event>
 4    1  0.5640532E+000  0.4057723E+03  0.7818608E-02  0.1041799E+00
         21   -1    0    0  503  502  0.00000000000E+00  0.00000000000E+00  0.28563704845E+03  0.28563704845E+03  0.00000000000E+00 0.  1.
         21   -1    0    0  501  503 -0.00000000000E+00 -0.00000000000E+00 -0.80834187281E+03  0.80834187281E+03  0.00000000000E+00 0.  1.
          6    1    1    2  501    0 -0.35797872326E+03 -0.83176820929E+02 -0.55433267779E+03  0.68697588569E+03  0.17200000000E+03 0.  1.
         -6    1    1    2    0  502  0.35797872326E+03  0.83176820929E+02  0.31627853432E+02  0.40700303557E+03  0.17200000000E+03 0.  1.
</event>
<event>
 4    1  0.5640532E+000  0.1994998E+03  0.7818608E-02  0.1150162E+00
         21   -1    0    0  501  502  0.00000000000E+00  0.00000000000E+00  0.23256383818E+02  0.23256383818E+02  0.00000000000E+00 0. -1.
         21   -1    0    0  502  503 -0.00000000000E+00 -0.00000000000E+00 -0.24164969747E+04  0.24164969747E+04  0.00000000000E+00 0. -1.
          6    1    1    2  501    0 -0.95548035130E+02 -0.32965915127E+02 -0.53766223249E+03  0.57348134653E+03  0.17200000000E+03 0. -1.
         -6    1    1    2    0  503  0.95548035130E+02  0.32965915127E+02 -0.18555783584E+04  0.18662720120E+04  0.17200000000E+03 0. -1.
</event>
<event>
 4    1  0.5640532E+000  0.1791645E+03  0.7818608E-02  0.1168614E+00
         21   -1    0    0  503  502  0.00000000000E+00  0.00000000000E+00  0.77261125220E+02  0.77261125220E+02  0.00000000000E+00 0. -1.
         21   -1    0    0  501  503 -0.00000000000E+00 -0.00000000000E+00 -0.45888817183E+03  0.45888817183E+03  0.00000000000E+00 0. -1.
          6    1    1    2  501    0 -0.47667684720E+02  0.15611356161E+02 -0.10835750583E+03  0.20938307400E+03  0.17200000000E+03 0. -1.
         -6    1    1    2    0  502  0.47667684720E+02 -0.15611356161E+02 -0.27326954078E+03  0.32676622305E+03  0.17200000000E+03 0. -1.
</event>
<event>
 4    1  0.5640532E+000  0.2082180E+03  0.7818608E-02  0.1142985E+00
         21   -1    0    0  501  502  0.00000000000E+00  0.00000000000E+00  0.23295694448E+04  0.23295694448E+04  0.00000000000E+00 0.  1.
         21   -1    0    0  502  503 -0.00000000000E+00 -0.00000000000E+00 -0.30341024261E+02  0.30341024261E+02  0.00000000000E+00 0.  1.
          6    1    1    2  501    0 -0.11220935193E+03 -0.34348394526E+02  0.18832943274E+04  0.18947697154E+04  0.17200000000E+03 0.  1.
         -6    1    1    2    0  503  0.11220935193E+03  0.34348394526E+02  0.41593409320E+03  0.46514075370E+03  0.17200000000E+03 0.  1.
</event>
<event>
 4    1  0.5640532E+000  0.1986175E+03  0.7818608E-02  0.1150911E+00
         21   -1    0    0  503  502  0.00000000000E+00  0.00000000000E+00  0.49847024304E+03  0.49847024304E+03  0.00000000000E+00 0.  1.
         21   -1    0    0  501  503 -0.00000000000E+00 -0.00000000000E+00 -0.93491896459E+02  0.93491896459E+02  0.00000000000E+00 0.  1.
          6    1    1    2  501    0 -0.12248390925E+02 -0.98564074708E+02  0.31845570361E+03  0.37531711267E+03  0.17200000000E+03 0. -1.
         -6    1    1    2    0  502  0.12248390925E+02  0.98564074708E+02  0.86522642976E+02  0.21664502683E+03  0.17200000000E+03 0. -1.
</event>
<event>
 4    1  0.5640532E+000  0.3151541E+03  0.7818608E-02  0.1077901E+00
         21   -1    0    0  503  502  0.00000000000E+00  0.00000000000E+00  0.80465589341E+03  0.80465589341E+03  0.00000000000E+00 0.  1.
         21   -1    0    0  501  503 -0.00000000000E+00 -0.00000000000E+00 -0.13379582730E+03  0.13379582730E+03  0.00000000000E+00 0.  1.
          6    1    1    2  501    0  0.14400907430E+03  0.22135835381E+03  0.20485125155E+03  0.37588052562E+03  0.17200000000E+03 0.  1.
         -6    1    1    2    0  502 -0.14400907430E+03 -0.22135835381E+03  0.46600881456E+03  0.56257119508E+03  0.17200000000E+03 0.  1.
</event>
<event>
 4    1  0.5640532E+000  0.1890630E+03  0.7818608E-02  0.1159309E+00
         21   -1    0    0  501  502  0.00000000000E+00  0.00000000000E+00  0.13557552484E+03  0.13557552484E+03  0.00000000000E+00 0.  1.
         21   -1    0    0  502  503 -0.00000000000E+00 -0.00000000000E+00 -0.26534980220E+03  0.26534980220E+03  0.00000000000E+00 0.  1.
          6    1    1    2  501    0 -0.76744525310E+02 -0.16465550165E+02 -0.48854912095E+02  0.19527324175E+03  0.17200000000E+03 0.  1.
         -6    1    1    2    0  503  0.76744525310E+02  0.16465550165E+02 -0.80919365272E+02  0.20565208529E+03  0.17200000000E+03 0.  1.
</event>
<event>
 4    1  0.5640532E+000  0.1738110E+03  0.7818608E-02  0.1173931E+00
         21   -1    0    0  503  502  0.00000000000E+00  0.00000000000E+00  0.14650363279E+03  0.14650363279E+03  0.00000000000E+00 0. -1.
         21   -1    0    0  501  503 -0.00000000000E+00 -0.00000000000E+00 -0.20813817544E+03  0.20813817544E+03  0.00000000000E+00 0. -1.
          6    1    1    2  501    0  0.22917629783E+02 -0.10052988903E+02 -0.13743204746E+02  0.17435353744E+03  0.17200000000E+03 0. -1.
         -6    1    1    2    0  502 -0.22917629783E+02  0.10052988903E+02 -0.47891337903E+02  0.18028827080E+03  0.17200000000E+03 0. -1.
</event>
<event>
 4    1  0.5640532E+000  0.3281606E+03  0.7818608E-02  0.1071954E+00
         21   -1    0    0  503  502  0.00000000000E+00  0.00000000000E+00  0.78975831062E+03  0.78975831062E+03  0.00000000000E+00 0. -1.
         21   -1    0    0  501  503 -0.00000000000E+00 -0.00000000000E+00 -0.25544790455E+03  0.25544790455E+03  0.00000000000E+00 0.  1.
          6    1    1    2  501    0 -0.11090506167E+03 -0.25652567942E+03  0.62398364143E+03  0.70501414289E+03  0.17200000000E+03 0. -1.
         -6    1    1    2    0  502  0.11090506167E+03  0.25652567942E+03 -0.89673235358E+02  0.34019207228E+03  0.17200000000E+03 0.  1.
</event>
<event>
 4    1  0.5640532E+000  0.1761580E+03  0.7818608E-02  0.1171574E+00
         21   -1    0    0  501  502  0.00000000000E+00  0.00000000000E+00  0.16029779162E+03  0.16029779162E+03  0.00000000000E+00 0.  1.
         21   -1    0    0  502  503 -0.00000000000E+00 -0.00000000000E+00 -0.36160901229E+03  0.36160901229E+03  0.00000000000E+00 0.  1.
          6    1    1    2  501    0 -0.32402865381E+01 -0.37909599936E+02 -0.27853510113E+03  0.32956553185E+03  0.17200000000E+03 0.  1.
         -6    1    1    2    0  503  0.32402865381E+01  0.37909599936E+02  0.77223880452E+02  0.19234127206E+03  0.17200000000E+03 0.  1.
</event>
<event>
 4    1  0.5640532E+000  0.1838243E+03  0.7818608E-02  0.1164152E+00
         21   -1    0    0  501  502  0.00000000000E+00  0.00000000000E+00  0.73826713793E+02  0.73826713793E+02  0.00000000000E+00 0.  1.
         21   -1    0    0  502  503 -0.00000000000E+00 -0.00000000000E+00 -0.46088369583E+03  0.46088369583E+03  0.00000000000E+00 0.  1.
          6    1    1    2  501    0 -0.27222995128E+02 -0.58875007054E+02 -0.21570803218E+03  0.28341014990E+03  0.17200000000E+03 0. -1.
         -6    1    1    2    0  503  0.27222995128E+02  0.58875007054E+02 -0.17134894986E+03  0.25130025972E+03  0.17200000000E+03 0. -1.
</event>
<event>
 4    1  0.5640532E+000  0.2004205E+03  0.7818608E-02  0.1149385E+00
         21   -1    0    0  503  502  0.00000000000E+00  0.00000000000E+00  0.11829499755E+03  0.11829499755E+03  0.00000000000E+00 0. -1.
         21   -1    0    0  501  503 -0.00000000000E+00 -0.00000000000E+00 -0.37190062282E+03  0.37190062282E+03  0.00000000000E+00 0. -1.
          6    1    1    2  501    0 -0.40176458256E+01  0.10280195392E+03 -0.19907855665E+03  0.28249009704E+03  0.17200000000E+03 0. -1.
         -6    1    1    2    0  502  0.40176458256E+01 -0.10280195392E+03 -0.54527068619E+02  0.20770552333E+03  0.17200000000E+03 0. -1.
</event>
<event>
 4    1  0.5640532E+000  0.1980278E+03  0.7818608E-02  0.1151414E+00
         21   -1    0    0  501  502  0.00000000000E+00  0.00000000000E+00  0.15311512080E+03  0.15311512080E+03  0.00000000000E+00 0. -1.
         21   -1    0    0  502  503 -0.00000000000E+00 -0.00000000000E+00 -0.29610747815E+03  0.29610747815E+03  0.00000000000E+00 0. -1.
          6    1    1    2  501    0  0.37546399046E+02 -0.90671357977E+02  0.11050178459E+02  0.19833591123E+03  0.17200000000E+03 0. -1.
         -6    1    1    2    0  503 -0.37546399046E+02  0.90671357977E+02 -0.15404253581E+03  0.25088668772E+03  0.17200000000E+03 0. -1.
</event>
<event>
 4    1  0.5640532E+000  0.1965209E+03  0.7818608E-02  0.1152708E+00
         21   -1    0    0  501  502  0.00000000000E+00  0.00000000000E+00  0.10569548213E+04  0.10569548213E+04  0.00000000000E+00 0. -1.
         21   -1    0    0  502  503 -0.00000000000E+00 -0.00000000000E+00 -0.63478581979E+02  0.63478581979E+02  0.00000000000E+00 0. -1.
          6    1    1    2  501    0 -0.43110383522E+02  0.84722728147E+02  0.86168950859E+03  0.88381517018E+03  0.17200000000E+03 0. -1.
         -6    1    1    2    0  503  0.43110383522E+02 -0.84722728147E+02  0.13178673071E+03  0.23661823307E+03  0.17200000000E+03 0. -1.
</event>
<event>
 4    1  0.5640532E+000  0.2697926E+03  0.7818608E-02  0.1101398E+00
         21   -1    0    0  501  502  0.00000000000E+00  0.00000000000E+00  0.23024992067E+03  0.23024992067E+03  0.00000000000E+00 0. -1.
         21   -1    0    0  502  503 -0.00000000000E+00 -0.00000000000E+00 -0.61282226415E+03  0.61282226415E+03  0.00000000000E+00 0. -1.
          6    1    1    2  501    0  0.19783544274E+03 -0.63758910197E+02  0.10202141700E+03  0.28843791457E+03  0.17200000000E+03 0. -1.
         -6    1    1    2    0  503 -0.19783544274E+03  0.63758910197E+02 -0.48459376048E+03  0.55463427025E+03  0.17200000000E+03 0. -1.
</event>
<event>
 4    1  0.5640532E+000  0.2158321E+03  0.7818608E-02  0.1137029E+00
         21   -1    0    0  503  502  0.00000000000E+00  0.00000000000E+00  0.92787845504E+02  0.92787845504E+02  0.00000000000E+00 0.  1.
         21   -1    0    0  501  503 -0.00000000000E+00 -0.00000000000E+00 -0.11811498476E+04  0.11811498476E+04  0.00000000000E+00 0. -1.
          6    1    1    2  501    0  0.11136446998E+03  0.67804463312E+02 -0.10271672214E+04  0.10495980140E+04  0.17200000000E+03 0. -1.
         -6    1    1    2    0  502 -0.11136446998E+03 -0.67804463312E+02 -0.61194780740E+02  0.22433967908E+03  0.17200000000E+03 0.  1.
</event>
<event>
 4    1  0.5640532E+000  0.2278737E+03  0.7818608E-02  0.1128145E+00
         21   -1    0    0  503  502  0.00000000000E+00  0.00000000000E+00  0.80671921490E+02  0.80671921490E+02  0.00000000000E+00 0. -1.
         21   -1    0    0  501  503 -0.00000000000E+00 -0.00000000000E+00 -0.12424683365E+04  0.12424683365E+04  0.00000000000E+00 0.  1.
          6    1    1    2  501    0  0.10331194880E+03  0.10802336295E+03 -0.10401724844E+04  0.10648404589E+04  0.17200000000E+03 0.  1.
         -6    1    1    2    0  502 -0.10331194880E+03 -0.10802336295E+03 -0.12162393068E+03  0.25829979911E+03  0.17200000000E+03 0. -1.
</event>
<event>
 4    1  0.5640532E+000  0.1811839E+03  0.7818608E-02  0.1166662E+00
         21   -1    0    0  503  502  0.00000000000E+00  0.00000000000E+00  0.22228437609E+03  0.22228437609E+03  0.00000000000E+00 0.  1.
         21   -1    0    0  501  503 -0.00000000000E+00 -0.00000000000E+00 -0.15393391801E+03  0.15393391801E+03  0.00000000000E+00 0. -1.
          6    1    1    2  501    0 -0.30979030303E+01  0.56868407066E+02  0.72081960612E+02  0.19499595322E+03  0.17200000000E+03 0.  1.
         -6    1    1    2    0  502  0.30979030303E+01 -0.56868407066E+02 -0.37315025332E+01  0.18122234089E+03  0.17200000000E+03 0. -1.
</event>
<event>
 4    1  0.5640532E+000  0.2878782E+03  0.7818608E-02  0.1091462E+00
         21   -1    0    0  501  502  0.00000000000E+00  0.00000000000E+00  0.11310264493E+03  0.11310264493E+03  0.00000000000E+00 0. -1.
         21   -1    0    0  502  503 -0.00000000000E+00 -0.00000000000E+00 -0.75160834323E+03  0.75160834323E+03  0.00000000000E+00 0. -1.
          6    1    1    2  501    0 -0.23035917403E+03 -0.14983874097E+02 -0.25073394758E+03  0.38176089115E+03  0.17200000000E+03 0. -1.
         -6    1    1    2    0  503  0.23035917403E+03  0.14983874097E+02 -0.38777175072E+03  0.48295009701E+03  0.17200000000E+03 0. -1.
</event>
<event>
 4    1  0.5640532E+000  0.2271696E+03  0.7818608E-02  0.1128648E+00
         21   -1    0    0  503  502  0.00000000000E+00  0.00000000000E+00  0.14389920743E+04  0.14389920743E+04  0.00000000000E+00 0. -1.
         21   -1    0    0  501  503 -0.00000000000E+00 -0.00000000000E+00 -0.36528710373E+02  0.36528710373E+02  0.00000000000E+00 0.  1.
          6    1    1    2  501    0  0.14808724155E+03 -0.96017270700E+01  0.80085594520E+03  0.83245196212E+03  0.17200000000E+03 0.  1.
         -6    1    1    2    0  502 -0.14808724155E+03  0.96017270700E+01  0.60160741869E+03  0.64306882252E+03  0.17200000000E+03 0. -1.
</event>
<event>
 4    1  0.5640532E+000  0.2042706E+03  0.7818608E-02  0.1146185E+00
         21   -1    0    0  501  502  0.00000000000E+00  0.00000000000E+00  0.32770467289E+03  0.32770467289E+03  0.00000000000E+00 0. -1.
         21   -1    0    0  502  503 -0.00000000000E+00 -0.00000000000E+00 -0.34670243781E+03  0.34670243781E+03  0.00000000000E+00 0. -1.
          6    1    1    2  501    0 -0.49668478005E+02  0.98364326014E+02  0.25872975524E+03  0.32964766734E+03  0.17200000000E+03 0. -1.
         -6    1    1    2    0  503  0.49668478005E+02 -0.98364326014E+02 -0.27772752015E+03  0.34475944336E+03  0.17200000000E+03 0. -1.
</event>
<event>
 4    1  0.5640532E+000  0.2374732E+03  0.7818608E-02  0.1121488E+00
         21   -1    0    0  501  502  0.00000000000E+00  0.00000000000E+00  0.60960325782E+03  0.60960325782E+03  0.00000000000E+00 0.  1.
         21   -1    0    0  502  503 -0.00000000000E+00 -0.00000000000E+00 -0.12840291283E+03  0.12840291283E+03  0.00000000000E+00 0.  1.
          6    1    1    2  501    0 -0.31283143894E+02  0.16071986575E+03  0.43569947407E+03  0.49621320221E+03  0.17200000000E+03 0.  1.
         -6    1    1    2    0  503  0.31283143894E+02 -0.16071986575E+03  0.45500870921E+02  0.24179296845E+03  0.17200000000E+03 0.  1.
</event>
<event>
 4    1  0.5640532E+000  0.2082578E+03  0.7818608E-02  0.1142953E+00
         21   -1    0    0  501  502  0.00000000000E+00  0.00000000000E+00  0.35510228951E+03  0.35510228951E+03  0.00000000000E+00 0. -1.
         21   -1    0    0  502  503 -0.00000000000E+00 -0.00000000000E+00 -0.17305017539E+03  0.17305017539E+03  0.00000000000E+00 0. -1.
          6    1    1    2  501    0  0.56605144527E+02 -0.10287450511E+03  0.23426339775E+03  0.31344959039E+03  0.17200000000E+03 0. -1.
         -6    1    1    2    0  503 -0.56605144527E+02  0.10287450511E+03 -0.52211283622E+02  0.21470287452E+03  0.17200000000E+03 0. -1.
</event>
<event>
 4    1  0.5640532E+000  0.1767906E+03  0.7818608E-02  0.1170946E+00
         21   -1    0    0  501  502  0.00000000000E+00  0.00000000000E+00  0.23717818665E+02  0.23717818665E+02  0.00000000000E+00 0. -1.
         21   -1    0    0  502  503 -0.00000000000E+00 -0.00000000000E+00 -0.13855500832E+04  0.13855500832E+04  0.00000000000E+00 0. -1.
          6    1    1    2  501    0 -0.12316679196E+02 -0.38977143189E+02 -0.83675096634E+03  0.85522341990E+03  0.17200000000E+03 0.  1.
         -6    1    1    2    0  503  0.12316679196E+02  0.38977143189E+02 -0.52508129816E+03  0.55404448193E+03  0.17200000000E+03 0.  1.
</event>
<event>
 4    1  0.5640532E+000  0.1722282E+03  0.7818608E-02  0.1175544E+00
         21   -1    0    0  503  502  0.00000000000E+00  0.00000000000E+00  0.93537673398E+03  0.93537673398E+03  0.00000000000E+00 0.  1.
         21   -1    0    0  501  503 -0.00000000000E+00 -0.00000000000E+00 -0.46616479788E+02  0.46616479788E+02  0.00000000000E+00 0.  1.
          6    1    1    2  501    0 -0.85184617083E+01 -0.24470723801E+01  0.16674849247E+03  0.23972403320E+03  0.17200000000E+03 0.  1.
         -6    1    1    2    0  502  0.85184617083E+01  0.24470723801E+01  0.72201176172E+03  0.74226918057E+03  0.17200000000E+03 0.  1.
</event>
<event>
 4    1  0.5640532E+000  0.2265839E+03  0.7818608E-02  0.1129068E+00
         21   -1    0    0  501  502  0.00000000000E+00  0.00000000000E+00  0.23598110049E+03  0.23598110049E+03  0.00000000000E+00 0.  1.
         21   -1    0    0  502  503 -0.00000000000E+00 -0.00000000000E+00 -0.31816279003E+03  0.31816279003E+03  0.00000000000E+00 0.  1.
          6    1    1    2  501    0 -0.13061903525E+03  0.68519534873E+02  0.11471040785E+03  0.25396601485E+03  0.17200000000E+03 0.  1.
         -6    1    1    2    0  503  0.13061903525E+03 -0.68519534873E+02 -0.19689209739E+03  0.30017787567E+03  0.17200000000E+03 0.  1.
</event>
<event>
 4    1  0.5640532E+000  0.2385902E+03  0.7818608E-02  0.1120736E+00
         21   -1    0    0  503  502  0.00000000000E+00  0.00000000000E+00  0.27805189353E+03  0.27805189353E+03  0.00000000000E+00 0. -1.
         21   -1    0    0  501  503 -0.00000000000E+00 -0.00000000000E+00 -0.25040920570E+03  0.25040920570E+03  0.00000000000E+00 0.  1.
          6    1    1    2  501    0 -0.29057071820E+00 -0.16535170800E+03 -0.99034006456E+02  0.25832732377E+03  0.17200000000E+03 0.  1.
         -6    1    1    2    0  502  0.29057071820E+00  0.16535170800E+03  0.12667669428E+03  0.27013377546E+03  0.17200000000E+03 0. -1.
</event>
<event>
 4    1  0.5640532E+000  0.1871670E+03  0.7818608E-02  0.1161042E+00
         21   -1    0    0  501  502  0.00000000000E+00  0.00000000000E+00  0.62550399664E+03  0.62550399664E+03  0.00000000000E+00 0.  1.
         21   -1    0    0  502  503 -0.00000000000E+00 -0.00000000000E+00 -0.98514723305E+02  0.98514723305E+02  0.00000000000E+00 0.  1.
          6    1    1    2  501    0  0.70637867509E+02 -0.21395950844E+02  0.50129482497E+03  0.53509624982E+03  0.17200000000E+03 0.  1.
         -6    1    1    2    0  503 -0.70637867509E+02  0.21395950844E+02  0.25694448367E+02  0.18892247012E+03  0.17200000000E+03 0.  1.
</event>
<event>
 4    1  0.5640532E+000  0.1894062E+03  0.7818608E-02  0.1158998E+00
         21   -1    0    0  501  502  0.00000000000E+00  0.00000000000E+00  0.15006369902E+03  0.15006369902E+03  0.00000000000E+00 0.  1.
         21   -1    0    0  502  503 -0.00000000000E+00 -0.00000000000E+00 -0.34206071889E+03  0.34206071889E+03  0.00000000000E+00 0. -1.
          6    1    1    2  501    0 -0.46993610973E+02  0.63893088036E+02  0.39024083049E+02  0.19338460443E+03  0.17200000000E+03 0.  1.
         -6    1    1    2    0  503  0.46993610973E+02 -0.63893088036E+02 -0.23102110292E+03  0.29873981349E+03  0.17200000000E+03 0.  1.
</event>
<event>
 4    1  0.5640532E+000  0.2187600E+03  0.7818608E-02  0.1134811E+00
         21   -1    0    0  501  502  0.00000000000E+00  0.00000000000E+00  0.45699734632E+03  0.45699734632E+03  0.00000000000E+00 0. -1.
         21   -1    0    0  502  503 -0.00000000000E+00 -0.00000000000E+00 -0.48021401040E+03  0.48021401040E+03  0.00000000000E+00 0. -1.
          6    1    1    2  501    0  0.58048319614E+02 -0.12207504391E+03  0.40276586233E+03  0.45834077236E+03  0.17200000000E+03 0. -1.
         -6    1    1    2    0  503 -0.58048319614E+02  0.12207504391E+03 -0.42598252641E+03  0.47887058435E+03  0.17200000000E+03 0. -1.
</event>
<event>
 4    1  0.5640532E+000  0.1749932E+03  0.7818608E-02  0.1172739E+00
         21   -1    0    0  501  502  0.00000000000E+00  0.00000000000E+00  0.62464619551E+02  0.62464619551E+02  0.00000000000E+00 0.  1.
         21   -1    0    0  502  503 -0.00000000000E+00 -0.00000000000E+00 -0.68089060896E+03  0.68089060896E+03  0.00000000000E+00 0.  1.
          6    1    1    2  501    0  0.32041036917E+02 -0.34637720455E+01 -0.11253880672E+03  0.20805674414E+03  0.17200000000E+03 0.  1.
         -6    1    1    2    0  503 -0.32041036917E+02  0.34637720455E+01 -0.50588718269E+03  0.53529848438E+03  0.17200000000E+03 0.  1.
</event>
<event>
 4    1  0.5640532E+000  0.2072588E+03  0.7818608E-02  0.1143755E+00
         21   -1    0    0  501  502  0.00000000000E+00  0.00000000000E+00  0.14417872712E+03  0.14417872712E+03  0.00000000000E+00 0. -1.
         21   -1    0    0  502  503 -0.00000000000E+00 -0.00000000000E+00 -0.33543409319E+03  0.33543409319E+03  0.00000000000E+00 0.  1.
          6    1    1    2  501    0  0.11483981470E+03 -0.13565783141E+02 -0.15449808649E+02  0.20783385215E+03  0.17200000000E+03 0. -1.
         -6    1    1    2    0  503 -0.11483981470E+03  0.13565783141E+02 -0.17580555742E+03  0.27177896816E+03  0.17200000000E+03 0.  1.
</event>
<event>
 4    1  0.5640532E+000  0.1821678E+03  0.7818608E-02  0.1165721E+00
         21   -1    0    0  503  502  0.00000000000E+00  0.00000000000E+00  0.15095892852E+03  0.15095892852E+03  0.00000000000E+00 0. -1.
         21   -1    0    0  501  503 -0.00000000000E+00 -0.00000000000E+00 -0.35764126001E+03  0.35764126001E+03  0.00000000000E+00 0. -1.
          6    1    1    2  501    0 -0.11198361949E+02  0.58955031777E+02 -0.26119937615E+03  0.31844970275E+03  0.17200000000E+03 0. -1.
         -6    1    1    2    0  502  0.11198361949E+02 -0.58955031777E+02  0.54517044656E+02  0.19015048577E+03  0.17200000000E+03 0. -1.
</event>
<event>
 4    1  0.5640532E+000  0.2334822E+03  0.7818608E-02  0.1124213E+00
         21   -1    0    0  503  502  0.00000000000E+00  0.00000000000E+00  0.21353773301E+03  0.21353773301E+03  0.00000000000E+00 0.  1.
         21   -1    0    0  501  503 -0.00000000000E+00 -0.00000000000E+00 -0.27809032316E+03  0.27809032316E+03  0.00000000000E+00 0.  1.
          6    1    1    2  501    0  0.65148243122E+02 -0.14382512476E+03 -0.10266259581E+03  0.25505601085E+03  0.17200000000E+03 0.  1.
         -6    1    1    2    0  502 -0.65148243122E+02  0.14382512476E+03  0.38110005666E+02  0.23657204532E+03  0.17200000000E+03 0.  1.
</event>
<event>
 4    1  0.5640532E+000  0.2153251E+03  0.7818608E-02  0.1137417E+00
         21   -1    0    0  501  502  0.00000000000E+00  0.00000000000E+00  0.13821555922E+04  0.13821555922E+04  0.00000000000E+00 0.  1.
         21   -1    0    0  502  503 -0.00000000000E+00 -0.00000000000E+00 -0.51572587753E+02  0.51572587753E+02  0.00000000000E+00 0. -1.
          6    1    1    2  501    0 -0.11982371827E+03  0.49225646365E+02  0.10891218046E+04  0.11102032215E+04  0.17200000000E+03 0.  1.
         -6    1    1    2    0  503  0.11982371827E+03 -0.49225646365E+02  0.24146119980E+03  0.32352495843E+03  0.17200000000E+03 0. -1.
</event>
<event>
 4    1  0.5640532E+000  0.2292297E+03  0.7818608E-02  0.1127183E+00
         21   -1    0    0  503  502  0.00000000000E+00  0.00000000000E+00  0.24693834846E+04  0.24693834846E+04  0.00000000000E+00 0. -1.
         21   -1    0    0  501  503 -0.00000000000E+00 -0.00000000000E+00 -0.21627619053E+02  0.21627619053E+02  0.00000000000E+00 0.  1.
          6    1    1    2  501    0 -0.13071104535E+03 -0.76660871575E+02  0.10657704478E+04  0.10901435291E+04  0.17200000000E+03 0.  1.
         -6    1    1    2    0  502  0.13071104535E+03  0.76660871575E+02  0.13819854178E+04  0.14008675746E+04  0.17200000000E+03 0. -1.
</event>
<event>
 4    1  0.5640532E+000  0.2679903E+03  0.7818608E-02  0.1102435E+00
         21   -1    0    0  501  502  0.00000000000E+00  0.00000000000E+00  0.14450351107E+04  0.14450351107E+04  0.00000000000E+00 0. -1.
         21   -1    0    0  502  503 -0.00000000000E+00 -0.00000000000E+00 -0.13869700533E+03  0.13869700533E+03  0.00000000000E+00 0.  1.
          6    1    1    2  501    0  0.25302284002E+02  0.20394755399E+03  0.12874839746E+04  0.13150793874E+04  0.17200000000E+03 0. -1.
         -6    1    1    2    0  503 -0.25302284002E+02 -0.20394755399E+03  0.18854130780E+02  0.26865272863E+03  0.17200000000E+03 0.  1.
</event>
<event>
 4    1  0.5640532E+000  0.1806651E+03  0.7818608E-02  0.1167161E+00
         21   -1    0    0  501  502  0.00000000000E+00  0.00000000000E+00  0.10666315293E+03  0.10666315293E+03  0.00000000000E+00 0.  1.
         21   -1    0    0  502  503 -0.00000000000E+00 -0.00000000000E+00 -0.47906113650E+03  0.47906113650E+03  0.00000000000E+00 0.  1.
          6    1    1    2  501    0 -0.53545600943E+02  0.13738064705E+02 -0.10181238166E+02  0.18095171569E+03  0.17200000000E+03 0.  1.
         -6    1    1    2    0  503  0.53545600943E+02 -0.13738064705E+02 -0.36221674540E+03  0.40477257374E+03  0.17200000000E+03 0.  1.
</event>
<event>
 4    1  0.5640532E+000  0.3151409E+03  0.7818608E-02  0.1077908E+00
         21   -1    0    0  503  502  0.00000000000E+00  0.00000000000E+00  0.13645249541E+03  0.13645249541E+03  0.00000000000E+00 0.  1.
         21   -1    0    0  501  503 -0.00000000000E+00 -0.00000000000E+00 -0.80986816923E+03  0.80986816923E+03  0.00000000000E+00 0.  1.
          6    1    1    2  501    0  0.15519043146E+03 -0.21364859989E+03 -0.48730521005E+03  0.58032763332E+03  0.17200000000E+03 0.  1.
         -6    1    1    2    0  502 -0.15519043146E+03  0.21364859989E+03 -0.18611046377E+03  0.36599303132E+03  0.17200000000E+03 0.  1.
</event>
<event>
 4    1  0.5640532E+000  0.1976630E+03  0.7818608E-02  0.1151726E+00
         21   -1    0    0  501  502  0.00000000000E+00  0.00000000000E+00  0.38203637067E+03  0.38203637067E+03  0.00000000000E+00 0. -1.
         21   -1    0    0  502  503 -0.00000000000E+00 -0.00000000000E+00 -0.10819714887E+03  0.10819714887E+03  0.00000000000E+00 0.  1.
          6    1    1    2  501    0  0.56557673918E+01  0.97235222108E+02  0.19429235380E+03  0.27716456279E+03  0.17200000000E+03 0.  1.
         -6    1    1    2    0  503 -0.56557673918E+01 -0.97235222108E+02  0.79546867998E+02  0.21306895675E+03  0.17200000000E+03 0.  1.
</event>
<event>
 4    1  0.5640532E+000  0.2312522E+03  0.7818608E-02  0.1125761E+00
         21   -1    0    0  503  502  0.00000000000E+00  0.00000000000E+00  0.20051294150E+03  0.20051294150E+03  0.00000000000E+00 0.  1.
         21   -1    0    0  501  503 -0.00000000000E+00 -0.00000000000E+00 -0.60257890090E+03  0.60257890090E+03  0.00000000000E+00 0.  1.
          6    1    1    2  501    0 -0.15032796605E+03 -0.35987455898E+02 -0.50082292552E+03  0.55163502163E+03  0.17200000000E+03 0.  1.
         -6    1    1    2    0  502  0.15032796605E+03  0.35987455898E+02  0.98756966121E+02  0.25145682078E+03  0.17200000000E+03 0.  1.
</event>
<event>
 4    1  0.5640532E+000  0.2037712E+03  0.7818608E-02  0.1146596E+00
         21   -1    0    0  501  502  0.00000000000E+00  0.00000000000E+00  0.41611893722E+03  0.41611893722E+03  0.00000000000E+00 0.  1.
         21   -1    0    0  502  503 -0.00000000000E+00 -0.00000000000E+00 -0.14774740422E+03  0.14774740422E+03  0.00000000000E+00 0.  1.
          6    1    1    2  501    0  0.10678785969E+03  0.23130853946E+02  0.29481845986E+03  0.35838611533E+03  0.17200000000E+03 0.  1.
         -6    1    1    2    0  503 -0.10678785969E+03 -0.23130853946E+02 -0.26446926860E+02  0.20548022611E+03  0.17200000000E+03 0.  1.
</event>
<event>
 4    1  0.5640532E+000  0.2280812E+03  0.7818608E-02  0.1127998E+00
         21   -1    0    0  503  502  0.00000000000E+00  0.00000000000E+00  0.50833896558E+03  0.50833896558E+03  0.00000000000E+00 0.  1.
         21   -1    0    0  501  503 -0.00000000000E+00 -0.00000000000E+00 -0.13852811977E+03  0.13852811977E+03  0.00000000000E+00 0. -1.
          6    1    1    2  501    0  0.71104589598E+02  0.13183767372E+03  0.19584763486E+02  0.22892050549E+03  0.17200000000E+03 0. -1.
         -6    1    1    2    0  502 -0.71104589598E+02 -0.13183767372E+03  0.35022608232E+03  0.41794657986E+03  0.17200000000E+03 0.  1.
</event>
<event>
 4    1  0.5640532E+000  0.1831240E+03  0.7818608E-02  0.1164813E+00
         21   -1    0    0  503  502  0.00000000000E+00  0.00000000000E+00  0.34897760584E+02  0.34897760584E+02  0.00000000000E+00 0.  1.
         21   -1    0    0  501  503 -0.00000000000E+00 -0.00000000000E+00 -0.10102825161E+04  0.10102825161E+04  0.00000000000E+00 0.  1.
          6    1    1    2  501    0 -0.49607494607E+02 -0.38594183089E+02 -0.60319202184E+03  0.63037689496E+03  0.17200000000E+03 0.  1.
         -6    1    1    2    0  502  0.49607494607E+02  0.38594183089E+02 -0.37219273369E+03  0.41480338174E+03  0.17200000000E+03 0.  1.
</event>
<event>
 4    1  0.5640532E+000  0.1881269E+03  0.7818608E-02  0.1160162E+00
         21   -1    0    0  503  502  0.00000000000E+00  0.00000000000E+00  0.54073271903E+03  0.54073271903E+03  0.00000000000E+00 0. -1.
         21   -1    0    0  501  503 -0.00000000000E+00 -0.00000000000E+00 -0.93724641597E+02  0.93724641597E+02  0.00000000000E+00 0. -1.
          6    1    1    2  501    0  0.57202219372E+02  0.50355267699E+02  0.49270050356E+02  0.19447180965E+03  0.17200000000E+03 0. -1.
         -6    1    1    2    0  502 -0.57202219372E+02 -0.50355267699E+02  0.39773802708E+03  0.43998555098E+03  0.17200000000E+03 0. -1.
</event>
<event>
 4    1  0.5640532E+000  0.3153437E+03  0.7818608E-02  0.1077812E+00
         21   -1    0    0  501  502  0.00000000000E+00  0.00000000000E+00  0.14579789415E+04  0.14579789415E+04  0.00000000000E+00 0.  1.
         21   -1    0    0  502  503 -0.00000000000E+00 -0.00000000000E+00 -0.70612639644E+02  0.70612639644E+02  0.00000000000E+00 0.  1.
          6    1    1    2  501    0 -0.12440588809E+03  0.23319699885E+03  0.55255849381E+03  0.63620952079E+03  0.17200000000E+03 0.  1.
         -6    1    1    2    0  503  0.12440588809E+03 -0.23319699885E+03  0.83480780804E+03  0.89238206034E+03  0.17200000000E+03 0.  1.
</event>
<event>
 4    1  0.5640532E+000  0.2430883E+03  0.7818608E-02  0.1117752E+00
         21   -1    0    0  503  502  0.00000000000E+00  0.00000000000E+00  0.37148570650E+03  0.37148570650E+03  0.00000000000E+00 0.  1.
         21   -1    0    0  501  503 -0.00000000000E+00 -0.00000000000E+00 -0.16427705363E+03  0.16427705363E+03  0.00000000000E+00 0. -1.
          6    1    1    2  501    0  0.11961965033E+03  0.12328450528E+03  0.15130054256E+03  0.28632810579E+03  0.17200000000E+03 0.  1.
         -6    1    1    2    0  502 -0.11961965033E+03 -0.12328450528E+03  0.55908110316E+02  0.24943465434E+03  0.17200000000E+03 0.  1.
</event>
<event>
 4    1  0.5640532E+000  0.1789710E+03  0.7818608E-02  0.1168803E+00
         21   -1    0    0  501  502  0.00000000000E+00  0.00000000000E+00  0.84255132493E+03  0.84255132493E+03  0.00000000000E+00 0.  1.
         21   -1    0    0  502  503 -0.00000000000E+00 -0.00000000000E+00 -0.59576031141E+02  0.59576031141E+02  0.00000000000E+00 0.  1.
          6    1    1    2  501    0 -0.32329067103E+02  0.37435924211E+02  0.66283434638E+03  0.68657118185E+03  0.17200000000E+03 0.  1.
         -6    1    1    2    0  503  0.32329067103E+02 -0.37435924211E+02  0.12014094741E+03  0.21555617422E+03  0.17200000000E+03 0.  1.
</event>
<event>
 4    1  0.5640532E+000  0.3538248E+03  0.7818608E-02  0.1061056E+00
         21   -1    0    0  501  502  0.00000000000E+00  0.00000000000E+00  0.62698544827E+03  0.62698544827E+03  0.00000000000E+00 0.  1.
         21   -1    0    0  502  503 -0.00000000000E+00 -0.00000000000E+00 -0.39763725473E+03  0.39763725473E+03  0.00000000000E+00 0. -1.
          6    1    1    2  501    0  0.23856067666E+03  0.19671500626E+03  0.47615384138E+03  0.59322379487E+03  0.17200000000E+03 0. -1.
         -6    1    1    2    0  503 -0.23856067666E+03 -0.19671500626E+03 -0.24680564783E+03  0.43139890813E+03  0.17200000000E+03 0.  1.
</event>
<event>
 4    1  0.5640532E+000  0.2426698E+03  0.7818608E-02  0.1118027E+00
         21   -1    0    0  503  502  0.00000000000E+00  0.00000000000E+00  0.48806074381E+03  0.48806074381E+03  0.00000000000E+00 0.  1.
         21   -1    0    0  501  503 -0.00000000000E+00 -0.00000000000E+00 -0.12355236702E+03  0.12355236702E+03  0.00000000000E+00 0. -1.
          6    1    1    2  501    0  0.16693414328E+03 -0.37916262650E+02  0.13545217326E+03  0.27791355204E+03  0.17200000000E+03 0.  1.
         -6    1    1    2    0  502 -0.16693414328E+03  0.37916262650E+02  0.22905620352E+03  0.33369955879E+03  0.17200000000E+03 0. -1.
</event>
<event>
 4    1  0.5640532E+000  0.1723769E+03  0.7818608E-02  0.1175392E+00
         21   -1    0    0  503  502  0.00000000000E+00  0.00000000000E+00  0.60707073406E+03  0.60707073406E+03  0.00000000000E+00 0.  1.
         21   -1    0    0  501  503 -0.00000000000E+00 -0.00000000000E+00 -0.18906724893E+03  0.18906724893E+03  0.00000000000E+00 0.  1.
          6    1    1    2  501    0 -0.11253079970E+02  0.17792956055E+01 -0.13368863183E+03  0.21814318230E+03  0.17200000000E+03 0.  1.
         -6    1    1    2    0  502  0.11253079970E+02 -0.17792956055E+01  0.55169211697E+03  0.57799480069E+03  0.17200000000E+03 0.  1.
</event>
<event>
 4    1  0.5640532E+000  0.2206460E+03  0.7818608E-02  0.1133402E+00
         21   -1    0    0  503  502  0.00000000000E+00  0.00000000000E+00  0.21044096104E+03  0.21044096104E+03  0.00000000000E+00 0.  1.
         21   -1    0    0  501  503 -0.00000000000E+00 -0.00000000000E+00 -0.46317355029E+03  0.46317355029E+03  0.00000000000E+00 0. -1.
          6    1    1    2  501    0  0.10793842460E+03  0.86313190536E+02 -0.36464877107E+03  0.42620816113E+03  0.17200000000E+03 0.  1.
         -6    1    1    2    0  502 -0.10793842460E+03 -0.86313190536E+02  0.11191618182E+03  0.24740635020E+03  0.17200000000E+03 0. -1.
</event>
<event>
 4    1  0.5640532E+000  0.1767498E+03  0.7818608E-02  0.1170986E+00
         21   -1    0    0  503  502  0.00000000000E+00  0.00000000000E+00  0.33479595755E+03  0.33479595755E+03  0.00000000000E+00 0. -1.
         21   -1    0    0  501  503 -0.00000000000E+00 -0.00000000000E+00 -0.96263431535E+02  0.96263431535E+02  0.00000000000E+00 0.  1.
          6    1    1    2  501    0  0.95123477795E+01  0.39573015113E+02  0.81527586069E+02  0.19464648873E+03  0.17200000000E+03 0.  1.
         -6    1    1    2    0  502 -0.95123477795E+01 -0.39573015113E+02  0.15700493995E+03  0.23641290035E+03  0.17200000000E+03 0. -1.
</event>
<event>
 4    1  0.5640532E+000  0.2906569E+03  0.7818608E-02  0.1090007E+00
         21   -1    0    0  503  502  0.00000000000E+00  0.00000000000E+00  0.18187712063E+04  0.18187712063E+04  0.00000000000E+00 0. -1.
         21   -1    0    0  501  503 -0.00000000000E+00 -0.00000000000E+00 -0.61872169259E+03  0.61872169259E+03  0.00000000000E+00 0.  1.
          6    1    1    2  501    0 -0.23429994264E+03  0.98560373587E+00 -0.57208134255E+03  0.64168411000E+03  0.17200000000E+03 0.  1.
         -6    1    1    2    0  502  0.23429994264E+03 -0.98560373587E+00  0.17721308562E+04  0.17958087888E+04  0.17200000000E+03 0. -1.
</event>
<event>
 4    1  0.5640532E+000  0.2051648E+03  0.7818608E-02  0.1145453E+00
         21   -1    0    0  503  502  0.00000000000E+00  0.00000000000E+00  0.12395743417E+03  0.12395743417E+03  0.00000000000E+00 0.  1.
         21   -1    0    0  501  503 -0.00000000000E+00 -0.00000000000E+00 -0.49713429582E+03  0.49713429582E+03  0.00000000000E+00 0.  1.
          6    1    1    2  501    0 -0.11169289864E+03 -0.57691489676E+01 -0.11759305859E+02  0.20550150355E+03  0.17200000000E+03 0.  1.
         -6    1    1    2    0  502  0.11169289864E+03  0.57691489676E+01 -0.36141755578E+03  0.41559022644E+03  0.17200000000E+03 0.  1.
</event>
<event>
 4    1  0.5640532E+000  0.1952133E+03  0.7818608E-02  0.1153842E+00
         21   -1    0    0  501  502  0.00000000000E+00  0.00000000000E+00  0.12580143007E+03  0.12580143007E+03  0.00000000000E+00 0.  1.
         21   -1    0    0  502  503 -0.00000000000E+00 -0.00000000000E+00 -0.30367233436E+03  0.30367233436E+03  0.00000000000E+00 0.  1.
          6    1    1    2  501    0  0.75429251007E+02  0.53241514115E+02 -0.78273224113E+02  0.21032101261E+03  0.17200000000E+03 0. -1.
         -6    1    1    2    0  503 -0.75429251007E+02 -0.53241514115E+02 -0.99597680178E+02  0.21915275182E+03  0.17200000000E+03 0. -1.
</event>
<event>
 4    1  0.5640532E+000  0.1847630E+03  0.7818608E-02  0.1163271E+00
         21   -1    0    0  503  502  0.00000000000E+00  0.00000000000E+00  0.62995933556E+03  0.62995933556E+03  0.00000000000E+00 0.  1.
         21   -1    0    0  501  503 -0.00000000000E+00 -0.00000000000E+00 -0.11387768999E+03  0.11387768999E+03  0.00000000000E+00 0.  1.
          6    1    1    2  501    0  0.39222613812E+02  0.54908531243E+02 -0.11219054833E+02  0.18510328854E+03  0.17200000000E+03 0.  1.
         -6    1    1    2    0  502 -0.39222613812E+02 -0.54908531243E+02  0.52730070040E+03  0.55873373702E+03  0.17200000000E+03 0.  1.
</event>
<event>
 4    1  0.5640532E+000  0.2023124E+03  0.7818608E-02  0.1147803E+00
         21   -1    0    0  501  502  0.00000000000E+00  0.00000000000E+00  0.97808013376E+02  0.97808013376E+02  0.00000000000E+00 0.  1.
         21   -1    0    0  502  503 -0.00000000000E+00 -0.00000000000E+00 -0.68198597269E+03  0.68198597269E+03  0.00000000000E+00 0. -1.
          6    1    1    2  501    0  0.10076661101E+03 -0.34531306391E+02 -0.49729189369E+02  0.20833461856E+03  0.17200000000E+03 0.  1.
         -6    1    1    2    0  503 -0.10076661101E+03  0.34531306391E+02 -0.53444876994E+03  0.57145936750E+03  0.17200000000E+03 0. -1.
</event>
<event>
 4    1  0.5640532E+000  0.3116877E+03  0.7818608E-02  0.1079540E+00
         21   -1    0    0  501  502  0.00000000000E+00  0.00000000000E+00  0.24906837679E+03  0.24906837679E+03  0.00000000000E+00 0.  1.
         21   -1    0    0  502  503 -0.00000000000E+00 -0.00000000000E+00 -0.45100769454E+03  0.45100769454E+03  0.00000000000E+00 0. -1.
          6    1    1    2  501    0 -0.15509584435E+03  0.20859173392E+03  0.27717711575E+02  0.31291772710E+03  0.17200000000E+03 0.  1.
         -6    1    1    2    0  503  0.15509584435E+03 -0.20859173392E+03 -0.22965702932E+03  0.38715834424E+03  0.17200000000E+03 0. -1.
</event>
<event>
 4    1  0.5640532E+000  0.1843274E+03  0.7818608E-02  0.1163679E+00
         21   -1    0    0  501  502  0.00000000000E+00  0.00000000000E+00  0.63682045246E+02  0.63682045246E+02  0.00000000000E+00 0.  1.
         21   -1    0    0  502  503 -0.00000000000E+00 -0.00000000000E+00 -0.53469801808E+03  0.53469801808E+03  0.00000000000E+00 0.  1.
          6    1    1    2  501    0 -0.31311822695E+02  0.58413729515E+02 -0.24946214262E+03  0.31017407151E+03  0.17200000000E+03 0.  1.
         -6    1    1    2    0  503  0.31311822695E+02 -0.58413729515E+02 -0.22155383022E+03  0.28820599182E+03  0.17200000000E+03 0.  1.
</event>
<event>
 4    1  0.5640532E+000  0.2346345E+03  0.7818608E-02  0.1123420E+00
         21   -1    0    0  501  502  0.00000000000E+00  0.00000000000E+00  0.52570729841E+02  0.52570729841E+02  0.00000000000E+00 0. -1.
         21   -1    0    0  502  503 -0.00000000000E+00 -0.00000000000E+00 -0.18151376600E+04  0.18151376600E+04  0.00000000000E+00 0. -1.
          6    1    1    2  501    0 -0.85898234051E+02  0.13450216726E+03 -0.27387556658E+03  0.36063993897E+03  0.17200000000E+03 0. -1.
         -6    1    1    2    0  503  0.85898234051E+02 -0.13450216726E+03 -0.14886913635E+04  0.15070684508E+04  0.17200000000E+03 0. -1.
</event>
<event>
 4    1  0.5640532E+000  0.2572604E+03  0.7818608E-02  0.1108800E+00
         21   -1    0    0  503  502  0.00000000000E+00  0.00000000000E+00  0.84685085808E+03  0.84685085808E+03  0.00000000000E+00 0. -1.
         21   -1    0    0  501  503 -0.00000000000E+00 -0.00000000000E+00 -0.83854452250E+02  0.83854452250E+02  0.00000000000E+00 0.  1.
          6    1    1    2  501    0 -0.96730114954E+02 -0.16505209458E+03  0.26014310658E+03  0.36586520054E+03  0.17200000000E+03 0.  1.
         -6    1    1    2    0  502  0.96730114954E+02  0.16505209458E+03  0.50285329925E+03  0.56484010979E+03  0.17200000000E+03 0. -1.
</event>
<event>
 4    1  0.5640532E+000  0.2719982E+03  0.7818608E-02  0.1100141E+00
         21   -1    0    0  503  502  0.00000000000E+00  0.00000000000E+00  0.42875119657E+03  0.42875119657E+03  0.00000000000E+00 0.  1.
         21   -1    0    0  501  503 -0.00000000000E+00 -0.00000000000E+00 -0.23890087452E+03  0.23890087452E+03  0.00000000000E+00 0.  1.
          6    1    1    2  501    0 -0.14417735378E+03 -0.15366162818E+03 -0.80996573438E+02  0.28380177982E+03  0.17200000000E+03 0.  1.
         -6    1    1    2    0  502  0.14417735378E+03  0.15366162818E+03  0.27084689549E+03  0.38385029128E+03  0.17200000000E+03 0.  1.
</event>
<event>
 4    1  0.5640532E+000  0.2269262E+03  0.7818608E-02  0.1128822E+00
         21   -1    0    0  503  502  0.00000000000E+00  0.00000000000E+00  0.19804591225E+03  0.19804591225E+03  0.00000000000E+00 0.  1.
         21   -1    0    0  501  503 -0.00000000000E+00 -0.00000000000E+00 -0.26717495755E+03  0.26717495755E+03  0.00000000000E+00 0. -1.
          6    1    1    2  501    0 -0.23965706696E+02  0.14607232083E+03 -0.72635954991E+02  0.23826762258E+03  0.17200000000E+03 0. -1.
         -6    1    1    2    0  502  0.23965706696E+02 -0.14607232083E+03  0.35069096976E+01  0.22695324722E+03  0.17200000000E+03 0.  1.
</event>
<event>
 4    1  0.5640532E+000  0.2781148E+03  0.7818608E-02  0.1096723E+00
         21   -1    0    0  501  502  0.00000000000E+00  0.00000000000E+00  0.14946360633E+03  0.14946360633E+03  0.00000000000E+00 0. -1.
         21   -1    0    0  502  503 -0.00000000000E+00 -0.00000000000E+00 -0.52149725016E+03  0.52149725016E+03  0.00000000000E+00 0.  1.
          6    1    1    2  501    0 -0.20191512433E+03  0.83630942587E+02 -0.15665632383E+03  0.31920065129E+03  0.17200000000E+03 0. -1.
         -6    1    1    2    0  503  0.20191512433E+03 -0.83630942587E+02 -0.21537732000E+03  0.35176020520E+03  0.17200000000E+03 0.  1.
</event>
<event>
 4    1  0.5640532E+000  0.2148740E+03  0.7818608E-02  0.1137763E+00
         21   -1    0    0  503  502  0.00000000000E+00  0.00000000000E+00  0.13541866435E+03  0.13541866435E+03  0.00000000000E+00 0.  1.
         21   -1    0    0  501  503 -0.00000000000E+00 -0.00000000000E+00 -0.98018638171E+03  0.98018638171E+03  0.00000000000E+00 0.  1.
          6    1    1    2  501    0  0.72638326586E+02  0.10635080430E+03 -0.87284498644E+03  0.89890443898E+03  0.17200000000E+03 0.  1.
         -6    1    1    2    0  502 -0.72638326586E+02 -0.10635080430E+03  0.28077269082E+02  0.21670060707E+03  0.17200000000E+03 0.  1.
</event>
<event>
 4    1  0.5640532E+000  0.1903164E+03  0.7818608E-02  0.1158176E+00
         21   -1    0    0  501  502  0.00000000000E+00  0.00000000000E+00  0.32713643375E+02  0.32713643375E+02  0.00000000000E+00 0. -1.
         21   -1    0    0  502  503 -0.00000000000E+00 -0.00000000000E+00 -0.12080498678E+04  0.12080498678E+04  0.00000000000E+00 0. -1.
          6    1    1    2  501    0  0.68614179881E+02 -0.43913857348E+02 -0.40841434233E+03  0.45058030091E+03  0.17200000000E+03 0. -1.
         -6    1    1    2    0  503 -0.68614179881E+02  0.43913857348E+02 -0.76692188213E+03  0.79018321030E+03  0.17200000000E+03 0. -1.
</event>
<event>
 4    1  0.5640532E+000  0.2772258E+03  0.7818608E-02  0.1097214E+00
         21   -1    0    0  501  502  0.00000000000E+00  0.00000000000E+00  0.21480099567E+03  0.21480099567E+03  0.00000000000E+00 0. -1.
         21   -1    0    0  502  503 -0.00000000000E+00 -0.00000000000E+00 -0.41091712113E+03  0.41091712113E+03  0.00000000000E+00 0. -1.
          6    1    1    2  501    0  0.14916020490E+03 -0.15818148527E+03  0.14433571977E+02  0.27760129144E+03  0.17200000000E+03 0. -1.
         -6    1    1    2    0  503 -0.14916020490E+03  0.15818148527E+03 -0.21054969744E+03  0.34811682536E+03  0.17200000000E+03 0. -1.
</event>
<event>
 4    1  0.5640532E+000  0.2508901E+03  0.7818608E-02  0.1112744E+00
         21   -1    0    0  501  502  0.00000000000E+00  0.00000000000E+00  0.14846698153E+03  0.14846698153E+03  0.00000000000E+00 0. -1.
         21   -1    0    0  502  503 -0.00000000000E+00 -0.00000000000E+00 -0.68005441493E+03  0.68005441493E+03  0.00000000000E+00 0. -1.
          6    1    1    2  501    0 -0.15183454240E+03  0.10152879651E+03 -0.11584154008E+02  0.25115735587E+03  0.17200000000E+03 0. -1.
         -6    1    1    2    0  503  0.15183454240E+03 -0.10152879651E+03 -0.52000327939E+03  0.57736404058E+03  0.17200000000E+03 0. -1.
</event>
<event>
 4    1  0.5640532E+000  0.1823947E+03  0.7818608E-02  0.1165505E+00
         21   -1    0    0  503  502  0.00000000000E+00  0.00000000000E+00  0.82799584847E+02  0.82799584847E+02  0.00000000000E+00 0. -1.
         21   -1    0    0  501  503 -0.00000000000E+00 -0.00000000000E+00 -0.49582625720E+03  0.49582625720E+03  0.00000000000E+00 0.  1.
          6    1    1    2  501    0  0.12226331327E+02 -0.59450246976E+02 -0.33250945155E+03  0.37924972038E+03  0.17200000000E+03 0. -1.
         -6    1    1    2    0  502 -0.12226331327E+02  0.59450246976E+02 -0.80517220807E+02  0.19937612166E+03  0.17200000000E+03 0. -1.
</event>
<event>
 4    1  0.5640532E+000  0.1852999E+03  0.7818608E-02  0.1162770E+00
         21   -1    0    0  503  502  0.00000000000E+00  0.00000000000E+00  0.43106768135E+02  0.43106768135E+02  0.00000000000E+00 0. -1.
         21   -1    0    0  501  503 -0.00000000000E+00 -0.00000000000E+00 -0.80367659279E+03  0.80367659279E+03  0.00000000000E+00 0. -1.
          6    1    1    2  501    0  0.48772620480E+02  0.48716373279E+02 -0.42019626033E+03  0.45923953524E+03  0.17200000000E+03 0. -1.
         -6    1    1    2    0  502 -0.48772620480E+02 -0.48716373279E+02 -0.34037356433E+03  0.38754382568E+03  0.17200000000E+03 0. -1.
</event>
<event>
 4    1  0.5640532E+000  0.2720429E+03  0.7818608E-02  0.1100116E+00
         21   -1    0    0  503  502  0.00000000000E+00  0.00000000000E+00  0.10905309945E+03  0.10905309945E+03  0.00000000000E+00 0. -1.
         21   -1    0    0  501  503 -0.00000000000E+00 -0.00000000000E+00 -0.16693790270E+04  0.16693790270E+04  0.00000000000E+00 0.  1.
          6    1    1    2  501    0 -0.15980424557E+03 -0.13742606547E+03 -0.14651942601E+04  0.14902353976E+04  0.17200000000E+03 0.  1.
         -6    1    1    2    0  502  0.15980424557E+03  0.13742606547E+03 -0.95131667422E+02  0.28819672885E+03  0.17200000000E+03 0. -1.
</event>
<event>
 4    1  0.5640532E+000  0.2014111E+03  0.7818608E-02  0.1148554E+00
         21   -1    0    0  501  502  0.00000000000E+00  0.00000000000E+00  0.62560975552E+03  0.62560975552E+03  0.00000000000E+00 0.  1.
         21   -1    0    0  502  503 -0.00000000000E+00 -0.00000000000E+00 -0.83635514783E+02  0.83635514783E+02  0.00000000000E+00 0. -1.
          6    1    1    2  501    0 -0.66940243388E+02  0.80631529975E+02  0.43908531437E+03  0.48307592892E+03  0.17200000000E+03 0.  1.
         -6    1    1    2    0  503  0.66940243388E+02 -0.80631529975E+02  0.10288892637E+03  0.22616934138E+03  0.17200000000E+03 0. -1.
</event>
<event>
 4    1  0.5640532E+000  0.1987598E+03  0.7818608E-02  0.1150790E+00
         21   -1    0    0  503  502  0.00000000000E+00  0.00000000000E+00  0.74321775666E+02  0.74321775666E+02  0.00000000000E+00 0. -1.
         21   -1    0    0  501  503 -0.00000000000E+00 -0.00000000000E+00 -0.68434053165E+03  0.68434053165E+03  0.00000000000E+00 0. -1.
          6    1    1    2  501    0 -0.74329989850E+02  0.66306297752E+02 -0.48424969923E+03  0.52345319153E+03  0.17200000000E+03 0. -1.
         -6    1    1    2    0  502  0.74329989850E+02 -0.66306297752E+02 -0.12576905675E+03  0.23520911578E+03  0.17200000000E+03 0. -1.
</event>
<event>
 4    1  0.5640532E+000  0.2078209E+03  0.7818608E-02  0.1143303E+00
         21   -1    0    0  503  502  0.00000000000E+00  0.00000000000E+00  0.17581640949E+03  0.17581640949E+03  0.00000000000E+00 0.  1.
         21   -1    0    0  501  503 -0.00000000000E+00 -0.00000000000E+00 -0.26151103217E+03  0.26151103217E+03  0.00000000000E+00 0. -1.
          6    1    1    2  501    0  0.29520704669E+02 -0.11284527265E+03 -0.96696579570E+02  0.22921552317E+03  0.17200000000E+03 0.  1.
         -6    1    1    2    0  502 -0.29520704669E+02  0.11284527265E+03  0.11001956885E+02  0.20811191849E+03  0.17200000000E+03 0. -1.
</event>
<event>
 4    1  0.5640532E+000  0.2172466E+03  0.7818608E-02  0.1135953E+00
         21   -1    0    0  503  502  0.00000000000E+00  0.00000000000E+00  0.25439285168E+03  0.25439285168E+03  0.00000000000E+00 0.  1.
         21   -1    0    0  501  503 -0.00000000000E+00 -0.00000000000E+00 -0.19372465814E+03  0.19372465814E+03  0.00000000000E+00 0. -1.
          6    1    1    2  501    0  0.34507556753E+02 -0.12814573112E+03 -0.15763818094E+02  0.21781780882E+03  0.17200000000E+03 0.  1.
         -6    1    1    2    0  502 -0.34507556753E+02  0.12814573112E+03  0.76432011635E+02  0.23029970100E+03  0.17200000000E+03 0. -1.
</event>
<event>
 4    1  0.5640532E+000  0.2443159E+03  0.7818608E-02  0.1116951E+00
         21   -1    0    0  501  502  0.00000000000E+00  0.00000000000E+00  0.53025122593E+03  0.53025122593E+03  0.00000000000E+00 0. -1.
         21   -1    0    0  502  503 -0.00000000000E+00 -0.00000000000E+00 -0.15492472239E+03  0.15492472239E+03  0.00000000000E+00 0.  1.
          6    1    1    2  501    0  0.10393125738E+03 -0.13894088744E+03  0.36679133400E+03  0.44071097009E+03  0.17200000000E+03 0. -1.
         -6    1    1    2    0  503 -0.10393125738E+03  0.13894088744E+03  0.85351695498E+01  0.24446497823E+03  0.17200000000E+03 0.  1.
</event>
<event>
 4    1  0.5640532E+000  0.2072731E+03  0.7818608E-02  0.1143744E+00
         21   -1    0    0  503  502  0.00000000000E+00  0.00000000000E+00  0.79337556066E+03  0.79337556066E+03  0.00000000000E+00 0.  1.
         21   -1    0    0  501  503 -0.00000000000E+00 -0.00000000000E+00 -0.21083701502E+03  0.21083701502E+03  0.00000000000E+00 0.  1.
          6    1    1    2  501    0  0.16314858560E+02 -0.11450751156E+03 -0.14158054094E+03  0.25101233911E+03  0.17200000000E+03 0.  1.
         -6    1    1    2    0  502 -0.16314858560E+02  0.11450751156E+03  0.72411908658E+03  0.75320023657E+03  0.17200000000E+03 0.  1.
</event>
<event>
 4    1  0.5640532E+000  0.2349208E+03  0.7818608E-02  0.1123223E+00
         21   -1    0    0  503  502  0.00000000000E+00  0.00000000000E+00  0.13914116483E+03  0.13914116483E+03  0.00000000000E+00 0.  1.
         21   -1    0    0  501  503 -0.00000000000E+00 -0.00000000000E+00 -0.40790681379E+03  0.40790681379E+03  0.00000000000E+00 0.  1.
          6    1    1    2  501    0  0.50671595599E+02  0.15177678272E+03 -0.88907623170E+02  0.25118194169E+03  0.17200000000E+03 0.  1.
         -6    1    1    2    0  502 -0.50671595599E+02 -0.15177678272E+03 -0.17985802579E+03  0.29586603694E+03  0.17200000000E+03 0.  1.
</event>
<event>
 4    1  0.5640532E+000  0.1741962E+03  0.7818608E-02  0.1173541E+00
         21   -1    0    0  503  502  0.00000000000E+00  0.00000000000E+00  0.26916772854E+04  0.26916772854E+04  0.00000000000E+00 0. -1.
         21   -1    0    0  501  503 -0.00000000000E+00 -0.00000000000E+00 -0.34829943782E+02  0.34829943782E+02  0.00000000000E+00 0. -1.
          6    1    1    2  501    0 -0.19173020487E+02  0.19816529728E+02  0.20729296960E+03  0.27076682738E+03  0.17200000000E+03 0. -1.
         -6    1    1    2    0  502  0.19173020487E+02 -0.19816529728E+02  0.24495543720E+04  0.24557404018E+04  0.17200000000E+03 0. -1.
</event>
<event>
 4    1  0.5640532E+000  0.2012021E+03  0.7818608E-02  0.1148729E+00
         21   -1    0    0  501  502  0.00000000000E+00  0.00000000000E+00  0.19350870108E+03  0.19350870108E+03  0.00000000000E+00 0.  1.
         21   -1    0    0  502  503 -0.00000000000E+00 -0.00000000000E+00 -0.23789667863E+03  0.23789667863E+03  0.00000000000E+00 0. -1.
          6    1    1    2  501    0 -0.15367682820E+02 -0.10325752837E+03  0.52720689819E+02  0.20799460083E+03  0.17200000000E+03 0. -1.
         -6    1    1    2    0  503  0.15367682820E+02  0.10325752837E+03 -0.97108667372E+02  0.22341077888E+03  0.17200000000E+03 0.  1.
</event>
<event>
 4    1  0.5640532E+000  0.2182838E+03  0.7818608E-02  0.1135169E+00
         21   -1    0    0  503  502  0.00000000000E+00  0.00000000000E+00  0.20248547382E+03  0.20248547382E+03  0.00000000000E+00 0. -1.
         21   -1    0    0  501  503 -0.00000000000E+00 -0.00000000000E+00 -0.25728510915E+03  0.25728510915E+03  0.00000000000E+00 0. -1.
          6    1    1    2  501    0 -0.13262173729E+03  0.21801019632E+02 -0.94577169014E+02  0.23789209856E+03  0.17200000000E+03 0. -1.
         -6    1    1    2    0  502  0.13262173729E+03 -0.21801019632E+02  0.39777533687E+02  0.22187848441E+03  0.17200000000E+03 0. -1.
</event>
<event>
 4    1  0.5640532E+000  0.2012360E+03  0.7818608E-02  0.1148700E+00
         21   -1    0    0  501  502  0.00000000000E+00  0.00000000000E+00  0.22736991767E+03  0.22736991767E+03  0.00000000000E+00 0.  1.
         21   -1    0    0  502  503 -0.00000000000E+00 -0.00000000000E+00 -0.18556222624E+03  0.18556222624E+03  0.00000000000E+00 0. -1.
          6    1    1    2  501    0 -0.69216965231E+02  0.78236497637E+02  0.62290904442E+02  0.21065634245E+03  0.17200000000E+03 0.  1.
         -6    1    1    2    0  503  0.69216965231E+02 -0.78236497637E+02 -0.20483213010E+02  0.20227580145E+03  0.17200000000E+03 0.  1.
</event>
<event>
 4    1  0.5640532E+000  0.2093189E+03  0.7818608E-02  0.1142107E+00
         21   -1    0    0  501  502  0.00000000000E+00  0.00000000000E+00  0.31445467241E+02  0.31445467241E+02  0.00000000000E+00 0. -1.
         21   -1    0    0  502  503 -0.00000000000E+00 -0.00000000000E+00 -0.16655270005E+04  0.16655270005E+04  0.00000000000E+00 0. -1.
          6    1    1    2  501    0 -0.81879420729E+02 -0.86753353511E+02 -0.47403716554E+03  0.51819457561E+03  0.17200000000E+03 0. -1.
         -6    1    1    2    0  503  0.81879420729E+02  0.86753353511E+02 -0.11600443677E+04  0.11787778921E+04  0.17200000000E+03 0. -1.
</event>
<event>
 4    1  0.5640532E+000  0.2437896E+03  0.7818608E-02  0.1117294E+00
         21   -1    0    0  501  502  0.00000000000E+00  0.00000000000E+00  0.10318570030E+03  0.10318570030E+03  0.00000000000E+00 0. -1.
         21   -1    0    0  502  503 -0.00000000000E+00 -0.00000000000E+00 -0.11455052623E+04  0.11455052623E+04  0.00000000000E+00 0.  1.
          6    1    1    2  501    0  0.17269571560E+03 -0.50542950730E+01 -0.80928155419E+02  0.25687102293E+03  0.17200000000E+03 0. -1.
         -6    1    1    2    0  503 -0.17269571560E+03  0.50542950730E+01 -0.96139140662E+03  0.99181993971E+03  0.17200000000E+03 0.  1.
</event>
<event>
 4    1  0.5640532E+000  0.1745815E+03  0.7818608E-02  0.1173153E+00
         21   -1    0    0  503  502  0.00000000000E+00  0.00000000000E+00  0.34180932791E+02  0.34180932791E+02  0.00000000000E+00 0. -1.
         21   -1    0    0  501  503 -0.00000000000E+00 -0.00000000000E+00 -0.90350517316E+03  0.90350517316E+03  0.00000000000E+00 0. -1.
          6    1    1    2  501    0  0.22143423400E+02  0.20108590724E+02 -0.48828387119E+03  0.51855551823E+03  0.17200000000E+03 0. -1.
         -6    1    1    2    0  502 -0.22143423400E+02 -0.20108590724E+02 -0.38104036919E+03  0.41913058773E+03  0.17200000000E+03 0. -1.
</event>
<event>
 4    1  0.5640532E+000  0.1785101E+03  0.7818608E-02  0.1169253E+00
         21   -1    0    0  501  502  0.00000000000E+00  0.00000000000E+00  0.40003662625E+03  0.40003662625E+03  0.00000000000E+00 0. -1.
         21   -1    0    0  502  503 -0.00000000000E+00 -0.00000000000E+00 -0.10391087863E+03  0.10391087863E+03  0.00000000000E+00 0.  1.
          6    1    1    2  501    0 -0.58306722894E+00  0.47765051037E+02  0.26328660727E+02  0.18044123266E+03  0.17200000000E+03 0.  1.
         -6    1    1    2    0  503  0.58306722894E+00 -0.47765051037E+02  0.26979708690E+03  0.32350627222E+03  0.17200000000E+03 0. -1.
</event>
<event>
 4    1  0.5640532E+000  0.2528204E+03  0.7818608E-02  0.1111535E+00
         21   -1    0    0  503  502  0.00000000000E+00  0.00000000000E+00  0.76187517976E+03  0.76187517976E+03  0.00000000000E+00 0.  1.
         21   -1    0    0  501  503 -0.00000000000E+00 -0.00000000000E+00 -0.17160201788E+03  0.17160201788E+03  0.00000000000E+00 0. -1.
          6    1    1    2  501    0  0.11337160057E+03 -0.14656414977E+03 -0.38541422152E+02  0.25574129708E+03  0.17200000000E+03 0. -1.
         -6    1    1    2    0  502 -0.11337160057E+03  0.14656414977E+03  0.62881458403E+03  0.67773590056E+03  0.17200000000E+03 0.  1.
</event>
<event>
 4    1  0.5640532E+000  0.2229093E+03  0.7818608E-02  0.1131732E+00
         21   -1    0    0  503  502  0.00000000000E+00  0.00000000000E+00  0.88682074673E+02  0.88682074673E+02  0.00000000000E+00 0. -1.
         21   -1    0    0  501  503 -0.00000000000E+00 -0.00000000000E+00 -0.56933887267E+03  0.56933887267E+03  0.00000000000E+00 0. -1.
          6    1    1    2  501    0 -0.13582188763E+03  0.40705655098E+02 -0.28178463003E+03  0.35929251765E+03  0.17200000000E+03 0. -1.
         -6    1    1    2    0  502  0.13582188763E+03 -0.40705655098E+02 -0.19887216796E+03  0.29872842969E+03  0.17200000000E+03 0. -1.
</event>
<event>
 4    1  0.5640532E+000  0.1865402E+03  0.7818608E-02  0.1161619E+00
         21   -1    0    0  501  502  0.00000000000E+00  0.00000000000E+00  0.40801465442E+02  0.40801465442E+02  0.00000000000E+00 0. -1.
         21   -1    0    0  502  503 -0.00000000000E+00 -0.00000000000E+00 -0.85606297826E+03  0.85606297826E+03  0.00000000000E+00 0. -1.
          6    1    1    2  501    0 -0.31386080767E+02 -0.65024364023E+02 -0.43513212083E+03  0.47343132191E+03  0.17200000000E+03 0. -1.
         -6    1    1    2    0  503  0.31386080767E+02  0.65024364023E+02 -0.38012939199E+03  0.42343312180E+03  0.17200000000E+03 0. -1.
</event>
<event>
 4    1  0.5640532E+000  0.1850262E+03  0.7818608E-02  0.1163025E+00
         21   -1    0    0  501  502  0.00000000000E+00  0.00000000000E+00  0.11436508419E+04  0.11436508419E+04  0.00000000000E+00 0.  1.
         21   -1    0    0  502  503 -0.00000000000E+00 -0.00000000000E+00 -0.30429153847E+02  0.30429153847E+02  0.00000000000E+00 0.  1.
          6    1    1    2  501    0  0.52748586520E+01  0.67991734614E+02  0.63145212477E+03  0.65800188904E+03  0.17200000000E+03 0.  1.
         -6    1    1    2    0  503 -0.52748586520E+01 -0.67991734614E+02  0.48176956324E+03  0.51607810666E+03  0.17200000000E+03 0.  1.
</event>
<event>
 4    1  0.5640532E+000  0.2022933E+03  0.7818608E-02  0.1147818E+00
         21   -1    0    0  503  502  0.00000000000E+00  0.00000000000E+00  0.31520974510E+02  0.31520974510E+02  0.00000000000E+00 0.  1.
         21   -1    0    0  501  503 -0.00000000000E+00 -0.00000000000E+00 -0.13105003472E+04  0.13105003472E+04  0.00000000000E+00 0. -1.
          6    1    1    2  501    0  0.35518898633E+01 -0.10642342828E+03 -0.70432744400E+03  0.73280264081E+03  0.17200000000E+03 0. -1.
         -6    1    1    2    0  502 -0.35518898633E+01  0.10642342828E+03 -0.57465192870E+03  0.60921868091E+03  0.17200000000E+03 0.  1.
</event>
<event>
 4    1  0.5640532E+000  0.2040364E+03  0.7818608E-02  0.1146378E+00
         21   -1    0    0  503  502  0.00000000000E+00  0.00000000000E+00  0.44408814788E+03  0.44408814788E+03  0.00000000000E+00 0.  1.
         21   -1    0    0  501  503 -0.00000000000E+00 -0.00000000000E+00 -0.13676228659E+03  0.13676228659E+03  0.00000000000E+00 0. -1.
          6    1    1    2  501    0  0.44341185076E+02 -0.10040270421E+03 -0.92197554886E+01  0.20424457789E+03  0.17200000000E+03 0. -1.
         -6    1    1    2    0  502 -0.44341185076E+02  0.10040270421E+03  0.31654561678E+03  0.37660585658E+03  0.17200000000E+03 0.  1.
</event>
<event>
 4    1  0.5640532E+000  0.2866299E+03  0.7818608E-02  0.1092122E+00
         21   -1    0    0  501  502  0.00000000000E+00  0.00000000000E+00  0.14135614833E+04  0.14135614833E+04  0.00000000000E+00 0.  1.
         21   -1    0    0  502  503 -0.00000000000E+00 -0.00000000000E+00 -0.83261402064E+02  0.83261402064E+02  0.00000000000E+00 0. -1.
          6    1    1    2  501    0  0.22695746762E+03 -0.32603561702E+02  0.10764042025E+04  0.11139132334E+04  0.17200000000E+03 0.  1.
         -6    1    1    2    0  503 -0.22695746762E+03  0.32603561702E+02  0.25389587874E+03  0.38290965199E+03  0.17200000000E+03 0. -1.
</event>
<event>
 4    1  0.5640532E+000  0.2104158E+03  0.7818608E-02  0.1141237E+00
         21   -1    0    0  503  502  0.00000000000E+00  0.00000000000E+00  0.65412761909E+02  0.65412761909E+02  0.00000000000E+00 0. -1.
         21   -1    0    0  501  503 -0.00000000000E+00 -0.00000000000E+00 -0.69581040618E+03  0.69581040618E+03  0.00000000000E+00 0. -1.
          6    1    1    2  501    0 -0.10714138276E+03 -0.56670534270E+02 -0.37802285142E+03  0.43263853452E+03  0.17200000000E+03 0. -1.
         -6    1    1    2    0  502  0.10714138276E+03  0.56670534270E+02 -0.25237479285E+03  0.32858463357E+03  0.17200000000E+03 0. -1.
</event>
<event>
 4    1  0.5640532E+000  0.2240636E+03  0.7818608E-02  0.1130889E+00
         21   -1    0    0  501  502  0.00000000000E+00  0.00000000000E+00  0.90421190847E+02  0.90421190847E+02  0.00000000000E+00 0. -1.
         21   -1    0    0  502  503 -0.00000000000E+00 -0.00000000000E+00 -0.73337849992E+03  0.73337849992E+03  0.00000000000E+00 0.  1.
          6    1    1    2  501    0  0.67339358085E+02  0.12683029709E+03 -0.11846781590E+03  0.25345440775E+03  0.17200000000E+03 0. -1.
         -6    1    1    2    0  503 -0.67339358085E+02 -0.12683029709E+03 -0.52448949317E+03  0.57034528301E+03  0.17200000000E+03 0.  1.
</event>
<event>
 4    1  0.5640532E+000  0.1797310E+03  0.7818608E-02  0.1168064E+00
         21   -1    0    0  501  502  0.00000000000E+00  0.00000000000E+00  0.10080896681E+03  0.10080896681E+03  0.00000000000E+00 0.  1.
         21   -1    0    0  502  503 -0.00000000000E+00 -0.00000000000E+00 -0.35321180567E+03  0.35321180567E+03  0.00000000000E+00 0.  1.
          6    1    1    2  501    0 -0.48311280420E+02 -0.19628151877E+02 -0.19534901281E+03  0.26545146632E+03  0.17200000000E+03 0.  1.
         -6    1    1    2    0  503  0.48311280420E+02  0.19628151877E+02 -0.57053826037E+02  0.18856930616E+03  0.17200000000E+03 0.  1.
</event>
<event>
 4    1  0.5640532E+000  0.1855031E+03  0.7818608E-02  0.1162581E+00
         21   -1    0    0  501  502  0.00000000000E+00  0.00000000000E+00  0.88527927165E+02  0.88527927165E+02  0.00000000000E+00 0. -1.
         21   -1    0    0  502  503 -0.00000000000E+00 -0.00000000000E+00 -0.43019648447E+03  0.43019648447E+03  0.00000000000E+00 0. -1.
          6    1    1    2  501    0 -0.31819520209E+02 -0.61764921211E+02 -0.90288180636E+02  0.20630885323E+03  0.17200000000E+03 0. -1.
         -6    1    1    2    0  503  0.31819520209E+02  0.61764921211E+02 -0.25138037667E+03  0.31241555840E+03  0.17200000000E+03 0. -1.
</event>
<event>
 4    1  0.5640532E+000  0.3260691E+03  0.7818608E-02  0.1072890E+00
         21   -1    0    0  501  502  0.00000000000E+00  0.00000000000E+00  0.65628587547E+03  0.65628587547E+03  0.00000000000E+00 0. -1.
         21   -1    0    0  502  503 -0.00000000000E+00 -0.00000000000E+00 -0.24488988614E+03  0.24488988614E+03  0.00000000000E+00 0. -1.
          6    1    1    2  501    0  0.18637501176E+03  0.20494247140E+03 -0.56442356522E+02  0.33091811858E+03  0.17200000000E+03 0. -1.
         -6    1    1    2    0  503 -0.18637501176E+03 -0.20494247140E+03  0.46783834585E+03  0.57025764303E+03  0.17200000000E+03 0. -1.
</event>
<event>
 4    1  0.5640532E+000  0.3624120E+03  0.7818608E-02  0.1057633E+00
         21   -1    0    0  503  502  0.00000000000E+00  0.00000000000E+00  0.73930779440E+03  0.73930779440E+03  0.00000000000E+00 0.  1.
         21   -1    0    0  501  503 -0.00000000000E+00 -0.00000000000E+00 -0.25507691898E+03  0.25507691898E+03  0.00000000000E+00 0. -1.
          6    1    1    2  501    0  0.31214948065E+03  0.65735758637E+02 -0.31800900449E+02  0.36380459797E+03  0.17200000000E+03 0.  1.
         -6    1    1    2    0  502 -0.31214948065E+03 -0.65735758637E+02  0.51603177587E+03  0.63058011541E+03  0.17200000000E+03 0. -1.
</event>
<event>
 4    1  0.5640532E+000  0.2717086E+03  0.7818608E-02  0.1100306E+00
         21   -1    0    0  503  502  0.00000000000E+00  0.00000000000E+00  0.70334837493E+02  0.70334837493E+02  0.00000000000E+00 0.  1.
         21   -1    0    0  501  503 -0.00000000000E+00 -0.00000000000E+00 -0.11366097522E+04  0.11366097522E+04  0.00000000000E+00 0. -1.
          6    1    1    2  501    0  0.18597226376E+03 -0.98264446806E+02 -0.70007718641E+03  0.75095515933E+03  0.17200000000E+03 0. -1.
         -6    1    1    2    0  502 -0.18597226376E+03  0.98264446806E+02 -0.36619772832E+03  0.45598943039E+03  0.17200000000E+03 0.  1.
</event>
<event>
 4    1  0.5640532E+000  0.2282377E+03  0.7818608E-02  0.1127886E+00
         21   -1    0    0  501  502  0.00000000000E+00  0.00000000000E+00  0.18042511798E+03  0.18042511798E+03  0.00000000000E+00 0. -1.
         21   -1    0    0  502  503 -0.00000000000E+00 -0.00000000000E+00 -0.58049088852E+03  0.58049088852E+03  0.00000000000E+00 0.  1.
          6    1    1    2  501    0 -0.38388936375E+01 -0.14997900373E+03  0.69697326169E+02  0.23864231800E+03  0.17200000000E+03 0.  1.
         -6    1    1    2    0  503  0.38388936375E+01  0.14997900373E+03 -0.46976309671E+03  0.52227368849E+03  0.17200000000E+03 0. -1.
</event>
<event>
 4    1  0.5640532E+000  0.2325298E+03  0.7818608E-02  0.1124872E+00
         21   -1    0    0  503  502  0.00000000000E+00  0.00000000000E+00  0.71826729592E+02  0.71826729592E+02  0.00000000000E+00 0. -1.
         21   -1    0    0  501  503 -0.00000000000E+00 -0.00000000000E+00 -0.12670241787E+04  0.12670241787E+04  0.00000000000E+00 0. -1.
          6    1    1    2  501    0 -0.67598045857E+02 -0.14112628931E+03 -0.10240722851E+04  0.10501400718E+04  0.17200000000E+03 0. -1.
         -6    1    1    2    0  502  0.67598045857E+02  0.14112628931E+03 -0.17112516401E+03  0.28871083647E+03  0.17200000000E+03 0. -1.
</event>
<event>
 4    1  0.5640532E+000  0.1833177E+03  0.7818608E-02  0.1164630E+00
         21   -1    0    0  501  502  0.00000000000E+00  0.00000000000E+00  0.79769111264E+03  0.79769111264E+03  0.00000000000E+00 0.  1.
         21   -1    0    0  502  503 -0.00000000000E+00 -0.00000000000E+00 -0.44035488409E+02  0.44035488409E+02  0.00000000000E+00 0.  1.
          6    1    1    2  501    0 -0.17292344272E+02  0.61010977861E+02  0.46441433609E+03  0.49928552969E+03  0.17200000000E+03 0.  1.
         -6    1    1    2    0  503  0.17292344272E+02 -0.61010977861E+02  0.28924128814E+03  0.34244107136E+03  0.17200000000E+03 0.  1.
</event>
<event>
 4    1  0.5640532E+000  0.1901504E+03  0.7818608E-02  0.1158326E+00
         21   -1    0    0  503  502  0.00000000000E+00  0.00000000000E+00  0.22451887490E+03  0.22451887490E+03  0.00000000000E+00 0. -1.
         21   -1    0    0  501  503 -0.00000000000E+00 -0.00000000000E+00 -0.17263804312E+03  0.17263804312E+03  0.00000000000E+00 0. -1.
          6    1    1    2  501    0  0.24266405769E+01 -0.81038776245E+02 -0.25523383708E+02  0.19185571390E+03  0.17200000000E+03 0. -1.
         -6    1    1    2    0  502 -0.24266405769E+01  0.81038776245E+02  0.77404215484E+02  0.20530120412E+03  0.17200000000E+03 0. -1.
</event>
<event>
 4    1  0.5640532E+000  0.1811547E+03  0.7818608E-02  0.1166690E+00
         21   -1    0    0  503  502  0.00000000000E+00  0.00000000000E+00  0.96408478869E+03  0.96408478869E+03  0.00000000000E+00 0.  1.
         21   -1    0    0  501  503 -0.00000000000E+00 -0.00000000000E+00 -0.75106305071E+02  0.75106305071E+02  0.00000000000E+00 0.  1.
          6    1    1    2  501    0  0.47084163145E+02 -0.31876714724E+02  0.60276073185E+02  0.19091948135E+03  0.17200000000E+03 0.  1.
         -6    1    1    2    0  502 -0.47084163145E+02  0.31876714724E+02  0.82870241044E+03  0.84827161241E+03  0.17200000000E+03 0.  1.
</event>
<event>
 4    1  0.5640532E+000  0.2058114E+03  0.7818608E-02  0.1144927E+00
         21   -1    0    0  501  502  0.00000000000E+00  0.00000000000E+00  0.41662500631E+03  0.41662500631E+03  0.00000000000E+00 0. -1.
         21   -1    0    0  502  503 -0.00000000000E+00 -0.00000000000E+00 -0.10187591183E+03  0.10187591183E+03  0.00000000000E+00 0.  1.
          6    1    1    2  501    0  0.10392978074E+03 -0.44417666132E+02  0.14572356935E+03  0.25217788772E+03  0.17200000000E+03 0. -1.
         -6    1    1    2    0  503 -0.10392978074E+03  0.44417666132E+02  0.16902552513E+03  0.26632303043E+03  0.17200000000E+03 0.  1.
</event>
<event>
 4    1  0.5640532E+000  0.1786963E+03  0.7818608E-02  0.1169071E+00
         21   -1    0    0  501  502  0.00000000000E+00  0.00000000000E+00  0.14876106168E+03  0.14876106168E+03  0.00000000000E+00 0. -1.
         21   -1    0    0  502  503 -0.00000000000E+00 -0.00000000000E+00 -0.21696619803E+03  0.21696619803E+03  0.00000000000E+00 0.  1.
          6    1    1    2  501    0 -0.30642684398E+02 -0.37542013180E+02 -0.52974003173E+02  0.18638299781E+03  0.17200000000E+03 0. -1.
         -6    1    1    2    0  503  0.30642684398E+02  0.37542013180E+02 -0.15231133174E+02  0.17934426191E+03  0.17200000000E+03 0. -1.
</event>
<event>
 4    1  0.5640532E+000  0.1963746E+03  0.7818608E-02  0.1152834E+00
         21   -1    0    0  503  502  0.00000000000E+00  0.00000000000E+00  0.44155370801E+03  0.44155370801E+03  0.00000000000E+00 0.  1.
         21   -1    0    0  501  503 -0.00000000000E+00 -0.00000000000E+00 -0.10425716680E+03  0.10425716680E+03  0.00000000000E+00 0.  1.
          6    1    1    2  501    0 -0.22351786932E+02 -0.92083598569E+02  0.58699553278E+02  0.20496006699E+03  0.17200000000E+03 0.  1.
         -6    1    1    2    0  502  0.22351786932E+02  0.92083598569E+02  0.27859698793E+03  0.34085080782E+03  0.17200000000E+03 0.  1.
</event>
<event>
 4    1  0.5640532E+000  0.2121254E+03  0.7818608E-02  0.1139894E+00
         21   -1    0    0  503  502  0.00000000000E+00  0.00000000000E+00  0.41098069341E+02  0.41098069341E+02  0.00000000000E+00 0.  1.
         21   -1    0    0  501  503 -0.00000000000E+00 -0.00000000000E+00 -0.11065310668E+04  0.11065310668E+04  0.00000000000E+00 0.  1.
          6    1    1    2  501    0 -0.99591955554E+02  0.74125702839E+02 -0.47381883509E+03  0.51913530598E+03  0.17200000000E+03 0.  1.
         -6    1    1    2    0  502  0.99591955554E+02 -0.74125702839E+02 -0.59161416239E+03  0.62849383018E+03  0.17200000000E+03 0.  1.
</event>
<event>
 4    1  0.5640532E+000  0.2608906E+03  0.7818608E-02  0.1106609E+00
         21   -1    0    0  501  502  0.00000000000E+00  0.00000000000E+00  0.20506831491E+03  0.20506831491E+03  0.00000000000E+00 0. -1.
         21   -1    0    0  502  503 -0.00000000000E+00 -0.00000000000E+00 -0.33859967920E+03  0.33859967920E+03  0.00000000000E+00 0. -1.
          6    1    1    2  501    0 -0.19133632075E+03  0.43247260832E+02 -0.28552570876E+02  0.26244839971E+03  0.17200000000E+03 0. -1.
         -6    1    1    2    0  503  0.19133632075E+03 -0.43247260832E+02 -0.10497879342E+03  0.28121959440E+03  0.17200000000E+03 0. -1.
</event>
<event>
 4    1  0.5640532E+000  0.1822111E+03  0.7818608E-02  0.1165680E+00
         21   -1    0    0  501  502  0.00000000000E+00  0.00000000000E+00  0.76157167131E+02  0.76157167131E+02  0.00000000000E+00 0.  1.
         21   -1    0    0  502  503 -0.00000000000E+00 -0.00000000000E+00 -0.67421716526E+03  0.67421716526E+03  0.00000000000E+00 0.  1.
          6    1    1    2  501    0 -0.51710446223E+02 -0.30706947739E+02 -0.75992371067E+02  0.19742271234E+03  0.17200000000E+03 0.  1.
         -6    1    1    2    0  503  0.51710446223E+02  0.30706947739E+02 -0.52206762706E+03  0.55295162005E+03  0.17200000000E+03 0.  1.
</event>
<event>
 4    1  0.5640532E+000  0.1979914E+03  0.7818608E-02  0.1151445E+00
         21   -1    0    0  501  502  0.00000000000E+00  0.00000000000E+00  0.66176929239E+02  0.66176929239E+02  0.00000000000E+00 0.  1.
         21   -1    0    0  502  503 -0.00000000000E+00 -0.00000000000E+00 -0.70354677267E+03  0.70354677267E+03  0.00000000000E+00 0. -1.
          6    1    1    2  501    0  0.79982522709E+02  0.56739626446E+02 -0.47168239196E+03  0.51155143244E+03  0.17200000000E+03 0. -1.
         -6    1    1    2    0  503 -0.79982522709E+02 -0.56739626446E+02 -0.16568745148E+03  0.25817226947E+03  0.17200000000E+03 0.  1.
</event>
<event>
 4    1  0.5640532E+000  0.2126423E+03  0.7818608E-02  0.1139491E+00
         21   -1    0    0  503  502  0.00000000000E+00  0.00000000000E+00  0.91682791560E+03  0.91682791560E+03  0.00000000000E+00 0.  1.
         21   -1    0    0  501  503 -0.00000000000E+00 -0.00000000000E+00 -0.76799045350E+02  0.76799045350E+02  0.00000000000E+00 0. -1.
          6    1    1    2  501    0 -0.28241068502E+02 -0.12179973026E+03  0.12282949280E+03  0.24556835412E+03  0.17200000000E+03 0. -1.
         -6    1    1    2    0  502  0.28241068502E+02  0.12179973026E+03  0.71719937745E+03  0.74805860683E+03  0.17200000000E+03 0.  1.
</event>
<event>
 4    1  0.5640532E+000  0.1743121E+03  0.7818608E-02  0.1173424E+00
         21   -1    0    0  501  502  0.00000000000E+00  0.00000000000E+00  0.12458552249E+03  0.12458552249E+03  0.00000000000E+00 0.  1.
         21   -1    0    0  502  503 -0.00000000000E+00 -0.00000000000E+00 -0.35712932586E+03  0.35712932586E+03  0.00000000000E+00 0.  1.
          6    1    1    2  501    0 -0.20929713347E+02  0.19043729248E+02  0.19357170667E+02  0.17538362689E+03  0.17200000000E+03 0.  1.
         -6    1    1    2    0  503  0.20929713347E+02 -0.19043729248E+02 -0.25190097403E+03  0.30633122146E+03  0.17200000000E+03 0.  1.
</event>
<event>
 4    1  0.5640532E+000  0.1881301E+03  0.7818608E-02  0.1160159E+00
         21   -1    0    0  503  502  0.00000000000E+00  0.00000000000E+00  0.12811142474E+04  0.12811142474E+04  0.00000000000E+00 0. -1.
         21   -1    0    0  501  503 -0.00000000000E+00 -0.00000000000E+00 -0.27899285959E+02  0.27899285959E+02  0.00000000000E+00 0. -1.
          6    1    1    2  501    0 -0.44572703353E+02  0.61824060061E+02  0.56191095477E+03  0.59256802257E+03  0.17200000000E+03 0.  1.
         -6    1    1    2    0  502  0.44572703353E+02 -0.61824060061E+02  0.69130400672E+03  0.71644551083E+03  0.17200000000E+03 0.  1.
</event>
<event>
 4    1  0.5640532E+000  0.1757076E+03  0.7818608E-02  0.1172023E+00
         21   -1    0    0  503  502  0.00000000000E+00  0.00000000000E+00  0.41082364761E+02  0.41082364761E+02  0.00000000000E+00 0.  1.
         21   -1    0    0  501  503 -0.00000000000E+00 -0.00000000000E+00 -0.10644677277E+04  0.10644677277E+04  0.00000000000E+00 0.  1.
          6    1    1    2  501    0  0.25803931940E+02  0.24966086597E+02 -0.81142678477E+03  0.83023284410E+03  0.17200000000E+03 0.  1.
         -6    1    1    2    0  502 -0.25803931940E+02 -0.24966086597E+02 -0.21195857816E+03  0.27531724835E+03  0.17200000000E+03 0.  1.
</event>
<event>
 4    1  0.5640532E+000  0.1755659E+03  0.7818608E-02  0.1172165E+00
         21   -1    0    0  501  502  0.00000000000E+00  0.00000000000E+00  0.10324542522E+03  0.10324542522E+03  0.00000000000E+00 0. -1.
         21   -1    0    0  502  503 -0.00000000000E+00 -0.00000000000E+00 -0.29928064825E+03  0.29928064825E+03  0.00000000000E+00 0. -1.
          6    1    1    2  501    0 -0.33806228693E+02 -0.98251473722E+01 -0.10799669914E+03  0.20612297699E+03  0.17200000000E+03 0. -1.
         -6    1    1    2    0  503  0.33806228693E+02  0.98251473722E+01 -0.88038523890E+02  0.19640309648E+03  0.17200000000E+03 0. -1.
</event>
<event>
 4    1  0.5640532E+000  0.1747260E+03  0.7818608E-02  0.1173007E+00
         21   -1    0    0  501  502  0.00000000000E+00  0.00000000000E+00  0.18911698456E+03  0.18911698456E+03  0.00000000000E+00 0.  1.
         21   -1    0    0  502  503 -0.00000000000E+00 -0.00000000000E+00 -0.19460554147E+03  0.19460554147E+03  0.00000000000E+00 0.  1.
          6    1    1    2  501    0 -0.30606261144E+02 -0.29029112970E+01  0.76472682661E+02  0.19072818698E+03  0.17200000000E+03 0.  1.
         -6    1    1    2    0  503  0.30606261144E+02  0.29029112970E+01 -0.81961239575E+02  0.19299433906E+03  0.17200000000E+03 0.  1.
</event>
<event>
 4    1  0.5640532E+000  0.1978032E+03  0.7818608E-02  0.1151606E+00
         21   -1    0    0  503  502  0.00000000000E+00  0.00000000000E+00  0.51296108950E+03  0.51296108950E+03  0.00000000000E+00 0. -1.
         21   -1    0    0  501  503 -0.00000000000E+00 -0.00000000000E+00 -0.20411412071E+03  0.20411412071E+03  0.00000000000E+00 0.  1.
          6    1    1    2  501    0 -0.69769183874E+02 -0.68369325438E+02 -0.12932273698E+03  0.23632704877E+03  0.17200000000E+03 0.  1.
         -6    1    1    2    0  502  0.69769183874E+02  0.68369325438E+02  0.43816970577E+03  0.48074816145E+03  0.17200000000E+03 0. -1.
</event>
<event>
 4    1  0.5640532E+000  0.2072890E+03  0.7818608E-02  0.1143731E+00
         21   -1    0    0  503  502  0.00000000000E+00  0.00000000000E+00  0.95627335092E+02  0.95627335092E+02  0.00000000000E+00 0.  1.
         21   -1    0    0  501  503 -0.00000000000E+00 -0.00000000000E+00 -0.72148240833E+03  0.72148240833E+03  0.00000000000E+00 0. -1.
          6    1    1    2  501    0 -0.11553048269E+03 -0.61185683716E+01 -0.56384994604E+03  0.60074577898E+03  0.17200000000E+03 0. -1.
         -6    1    1    2    0  502  0.11553048269E+03  0.61185683716E+01 -0.62005127191E+02  0.21636396444E+03  0.17200000000E+03 0.  1.
</event>
<event>
 4    1  0.5640532E+000  0.1840834E+03  0.7818608E-02  0.1163909E+00
         21   -1    0    0  501  502  0.00000000000E+00  0.00000000000E+00  0.28263474539E+03  0.28263474539E+03  0.00000000000E+00 0.  1.
         21   -1    0    0  502  503 -0.00000000000E+00 -0.00000000000E+00 -0.12569486074E+03  0.12569486074E+03  0.00000000000E+00 0.  1.
          6    1    1    2  501    0 -0.63130028253E+02  0.17812717767E+02  0.12232344874E+03  0.22101972648E+03  0.17200000000E+03 0.  1.
         -6    1    1    2    0  503  0.63130028253E+02 -0.17812717767E+02  0.34616435910E+02  0.18730987966E+03  0.17200000000E+03 0.  1.
</event>
<event>
 4    1  0.5640532E+000  0.2333342E+03  0.7818608E-02  0.1124315E+00
         21   -1    0    0  503  502  0.00000000000E+00  0.00000000000E+00  0.54771339210E+03  0.54771339210E+03  0.00000000000E+00 0.  1.
         21   -1    0    0  501  503 -0.00000000000E+00 -0.00000000000E+00 -0.10211236029E+03  0.10211236029E+03  0.00000000000E+00 0.  1.
          6    1    1    2  501    0 -0.27848309789E+02 -0.15519451462E+03  0.16988460244E+03  0.28862717106E+03  0.17200000000E+03 0. -1.
         -6    1    1    2    0  502  0.27848309789E+02  0.15519451462E+03  0.27571642937E+03  0.36119858132E+03  0.17200000000E+03 0. -1.
</event>
<event>
 4    1  0.5640532E+000  0.1969438E+03  0.7818608E-02  0.1152343E+00
         21   -1    0    0  501  502  0.00000000000E+00  0.00000000000E+00  0.12980038523E+03  0.12980038523E+03  0.00000000000E+00 0.  1.
         21   -1    0    0  502  503 -0.00000000000E+00 -0.00000000000E+00 -0.30102992966E+03  0.30102992966E+03  0.00000000000E+00 0.  1.
          6    1    1    2  501    0 -0.32003868245E+02 -0.90435604330E+02 -0.67154414313E+02  0.20807825805E+03  0.17200000000E+03 0. -1.
         -6    1    1    2    0  503  0.32003868245E+02  0.90435604330E+02 -0.10407513012E+03  0.22275205683E+03  0.17200000000E+03 0. -1.
</event>
<event>
 4    1  0.5640532E+000  0.1852226E+03  0.7818608E-02  0.1162842E+00
         21   -1    0    0  501  502  0.00000000000E+00  0.00000000000E+00  0.27812648087E+03  0.27812648087E+03  0.00000000000E+00 0.  1.
         21   -1    0    0  502  503 -0.00000000000E+00 -0.00000000000E+00 -0.12335819231E+03  0.12335819231E+03  0.00000000000E+00 0.  1.
          6    1    1    2  501    0 -0.67083172500E+02  0.14941578820E+02  0.75939402614E+02  0.20018540326E+03  0.17200000000E+03 0.  1.
         -6    1    1    2    0  503  0.67083172500E+02 -0.14941578820E+02  0.78828885939E+02  0.20129926992E+03  0.17200000000E+03 0.  1.
</event>
<event>
 4    1  0.5640532E+000  0.2013237E+03  0.7818608E-02  0.1148627E+00
         21   -1    0    0  503  502  0.00000000000E+00  0.00000000000E+00  0.89753445007E+02  0.89753445007E+02  0.00000000000E+00 0. -1.
         21   -1    0    0  501  503 -0.00000000000E+00 -0.00000000000E+00 -0.11760560465E+04  0.11760560465E+04  0.00000000000E+00 0. -1.
          6    1    1    2  501    0 -0.22539891001E+02  0.10217230395E+03 -0.10398981680E+04  0.10592069799E+04  0.17200000000E+03 0. -1.
         -6    1    1    2    0  502  0.22539891001E+02 -0.10217230395E+03 -0.46404433526E+02  0.20660251168E+03  0.17200000000E+03 0. -1.
</event>
<event>
 4    1  0.5640532E+000  0.1824933E+03  0.7818608E-02  0.1165412E+00
         21   -1    0    0  503  502  0.00000000000E+00  0.00000000000E+00  0.61398153780E+02  0.61398153780E+02  0.00000000000E+00 0.  1.
         21   -1    0    0  501  503 -0.00000000000E+00 -0.00000000000E+00 -0.88191680632E+03  0.88191680632E+03  0.00000000000E+00 0.  1.
          6    1    1    2  501    0 -0.45460795469E+02  0.40658730390E+02 -0.70289574312E+03  0.72619986366E+03  0.17200000000E+03 0.  1.
         -6    1    1    2    0  502  0.45460795469E+02 -0.40658730390E+02 -0.11762290942E+03  0.21711509644E+03  0.17200000000E+03 0.  1.
</event>
<event>
 4    1  0.5640532E+000  0.1970127E+03  0.7818608E-02  0.1152284E+00
         21   -1    0    0  503  502  0.00000000000E+00  0.00000000000E+00  0.28074022053E+03  0.28074022053E+03  0.00000000000E+00 0. -1.
         21   -1    0    0  501  503 -0.00000000000E+00 -0.00000000000E+00 -0.22938610869E+03  0.22938610869E+03  0.00000000000E+00 0. -1.
          6    1    1    2  501    0 -0.90190057620E+02  0.33102257900E+02 -0.13508933019E+03  0.23887890887E+03  0.17200000000E+03 0. -1.
         -6    1    1    2    0  502  0.90190057620E+02 -0.33102257900E+02  0.18644344203E+03  0.27124742035E+03  0.17200000000E+03 0. -1.
</event>
<event>
 4    1  0.5640532E+000  0.1842087E+03  0.7818608E-02  0.1163791E+00
         21   -1    0    0  503  502  0.00000000000E+00  0.00000000000E+00  0.18936605498E+03  0.18936605498E+03  0.00000000000E+00 0. -1.
         21   -1    0    0  501  503 -0.00000000000E+00 -0.00000000000E+00 -0.25130976859E+03  0.25130976859E+03  0.00000000000E+00 0. -1.
          6    1    1    2  501    0 -0.48954723649E+02  0.44184672202E+02 -0.14900560312E+03  0.23692935653E+03  0.17200000000E+03 0. -1.
         -6    1    1    2    0  502  0.48954723649E+02 -0.44184672202E+02  0.87061889506E+02  0.20374646704E+03  0.17200000000E+03 0. -1.
</event>
<event>
 4    1  0.5640532E+000  0.2663533E+03  0.7818608E-02  0.1103385E+00
         21   -1    0    0  501  502  0.00000000000E+00  0.00000000000E+00  0.14854397668E+04  0.14854397668E+04  0.00000000000E+00 0. -1.
         21   -1    0    0  502  503 -0.00000000000E+00 -0.00000000000E+00 -0.74680847372E+02  0.74680847372E+02  0.00000000000E+00 0.  1.
          6    1    1    2  501    0  0.23082386673E+02 -0.20205758712E+03  0.11737298067E+04  0.12035720686E+04  0.17200000000E+03 0. -1.
         -6    1    1    2    0  503 -0.23082386673E+02  0.20205758712E+03  0.23702911268E+03  0.35654854557E+03  0.17200000000E+03 0.  1.
</event>
<event>
 4    1  0.5640532E+000  0.1946636E+03  0.7818608E-02  0.1154321E+00
         21   -1    0    0  501  502  0.00000000000E+00  0.00000000000E+00  0.56816401141E+03  0.56816401141E+03  0.00000000000E+00 0.  1.
         21   -1    0    0  502  503 -0.00000000000E+00 -0.00000000000E+00 -0.35445443149E+03  0.35445443149E+03  0.00000000000E+00 0. -1.
          6    1    1    2  501    0  0.33134067202E+01  0.91098428033E+02  0.52250350671E+03  0.55758749697E+03  0.17200000000E+03 0.  1.
         -6    1    1    2    0  503 -0.33134067202E+01 -0.91098428033E+02 -0.30879392680E+03  0.36503094592E+03  0.17200000000E+03 0. -1.
</event>
<event>
 4    1  0.5640532E+000  0.2279544E+03  0.7818608E-02  0.1128088E+00
         21   -1    0    0  503  502  0.00000000000E+00  0.00000000000E+00  0.15148137707E+03  0.15148137707E+03  0.00000000000E+00 0.  1.
         21   -1    0    0  501  503 -0.00000000000E+00 -0.00000000000E+00 -0.34306343009E+03  0.34306343009E+03  0.00000000000E+00 0. -1.
          6    1    1    2  501    0  0.21170350650E+01 -0.14958188595E+03 -0.98091601178E+02  0.24816362478E+03  0.17200000000E+03 0. -1.
         -6    1    1    2    0  502 -0.21170350650E+01  0.14958188595E+03 -0.93490451842E+02  0.24638118238E+03  0.17200000000E+03 0.  1.
</event>
<event>
 4    1  0.5640532E+000  0.1875774E+03  0.7818608E-02  0.1160665E+00
         21   -1    0    0  501  502  0.00000000000E+00  0.00000000000E+00  0.80542714540E+02  0.80542714540E+02  0.00000000000E+00 0. -1.
         21   -1    0    0  502  503 -0.00000000000E+00 -0.00000000000E+00 -0.11148681820E+04  0.11148681820E+04  0.00000000000E+00 0. -1.
          6    1    1    2  501    0 -0.56508020250E+02  0.49072736887E+02 -0.51045340497E+02  0.19439885968E+03  0.17200000000E+03 0. -1.
         -6    1    1    2    0  503  0.56508020250E+02 -0.49072736887E+02 -0.98328012697E+03  0.10010120369E+04  0.17200000000E+03 0. -1.
</event>
<event>
 4    1  0.5640532E+000  0.2415756E+03  0.7818608E-02  0.1118748E+00
         21   -1    0    0  503  502  0.00000000000E+00  0.00000000000E+00  0.53842830614E+03  0.53842830614E+03  0.00000000000E+00 0.  1.
         21   -1    0    0  501  503 -0.00000000000E+00 -0.00000000000E+00 -0.11007427267E+03  0.11007427267E+03  0.00000000000E+00 0. -1.
          6    1    1    2  501    0 -0.16389677068E+03 -0.43733766759E+02  0.25431836898E+03  0.35076577170E+03  0.17200000000E+03 0.  1.
         -6    1    1    2    0  502  0.16389677068E+03  0.43733766759E+02  0.17403566449E+03  0.29773680711E+03  0.17200000000E+03 0. -1.
</event>
<event>
 4    1  0.5640532E+000  0.2531747E+03  0.7818608E-02  0.1111315E+00
         21   -1    0    0  501  502  0.00000000000E+00  0.00000000000E+00  0.16464211498E+04  0.16464211498E+04  0.00000000000E+00 0. -1.
         21   -1    0    0  502  503 -0.00000000000E+00 -0.00000000000E+00 -0.52917378025E+02  0.52917378025E+02  0.00000000000E+00 0. -1.
          6    1    1    2  501    0 -0.15450981014E+03 -0.10315109402E+03  0.12335669918E+04  0.12592795372E+04  0.17200000000E+03 0. -1.
         -6    1    1    2    0  503  0.15450981014E+03  0.10315109402E+03  0.35993678000E+03  0.44005899062E+03  0.17200000000E+03 0. -1.
</event>
<event>
 4    1  0.5640532E+000  0.2282897E+03  0.7818608E-02  0.1127849E+00
         21   -1    0    0  503  502  0.00000000000E+00  0.00000000000E+00  0.51062837730E+03  0.51062837730E+03  0.00000000000E+00 0.  1.
         21   -1    0    0  501  503 -0.00000000000E+00 -0.00000000000E+00 -0.10487424969E+03  0.10487424969E+03  0.00000000000E+00 0.  1.
          6    1    1    2  501    0 -0.14056408994E+03 -0.52668141271E+02  0.15248926163E+03  0.27453446304E+03  0.17200000000E+03 0.  1.
         -6    1    1    2    0  502  0.14056408994E+03  0.52668141271E+02  0.25326486597E+03  0.34096816394E+03  0.17200000000E+03 0.  1.
</event>
<event>
 4    1  0.5640532E+000  0.1815367E+03  0.7818608E-02  0.1166324E+00
         21   -1    0    0  503  502  0.00000000000E+00  0.00000000000E+00  0.68555948378E+02  0.68555948378E+02  0.00000000000E+00 0. -1.
         21   -1    0    0  501  503 -0.00000000000E+00 -0.00000000000E+00 -0.18135457927E+04  0.18135457927E+04  0.00000000000E+00 0. -1.
          6    1    1    2  501    0  0.41089627961E+02 -0.41027050152E+02 -0.16792413496E+04  0.16890254843E+04  0.17200000000E+03 0. -1.
         -6    1    1    2    0  502 -0.41089627961E+02  0.41027050152E+02 -0.65748494692E+02  0.19307625676E+03  0.17200000000E+03 0. -1.
</event>
<event>
 4    1  0.5640532E+000  0.1926598E+03  0.7818608E-02  0.1156084E+00
         21   -1    0    0  501  502  0.00000000000E+00  0.00000000000E+00  0.67368714630E+03  0.67368714630E+03  0.00000000000E+00 0.  1.
         21   -1    0    0  502  503 -0.00000000000E+00 -0.00000000000E+00 -0.55355192199E+02  0.55355192199E+02  0.00000000000E+00 0.  1.
          6    1    1    2  501    0 -0.10013993708E+02  0.86217932964E+02  0.28424729613E+03  0.34338657136E+03  0.17200000000E+03 0.  1.
         -6    1    1    2    0  503  0.10013993708E+02 -0.86217932964E+02  0.33408465797E+03  0.38565576714E+03  0.17200000000E+03 0.  1.
</event>
<event>
 4    1  0.5640532E+000  0.2040167E+03  0.7818608E-02  0.1146394E+00
         21   -1    0    0  503  502  0.00000000000E+00  0.00000000000E+00  0.27085963730E+03  0.27085963730E+03  0.00000000000E+00 0. -1.
         21   -1    0    0  501  503 -0.00000000000E+00 -0.00000000000E+00 -0.16048828282E+03  0.16048828282E+03  0.00000000000E+00 0. -1.
          6    1    1    2  501    0 -0.10209397023E+03 -0.40195023789E+02  0.10729212402E+02  0.20429864095E+03  0.17200000000E+03 0.  1.
         -6    1    1    2    0  502  0.10209397023E+03  0.40195023789E+02  0.99642142083E+02  0.22704927917E+03  0.17200000000E+03 0.  1.
</event>
<event>
 4    1  0.5640532E+000  0.2088956E+03  0.7818608E-02  0.1142444E+00
         21   -1    0    0  501  502  0.00000000000E+00  0.00000000000E+00  0.11395566938E+03  0.11395566938E+03  0.00000000000E+00 0. -1.
         21   -1    0    0  502  503 -0.00000000000E+00 -0.00000000000E+00 -0.41712873569E+03  0.41712873569E+03  0.00000000000E+00 0. -1.
          6    1    1    2  501    0  0.11837980152E+03 -0.62924666592E+01 -0.75556488904E+02  0.22213994589E+03  0.17200000000E+03 0. -1.
         -6    1    1    2    0  503 -0.11837980152E+03  0.62924666592E+01 -0.22761657740E+03  0.30894445917E+03  0.17200000000E+03 0. -1.
</event>
<event>
 4    1  0.5640532E+000  0.8173077E+03  0.7818608E-02  0.9535297E-01
         21   -1    0    0  501  502  0.00000000000E+00  0.00000000000E+00  0.10032936229E+04  0.10032936229E+04  0.00000000000E+00 0.  1.
         21   -1    0    0  502  503 -0.00000000000E+00 -0.00000000000E+00 -0.98877077874E+03  0.98877077874E+03  0.00000000000E+00 0.  1.
          6    1    1    2  501    0  0.38637435836E+03 -0.69937313890E+03  0.57651769810E+03  0.10001822776E+04  0.17200000000E+03 0.  1.
         -6    1    1    2    0  503 -0.38637435836E+03  0.69937313890E+03 -0.56199485391E+03  0.99188212406E+03  0.17200000000E+03 0.  1.
</event>
<event>
 4    1  0.5640532E+000  0.2194369E+03  0.7818608E-02  0.1134304E+00
         21   -1    0    0  501  502  0.00000000000E+00  0.00000000000E+00  0.44504334839E+03  0.44504334839E+03  0.00000000000E+00 0. -1.
         21   -1    0    0  502  503 -0.00000000000E+00 -0.00000000000E+00 -0.11847105094E+03  0.11847105094E+03  0.00000000000E+00 0. -1.
          6    1    1    2  501    0  0.13455309334E+03  0.21541148825E+02  0.24625789300E+03  0.32984163759E+03  0.17200000000E+03 0. -1.
         -6    1    1    2    0  503 -0.13455309334E+03 -0.21541148825E+02  0.80314404443E+02  0.23367276174E+03  0.17200000000E+03 0. -1.
</event>
<event>
 4    1  0.5640532E+000  0.1822306E+03  0.7818608E-02  0.1165662E+00
         21   -1    0    0  501  502  0.00000000000E+00  0.00000000000E+00  0.12586706625E+03  0.12586706625E+03  0.00000000000E+00 0.  1.
         21   -1    0    0  502  503 -0.00000000000E+00 -0.00000000000E+00 -0.54118507958E+03  0.54118507958E+03  0.00000000000E+00 0.  1.
          6    1    1    2  501    0 -0.64227072630E+01 -0.59856001384E+02  0.31106691134E+02  0.18486648778E+03  0.17200000000E+03 0.  1.
         -6    1    1    2    0  503  0.64227072630E+01  0.59856001384E+02 -0.44642470446E+03  0.48218565805E+03  0.17200000000E+03 0.  1.
</event>
<event>
 4    1  0.5640532E+000  0.1740547E+03  0.7818608E-02  0.1173684E+00
         21   -1    0    0  503  502  0.00000000000E+00  0.00000000000E+00  0.14260202359E+03  0.14260202359E+03  0.00000000000E+00 0.  1.
         21   -1    0    0  501  503 -0.00000000000E+00 -0.00000000000E+00 -0.24459888886E+03  0.24459888886E+03  0.00000000000E+00 0.  1.
          6    1    1    2  501    0 -0.26655296685E+02  0.72350656464E+00  0.19195352958E+02  0.17510993655E+03  0.17200000000E+03 0.  1.
         -6    1    1    2    0  502  0.26655296685E+02 -0.72350656464E+00 -0.12119221823E+03  0.21209097591E+03  0.17200000000E+03 0.  1.
</event>
<event>
 4    1  0.5640532E+000  0.2083916E+03  0.7818608E-02  0.1142846E+00
         21   -1    0    0  503  502  0.00000000000E+00  0.00000000000E+00  0.57558018402E+03  0.57558018402E+03  0.00000000000E+00 0. -1.
         21   -1    0    0  501  503 -0.00000000000E+00 -0.00000000000E+00 -0.80381354749E+02  0.80381354749E+02  0.00000000000E+00 0. -1.
          6    1    1    2  501    0  0.82364182463E+02 -0.84019027785E+02  0.16635570549E+03  0.26664822582E+03  0.17200000000E+03 0. -1.
         -6    1    1    2    0  502 -0.82364182463E+02  0.84019027785E+02  0.32884312378E+03  0.38931331295E+03  0.17200000000E+03 0. -1.
</event>
<event>
 4    1  0.5640532E+000  0.2451499E+03  0.7818608E-02  0.1116409E+00
         21   -1    0    0  501  502  0.00000000000E+00  0.00000000000E+00  0.80665496236E+03  0.80665496236E+03  0.00000000000E+00 0. -1.
         21   -1    0    0  502  503 -0.00000000000E+00 -0.00000000000E+00 -0.99874772143E+02  0.99874772143E+02  0.00000000000E+00 0.  1.
          6    1    1    2  501    0 -0.93490755959E+02  0.14755992056E+03  0.58184318927E+03  0.63137940140E+03  0.17200000000E+03 0. -1.
         -6    1    1    2    0  503  0.93490755959E+02 -0.14755992056E+03  0.12493700095E+03  0.27515033311E+03  0.17200000000E+03 0.  1.
</event>
<event>
 4    1  0.5640532E+000  0.4657254E+03  0.7818608E-02  0.1023134E+00
         21   -1    0    0  501  502  0.00000000000E+00  0.00000000000E+00  0.16480614045E+03  0.16480614045E+03  0.00000000000E+00 0. -1.
         21   -1    0    0  502  503 -0.00000000000E+00 -0.00000000000E+00 -0.16577273893E+04  0.16577273893E+04  0.00000000000E+00 0.  1.
          6    1    1    2  501    0 -0.42675292750E+03  0.72097979599E+02 -0.33277552985E+03  0.57239822943E+03  0.17200000000E+03 0. -1.
         -6    1    1    2    0  503  0.42675292750E+03 -0.72097979599E+02 -0.11601457190E+04  0.12501353003E+04  0.17200000000E+03 0.  1.
</event>
<event>
 4    1  0.5640532E+000  0.1826497E+03  0.7818608E-02  0.1165263E+00
         21   -1    0    0  503  502  0.00000000000E+00  0.00000000000E+00  0.11564204750E+03  0.11564204750E+03  0.00000000000E+00 0. -1.
         21   -1    0    0  501  503 -0.00000000000E+00 -0.00000000000E+00 -0.28935466077E+03  0.28935466077E+03  0.00000000000E+00 0.  1.
          6    1    1    2  501    0 -0.24471725314E+02 -0.56374057311E+02 -0.75749499463E+02  0.19773438332E+03  0.17200000000E+03 0. -1.
         -6    1    1    2    0  502  0.24471725314E+02  0.56374057311E+02 -0.97963113800E+02  0.20726232495E+03  0.17200000000E+03 0. -1.
</event>
<event>
 4    1  0.5640532E+000  0.1837929E+03  0.7818608E-02  0.1164182E+00
         21   -1    0    0  501  502  0.00000000000E+00  0.00000000000E+00  0.40796322716E+03  0.40796322716E+03  0.00000000000E+00 0.  1.
         21   -1    0    0  502  503 -0.00000000000E+00 -0.00000000000E+00 -0.84956021881E+02  0.84956021881E+02  0.00000000000E+00 0.  1.
          6    1    1    2  501    0  0.14982020893E+01  0.64757807925E+02  0.12225168086E+03  0.22073806145E+03  0.17200000000E+03 0. -1.
         -6    1    1    2    0  503 -0.14982020893E+01 -0.64757807925E+02  0.20075552441E+03  0.27218118759E+03  0.17200000000E+03 0. -1.
</event>
<event>
 4    1  0.5640532E+000  0.2207039E+03  0.7818608E-02  0.1133359E+00
         21   -1    0    0  503  502  0.00000000000E+00  0.00000000000E+00  0.13308988200E+04  0.13308988200E+04  0.00000000000E+00 0. -1.
         21   -1    0    0  501  503 -0.00000000000E+00 -0.00000000000E+00 -0.62658632829E+02  0.62658632829E+02  0.00000000000E+00 0. -1.
          6    1    1    2  501    0  0.12219433254E+03  0.64766783633E+02  0.18477018596E+03  0.28783712893E+03  0.17200000000E+03 0. -1.
         -6    1    1    2    0  502 -0.12219433254E+03 -0.64766783633E+02  0.10834700012E+04  0.11057203239E+04  0.17200000000E+03 0. -1.
</event>
<event>
 4    1  0.5640532E+000  0.1859296E+03  0.7818608E-02  0.1162185E+00
         21   -1    0    0  503  502  0.00000000000E+00  0.00000000000E+00  0.44207606850E+03  0.44207606850E+03  0.00000000000E+00 0.  1.
         21   -1    0    0  501  503 -0.00000000000E+00 -0.00000000000E+00 -0.10566382044E+03  0.10566382044E+03  0.00000000000E+00 0.  1.
          6    1    1    2  501    0  0.56015885349E+02  0.42988752344E+02  0.28578519717E+02  0.18811311498E+03  0.17200000000E+03 0.  1.
         -6    1    1    2    0  502 -0.56015885349E+02 -0.42988752344E+02  0.30783372834E+03  0.35962677395E+03  0.17200000000E+03 0.  1.
</event>
<event>
 4    1  0.5640532E+000  0.2552999E+03  0.7818608E-02  0.1110001E+00
         21   -1    0    0  501  502  0.00000000000E+00  0.00000000000E+00  0.60872724612E+02  0.60872724612E+02  0.00000000000E+00 0. -1.
         21   -1    0    0  502  503 -0.00000000000E+00 -0.00000000000E+00 -0.23917972582E+04  0.23917972582E+04  0.00000000000E+00 0. -1.
          6    1    1    2  501    0  0.18407550725E+03 -0.41354891746E+02 -0.25406015182E+03  0.36017298648E+03  0.17200000000E+03 0. -1.
         -6    1    1    2    0  503 -0.18407550725E+03  0.41354891746E+02 -0.20768643818E+04  0.20924969964E+04  0.17200000000E+03 0. -1.
</event>
<event>
 4    1  0.5640532E+000  0.2177821E+03  0.7818608E-02  0.1135547E+00
         21   -1    0    0  503  502  0.00000000000E+00  0.00000000000E+00  0.16238113233E+04  0.16238113233E+04  0.00000000000E+00 0.  1.
         21   -1    0    0  501  503 -0.00000000000E+00 -0.00000000000E+00 -0.14747408873E+03  0.14747408873E+03  0.00000000000E+00 0.  1.
          6    1    1    2  501    0 -0.12403188613E+03  0.49609948174E+02 -0.54935000234E+02  0.22460389575E+03  0.17200000000E+03 0.  1.
         -6    1    1    2    0  502  0.12403188613E+03 -0.49609948174E+02  0.15312722348E+04  0.15466815163E+04  0.17200000000E+03 0.  1.
</event>
<event>
 4    1  0.5640532E+000  0.1923991E+03  0.7818608E-02  0.1156315E+00
         21   -1    0    0  501  502  0.00000000000E+00  0.00000000000E+00  0.28254116405E+03  0.28254116405E+03  0.00000000000E+00 0. -1.
         21   -1    0    0  502  503 -0.00000000000E+00 -0.00000000000E+00 -0.13462709207E+03  0.13462709207E+03  0.00000000000E+00 0. -1.
          6    1    1    2  501    0  0.76867886595E+02 -0.39047914315E+02  0.10811835541E+03  0.22069660255E+03  0.17200000000E+03 0. -1.
         -6    1    1    2    0  503 -0.76867886595E+02  0.39047914315E+02  0.39795716570E+02  0.19647165358E+03  0.17200000000E+03 0. -1.
</event>
<event>
 4    1  0.5640532E+000  0.1753097E+03  0.7818608E-02  0.1172421E+00
         21   -1    0    0  503  502  0.00000000000E+00  0.00000000000E+00  0.23949485706E+03  0.23949485706E+03  0.00000000000E+00 0. -1.
         21   -1    0    0  501  503 -0.00000000000E+00 -0.00000000000E+00 -0.13742121236E+03  0.13742121236E+03  0.00000000000E+00 0. -1.
          6    1    1    2  501    0 -0.33133505378E+02  0.71869492473E+01  0.99519631198E+02  0.20158779331E+03  0.17200000000E+03 0. -1.
         -6    1    1    2    0  502  0.33133505378E+02 -0.71869492473E+01  0.25540135099E+01  0.17532827611E+03  0.17200000000E+03 0. -1.
</event>
<event>
 4    1  0.5640532E+000  0.1860451E+03  0.7818608E-02  0.1162078E+00
         21   -1    0    0  501  502  0.00000000000E+00  0.00000000000E+00  0.77206107304E+02  0.77206107304E+02  0.00000000000E+00 0. -1.
         21   -1    0    0  502  503 -0.00000000000E+00 -0.00000000000E+00 -0.45314648097E+03  0.45314648097E+03  0.00000000000E+00 0. -1.
          6    1    1    2  501    0  0.67914591632E+02 -0.20405754461E+02 -0.16059358737E+03  0.24577039463E+03  0.17200000000E+03 0.  1.
         -6    1    1    2    0  503 -0.67914591632E+02  0.20405754461E+02 -0.21534678629E+03  0.28458219364E+03  0.17200000000E+03 0.  1.
</event>
<event>
 4    1  0.5640532E+000  0.2237562E+03  0.7818608E-02  0.1131113E+00
         21   -1    0    0  501  502  0.00000000000E+00  0.00000000000E+00  0.25086807569E+03  0.25086807569E+03  0.00000000000E+00 0. -1.
         21   -1    0    0  502  503 -0.00000000000E+00 -0.00000000000E+00 -0.20437603608E+03  0.20437603608E+03  0.00000000000E+00 0. -1.
          6    1    1    2  501    0  0.10211654529E+03 -0.10027491660E+03 -0.11643388902E+02  0.22405895703E+03  0.17200000000E+03 0. -1.
         -6    1    1    2    0  503 -0.10211654529E+03  0.10027491660E+03  0.58135428504E+02  0.23118515473E+03  0.17200000000E+03 0. -1.
</event>
<event>
 4    1  0.5640532E+000  0.1731562E+03  0.7818608E-02  0.1174596E+00
         21   -1    0    0  501  502  0.00000000000E+00  0.00000000000E+00  0.18988970705E+03  0.18988970705E+03  0.00000000000E+00 0.  1.
         21   -1    0    0  502  503 -0.00000000000E+00 -0.00000000000E+00 -0.24843135992E+03  0.24843135992E+03  0.00000000000E+00 0.  1.
          6    1    1    2  501    0  0.13961139968E+02  0.14288543823E+02  0.10303077157E+03  0.20149048564E+03  0.17200000000E+03 0.  1.
         -6    1    1    2    0  503 -0.13961139968E+02 -0.14288543823E+02 -0.16157242444E+03  0.23683058133E+03  0.17200000000E+03 0.  1.
</event>
<event>
 4    1  0.5640532E+000  0.2245674E+03  0.7818608E-02  0.1130523E+00
         21   -1    0    0  501  502  0.00000000000E+00  0.00000000000E+00  0.34010792084E+02  0.34010792084E+02  0.00000000000E+00 0. -1.
         21   -1    0    0  502  503 -0.00000000000E+00 -0.00000000000E+00 -0.18607003997E+04  0.18607003997E+04  0.00000000000E+00 0.  1.
          6    1    1    2  501    0  0.10459539509E+03 -0.99530431901E+02 -0.48639650884E+03  0.53573507199E+03  0.17200000000E+03 0.  1.
         -6    1    1    2    0  503 -0.10459539509E+03  0.99530431901E+02 -0.13402930988E+04  0.13589761198E+04  0.17200000000E+03 0.  1.
</event>
<event>
 4    1  0.5640532E+000  0.3158413E+03  0.7818608E-02  0.1077579E+00
         21   -1    0    0  503  502  0.00000000000E+00  0.00000000000E+00  0.99483961080E+03  0.99483961080E+03  0.00000000000E+00 0. -1.
         21   -1    0    0  501  503 -0.00000000000E+00 -0.00000000000E+00 -0.13061028423E+03  0.13061028423E+03  0.00000000000E+00 0.  1.
          6    1    1    2  501    0 -0.26433381707E+03  0.17301984933E+02  0.16091160299E+03  0.35446899654E+03  0.17200000000E+03 0.  1.
         -6    1    1    2    0  502  0.26433381707E+03 -0.17301984933E+02  0.70331772358E+03  0.77098089849E+03  0.17200000000E+03 0. -1.
</event>
<event>
 4    1  0.5640532E+000  0.1794066E+03  0.7818608E-02  0.1168379E+00
         21   -1    0    0  501  502  0.00000000000E+00  0.00000000000E+00  0.21118783197E+03  0.21118783197E+03  0.00000000000E+00 0. -1.
         21   -1    0    0  502  503 -0.00000000000E+00 -0.00000000000E+00 -0.28504185499E+03  0.28504185499E+03  0.00000000000E+00 0. -1.
          6    1    1    2  501    0 -0.39434368129E+02 -0.32367457818E+02  0.13232177901E+03  0.22292549185E+03  0.17200000000E+03 0.  1.
         -6    1    1    2    0  503  0.39434368129E+02  0.32367457818E+02 -0.20617580204E+03  0.27330419510E+03  0.17200000000E+03 0.  1.
</event>
<event>
 4    1  0.5640532E+000  0.2330497E+03  0.7818608E-02  0.1124511E+00
         21   -1    0    0  503  502  0.00000000000E+00  0.00000000000E+00  0.48419544007E+03  0.48419544007E+03  0.00000000000E+00 0. -1.
         21   -1    0    0  501  503 -0.00000000000E+00 -0.00000000000E+00 -0.18506597478E+03  0.18506597478E+03  0.00000000000E+00 0. -1.
          6    1    1    2  501    0 -0.49464129347E+02  0.14926976465E+03 -0.60452301286E+02  0.24076262887E+03  0.17200000000E+03 0. -1.
         -6    1    1    2    0  502  0.49464129347E+02 -0.14926976465E+03  0.35958176657E+03  0.42849878597E+03  0.17200000000E+03 0. -1.
</event>
<event>
 4    1  0.5640532E+000  0.2168020E+03  0.7818608E-02  0.1136290E+00
         21   -1    0    0  501  502  0.00000000000E+00  0.00000000000E+00  0.32876226278E+03  0.32876226278E+03  0.00000000000E+00 0.  1.
         21   -1    0    0  502  503 -0.00000000000E+00 -0.00000000000E+00 -0.14788057616E+03  0.14788057616E+03  0.00000000000E+00 0. -1.
          6    1    1    2  501    0  0.80144340401E+02 -0.10486174883E+03  0.13386975905E+03  0.25480230386E+03  0.17200000000E+03 0. -1.
         -6    1    1    2    0  503 -0.80144340401E+02  0.10486174883E+03  0.47011927570E+02  0.22184053507E+03  0.17200000000E+03 0.  1.
</event>
<event>
 4    1  0.5640532E+000  0.2073122E+03  0.7818608E-02  0.1143712E+00
         21   -1    0    0  501  502  0.00000000000E+00  0.00000000000E+00  0.62714386557E+02  0.62714386557E+02  0.00000000000E+00 0.  1.
         21   -1    0    0  502  503 -0.00000000000E+00 -0.00000000000E+00 -0.68545564034E+03  0.68545564034E+03  0.00000000000E+00 0.  1.
          6    1    1    2  501    0  0.38213048253E+02 -0.10924344694E+03 -0.31694988992E+03  0.37872892744E+03  0.17200000000E+03 0.  1.
         -6    1    1    2    0  503 -0.38213048253E+02  0.10924344694E+03 -0.30579136386E+03  0.36944109945E+03  0.17200000000E+03 0.  1.
</event>
<event>
 4    1  0.5640532E+000  0.2317935E+03  0.7818608E-02  0.1125384E+00
         21   -1    0    0  503  502  0.00000000000E+00  0.00000000000E+00  0.18013205113E+03  0.18013205113E+03  0.00000000000E+00 0.  1.
         21   -1    0    0  501  503 -0.00000000000E+00 -0.00000000000E+00 -0.56930537152E+03  0.56930537152E+03  0.00000000000E+00 0.  1.
          6    1    1    2  501    0 -0.99870916989E+02 -0.11903795622E+03  0.63963386972E+02  0.24045696071E+03  0.17200000000E+03 0.  1.
         -6    1    1    2    0  502  0.99870916989E+02  0.11903795622E+03 -0.45313670736E+03  0.50898046194E+03  0.17200000000E+03 0.  1.
</event>
<event>
 4    1  0.5640532E+000  0.1824875E+03  0.7818608E-02  0.1165417E+00
         21   -1    0    0  503  502  0.00000000000E+00  0.00000000000E+00  0.45925875332E+03  0.45925875332E+03  0.00000000000E+00 0.  1.
         21   -1    0    0  501  503 -0.00000000000E+00 -0.00000000000E+00 -0.13317044940E+03  0.13317044940E+03  0.00000000000E+00 0.  1.
          6    1    1    2  501    0 -0.52174157271E+02  0.31552202409E+02 -0.36872447842E+02  0.18617535168E+03  0.17200000000E+03 0.  1.
         -6    1    1    2    0  502  0.52174157271E+02 -0.31552202409E+02  0.36296075176E+03  0.40625385104E+03  0.17200000000E+03 0.  1.
</event>
<event>
 4    1  0.5640532E+000  0.2029957E+03  0.7818608E-02  0.1147236E+00
         21   -1    0    0  501  502  0.00000000000E+00  0.00000000000E+00  0.68832976134E+03  0.68832976134E+03  0.00000000000E+00 0.  1.
         21   -1    0    0  502  503 -0.00000000000E+00 -0.00000000000E+00 -0.65226182407E+02  0.65226182407E+02  0.00000000000E+00 0.  1.
          6    1    1    2  501    0  0.88569708918E+02 -0.61470875051E+02  0.41956608523E+03  0.46609329720E+03  0.17200000000E+03 0.  1.
         -6    1    1    2    0  503 -0.88569708918E+02  0.61470875051E+02  0.20353749370E+03  0.28746264654E+03  0.17200000000E+03 0.  1.
</event>
<event>
 4    1  0.5640532E+000  0.3271794E+03  0.7818608E-02  0.1072392E+00
         21   -1    0    0  503  502  0.00000000000E+00  0.00000000000E+00  0.91681109710E+02  0.91681109710E+02  0.00000000000E+00 0. -1.
         21   -1    0    0  501  503 -0.00000000000E+00 -0.00000000000E+00 -0.11996218573E+04  0.11996218573E+04  0.00000000000E+00 0.  1.
          6    1    1    2  501    0  0.27614716010E+03  0.34714539336E+02 -0.44847413467E+03  0.55513548142E+03  0.17200000000E+03 0.  1.
         -6    1    1    2    0  502 -0.27614716010E+03 -0.34714539336E+02 -0.65946661291E+03  0.73616748557E+03  0.17200000000E+03 0. -1.
</event>
<event>
 4    1  0.5640532E+000  0.1752638E+03  0.7818608E-02  0.1172467E+00
         21   -1    0    0  501  502  0.00000000000E+00  0.00000000000E+00  0.15697383776E+03  0.15697383776E+03  0.00000000000E+00 0.  1.
         21   -1    0    0  502  503 -0.00000000000E+00 -0.00000000000E+00 -0.23107632599E+03  0.23107632599E+03  0.00000000000E+00 0.  1.
          6    1    1    2  501    0  0.33558486897E+02 -0.26873546098E+01 -0.11298411112E+03  0.20852530610E+03  0.17200000000E+03 0.  1.
         -6    1    1    2    0  503 -0.33558486897E+02  0.26873546098E+01  0.38881622896E+02  0.17952485766E+03  0.17200000000E+03 0.  1.
</event>
<event>
 4    1  0.5640532E+000  0.1854199E+03  0.7818608E-02  0.1162658E+00
         21   -1    0    0  501  502  0.00000000000E+00  0.00000000000E+00  0.10516777057E+03  0.10516777057E+03  0.00000000000E+00 0.  1.
         21   -1    0    0  502  503 -0.00000000000E+00 -0.00000000000E+00 -0.59990780383E+03  0.59990780383E+03  0.00000000000E+00 0.  1.
          6    1    1    2  501    0  0.65950286477E+02  0.21145052245E+02 -0.95536154083E+01  0.18566589641E+03  0.17200000000E+03 0.  1.
         -6    1    1    2    0  503 -0.65950286477E+02 -0.21145052245E+02 -0.48518641786E+03  0.51940967799E+03  0.17200000000E+03 0.  1.
</event>
<event>
 4    1  0.5640532E+000  0.1856951E+03  0.7818608E-02  0.1162402E+00
         21   -1    0    0  503  502  0.00000000000E+00  0.00000000000E+00  0.74575703482E+03  0.74575703482E+03  0.00000000000E+00 0.  1.
         21   -1    0    0  501  503 -0.00000000000E+00 -0.00000000000E+00 -0.48855946286E+02  0.48855946286E+02  0.00000000000E+00 0.  1.
          6    1    1    2  501    0  0.15698245546E+00 -0.69990408682E+02  0.25648897843E+03  0.31665324569E+03  0.17200000000E+03 0.  1.
         -6    1    1    2    0  502 -0.15698245546E+00  0.69990408682E+02  0.44041211010E+03  0.47795973541E+03  0.17200000000E+03 0.  1.
</event>
<event>
 4    1  0.5640532E+000  0.2057671E+03  0.7818608E-02  0.1144962E+00
         21   -1    0    0  501  502  0.00000000000E+00  0.00000000000E+00  0.39687415141E+03  0.39687415141E+03  0.00000000000E+00 0. -1.
         21   -1    0    0  502  503 -0.00000000000E+00 -0.00000000000E+00 -0.15085973307E+03  0.15085973307E+03  0.00000000000E+00 0. -1.
          6    1    1    2  501    0  0.64553996791E+02 -0.92676311834E+02  0.27120607707E+03  0.34043039453E+03  0.17200000000E+03 0. -1.
         -6    1    1    2    0  503 -0.64553996791E+02  0.92676311834E+02 -0.25191658726E+02  0.20730348995E+03  0.17200000000E+03 0. -1.
</event>
<event>
 4    1  0.5640532E+000  0.1939799E+03  0.7818608E-02  0.1154920E+00
         21   -1    0    0  501  502  0.00000000000E+00  0.00000000000E+00  0.14221827614E+03  0.14221827614E+03  0.00000000000E+00 0.  1.
         21   -1    0    0  502  503 -0.00000000000E+00 -0.00000000000E+00 -0.31424437518E+03  0.31424437518E+03  0.00000000000E+00 0.  1.
          6    1    1    2  501    0  0.14809343647E+02 -0.88458273432E+02  0.47192238395E+01  0.19403724867E+03  0.17200000000E+03 0.  1.
         -6    1    1    2    0  503 -0.14809343647E+02  0.88458273432E+02 -0.17674532287E+03  0.26242540265E+03  0.17200000000E+03 0.  1.
</event>
<event>
 4    1  0.5640532E+000  0.1937156E+03  0.7818608E-02  0.1155152E+00
         21   -1    0    0  501  502  0.00000000000E+00  0.00000000000E+00  0.22737562091E+03  0.22737562091E+03  0.00000000000E+00 0. -1.
         21   -1    0    0  502  503 -0.00000000000E+00 -0.00000000000E+00 -0.73401070464E+03  0.73401070464E+03  0.00000000000E+00 0. -1.
          6    1    1    2  501    0 -0.64758418802E+02 -0.61221608631E+02  0.16989863744E+03  0.25766506394E+03  0.17200000000E+03 0. -1.
         -6    1    1    2    0  503  0.64758418802E+02  0.61221608631E+02 -0.67653372116E+03  0.70372126161E+03  0.17200000000E+03 0. -1.
</event>
<event>
 4    1  0.5640532E+000  0.3695454E+03  0.7818608E-02  0.1054867E+00
         21   -1    0    0  501  502  0.00000000000E+00  0.00000000000E+00  0.45650470921E+03  0.45650470921E+03  0.00000000000E+00 0. -1.
         21   -1    0    0  502  503 -0.00000000000E+00 -0.00000000000E+00 -0.38581525133E+03  0.38581525133E+03  0.00000000000E+00 0.  1.
          6    1    1    2  501    0  0.26069030892E+03  0.19753567435E+03  0.23495262988E+03  0.43791154140E+03  0.17200000000E+03 0. -1.
         -6    1    1    2    0  503 -0.26069030892E+03 -0.19753567435E+03 -0.16426317200E+03  0.40440841915E+03  0.17200000000E+03 0.  1.
</event>
<event>
 4    1  0.5640532E+000  0.1840597E+03  0.7818608E-02  0.1163931E+00
         21   -1    0    0  501  502  0.00000000000E+00  0.00000000000E+00  0.45186147648E+03  0.45186147648E+03  0.00000000000E+00 0. -1.
         21   -1    0    0  502  503 -0.00000000000E+00 -0.00000000000E+00 -0.90582725745E+02  0.90582725745E+02  0.00000000000E+00 0. -1.
          6    1    1    2  501    0 -0.26616995769E+02  0.59879014256E+02  0.29322503498E+03  0.34620641524E+03  0.17200000000E+03 0. -1.
         -6    1    1    2    0  503  0.26616995769E+02 -0.59879014256E+02  0.68053715746E+02  0.19623778698E+03  0.17200000000E+03 0. -1.
</event>
<event>
 4    1  0.5640532E+000  0.2501094E+03  0.7818608E-02  0.1113236E+00
         21   -1    0    0  501  502  0.00000000000E+00  0.00000000000E+00  0.77612331148E+02  0.77612331148E+02  0.00000000000E+00 0.  1.
         21   -1    0    0  502  503 -0.00000000000E+00 -0.00000000000E+00 -0.96584449267E+03  0.96584449267E+03  0.00000000000E+00 0.  1.
          6    1    1    2  501    0  0.18079430443E+03 -0.16856794959E+02 -0.23186307696E+03  0.34105017007E+03  0.17200000000E+03 0.  1.
         -6    1    1    2    0  503 -0.18079430443E+03  0.16856794959E+02 -0.65636908456E+03  0.70240665374E+03  0.17200000000E+03 0.  1.
</event>
<event>
 4    1  0.5640532E+000  0.1787878E+03  0.7818608E-02  0.1168981E+00
         21   -1    0    0  501  502  0.00000000000E+00  0.00000000000E+00  0.10749976476E+03  0.10749976476E+03  0.00000000000E+00 0. -1.
         21   -1    0    0  502  503 -0.00000000000E+00 -0.00000000000E+00 -0.31213375098E+03  0.31213375098E+03  0.00000000000E+00 0. -1.
          6    1    1    2  501    0  0.44243783596E+02  0.20580512908E+02 -0.56654449805E+02  0.18754945103E+03  0.17200000000E+03 0. -1.
         -6    1    1    2    0  503 -0.44243783596E+02 -0.20580512908E+02 -0.14797953641E+03  0.23208406472E+03  0.17200000000E+03 0. -1.
</event>
<event>
 4    1  0.5640532E+000  0.2045787E+03  0.7818608E-02  0.1145932E+00
         21   -1    0    0  501  502  0.00000000000E+00  0.00000000000E+00  0.41189439844E+03  0.41189439844E+03  0.00000000000E+00 0.  1.
         21   -1    0    0  502  503 -0.00000000000E+00 -0.00000000000E+00 -0.21977411484E+03  0.21977411484E+03  0.00000000000E+00 0. -1.
          6    1    1    2  501    0 -0.92537054344E+02  0.60871610343E+02  0.32764723347E+03  0.38627084924E+03  0.17200000000E+03 0.  1.
         -6    1    1    2    0  503  0.92537054344E+02 -0.60871610343E+02 -0.13552694987E+03  0.24539766403E+03  0.17200000000E+03 0. -1.
</event>
<event>
 4    1  0.5640532E+000  0.1789144E+03  0.7818608E-02  0.1168858E+00
         21   -1    0    0  501  502  0.00000000000E+00  0.00000000000E+00  0.50976831077E+02  0.50976831077E+02  0.00000000000E+00 0.  1.
         21   -1    0    0  502  503 -0.00000000000E+00 -0.00000000000E+00 -0.68223164747E+03  0.68223164747E+03  0.00000000000E+00 0.  1.
          6    1    1    2  501    0  0.59657299472E+01 -0.48895551872E+02 -0.41904636003E+03  0.45564264153E+03  0.17200000000E+03 0.  1.
         -6    1    1    2    0  503 -0.59657299472E+01  0.48895551872E+02 -0.21220845636E+03  0.27756583702E+03  0.17200000000E+03 0.  1.
</event>
<event>
 4    1  0.5640532E+000  0.2733114E+03  0.7818608E-02  0.1099399E+00
         21   -1    0    0  503  502  0.00000000000E+00  0.00000000000E+00  0.45844537217E+03  0.45844537217E+03  0.00000000000E+00 0. -1.
         21   -1    0    0  501  503 -0.00000000000E+00 -0.00000000000E+00 -0.16478672736E+03  0.16478672736E+03  0.00000000000E+00 0. -1.
          6    1    1    2  501    0  0.20166932903E+03 -0.66667990149E+02  0.17981665569E+03  0.32715924081E+03  0.17200000000E+03 0. -1.
         -6    1    1    2    0  502 -0.20166932903E+03  0.66667990149E+02  0.11384198912E+03  0.29607285872E+03  0.17200000000E+03 0. -1.
</event>
<event>
 4    1  0.5640532E+000  0.2356621E+03  0.7818608E-02  0.1122717E+00
         21   -1    0    0  503  502  0.00000000000E+00  0.00000000000E+00  0.92964810787E+03  0.92964810787E+03  0.00000000000E+00 0. -1.
         21   -1    0    0  501  503 -0.00000000000E+00 -0.00000000000E+00 -0.59768463032E+02  0.59768463032E+02  0.00000000000E+00 0. -1.
          6    1    1    2  501    0 -0.11340211184E+03  0.11442292038E+03  0.44584404324E+03  0.50429510663E+03  0.17200000000E+03 0. -1.
         -6    1    1    2    0  502  0.11340211184E+03 -0.11442292038E+03  0.42403560160E+03  0.48512146428E+03  0.17200000000E+03 0. -1.
</event>
<event>
 4    1  0.5640532E+000  0.1782315E+03  0.7818608E-02  0.1169526E+00
         21   -1    0    0  501  502  0.00000000000E+00  0.00000000000E+00  0.39758803072E+03  0.39758803072E+03  0.00000000000E+00 0. -1.
         21   -1    0    0  502  503 -0.00000000000E+00 -0.00000000000E+00 -0.15387055191E+03  0.15387055191E+03  0.00000000000E+00 0. -1.
          6    1    1    2  501    0  0.45186851543E+02 -0.11857890024E+02  0.31303794451E+03  0.36022106520E+03  0.17200000000E+03 0. -1.
         -6    1    1    2    0  503 -0.45186851543E+02  0.11857890024E+02 -0.69320465699E+02  0.19123751743E+03  0.17200000000E+03 0. -1.
</event>
<event>
 4    1  0.5640532E+000  0.2028798E+03  0.7818608E-02  0.1147332E+00
         21   -1    0    0  501  502  0.00000000000E+00  0.00000000000E+00  0.32933902977E+03  0.32933902977E+03  0.00000000000E+00 0.  1.
         21   -1    0    0  502  503 -0.00000000000E+00 -0.00000000000E+00 -0.18628265255E+03  0.18628265255E+03  0.00000000000E+00 0.  1.
          6    1    1    2  501    0 -0.94283323977E+02 -0.51835019721E+02  0.21942568205E+03  0.29884418079E+03  0.17200000000E+03 0.  1.
         -6    1    1    2    0  503  0.94283323977E+02  0.51835019721E+02 -0.76369304823E+02  0.21677750153E+03  0.17200000000E+03 0.  1.
</event>
<event>
 4    1  0.5640532E+000  0.1896341E+03  0.7818608E-02  0.1158792E+00
         21   -1    0    0  501  502  0.00000000000E+00  0.00000000000E+00  0.77647223328E+02  0.77647223328E+02  0.00000000000E+00 0. -1.
         21   -1    0    0  502  503 -0.00000000000E+00 -0.00000000000E+00 -0.12620696238E+04  0.12620696238E+04  0.00000000000E+00 0. -1.
          6    1    1    2  501    0  0.65732390991E+02 -0.45346994021E+02 -0.59248075806E+02  0.19867418448E+03  0.17200000000E+03 0. -1.
         -6    1    1    2    0  503 -0.65732390991E+02  0.45346994021E+02 -0.11251743246E+04  0.11410426626E+04  0.17200000000E+03 0. -1.
</event>
<event>
 4    1  0.5640532E+000  0.2065731E+03  0.7818608E-02  0.1144309E+00
         21   -1    0    0  501  502  0.00000000000E+00  0.00000000000E+00  0.81765438430E+03  0.81765438430E+03  0.00000000000E+00 0. -1.
         21   -1    0    0  502  503 -0.00000000000E+00 -0.00000000000E+00 -0.65322490601E+02  0.65322490601E+02  0.00000000000E+00 0. -1.
          6    1    1    2  501    0 -0.75658822875E+02  0.85814756912E+02  0.57412746401E+03  0.61015963068E+03  0.17200000000E+03 0.  1.
         -6    1    1    2    0  503  0.75658822875E+02 -0.85814756912E+02  0.17820442969E+03  0.27281724422E+03  0.17200000000E+03 0.  1.
</event>
<event>
 4    1  0.5640532E+000  0.1763908E+03  0.7818608E-02  0.1171342E+00
         21   -1    0    0  503  502  0.00000000000E+00  0.00000000000E+00  0.72534256423E+03  0.72534256423E+03  0.00000000000E+00 0. -1.
         21   -1    0    0  501  503 -0.00000000000E+00 -0.00000000000E+00 -0.68422171731E+02  0.68422171731E+02  0.00000000000E+00 0. -1.
          6    1    1    2  501    0 -0.48083676067E+01 -0.38814712025E+02  0.86043142622E+02  0.19625780153E+03  0.17200000000E+03 0. -1.
         -6    1    1    2    0  502  0.48083676067E+01  0.38814712025E+02  0.57087724988E+03  0.59750693443E+03  0.17200000000E+03 0. -1.
</event>
<event>
 4    1  0.5640532E+000  0.2088840E+03  0.7818608E-02  0.1142453E+00
         21   -1    0    0  501  502  0.00000000000E+00  0.00000000000E+00  0.13876548143E+04  0.13876548143E+04  0.00000000000E+00 0.  1.
         21   -1    0    0  502  503 -0.00000000000E+00 -0.00000000000E+00 -0.62064867489E+02  0.62064867489E+02  0.00000000000E+00 0.  1.
          6    1    1    2  501    0  0.40126116578E+01 -0.11845845044E+03  0.11719435466E+04  0.11904134500E+04  0.17200000000E+03 0.  1.
         -6    1    1    2    0  503 -0.40126116578E+01  0.11845845044E+03  0.15364640015E+03  0.25930623173E+03  0.17200000000E+03 0.  1.
</event>
<event>
 4    1  0.5640532E+000  0.1906799E+03  0.7818608E-02  0.1157850E+00
         21   -1    0    0  501  502  0.00000000000E+00  0.00000000000E+00  0.92294175193E+02  0.92294175193E+02  0.00000000000E+00 0.  1.
         21   -1    0    0  502  503 -0.00000000000E+00 -0.00000000000E+00 -0.46178963064E+03  0.46178963064E+03  0.00000000000E+00 0.  1.
          6    1    1    2  501    0  0.78275726894E+02  0.25450529586E+02 -0.29093719943E+03  0.34785524704E+03  0.17200000000E+03 0.  1.
         -6    1    1    2    0  503 -0.78275726894E+02 -0.25450529586E+02 -0.78558256021E+02  0.20622855880E+03  0.17200000000E+03 0.  1.
</event>
<event>
 4    1  0.5640532E+000  0.2203008E+03  0.7818608E-02  0.1133659E+00
         21   -1    0    0  501  502  0.00000000000E+00  0.00000000000E+00  0.30165015325E+03  0.30165015325E+03  0.00000000000E+00 0. -1.
         21   -1    0    0  502  503 -0.00000000000E+00 -0.00000000000E+00 -0.18106258114E+03  0.18106258114E+03  0.00000000000E+00 0. -1.
          6    1    1    2  501    0 -0.88782887445E+02  0.10519521345E+03  0.14085523192E+03  0.26148160622E+03  0.17200000000E+03 0. -1.
         -6    1    1    2    0  503  0.88782887445E+02 -0.10519521345E+03 -0.20267659811E+02  0.22123112816E+03  0.17200000000E+03 0. -1.
</event>
<event>
 4    1  0.5640532E+000  0.1768594E+03  0.7818608E-02  0.1170878E+00
         21   -1    0    0  503  502  0.00000000000E+00  0.00000000000E+00  0.18624513815E+04  0.18624513815E+04  0.00000000000E+00 0.  1.
         21   -1    0    0  501  503 -0.00000000000E+00 -0.00000000000E+00 -0.47909946854E+02  0.47909946854E+02  0.00000000000E+00 0.  1.
          6    1    1    2  501    0  0.33616820196E+02  0.23772832082E+02  0.13750319991E+03  0.22402314195E+03  0.17200000000E+03 0.  1.
         -6    1    1    2    0  502 -0.33616820196E+02 -0.23772832082E+02  0.16770382347E+04  0.16863381864E+04  0.17200000000E+03 0.  1.
</event>
<event>
 4    1  0.5640532E+000  0.2245413E+03  0.7818608E-02  0.1130542E+00
         21   -1    0    0  501  502  0.00000000000E+00  0.00000000000E+00  0.28774431820E+03  0.28774431820E+03  0.00000000000E+00 0. -1.
         21   -1    0    0  502  503 -0.00000000000E+00 -0.00000000000E+00 -0.35823623912E+03  0.35823623912E+03  0.00000000000E+00 0.  1.
          6    1    1    2  501    0  0.14432797211E+03 -0.20594967973E+01  0.19561393422E+03  0.29779794546E+03  0.17200000000E+03 0. -1.
         -6    1    1    2    0  503 -0.14432797211E+03  0.20594967973E+01 -0.26610585514E+03  0.34818261186E+03  0.17200000000E+03 0.  1.
</event>
<event>
 4    1  0.5640532E+000  0.1741323E+03  0.7818608E-02  0.1173606E+00
         21   -1    0    0  503  502  0.00000000000E+00  0.00000000000E+00  0.99880982918E+03  0.99880982918E+03  0.00000000000E+00 0. -1.
         21   -1    0    0  501  503 -0.00000000000E+00 -0.00000000000E+00 -0.42263796318E+02  0.42263796318E+02  0.00000000000E+00 0. -1.
          6    1    1    2  501    0 -0.20609353873E+02  0.17700797198E+02  0.20199720600E+03  0.26669258505E+03  0.17200000000E+03 0. -1.
         -6    1    1    2    0  502  0.20609353873E+02 -0.17700797198E+02  0.75454882686E+03  0.77438104045E+03  0.17200000000E+03 0. -1.
</event>
<event>
 4    1  0.5640532E+000  0.1773669E+03  0.7818608E-02  0.1170376E+00
         21   -1    0    0  503  502  0.00000000000E+00  0.00000000000E+00  0.72385875245E+02  0.72385875245E+02  0.00000000000E+00 0. -1.
         21   -1    0    0  501  503 -0.00000000000E+00 -0.00000000000E+00 -0.50593439320E+03  0.50593439320E+03  0.00000000000E+00 0. -1.
          6    1    1    2  501    0 -0.35289570297E+02  0.25093048090E+02 -0.32535080710E+03  0.37055655778E+03  0.17200000000E+03 0. -1.
         -6    1    1    2    0  502  0.35289570297E+02 -0.25093048090E+02 -0.10819771085E+03  0.20776371066E+03  0.17200000000E+03 0. -1.
</event>
<event>
 4    1  0.5640532E+000  0.1962844E+03  0.7818608E-02  0.1152912E+00
         21   -1    0    0  501  502  0.00000000000E+00  0.00000000000E+00  0.18054969651E+03  0.18054969651E+03  0.00000000000E+00 0. -1.
         21   -1    0    0  502  503 -0.00000000000E+00 -0.00000000000E+00 -0.24907411005E+03  0.24907411005E+03  0.00000000000E+00 0. -1.
          6    1    1    2  501    0  0.83500450115E+02  0.44398663452E+02  0.47045036183E+02  0.20184350848E+03  0.17200000000E+03 0. -1.
         -6    1    1    2    0  503 -0.83500450115E+02 -0.44398663452E+02 -0.11556944972E+03  0.22778029808E+03  0.17200000000E+03 0. -1.
</event>
<event>
 4    1  0.5640532E+000  0.1816639E+03  0.7818608E-02  0.1166202E+00
         21   -1    0    0  501  502  0.00000000000E+00  0.00000000000E+00  0.62635034637E+03  0.62635034637E+03  0.00000000000E+00 0.  1.
         21   -1    0    0  502  503 -0.00000000000E+00 -0.00000000000E+00 -0.74079329562E+02  0.74079329562E+02  0.00000000000E+00 0. -1.
          6    1    1    2  501    0  0.25439695548E+02  0.52636554667E+02  0.46432465411E+03  0.49859720157E+03  0.17200000000E+03 0.  1.
         -6    1    1    2    0  503 -0.25439695548E+02 -0.52636554667E+02  0.87946362701E+02  0.20183247437E+03  0.17200000000E+03 0. -1.
</event>
<event>
 4    1  0.5640532E+000  0.1872342E+03  0.7818608E-02  0.1160980E+00
         21   -1    0    0  503  502  0.00000000000E+00  0.00000000000E+00  0.19219552490E+03  0.19219552490E+03  0.00000000000E+00 0. -1.
         21   -1    0    0  501  503 -0.00000000000E+00 -0.00000000000E+00 -0.20335297131E+03  0.20335297131E+03  0.00000000000E+00 0. -1.
          6    1    1    2  501    0 -0.28654852425E+02  0.68202211534E+02 -0.69061755890E+02  0.19956494770E+03  0.17200000000E+03 0. -1.
         -6    1    1    2    0  502  0.28654852425E+02 -0.68202211534E+02  0.57904309478E+02  0.19598354850E+03  0.17200000000E+03 0. -1.
</event>
<event>
 4    1  0.5640532E+000  0.5889264E+03  0.7818608E-02  0.9928650E-01
         21   -1    0    0  501  502  0.00000000000E+00  0.00000000000E+00  0.41001140623E+03  0.41001140623E+03  0.00000000000E+00 0. -1.
         21   -1    0    0  502  503 -0.00000000000E+00 -0.00000000000E+00 -0.84598180937E+03  0.84598180937E+03  0.00000000000E+00 0.  1.
          6    1    1    2  501    0 -0.32967316116E+03  0.45669021442E+03 -0.21235840069E+03  0.62604347731E+03  0.17200000000E+03 0.  1.
         -6    1    1    2    0  503  0.32967316116E+03 -0.45669021442E+03 -0.22361200244E+03  0.62994973829E+03  0.17200000000E+03 0. -1.
</event>
<event>
 4    1  0.5640532E+000  0.2049076E+03  0.7818608E-02  0.1145663E+00
         21   -1    0    0  503  502  0.00000000000E+00  0.00000000000E+00  0.19397650948E+03  0.19397650948E+03  0.00000000000E+00 0.  1.
         21   -1    0    0  501  503 -0.00000000000E+00 -0.00000000000E+00 -0.26051617542E+03  0.26051617542E+03  0.00000000000E+00 0.  1.
          6    1    1    2  501    0  0.17356747581E+02 -0.11000854666E+03 -0.12672618449E+03  0.24092875059E+03  0.17200000000E+03 0.  1.
         -6    1    1    2    0  502 -0.17356747581E+02  0.11000854666E+03  0.60186518547E+02  0.21356393432E+03  0.17200000000E+03 0.  1.
</event>
<event>
 4    1  0.5640532E+000  0.1861467E+03  0.7818608E-02  0.1161983E+00
         21   -1    0    0  501  502  0.00000000000E+00  0.00000000000E+00  0.99858835049E+02  0.99858835049E+02  0.00000000000E+00 0. -1.
         21   -1    0    0  502  503 -0.00000000000E+00 -0.00000000000E+00 -0.50816430764E+03  0.50816430764E+03  0.00000000000E+00 0. -1.
          6    1    1    2  501    0 -0.69048412011E+02  0.17288912903E+02 -0.32943095111E+02  0.18903924785E+03  0.17200000000E+03 0. -1.
         -6    1    1    2    0  503  0.69048412011E+02 -0.17288912903E+02 -0.37536237748E+03  0.41898389485E+03  0.17200000000E+03 0. -1.
</event>
<event>
 4    1  0.5640532E+000  0.2142926E+03  0.7818608E-02  0.1138211E+00
         21   -1    0    0  503  502  0.00000000000E+00  0.00000000000E+00  0.47082463350E+03  0.47082463350E+03  0.00000000000E+00 0. -1.
         21   -1    0    0  501  503 -0.00000000000E+00 -0.00000000000E+00 -0.12796240067E+03  0.12796240067E+03  0.00000000000E+00 0.  1.
          6    1    1    2  501    0 -0.11796616106E+03  0.49206708257E+02  0.25434699232E+02  0.21579675442E+03  0.17200000000E+03 0. -1.
         -6    1    1    2    0  502  0.11796616106E+03 -0.49206708257E+02  0.31742753360E+03  0.38299027975E+03  0.17200000000E+03 0.  1.
</event>
<event>
 4    1  0.5640532E+000  0.1751310E+03  0.7818608E-02  0.1172600E+00
         21   -1    0    0  501  502  0.00000000000E+00  0.00000000000E+00  0.35201262664E+02  0.35201262664E+02  0.00000000000E+00 0.  1.
         21   -1    0    0  502  503 -0.00000000000E+00 -0.00000000000E+00 -0.22031913713E+04  0.22031913713E+04  0.00000000000E+00 0.  1.
          6    1    1    2  501    0 -0.32533270065E+02 -0.53342980386E+01 -0.21380417741E+03  0.27637491687E+03  0.17200000000E+03 0.  1.
         -6    1    1    2    0  503  0.32533270065E+02  0.53342980386E+01 -0.19541859312E+04  0.19620177171E+04  0.17200000000E+03 0.  1.
</event>
<event>
 4    1  0.5640532E+000  0.1729549E+03  0.7818608E-02  0.1174801E+00
         21   -1    0    0  503  502  0.00000000000E+00  0.00000000000E+00  0.39484281019E+02  0.39484281019E+02  0.00000000000E+00 0. -1.
         21   -1    0    0  501  503 -0.00000000000E+00 -0.00000000000E+00 -0.85722356506E+03  0.85722356506E+03  0.00000000000E+00 0. -1.
          6    1    1    2  501    0  0.18113334335E+02 -0.11381655036E+01 -0.56171406900E+03  0.58773810802E+03  0.17200000000E+03 0.  1.
         -6    1    1    2    0  502 -0.18113334335E+02  0.11381655036E+01 -0.25602521504E+03  0.30896973806E+03  0.17200000000E+03 0.  1.
</event>
<event>
 4    1  0.5640532E+000  0.2259295E+03  0.7818608E-02  0.1129538E+00
         21   -1    0    0  503  502  0.00000000000E+00  0.00000000000E+00  0.90227776863E+03  0.90227776863E+03  0.00000000000E+00 0.  1.
         21   -1    0    0  501  503 -0.00000000000E+00 -0.00000000000E+00 -0.73924558291E+02  0.73924558291E+02  0.00000000000E+00 0. -1.
          6    1    1    2  501    0  0.97366735757E+02  0.10945249158E+03  0.17769863212E+03  0.28743857257E+03  0.17200000000E+03 0. -1.
         -6    1    1    2    0  502 -0.97366735757E+02 -0.10945249158E+03  0.65065457822E+03  0.68876375435E+03  0.17200000000E+03 0.  1.
</event>
<event>
 4    1  0.5640532E+000  0.2097876E+03  0.7818608E-02  0.1141734E+00
         21   -1    0    0  501  502  0.00000000000E+00  0.00000000000E+00  0.85005670871E+02  0.85005670871E+02  0.00000000000E+00 0. -1.
         21   -1    0    0  502  503 -0.00000000000E+00 -0.00000000000E+00 -0.83421685975E+03  0.83421685975E+03  0.00000000000E+00 0. -1.
          6    1    1    2  501    0  0.59284060595E+02  0.10446159507E+03 -0.91517076034E+02  0.22888031783E+03  0.17200000000E+03 0. -1.
         -6    1    1    2    0  503 -0.59284060595E+02 -0.10446159507E+03 -0.65769411285E+03  0.69034221279E+03  0.17200000000E+03 0. -1.
</event>
<event>
 4    1  0.5640532E+000  0.1776466E+03  0.7818608E-02  0.1170100E+00
         21   -1    0    0  503  502  0.00000000000E+00  0.00000000000E+00  0.37416759007E+03  0.37416759007E+03  0.00000000000E+00 0.  1.
         21   -1    0    0  501  503 -0.00000000000E+00 -0.00000000000E+00 -0.13503974393E+03  0.13503974393E+03  0.00000000000E+00 0.  1.
          6    1    1    2  501    0  0.13673550421E+02  0.42277232976E+02 -0.36436176968E+02  0.18134476943E+03  0.17200000000E+03 0.  1.
         -6    1    1    2    0  502 -0.13673550421E+02 -0.42277232976E+02  0.27556402311E+03  0.32786256456E+03  0.17200000000E+03 0.  1.
</event>
<event>
 4    1  0.5640532E+000  0.3154184E+03  0.7818608E-02  0.1077777E+00
         21   -1    0    0  503  502  0.00000000000E+00  0.00000000000E+00  0.11501488108E+04  0.11501488108E+04  0.00000000000E+00 0.  1.
         21   -1    0    0  501  503 -0.00000000000E+00 -0.00000000000E+00 -0.91519854765E+02  0.91519854765E+02  0.00000000000E+00 0.  1.
          6    1    1    2  501    0 -0.26400781853E+03 -0.14306281619E+02  0.67470256355E+03  0.74479013635E+03  0.17200000000E+03 0.  1.
         -6    1    1    2    0  502  0.26400781853E+03  0.14306281619E+02  0.38392639245E+03  0.49687852918E+03  0.17200000000E+03 0.  1.
</event>
<event>
 4    1  0.5640532E+000  0.1732484E+03  0.7818608E-02  0.1174502E+00
         21   -1    0    0  501  502  0.00000000000E+00  0.00000000000E+00  0.12300180506E+04  0.12300180506E+04  0.00000000000E+00 0.  1.
         21   -1    0    0  502  503 -0.00000000000E+00 -0.00000000000E+00 -0.27297611181E+02  0.27297611181E+02  0.00000000000E+00 0.  1.
          6    1    1    2  501    0 -0.10736251209E+02  0.17769139853E+02  0.80610624889E+03  0.82451336794E+03  0.17200000000E+03 0.  1.
         -6    1    1    2    0  503  0.10736251209E+02 -0.17769139853E+02  0.39661419054E+03  0.43280229384E+03  0.17200000000E+03 0.  1.
</event>
<event>
 4    1  0.5640532E+000  0.1735604E+03  0.7818608E-02  0.1174185E+00
         21   -1    0    0  503  502  0.00000000000E+00  0.00000000000E+00  0.10914369284E+03  0.10914369284E+03  0.00000000000E+00 0.  1.
         21   -1    0    0  501  503 -0.00000000000E+00 -0.00000000000E+00 -0.28180508892E+03  0.28180508892E+03  0.00000000000E+00 0.  1.
          6    1    1    2  501    0  0.90139293634E+01  0.21399703812E+02 -0.11439652366E+03  0.20786958140E+03  0.17200000000E+03 0.  1.
         -6    1    1    2    0  502 -0.90139293634E+01 -0.21399703812E+02 -0.58264872413E+02  0.18307920036E+03  0.17200000000E+03 0.  1.
</event>
<event>
 4    1  0.5640532E+000  0.1778052E+03  0.7818608E-02  0.1169944E+00
         21   -1    0    0  503  502  0.00000000000E+00  0.00000000000E+00  0.39236667655E+03  0.39236667655E+03  0.00000000000E+00 0. -1.
         21   -1    0    0  501  503 -0.00000000000E+00 -0.00000000000E+00 -0.81018870781E+02  0.81018870781E+02  0.00000000000E+00 0. -1.
          6    1    1    2  501    0  0.44955764557E+02  0.31069069616E+01  0.17320698300E+03  0.24822435940E+03  0.17200000000E+03 0. -1.
         -6    1    1    2    0  502 -0.44955764557E+02 -0.31069069616E+01  0.13814082277E+03  0.22516118794E+03  0.17200000000E+03 0. -1.
</event>
<event>
 4    1  0.5640532E+000  0.1767051E+03  0.7818608E-02  0.1171030E+00
         21   -1    0    0  503  502  0.00000000000E+00  0.00000000000E+00  0.13005893636E+04  0.13005893636E+04  0.00000000000E+00 0. -1.
         21   -1    0    0  501  503 -0.00000000000E+00 -0.00000000000E+00 -0.32297993153E+02  0.32297993153E+02  0.00000000000E+00 0. -1.
          6    1    1    2  501    0  0.40399705423E+02  0.29270263504E+01  0.97178239790E+03  0.98771743558E+03  0.17200000000E+03 0. -1.
         -6    1    1    2    0  502 -0.40399705423E+02 -0.29270263504E+01  0.29650897254E+03  0.34516992117E+03  0.17200000000E+03 0. -1.
</event>
<event>
 4    1  0.5640532E+000  0.2532874E+03  0.7818608E-02  0.1111245E+00
         21   -1    0    0  501  502  0.00000000000E+00  0.00000000000E+00  0.20337241596E+04  0.20337241596E+04  0.00000000000E+00 0.  1.
         21   -1    0    0  502  503 -0.00000000000E+00 -0.00000000000E+00 -0.35373141745E+02  0.35373141745E+02  0.00000000000E+00 0. -1.
          6    1    1    2  501    0  0.16155656238E+02 -0.18522821250E+03  0.13394970922E+04  0.13632340063E+04  0.17200000000E+03 0.  1.
         -6    1    1    2    0  503 -0.16155656238E+02  0.18522821250E+03  0.65885392569E+03  0.70586329508E+03  0.17200000000E+03 0. -1.
</event>
<event>
 4    1  0.5640532E+000  0.1722801E+03  0.7818608E-02  0.1175491E+00
         21   -1    0    0  501  502  0.00000000000E+00  0.00000000000E+00  0.36239215137E+03  0.36239215137E+03  0.00000000000E+00 0.  1.
         21   -1    0    0  502  503 -0.00000000000E+00 -0.00000000000E+00 -0.14399947989E+03  0.14399947989E+03  0.00000000000E+00 0.  1.
          6    1    1    2  501    0 -0.74269138294E+01 -0.64234871976E+01  0.27546683080E+03  0.32490367051E+03  0.17200000000E+03 0.  1.
         -6    1    1    2    0  503  0.74269138294E+01  0.64234871976E+01 -0.57074159326E+02  0.18148796076E+03  0.17200000000E+03 0.  1.
</event>
<event>
 4    1  0.5640532E+000  0.2209092E+03  0.7818608E-02  0.1133207E+00
         21   -1    0    0  501  502  0.00000000000E+00  0.00000000000E+00  0.42311638510E+02  0.42311638510E+02  0.00000000000E+00 0.  1.
         21   -1    0    0  502  503 -0.00000000000E+00 -0.00000000000E+00 -0.11582380611E+04  0.11582380611E+04  0.00000000000E+00 0.  1.
          6    1    1    2  501    0  0.10977767256E+03  0.84650560847E+02 -0.59689060765E+03  0.63645836655E+03  0.17200000000E+03 0.  1.
         -6    1    1    2    0  503 -0.10977767256E+03 -0.84650560847E+02 -0.51903581489E+03  0.56409133302E+03  0.17200000000E+03 0.  1.
</event>
<event>
 4    1  0.5640532E+000  0.2423666E+03  0.7818608E-02  0.1118226E+00
         21   -1    0    0  503  502  0.00000000000E+00  0.00000000000E+00  0.15027552478E+04  0.15027552478E+04  0.00000000000E+00 0. -1.
         21   -1    0    0  501  503 -0.00000000000E+00 -0.00000000000E+00 -0.75766306203E+02  0.75766306203E+02  0.00000000000E+00 0.  1.
          6    1    1    2  501    0 -0.16685805374E+03  0.36276089592E+02  0.16435869170E+03  0.29284013439E+03  0.17200000000E+03 0.  1.
         -6    1    1    2    0  502  0.16685805374E+03 -0.36276089592E+02  0.12626302499E+04  0.12856814196E+04  0.17200000000E+03 0. -1.
</event>
<event>
 4    1  0.5640532E+000  0.2331471E+03  0.7818608E-02  0.1124444E+00
         21   -1    0    0  503  502  0.00000000000E+00  0.00000000000E+00  0.28202684494E+03  0.28202684494E+03  0.00000000000E+00 0.  1.
         21   -1    0    0  501  503 -0.00000000000E+00 -0.00000000000E+00 -0.10647328814E+04  0.10647328814E+04  0.00000000000E+00 0.  1.
          6    1    1    2  501    0 -0.15704621130E+03 -0.10491677968E+02 -0.10007446649E+04  0.10275443894E+04  0.17200000000E+03 0.  1.
         -6    1    1    2    0  502  0.15704621130E+03  0.10491677968E+02  0.21803862851E+03  0.31921533690E+03  0.17200000000E+03 0.  1.
</event>
<event>
 4    1  0.5640532E+000  0.1807716E+03  0.7818608E-02  0.1167058E+00
         21   -1    0    0  501  502  0.00000000000E+00  0.00000000000E+00  0.12600326536E+04  0.12600326536E+04  0.00000000000E+00 0.  1.
         21   -1    0    0  502  503 -0.00000000000E+00 -0.00000000000E+00 -0.31327340292E+02  0.31327340292E+02  0.00000000000E+00 0.  1.
          6    1    1    2  501    0 -0.51277151769E+02  0.21564749749E+02  0.88224615926E+03  0.90057574376E+03  0.17200000000E+03 0.  1.
         -6    1    1    2    0  503  0.51277151769E+02 -0.21564749749E+02  0.34645915405E+03  0.39078425013E+03  0.17200000000E+03 0.  1.
</event>
<event>
 4    1  0.5640532E+000  0.1748354E+03  0.7818608E-02  0.1172897E+00
         21   -1    0    0  501  502  0.00000000000E+00  0.00000000000E+00  0.17371263182E+04  0.17371263182E+04  0.00000000000E+00 0.  1.
         21   -1    0    0  502  503 -0.00000000000E+00 -0.00000000000E+00 -0.63640723363E+02  0.63640723363E+02  0.00000000000E+00 0. -1.
          6    1    1    2  501    0 -0.27274052978E+02  0.15476929586E+02  0.16025992588E+04  0.16121078728E+04  0.17200000000E+03 0.  1.
         -6    1    1    2    0  503  0.27274052978E+02 -0.15476929586E+02  0.70886336049E+02  0.18865916875E+03  0.17200000000E+03 0. -1.
</event>
<event>
 4    1  0.5640532E+000  0.1818968E+03  0.7818608E-02  0.1165980E+00
         21   -1    0    0  503  502  0.00000000000E+00  0.00000000000E+00  0.36612185056E+02  0.36612185056E+02  0.00000000000E+00 0.  1.
         21   -1    0    0  501  503 -0.00000000000E+00 -0.00000000000E+00 -0.90999367095E+03  0.90999367095E+03  0.00000000000E+00 0.  1.
          6    1    1    2  501    0 -0.18824610716E+02  0.56107675238E+02 -0.47605180311E+03  0.50961922691E+03  0.17200000000E+03 0.  1.
         -6    1    1    2    0  502  0.18824610716E+02 -0.56107675238E+02 -0.39732968278E+03  0.43698662910E+03  0.17200000000E+03 0.  1.
</event>
<event>
 4    1  0.5640532E+000  0.2794468E+03  0.7818608E-02  0.1095991E+00
         21   -1    0    0  503  502  0.00000000000E+00  0.00000000000E+00  0.37069174846E+03  0.37069174846E+03  0.00000000000E+00 0. -1.
         21   -1    0    0  501  503 -0.00000000000E+00 -0.00000000000E+00 -0.25633851571E+03  0.25633851571E+03  0.00000000000E+00 0.  1.
          6    1    1    2  501    0 -0.52962070793E+02  0.21377915349E+03 -0.75166111155E+02  0.28937942511E+03  0.17200000000E+03 0. -1.
         -6    1    1    2    0  502  0.52962070793E+02 -0.21377915349E+03  0.18951934390E+03  0.33765083907E+03  0.17200000000E+03 0. -1.
</event>
<event>
 4    1  0.5640532E+000  0.2649669E+03  0.7818608E-02  0.1104195E+00
         21   -1    0    0  503  502  0.00000000000E+00  0.00000000000E+00  0.52198327486E+03  0.52198327486E+03  0.00000000000E+00 0.  1.
         21   -1    0    0  501  503 -0.00000000000E+00 -0.00000000000E+00 -0.19660969039E+03  0.19660969039E+03  0.00000000000E+00 0. -1.
          6    1    1    2  501    0  0.12458090147E+03 -0.15843952274E+03 -0.39254568890E+02  0.26785892659E+03  0.17200000000E+03 0. -1.
         -6    1    1    2    0  502 -0.12458090147E+03  0.15843952274E+03  0.36462815336E+03  0.45073403865E+03  0.17200000000E+03 0.  1.
</event>
<event>
 4    1  0.5640532E+000  0.2359094E+03  0.7818608E-02  0.1122548E+00
         21   -1    0    0  503  502  0.00000000000E+00  0.00000000000E+00  0.22742360701E+03  0.22742360701E+03  0.00000000000E+00 0.  1.
         21   -1    0    0  501  503 -0.00000000000E+00 -0.00000000000E+00 -0.32013050845E+03  0.32013050845E+03  0.00000000000E+00 0. -1.
          6    1    1    2  501    0  0.15268590231E+03  0.52500189535E+02  0.86530607362E+02  0.25127833308E+03  0.17200000000E+03 0.  1.
         -6    1    1    2    0  502 -0.15268590231E+03 -0.52500189535E+02 -0.17923750880E+03  0.29627578238E+03  0.17200000000E+03 0. -1.
</event>
<event>
 4    1  0.5640532E+000  0.2314861E+03  0.7818608E-02  0.1125598E+00
         21   -1    0    0  503  502  0.00000000000E+00  0.00000000000E+00  0.78431539819E+02  0.78431539819E+02  0.00000000000E+00 0. -1.
         21   -1    0    0  501  503 -0.00000000000E+00 -0.00000000000E+00 -0.91676935559E+03  0.91676935559E+03  0.00000000000E+00 0. -1.
          6    1    1    2  501    0 -0.12369870771E+03  0.93276250811E+02 -0.67032402980E+03  0.70916862182E+03  0.17200000000E+03 0. -1.
         -6    1    1    2    0  502  0.12369870771E+03 -0.93276250811E+02 -0.16801378597E+03  0.28603227358E+03  0.17200000000E+03 0. -1.
</event>
<event>
 4    1  0.5640532E+000  0.1949564E+03  0.7818608E-02  0.1154065E+00
         21   -1    0    0  501  502  0.00000000000E+00  0.00000000000E+00  0.14827865821E+03  0.14827865821E+03  0.00000000000E+00 0.  1.
         21   -1    0    0  502  503 -0.00000000000E+00 -0.00000000000E+00 -0.26789542055E+03  0.26789542055E+03  0.00000000000E+00 0.  1.
          6    1    1    2  501    0  0.87833771368E+02  0.26631040232E+02 -0.16569031287E+02  0.19565918454E+03  0.17200000000E+03 0.  1.
         -6    1    1    2    0  503 -0.87833771368E+02 -0.26631040232E+02 -0.10304773106E+03  0.22051489422E+03  0.17200000000E+03 0.  1.
</event>
<event>
 4    1  0.5640532E+000  0.1844924E+03  0.7818608E-02  0.1163525E+00
         21   -1    0    0  501  502  0.00000000000E+00  0.00000000000E+00  0.15981818179E+03  0.15981818179E+03  0.00000000000E+00 0.  1.
         21   -1    0    0  502  503 -0.00000000000E+00 -0.00000000000E+00 -0.21897062073E+03  0.21897062073E+03  0.00000000000E+00 0.  1.
          6    1    1    2  501    0  0.38114124491E+02  0.54779102304E+02  0.17606199551E+01  0.18450077593E+03  0.17200000000E+03 0. -1.
         -6    1    1    2    0  503 -0.38114124491E+02 -0.54779102304E+02 -0.60913058895E+02  0.19428802660E+03  0.17200000000E+03 0. -1.
</event>
<event>
 4    1  0.5640532E+000  0.1927231E+03  0.7818608E-02  0.1156028E+00
         21   -1    0    0  501  502  0.00000000000E+00  0.00000000000E+00  0.14003136063E+04  0.14003136063E+04  0.00000000000E+00 0.  1.
         21   -1    0    0  502  503 -0.00000000000E+00 -0.00000000000E+00 -0.54883521224E+02  0.54883521224E+02  0.00000000000E+00 0.  1.
          6    1    1    2  501    0 -0.43747035901E+02 -0.75129152421E+02  0.11957356434E+04  0.12111671733E+04  0.17200000000E+03 0.  1.
         -6    1    1    2    0  503  0.43747035901E+02  0.75129152421E+02  0.14969444160E+03  0.24402995418E+03  0.17200000000E+03 0.  1.
</event>
<event>
 4    1  0.5640532E+000  0.1779363E+03  0.7818608E-02  0.1169815E+00
         21   -1    0    0  503  502  0.00000000000E+00  0.00000000000E+00  0.52897849592E+02  0.52897849592E+02  0.00000000000E+00 0.  1.
         21   -1    0    0  501  503 -0.00000000000E+00 -0.00000000000E+00 -0.59922214276E+03  0.59922214276E+03  0.00000000000E+00 0.  1.
          6    1    1    2  501    0  0.29905432102E+02 -0.34394639119E+02 -0.28418664822E+03  0.33529595448E+03  0.17200000000E+03 0.  1.
         -6    1    1    2    0  502 -0.29905432102E+02  0.34394639119E+02 -0.26213764495E+03  0.31682403787E+03  0.17200000000E+03 0.  1.
</event>
<event>
 4    1  0.5640532E+000  0.1884466E+03  0.7818608E-02  0.1159870E+00
         21   -1    0    0  501  502  0.00000000000E+00  0.00000000000E+00  0.45889940432E+03  0.45889940432E+03  0.00000000000E+00 0.  1.
         21   -1    0    0  502  503 -0.00000000000E+00 -0.00000000000E+00 -0.81552855858E+02  0.81552855858E+02  0.00000000000E+00 0.  1.
          6    1    1    2  501    0 -0.19354041503E+02 -0.74522016666E+02  0.24975956027E+03  0.31287688927E+03  0.17200000000E+03 0.  1.
         -6    1    1    2    0  503  0.19354041503E+02  0.74522016666E+02  0.12758698820E+03  0.22757537092E+03  0.17200000000E+03 0.  1.
</event>
<event>
 4    1  0.5640532E+000  0.2397023E+03  0.7818608E-02  0.1119991E+00
         21   -1    0    0  501  502  0.00000000000E+00  0.00000000000E+00  0.62575630142E+02  0.62575630142E+02  0.00000000000E+00 0. -1.
         21   -1    0    0  502  503 -0.00000000000E+00 -0.00000000000E+00 -0.10720753487E+04  0.10720753487E+04  0.00000000000E+00 0. -1.
          6    1    1    2  501    0  0.15579364800E+03 -0.60012634752E+02 -0.28981893771E+03  0.37610130781E+03  0.17200000000E+03 0. -1.
         -6    1    1    2    0  503 -0.15579364800E+03  0.60012634752E+02 -0.71968078081E+03  0.75854967099E+03  0.17200000000E+03 0. -1.
</event>
<event>
 4    1  0.5640532E+000  0.1909273E+03  0.7818608E-02  0.1157628E+00
         21   -1    0    0  501  502  0.00000000000E+00  0.00000000000E+00  0.12644900450E+03  0.12644900450E+03  0.00000000000E+00 0. -1.
         21   -1    0    0  502  503 -0.00000000000E+00 -0.00000000000E+00 -0.11502578870E+04  0.11502578870E+04  0.00000000000E+00 0. -1.
          6    1    1    2  501    0 -0.27002010938E+02 -0.78358863929E+02  0.40695279425E+02  0.19521610056E+03  0.17200000000E+03 0. -1.
         -6    1    1    2    0  503  0.27002010938E+02  0.78358863929E+02 -0.10645041619E+04  0.10814907910E+04  0.17200000000E+03 0. -1.
</event>
<event>
 4    1  0.5640532E+000  0.2920074E+03  0.7818608E-02  0.1089306E+00
         21   -1    0    0  503  502  0.00000000000E+00  0.00000000000E+00  0.43946431565E+03  0.43946431565E+03  0.00000000000E+00 0.  1.
         21   -1    0    0  501  503 -0.00000000000E+00 -0.00000000000E+00 -0.23674408408E+03  0.23674408408E+03  0.00000000000E+00 0. -1.
          6    1    1    2  501    0  0.22279198696E+03 -0.77769183908E+02 -0.42257425409E+02  0.29504915764E+03  0.17200000000E+03 0. -1.
         -6    1    1    2    0  502 -0.22279198696E+03  0.77769183908E+02  0.24497765698E+03  0.38115924210E+03  0.17200000000E+03 0.  1.
</event>
<event>
 4    1  0.5640532E+000  0.1800555E+03  0.7818608E-02  0.1167749E+00
         21   -1    0    0  501  502  0.00000000000E+00  0.00000000000E+00  0.38419582650E+02  0.38419582650E+02  0.00000000000E+00 0.  1.
         21   -1    0    0  502  503 -0.00000000000E+00 -0.00000000000E+00 -0.12099194040E+04  0.12099194040E+04  0.00000000000E+00 0.  1.
          6    1    1    2  501    0 -0.13266886902E+02 -0.51575004272E+02 -0.24241987412E+03  0.30197249332E+03  0.17200000000E+03 0.  1.
         -6    1    1    2    0  503  0.13266886902E+02  0.51575004272E+02 -0.92907994719E+03  0.94636649329E+03  0.17200000000E+03 0.  1.
</event>
<event>
 4    1  0.5640532E+000  0.2011679E+03  0.7818608E-02  0.1148757E+00
         21   -1    0    0  501  502  0.00000000000E+00  0.00000000000E+00  0.99534904649E+02  0.99534904649E+02  0.00000000000E+00 0. -1.
         21   -1    0    0  502  503 -0.00000000000E+00 -0.00000000000E+00 -0.44508292561E+03  0.44508292561E+03  0.00000000000E+00 0. -1.
          6    1    1    2  501    0 -0.46952393082E+02 -0.93166476990E+02 -0.25286983838E+03  0.32312795424E+03  0.17200000000E+03 0. -1.
         -6    1    1    2    0  503  0.46952393082E+02  0.93166476990E+02 -0.92678182583E+02  0.22148987602E+03  0.17200000000E+03 0. -1.
</event>
<event>
 4    1  0.5640532E+000  0.1963068E+03  0.7818608E-02  0.1152893E+00
         21   -1    0    0  503  502  0.00000000000E+00  0.00000000000E+00  0.12488486155E+03  0.12488486155E+03  0.00000000000E+00 0.  1.
         21   -1    0    0  501  503 -0.00000000000E+00 -0.00000000000E+00 -0.37269831077E+03  0.37269831077E+03  0.00000000000E+00 0.  1.
          6    1    1    2  501    0  0.58740242903E+02  0.74175191643E+02 -0.22710303213E+03  0.30018687912E+03  0.17200000000E+03 0.  1.
         -6    1    1    2    0  502 -0.58740242903E+02 -0.74175191643E+02 -0.20710417092E+02  0.19739629320E+03  0.17200000000E+03 0.  1.
</event>
<event>
 4    1  0.5640532E+000  0.2035746E+03  0.7818608E-02  0.1146758E+00
         21   -1    0    0  501  502  0.00000000000E+00  0.00000000000E+00  0.93431664883E+03  0.93431664883E+03  0.00000000000E+00 0. -1.
         21   -1    0    0  502  503 -0.00000000000E+00 -0.00000000000E+00 -0.77333227819E+02  0.77333227819E+02  0.00000000000E+00 0. -1.
          6    1    1    2  501    0  0.41690778459E+02 -0.10060060982E+03  0.75880333441E+03  0.78563675068E+03  0.17200000000E+03 0. -1.
         -6    1    1    2    0  503 -0.41690778459E+02  0.10060060982E+03  0.98180086601E+02  0.22601312597E+03  0.17200000000E+03 0. -1.
</event>
<event>
 4    1  0.5640532E+000  0.2026112E+03  0.7818608E-02  0.1147554E+00
         21   -1    0    0  503  502  0.00000000000E+00  0.00000000000E+00  0.39090900791E+03  0.39090900791E+03  0.00000000000E+00 0. -1.
         21   -1    0    0  501  503 -0.00000000000E+00 -0.00000000000E+00 -0.36250827194E+03  0.36250827194E+03  0.00000000000E+00 0. -1.
          6    1    1    2  501    0  0.98609248230E+02  0.41755612186E+02 -0.30328926695E+03  0.36474058512E+03  0.17200000000E+03 0. -1.
         -6    1    1    2    0  502 -0.98609248230E+02 -0.41755612186E+02  0.33169000292E+03  0.38867669473E+03  0.17200000000E+03 0. -1.
</event>
<event>
 4    1  0.5640532E+000  0.2168461E+03  0.7818608E-02  0.1136256E+00
         21   -1    0    0  501  502  0.00000000000E+00  0.00000000000E+00  0.55664744482E+03  0.55664744482E+03  0.00000000000E+00 0. -1.
         21   -1    0    0  502  503 -0.00000000000E+00 -0.00000000000E+00 -0.16705441583E+03  0.16705441583E+03  0.00000000000E+00 0. -1.
          6    1    1    2  501    0  0.68692305130E+01  0.13187507656E+03  0.44920952255E+03  0.49881000119E+03  0.17200000000E+03 0. -1.
         -6    1    1    2    0  503 -0.68692305130E+01 -0.13187507656E+03 -0.59616493560E+02  0.22489185946E+03  0.17200000000E+03 0. -1.
</event>
<event>
 4    1  0.5640532E+000  0.1753524E+03  0.7818608E-02  0.1172378E+00
         21   -1    0    0  501  502  0.00000000000E+00  0.00000000000E+00  0.42844941252E+02  0.42844941252E+02  0.00000000000E+00 0. -1.
         21   -1    0    0  502  503 -0.00000000000E+00 -0.00000000000E+00 -0.72100796966E+03  0.72100796966E+03  0.00000000000E+00 0. -1.
          6    1    1    2  501    0  0.62971144882E+00 -0.34118602768E+02 -0.31308997721E+03  0.35885067845E+03  0.17200000000E+03 0. -1.
         -6    1    1    2    0  503 -0.62971144882E+00  0.34118602768E+02 -0.36507305119E+03  0.40500223246E+03  0.17200000000E+03 0. -1.
</event>
<event>
 4    1  0.5640532E+000  0.1729947E+03  0.7818608E-02  0.1174760E+00
         21   -1    0    0  501  502  0.00000000000E+00  0.00000000000E+00  0.23407987108E+03  0.23407987108E+03  0.00000000000E+00 0.  1.
         21   -1    0    0  502  503 -0.00000000000E+00 -0.00000000000E+00 -0.31706579394E+03  0.31706579394E+03  0.00000000000E+00 0.  1.
          6    1    1    2  501    0  0.17934041767E+02 -0.46416099456E+01  0.17138960064E+03  0.24351913601E+03  0.17200000000E+03 0.  1.
         -6    1    1    2    0  503 -0.17934041767E+02  0.46416099456E+01 -0.25437552349E+03  0.30762652901E+03  0.17200000000E+03 0.  1.
</event>
<event>
 4    1  0.5640532E+000  0.2196093E+03  0.7818608E-02  0.1134175E+00
         21   -1    0    0  501  502  0.00000000000E+00  0.00000000000E+00  0.33453579824E+03  0.33453579824E+03  0.00000000000E+00 0.  1.
         21   -1    0    0  502  503 -0.00000000000E+00 -0.00000000000E+00 -0.14617348633E+03  0.14617348633E+03  0.00000000000E+00 0. -1.
          6    1    1    2  501    0 -0.13588301193E+03  0.13417841339E+02  0.66004330485E+02  0.22931376549E+03  0.17200000000E+03 0. -1.
         -6    1    1    2    0  503  0.13588301193E+03 -0.13417841339E+02  0.12235798142E+03  0.25139551908E+03  0.17200000000E+03 0.  1.
</event>
<event>
 4    1  0.5640532E+000  0.1740697E+03  0.7818608E-02  0.1173669E+00
         21   -1    0    0  503  502  0.00000000000E+00  0.00000000000E+00  0.20709786243E+03  0.20709786243E+03  0.00000000000E+00 0. -1.
         21   -1    0    0  501  503 -0.00000000000E+00 -0.00000000000E+00 -0.14754187375E+03  0.14754187375E+03  0.00000000000E+00 0. -1.
          6    1    1    2  501    0  0.64203679607E+01  0.25981744395E+02  0.13568603337E+02  0.17459776391E+03  0.17200000000E+03 0.  1.
         -6    1    1    2    0  502 -0.64203679607E+01 -0.25981744395E+02  0.45987385340E+02  0.18004197226E+03  0.17200000000E+03 0.  1.
</event>
<event>
 4    1  0.5640532E+000  0.2643052E+03  0.7818608E-02  0.1104584E+00
         21   -1    0    0  501  502  0.00000000000E+00  0.00000000000E+00  0.49530250944E+03  0.49530250944E+03  0.00000000000E+00 0.  1.
         21   -1    0    0  502  503 -0.00000000000E+00 -0.00000000000E+00 -0.17964461653E+03  0.17964461653E+03  0.00000000000E+00 0.  1.
          6    1    1    2  501    0  0.48144816650E+02  0.19482126133E+03  0.31427145031E+03  0.41063827357E+03  0.17200000000E+03 0.  1.
         -6    1    1    2    0  503 -0.48144816650E+02 -0.19482126133E+03  0.13864426078E+01  0.26430885241E+03  0.17200000000E+03 0.  1.
</event>
<event>
 4    1  0.5640532E+000  0.2197648E+03  0.7818608E-02  0.1134059E+00
         21   -1    0    0  503  502  0.00000000000E+00  0.00000000000E+00  0.18236779143E+04  0.18236779143E+04  0.00000000000E+00 0. -1.
         21   -1    0    0  501  503 -0.00000000000E+00 -0.00000000000E+00 -0.96364623913E+02  0.96364623913E+02  0.00000000000E+00 0.  1.
          6    1    1    2  501    0  0.79554659262E+01 -0.13656233369E+03  0.46127270242E+02  0.22455352476E+03  0.17200000000E+03 0.  1.
         -6    1    1    2    0  502 -0.79554659262E+01  0.13656233369E+03  0.16811860201E+04  0.16954890134E+04  0.17200000000E+03 0. -1.
</event>
<event>
 4    1  0.5640532E+000  0.1943181E+03  0.7818608E-02  0.1154623E+00
         21   -1    0    0  501  502  0.00000000000E+00  0.00000000000E+00  0.79202467500E+03  0.79202467500E+03  0.00000000000E+00 0.  1.
         21   -1    0    0  502  503 -0.00000000000E+00 -0.00000000000E+00 -0.56599811186E+02  0.56599811186E+02  0.00000000000E+00 0. -1.
          6    1    1    2  501    0 -0.18909931981E+02  0.88419190445E+02  0.53620660617E+03  0.57033066134E+03  0.17200000000E+03 0.  1.
         -6    1    1    2    0  503  0.18909931981E+02 -0.88419190445E+02  0.19921825764E+03  0.27829382484E+03  0.17200000000E+03 0. -1.
</event>
<event>
 4    1  0.5640532E+000  0.1833881E+03  0.7818608E-02  0.1164564E+00
         21   -1    0    0  501  502  0.00000000000E+00  0.00000000000E+00  0.22116071274E+03  0.22116071274E+03  0.00000000000E+00 0.  1.
         21   -1    0    0  502  503 -0.00000000000E+00 -0.00000000000E+00 -0.15539618167E+03  0.15539618167E+03  0.00000000000E+00 0.  1.
          6    1    1    2  501    0  0.63049031496E+02 -0.84865161477E+01  0.60441197868E+02  0.19309153200E+03  0.17200000000E+03 0. -1.
         -6    1    1    2    0  503 -0.63049031496E+02  0.84865161477E+01  0.53233331954E+01  0.18346536241E+03  0.17200000000E+03 0. -1.
</event>
<event>
 4    1  0.5640532E+000  0.1883048E+03  0.7818608E-02  0.1159999E+00
         21   -1    0    0  503  502  0.00000000000E+00  0.00000000000E+00  0.24666813808E+03  0.24666813808E+03  0.00000000000E+00 0.  1.
         21   -1    0    0  501  503 -0.00000000000E+00 -0.00000000000E+00 -0.18442627160E+03  0.18442627160E+03  0.00000000000E+00 0.  1.
          6    1    1    2  501    0 -0.32691630281E+02  0.69324860681E+02 -0.70106603311E+02  0.20093186613E+03  0.17200000000E+03 0. -1.
         -6    1    1    2    0  502  0.32691630281E+02 -0.69324860681E+02  0.13234846979E+03  0.23016254355E+03  0.17200000000E+03 0. -1.
</event>
<event>
 4    1  0.5640532E+000  0.2034270E+03  0.7818608E-02  0.1146879E+00
         21   -1    0    0  503  502  0.00000000000E+00  0.00000000000E+00  0.51823311916E+02  0.51823311916E+02  0.00000000000E+00 0. -1.
         21   -1    0    0  501  503 -0.00000000000E+00 -0.00000000000E+00 -0.84361871012E+03  0.84361871012E+03  0.00000000000E+00 0. -1.
          6    1    1    2  501    0 -0.80340922850E+02 -0.73101828757E+02 -0.49940276112E+03  0.53924545345E+03  0.17200000000E+03 0. -1.
         -6    1    1    2    0  502  0.80340922850E+02  0.73101828757E+02 -0.29239263708E+03  0.35619656859E+03  0.17200000000E+03 0. -1.
</event>
<event>
 4    1  0.5640532E+000  0.1995992E+03  0.7818608E-02  0.1150078E+00
         21   -1    0    0  501  502  0.00000000000E+00  0.00000000000E+00  0.91933433185E+03  0.91933433185E+03  0.00000000000E+00 0. -1.
         21   -1    0    0  502  503 -0.00000000000E+00 -0.00000000000E+00 -0.45376677332E+02  0.45376677332E+02  0.00000000000E+00 0. -1.
          6    1    1    2  501    0  0.99510505579E+02 -0.18801133190E+02  0.53928222521E+03  0.57503490481E+03  0.17200000000E+03 0. -1.
         -6    1    1    2    0  503 -0.99510505579E+02  0.18801133190E+02  0.33467542931E+03  0.38967610436E+03  0.17200000000E+03 0. -1.
</event>
<event>
 4    1  0.5640532E+000  0.2183923E+03  0.7818608E-02  0.1135087E+00
         21   -1    0    0  503  502  0.00000000000E+00  0.00000000000E+00  0.39524872765E+03  0.39524872765E+03  0.00000000000E+00 0.  1.
         21   -1    0    0  501  503 -0.00000000000E+00 -0.00000000000E+00 -0.25262769588E+03  0.25262769588E+03  0.00000000000E+00 0.  1.
          6    1    1    2  501    0 -0.41904508926E+02 -0.12788742895E+03 -0.16280861514E+03  0.27240012393E+03  0.17200000000E+03 0.  1.
         -6    1    1    2    0  502  0.41904508926E+02  0.12788742895E+03  0.30542964691E+03  0.37547629960E+03  0.17200000000E+03 0.  1.
</event>
<event>
 4    1  0.5640532E+000  0.2211253E+03  0.7818608E-02  0.1133047E+00
         21   -1    0    0  503  502  0.00000000000E+00  0.00000000000E+00  0.77878130302E+02  0.77878130302E+02  0.00000000000E+00 0. -1.
         21   -1    0    0  501  503 -0.00000000000E+00 -0.00000000000E+00 -0.62933526601E+03  0.62933526601E+03  0.00000000000E+00 0. -1.
          6    1    1    2  501    0 -0.44022702512E+02  0.13181200242E+03 -0.29286095540E+03  0.36696585879E+03  0.17200000000E+03 0. -1.
         -6    1    1    2    0  502  0.44022702512E+02 -0.13181200242E+03 -0.25859618030E+03  0.34024753752E+03  0.17200000000E+03 0. -1.
</event>
<event>
 4    1  0.5640532E+000  0.2244632E+03  0.7818608E-02  0.1130599E+00
         21   -1    0    0  501  502  0.00000000000E+00  0.00000000000E+00  0.57277205483E+02  0.57277205483E+02  0.00000000000E+00 0. -1.
         21   -1    0    0  502  503 -0.00000000000E+00 -0.00000000000E+00 -0.10161971346E+04  0.10161971346E+04  0.00000000000E+00 0. -1.
          6    1    1    2  501    0  0.13438712960E+03 -0.52343340096E+02 -0.28270819479E+03  0.36098150820E+03  0.17200000000E+03 0. -1.
         -6    1    1    2    0  503 -0.13438712960E+03  0.52343340096E+02 -0.67621173435E+03  0.71249283191E+03  0.17200000000E+03 0. -1.
</event>
<event>
 4    1  0.5640532E+000  0.1758408E+03  0.7818608E-02  0.1171890E+00
         21   -1    0    0  501  502  0.00000000000E+00  0.00000000000E+00  0.29872553452E+03  0.29872553452E+03  0.00000000000E+00 0.  1.
         21   -1    0    0  502  503 -0.00000000000E+00 -0.00000000000E+00 -0.12409756667E+03  0.12409756667E+03  0.00000000000E+00 0.  1.
          6    1    1    2  501    0 -0.33922761266E+02 -0.13610673822E+02  0.11972455229E+01  0.17584492478E+03  0.17200000000E+03 0.  1.
         -6    1    1    2    0  503  0.33922761266E+02  0.13610673822E+02  0.17343072233E+03  0.24697817641E+03  0.17200000000E+03 0.  1.
</event>
<event>
 4    1  0.5640532E+000  0.1974086E+03  0.7818608E-02  0.1151944E+00
         21   -1    0    0  501  502  0.00000000000E+00  0.00000000000E+00  0.21436958041E+03  0.21436958041E+03  0.00000000000E+00 0. -1.
         21   -1    0    0  502  503 -0.00000000000E+00 -0.00000000000E+00 -0.28145350398E+03  0.28145350398E+03  0.00000000000E+00 0. -1.
          6    1    1    2  501    0 -0.11402098233E+02  0.96208887026E+02  0.11398193988E+03  0.22795183791E+03  0.17200000000E+03 0. -1.
         -6    1    1    2    0  503  0.11402098233E+02 -0.96208887026E+02 -0.18106586345E+03  0.26787124648E+03  0.17200000000E+03 0. -1.
</event>
<event>
 4    1  0.5640532E+000  0.1755756E+03  0.7818608E-02  0.1172155E+00
         21   -1    0    0  503  502  0.00000000000E+00  0.00000000000E+00  0.32135795577E+03  0.32135795577E+03  0.00000000000E+00 0. -1.
         21   -1    0    0  501  503 -0.00000000000E+00 -0.00000000000E+00 -0.10492695820E+03  0.10492695820E+03  0.00000000000E+00 0. -1.
          6    1    1    2  501    0  0.13339297716E+02  0.32632274515E+02  0.45791100890E+02  0.18144869006E+03  0.17200000000E+03 0. -1.
         -6    1    1    2    0  502 -0.13339297716E+02 -0.32632274515E+02  0.17063989668E+03  0.24483622392E+03  0.17200000000E+03 0. -1.
</event>
<event>
 4    1  0.5640532E+000  0.2404955E+03  0.7818608E-02  0.1119463E+00
         21   -1    0    0  503  502  0.00000000000E+00  0.00000000000E+00  0.22255793979E+03  0.22255793979E+03  0.00000000000E+00 0.  1.
         21   -1    0    0  501  503 -0.00000000000E+00 -0.00000000000E+00 -0.45658877043E+03  0.45658877043E+03  0.00000000000E+00 0.  1.
          6    1    1    2  501    0  0.16718035631E+03  0.17459297829E+02 -0.33990210702E+03  0.41637908326E+03  0.17200000000E+03 0.  1.
         -6    1    1    2    0  502 -0.16718035631E+03 -0.17459297829E+02  0.10587127639E+03  0.26276762697E+03  0.17200000000E+03 0.  1.
</event>
<event>
 4    1  0.5640532E+000  0.2535594E+03  0.7818608E-02  0.1111076E+00
         21   -1    0    0  501  502  0.00000000000E+00  0.00000000000E+00  0.25656559125E+04  0.25656559125E+04  0.00000000000E+00 0. -1.
         21   -1    0    0  502  503 -0.00000000000E+00 -0.00000000000E+00 -0.21739921860E+03  0.21739921860E+03  0.00000000000E+00 0. -1.
          6    1    1    2  501    0  0.16868614133E+03 -0.79078300030E+02  0.24830029603E+04  0.24959158825E+04  0.17200000000E+03 0. -1.
         -6    1    1    2    0  503 -0.16868614133E+03  0.79078300030E+02 -0.13474626634E+03  0.28713924863E+03  0.17200000000E+03 0. -1.
</event>
<event>
 4    1  0.5640532E+000  0.2453980E+03  0.7818608E-02  0.1116248E+00
         21   -1    0    0  503  502  0.00000000000E+00  0.00000000000E+00  0.11098312736E+04  0.11098312736E+04  0.00000000000E+00 0.  1.
         21   -1    0    0  501  503 -0.00000000000E+00 -0.00000000000E+00 -0.56419636132E+02  0.56419636132E+02  0.00000000000E+00 0.  1.
          6    1    1    2  501    0 -0.81400464761E+02  0.15495211719E+03  0.41263639456E+03  0.48009268730E+03  0.17200000000E+03 0.  1.
         -6    1    1    2    0  502  0.81400464761E+02 -0.15495211719E+03  0.64077524296E+03  0.68615822248E+03  0.17200000000E+03 0.  1.
</event>
<event>
 4    1  0.5640532E+000  0.2408617E+03  0.7818608E-02  0.1119220E+00
         21   -1    0    0  501  502  0.00000000000E+00  0.00000000000E+00  0.30719600478E+02  0.30719600478E+02  0.00000000000E+00 0. -1.
         21   -1    0    0  502  503 -0.00000000000E+00 -0.00000000000E+00 -0.27276371419E+04  0.27276371419E+04  0.00000000000E+00 0.  1.
          6    1    1    2  501    0  0.85806891483E+02  0.14514661915E+03 -0.58349607292E+03  0.63125433130E+03  0.17200000000E+03 0. -1.
         -6    1    1    2    0  503 -0.85806891483E+02 -0.14514661915E+03 -0.21134214685E+04  0.21271024110E+04  0.17200000000E+03 0.  1.
</event>
<event>
 4    1  0.5640532E+000  0.1802690E+03  0.7818608E-02  0.1167543E+00
         21   -1    0    0  501  502  0.00000000000E+00  0.00000000000E+00  0.38789209177E+02  0.38789209177E+02  0.00000000000E+00 0.  1.
         21   -1    0    0  502  503 -0.00000000000E+00 -0.00000000000E+00 -0.10538119519E+04  0.10538119519E+04  0.00000000000E+00 0. -1.
          6    1    1    2  501    0  0.39119741508E+02 -0.37182762810E+02 -0.26016428032E+03  0.31651597871E+03  0.17200000000E+03 0.  1.
         -6    1    1    2    0  503 -0.39119741508E+02  0.37182762810E+02 -0.75485846244E+03  0.77608518240E+03  0.17200000000E+03 0. -1.
</event>
<event>
 4    1  0.5640532E+000  0.2638425E+03  0.7818608E-02  0.1104856E+00
         21   -1    0    0  501  502  0.00000000000E+00  0.00000000000E+00  0.65555834214E+03  0.65555834214E+03  0.00000000000E+00 0. -1.
         21   -1    0    0  502  503 -0.00000000000E+00 -0.00000000000E+00 -0.11822405841E+03  0.11822405841E+03  0.00000000000E+00 0.  1.
          6    1    1    2  501    0 -0.17967142806E+03 -0.88017324593E+02  0.39210997819E+03  0.47261306212E+03  0.17200000000E+03 0. -1.
         -6    1    1    2    0  503  0.17967142806E+03  0.88017324593E+02  0.14522430554E+03  0.30116933843E+03  0.17200000000E+03 0.  1.
</event>
<event>
 4    1  0.5640532E+000  0.2047711E+03  0.7818608E-02  0.1145775E+00
         21   -1    0    0  503  502  0.00000000000E+00  0.00000000000E+00  0.67025910036E+03  0.67025910036E+03  0.00000000000E+00 0. -1.
         21   -1    0    0  501  503 -0.00000000000E+00 -0.00000000000E+00 -0.85391490000E+02  0.85391490000E+02  0.00000000000E+00 0.  1.
          6    1    1    2  501    0  0.10824903639E+03 -0.25087071390E+02  0.97065720531E+02  0.22661193511E+03  0.17200000000E+03 0.  1.
         -6    1    1    2    0  502 -0.10824903639E+03  0.25087071390E+02  0.48780188983E+03  0.52903865525E+03  0.17200000000E+03 0.  1.
</event>
<event>
 4    1  0.5640532E+000  0.1765176E+03  0.7818608E-02  0.1171216E+00
         21   -1    0    0  503  502  0.00000000000E+00  0.00000000000E+00  0.73253430017E+02  0.73253430017E+02  0.00000000000E+00 0.  1.
         21   -1    0    0  501  503 -0.00000000000E+00 -0.00000000000E+00 -0.44085357015E+03  0.44085357015E+03  0.00000000000E+00 0.  1.
          6    1    1    2  501    0  0.73348866866E+01  0.38995784259E+02 -0.23200242340E+03  0.29151946113E+03  0.17200000000E+03 0.  1.
         -6    1    1    2    0  502 -0.73348866866E+01 -0.38995784259E+02 -0.13559771673E+03  0.22258753904E+03  0.17200000000E+03 0.  1.
</event>
<event>
 4    1  0.5640532E+000  0.2652139E+03  0.7818608E-02  0.1104050E+00
         21   -1    0    0  501  502  0.00000000000E+00  0.00000000000E+00  0.31535514472E+03  0.31535514472E+03  0.00000000000E+00 0. -1.
         21   -1    0    0  502  503 -0.00000000000E+00 -0.00000000000E+00 -0.22434407037E+03  0.22434407037E+03  0.00000000000E+00 0.  1.
          6    1    1    2  501    0 -0.10530301097E+03  0.17223737761E+03  0.24972449225E+02  0.26638705221E+03  0.17200000000E+03 0. -1.
         -6    1    1    2    0  503  0.10530301097E+03 -0.17223737761E+03  0.66038625122E+02  0.27331216287E+03  0.17200000000E+03 0.  1.
</event>
<event>
 4    1  0.5640532E+000  0.2991720E+03  0.7818608E-02  0.1085655E+00
         21   -1    0    0  503  502  0.00000000000E+00  0.00000000000E+00  0.86591392261E+02  0.86591392261E+02  0.00000000000E+00 0. -1.
         21   -1    0    0  501  503 -0.00000000000E+00 -0.00000000000E+00 -0.10339052147E+04  0.10339052147E+04  0.00000000000E+00 0.  1.
          6    1    1    2  501    0  0.24477521600E+03  0.22275109820E+01 -0.48271907336E+03  0.56790982732E+03  0.17200000000E+03 0. -1.
         -6    1    1    2    0  502 -0.24477521600E+03 -0.22275109820E+01 -0.46459474911E+03  0.55258677968E+03  0.17200000000E+03 0.  1.
</event>
<event>
 4    1  0.5640532E+000  0.1736162E+03  0.7818608E-02  0.1174128E+00
         21   -1    0    0  501  502  0.00000000000E+00  0.00000000000E+00  0.85867396788E+02  0.85867396788E+02  0.00000000000E+00 0. -1.
         21   -1    0    0  502  503 -0.00000000000E+00 -0.00000000000E+00 -0.88457134292E+03  0.88457134292E+03  0.00000000000E+00 0. -1.
          6    1    1    2  501    0  0.63708691132E+01 -0.22759656886E+02 -0.22515359586E+02  0.17507007560E+03  0.17200000000E+03 0. -1.
         -6    1    1    2    0  503 -0.63708691132E+01  0.22759656886E+02 -0.77618858654E+03  0.79536866410E+03  0.17200000000E+03 0. -1.
</event>
<event>
 4    1  0.5640532E+000  0.1962610E+03  0.7818608E-02  0.1152933E+00
         21   -1    0    0  501  502  0.00000000000E+00  0.00000000000E+00  0.56397066774E+03  0.56397066774E+03  0.00000000000E+00 0.  1.
         21   -1    0    0  502  503 -0.00000000000E+00 -0.00000000000E+00 -0.15146195695E+03  0.15146195695E+03  0.00000000000E+00 0.  1.
          6    1    1    2  501    0  0.17022361910E+02  0.92976412636E+02  0.47131980428E+03  0.51054944131E+03  0.17200000000E+03 0.  1.
         -6    1    1    2    0  503 -0.17022361910E+02 -0.92976412636E+02 -0.58811093495E+02  0.20488318337E+03  0.17200000000E+03 0.  1.
</event>
<event>
 4    1  0.5640532E+000  0.1912928E+03  0.7818608E-02  0.1157300E+00
         21   -1    0    0  501  502  0.00000000000E+00  0.00000000000E+00  0.16901374317E+03  0.16901374317E+03  0.00000000000E+00 0. -1.
         21   -1    0    0  502  503 -0.00000000000E+00 -0.00000000000E+00 -0.21654380471E+03  0.21654380471E+03  0.00000000000E+00 0.  1.
          6    1    1    2  501    0  0.22366146745E+01 -0.83689514062E+02 -0.26221344457E+02  0.19308157891E+03  0.17200000000E+03 0. -1.
         -6    1    1    2    0  503 -0.22366146745E+01  0.83689514062E+02 -0.21308717080E+02  0.19247596897E+03  0.17200000000E+03 0. -1.
</event>
<event>
 4    1  0.5640532E+000  0.2902491E+03  0.7818608E-02  0.1090219E+00
         21   -1    0    0  503  502  0.00000000000E+00  0.00000000000E+00  0.21735260663E+04  0.21735260663E+04  0.00000000000E+00 0.  1.
         21   -1    0    0  501  503 -0.00000000000E+00 -0.00000000000E+00 -0.64519872574E+02  0.64519872574E+02  0.00000000000E+00 0. -1.
          6    1    1    2  501    0  0.12432500260E+03  0.19799952704E+03  0.34742180503E+03  0.45271009442E+03  0.17200000000E+03 0. -1.
         -6    1    1    2    0  502 -0.12432500260E+03 -0.19799952704E+03  0.17615843887E+04  0.17853358444E+04  0.17200000000E+03 0.  1.
</event>
<event>
 4    1  0.5640532E+000  0.1720273E+03  0.7818608E-02  0.1175750E+00
         21   -1    0    0  501  502  0.00000000000E+00  0.00000000000E+00  0.64166246727E+03  0.64166246727E+03  0.00000000000E+00 0.  1.
         21   -1    0    0  502  503 -0.00000000000E+00 -0.00000000000E+00 -0.46315451062E+02  0.46315451062E+02  0.00000000000E+00 0.  1.
          6    1    1    2  501    0 -0.30305470264E+01 -0.46057907426E+00  0.32002637507E+03  0.36333218560E+03  0.17200000000E+03 0. -1.
         -6    1    1    2    0  503  0.30305470264E+01  0.46057907426E+00  0.27532064114E+03  0.32464573274E+03  0.17200000000E+03 0. -1.
</event>
<event>
 4    1  0.5640532E+000  0.5163554E+03  0.7818608E-02  0.1009596E+00
         21   -1    0    0  503  502  0.00000000000E+00  0.00000000000E+00  0.11766383794E+03  0.11766383794E+03  0.00000000000E+00 0.  1.
         21   -1    0    0  501  503 -0.00000000000E+00 -0.00000000000E+00 -0.23099662070E+04  0.23099662070E+04  0.00000000000E+00 0. -1.
          6    1    1    2  501    0 -0.37287336691E+03 -0.31305647127E+03 -0.12636647445E+04  0.13650902859E+04  0.17200000000E+03 0. -1.
         -6    1    1    2    0  502  0.37287336691E+03  0.31305647127E+03 -0.92863762451E+03  0.10625397591E+04  0.17200000000E+03 0.  1.
</event>
<event>
 4    1  0.5640532E+000  0.2168793E+03  0.7818608E-02  0.1136231E+00
         21   -1    0    0  503  502  0.00000000000E+00  0.00000000000E+00  0.76596962135E+03  0.76596962135E+03  0.00000000000E+00 0.  1.
         21   -1    0    0  501  503 -0.00000000000E+00 -0.00000000000E+00 -0.73881014872E+02  0.73881014872E+02  0.00000000000E+00 0.  1.
          6    1    1    2  501    0  0.80031642369E+01 -0.13186574262E+03  0.17350334220E+03  0.27774094849E+03  0.17200000000E+03 0.  1.
         -6    1    1    2    0  502 -0.80031642369E+01  0.13186574262E+03  0.51858526427E+03  0.56210968773E+03  0.17200000000E+03 0.  1.
</event>
<event>
 4    1  0.5640532E+000  0.3153493E+03  0.7818608E-02  0.1077810E+00
         21   -1    0    0  501  502  0.00000000000E+00  0.00000000000E+00  0.39976986324E+03  0.39976986324E+03  0.00000000000E+00 0.  1.
         21   -1    0    0  502  503 -0.00000000000E+00 -0.00000000000E+00 -0.34909050205E+03  0.34909050205E+03  0.00000000000E+00 0. -1.
          6    1    1    2  501    0  0.19629384416E+03 -0.17700264970E+03  0.22607632633E+03  0.38801509840E+03  0.17200000000E+03 0.  1.
         -6    1    1    2    0  503 -0.19629384416E+03  0.17700264970E+03 -0.17539696514E+03  0.36084526689E+03  0.17200000000E+03 0. -1.
</event>
<event>
 4    1  0.5640532E+000  0.2042389E+03  0.7818608E-02  0.1146211E+00
         21   -1    0    0  503  502  0.00000000000E+00  0.00000000000E+00  0.11103987420E+04  0.11103987420E+04  0.00000000000E+00 0. -1.
         21   -1    0    0  501  503 -0.00000000000E+00 -0.00000000000E+00 -0.23420452683E+03  0.23420452683E+03  0.00000000000E+00 0. -1.
          6    1    1    2  501    0  0.10070632139E+03  0.44584537179E+02 -0.17793099851E+03  0.27087448081E+03  0.17200000000E+03 0. -1.
         -6    1    1    2    0  502 -0.10070632139E+03 -0.44584537179E+02  0.10541252137E+04  0.10737287880E+04  0.17200000000E+03 0. -1.
</event>
<event>
 4    1  0.5640532E+000  0.1831009E+03  0.7818608E-02  0.1164835E+00
         21   -1    0    0  501  502  0.00000000000E+00  0.00000000000E+00  0.19592108302E+04  0.19592108302E+04  0.00000000000E+00 0.  1.
         21   -1    0    0  502  503 -0.00000000000E+00 -0.00000000000E+00 -0.57813226273E+02  0.57813226273E+02  0.00000000000E+00 0.  1.
          6    1    1    2  501    0 -0.62599393590E+02  0.48239312278E+01  0.17968956307E+04  0.18062003937E+04  0.17200000000E+03 0.  1.
         -6    1    1    2    0  503  0.62599393590E+02 -0.48239312278E+01  0.10450197319E+03  0.21082366279E+03  0.17200000000E+03 0.  1.
</event>
<event>
 4    1  0.5640532E+000  0.1808399E+03  0.7818608E-02  0.1166993E+00
         21   -1    0    0  501  502  0.00000000000E+00  0.00000000000E+00  0.64994656842E+02  0.64994656842E+02  0.00000000000E+00 0.  1.
         21   -1    0    0  502  503 -0.00000000000E+00 -0.00000000000E+00 -0.52024629735E+03  0.52024629735E+03  0.00000000000E+00 0.  1.
          6    1    1    2  501    0  0.70266430315E+01 -0.55404783533E+02 -0.17460391696E+03  0.25137539969E+03  0.17200000000E+03 0.  1.
         -6    1    1    2    0  503 -0.70266430315E+01  0.55404783533E+02 -0.28064772354E+03  0.33386555450E+03  0.17200000000E+03 0.  1.
</event>
<event>
 4    1  0.5640532E+000  0.2354938E+03  0.7818608E-02  0.1122832E+00
         21   -1    0    0  501  502  0.00000000000E+00  0.00000000000E+00  0.10522523423E+04  0.10522523423E+04  0.00000000000E+00 0.  1.
         21   -1    0    0  502  503 -0.00000000000E+00 -0.00000000000E+00 -0.58194804142E+02  0.58194804142E+02  0.00000000000E+00 0. -1.
          6    1    1    2  501    0  0.15431365188E+03 -0.45394295728E+02  0.32647359603E+03  0.40254484737E+03  0.17200000000E+03 0. -1.
         -6    1    1    2    0  503 -0.15431365188E+03  0.45394295728E+02  0.66758394215E+03  0.70790229909E+03  0.17200000000E+03 0.  1.
</event>
<event>
 4    1  0.5640532E+000  0.2103143E+03  0.7818608E-02  0.1141317E+00
         21   -1    0    0  503  502  0.00000000000E+00  0.00000000000E+00  0.38438499471E+03  0.38438499471E+03  0.00000000000E+00 0. -1.
         21   -1    0    0  501  503 -0.00000000000E+00 -0.00000000000E+00 -0.11866760091E+03  0.11866760091E+03  0.00000000000E+00 0. -1.
          6    1    1    2  501    0 -0.18334924831E+02 -0.11963255159E+03  0.17663880771E+03  0.27465138860E+03  0.17200000000E+03 0. -1.
         -6    1    1    2    0  502  0.18334924831E+02  0.11963255159E+03  0.89078586087E+02  0.22840120702E+03  0.17200000000E+03 0. -1.
</event>
<event>
 4    1  0.5640532E+000  0.2088807E+03  0.7818608E-02  0.1142455E+00
         21   -1    0    0  503  502  0.00000000000E+00  0.00000000000E+00  0.13163105072E+03  0.13163105072E+03  0.00000000000E+00 0. -1.
         21   -1    0    0  501  503 -0.00000000000E+00 -0.00000000000E+00 -0.42857666501E+03  0.42857666501E+03  0.00000000000E+00 0. -1.
          6    1    1    2  501    0 -0.21946009350E+02  0.11647110915E+03 -0.28180637626E+03  0.35077910470E+03  0.17200000000E+03 0. -1.
         -6    1    1    2    0  502  0.21946009350E+02 -0.11647110915E+03 -0.15139238031E+02  0.20942861104E+03  0.17200000000E+03 0. -1.
</event>
<event>
 4    1  0.5640532E+000  0.2091806E+03  0.7818608E-02  0.1142217E+00
         21   -1    0    0  503  502  0.00000000000E+00  0.00000000000E+00  0.26517594978E+02  0.26517594978E+02  0.00000000000E+00 0. -1.
         21   -1    0    0  501  503 -0.00000000000E+00 -0.00000000000E+00 -0.16570499522E+04  0.16570499522E+04  0.00000000000E+00 0. -1.
          6    1    1    2  501    0 -0.11246624162E+03 -0.39036571009E+02 -0.86980788074E+03  0.89460732100E+03  0.17200000000E+03 0. -1.
         -6    1    1    2    0  502  0.11246624162E+03  0.39036571009E+02 -0.76072447651E+03  0.78896022621E+03  0.17200000000E+03 0. -1.
</event>
<event>
 4    1  0.5640532E+000  0.2112861E+03  0.7818608E-02  0.1140552E+00
         21   -1    0    0  503  502  0.00000000000E+00  0.00000000000E+00  0.56988399300E+02  0.56988399300E+02  0.00000000000E+00 0. -1.
         21   -1    0    0  501  503 -0.00000000000E+00 -0.00000000000E+00 -0.78485215168E+03  0.78485215168E+03  0.00000000000E+00 0.  1.
          6    1    1    2  501    0 -0.12062291179E+03 -0.22537228004E+02 -0.34551197425E+03  0.40499424422E+03  0.17200000000E+03 0.  1.
         -6    1    1    2    0  502  0.12062291179E+03  0.22537228004E+02 -0.38235177813E+03  0.43684630676E+03  0.17200000000E+03 0.  1.
</event>
<event>
 4    1  0.5640532E+000  0.1895310E+03  0.7818608E-02  0.1158885E+00
         21   -1    0    0  501  502  0.00000000000E+00  0.00000000000E+00  0.19730070859E+02  0.19730070859E+02  0.00000000000E+00 0.  1.
         21   -1    0    0  502  503 -0.00000000000E+00 -0.00000000000E+00 -0.25253301537E+04  0.25253301537E+04  0.00000000000E+00 0.  1.
          6    1    1    2  501    0  0.34738516924E+02 -0.71632607324E+02 -0.58060065661E+03  0.61075291031E+03  0.17200000000E+03 0.  1.
         -6    1    1    2    0  503 -0.34738516924E+02  0.71632607324E+02 -0.19249994262E+04  0.19343073142E+04  0.17200000000E+03 0.  1.
</event>
<event>
 4    1  0.5640532E+000  0.2192399E+03  0.7818608E-02  0.1134451E+00
         21   -1    0    0  501  502  0.00000000000E+00  0.00000000000E+00  0.39230953554E+02  0.39230953554E+02  0.00000000000E+00 0. -1.
         21   -1    0    0  502  503 -0.00000000000E+00 -0.00000000000E+00 -0.12716960200E+04  0.12716960200E+04  0.00000000000E+00 0. -1.
          6    1    1    2  501    0  0.10902486006E+03  0.81214015016E+02 -0.49091251709E+03  0.53764415349E+03  0.17200000000E+03 0. -1.
         -6    1    1    2    0  503 -0.10902486006E+03 -0.81214015016E+02 -0.74155254933E+03  0.77328282004E+03  0.17200000000E+03 0. -1.
</event>
<event>
 4    1  0.5640532E+000  0.1723583E+03  0.7818608E-02  0.1175411E+00
         21   -1    0    0  501  502  0.00000000000E+00  0.00000000000E+00  0.13520664284E+03  0.13520664284E+03  0.00000000000E+00 0.  1.
         21   -1    0    0  502  503 -0.00000000000E+00 -0.00000000000E+00 -0.23298664798E+03  0.23298664798E+03  0.00000000000E+00 0.  1.
          6    1    1    2  501    0 -0.33047116461E+01 -0.10605614103E+02 -0.49575364746E+01  0.17242963010E+03  0.17200000000E+03 0. -1.
         -6    1    1    2    0  503  0.33047116461E+01  0.10605614103E+02 -0.92822468659E+02  0.19576366072E+03  0.17200000000E+03 0. -1.
</event>
<event>
 4    1  0.5640532E+000  0.2432734E+03  0.7818608E-02  0.1117631E+00
         21   -1    0    0  503  502  0.00000000000E+00  0.00000000000E+00  0.58861794669E+03  0.58861794669E+03  0.00000000000E+00 0.  1.
         21   -1    0    0  501  503 -0.00000000000E+00 -0.00000000000E+00 -0.16874417163E+03  0.16874417163E+03  0.00000000000E+00 0.  1.
          6    1    1    2  501    0  0.13140576478E+02  0.17153794258E+03 -0.30805333795E+02  0.24521604574E+03  0.17200000000E+03 0.  1.
         -6    1    1    2    0  502 -0.13140576478E+02 -0.17153794258E+03  0.45067910886E+03  0.51214607258E+03  0.17200000000E+03 0.  1.
</event>
<event>
 4    1  0.5640532E+000  0.1799321E+03  0.7818608E-02  0.1167869E+00
         21   -1    0    0  501  502  0.00000000000E+00  0.00000000000E+00  0.29309307288E+03  0.29309307288E+03  0.00000000000E+00 0.  1.
         21   -1    0    0  502  503 -0.00000000000E+00 -0.00000000000E+00 -0.15138184457E+03  0.15138184457E+03  0.00000000000E+00 0.  1.
          6    1    1    2  501    0  0.51004857809E+02 -0.13786072029E+02  0.18640006334E+03  0.25907631099E+03  0.17200000000E+03 0.  1.
         -6    1    1    2    0  503 -0.51004857809E+02  0.13786072029E+02 -0.44688835026E+02  0.18539860646E+03  0.17200000000E+03 0.  1.
</event>
<event>
 4    1  0.5640532E+000  0.2819087E+03  0.7818608E-02  0.1094651E+00
         21   -1    0    0  503  502  0.00000000000E+00  0.00000000000E+00  0.31484278820E+03  0.31484278820E+03  0.00000000000E+00 0.  1.
         21   -1    0    0  501  503 -0.00000000000E+00 -0.00000000000E+00 -0.26181081379E+03  0.26181081379E+03  0.00000000000E+00 0.  1.
          6    1    1    2  501    0  0.71999324321E+02 -0.21143458754E+03  0.81123490169E+02  0.29334878245E+03  0.17200000000E+03 0.  1.
         -6    1    1    2    0  502 -0.71999324321E+02  0.21143458754E+03 -0.28091515760E+02  0.28330481953E+03  0.17200000000E+03 0.  1.
</event>
<event>
 4    1  0.5640532E+000  0.1763312E+03  0.7818608E-02  0.1171402E+00
         21   -1    0    0  503  502  0.00000000000E+00  0.00000000000E+00  0.99331528007E+02  0.99331528007E+02  0.00000000000E+00 0. -1.
         21   -1    0    0  501  503 -0.00000000000E+00 -0.00000000000E+00 -0.53414692333E+03  0.53414692333E+03  0.00000000000E+00 0. -1.
          6    1    1    2  501    0  0.15577034504E+02  0.35581713675E+02 -0.42120236524E+03  0.45662252992E+03  0.17200000000E+03 0. -1.
         -6    1    1    2    0  502 -0.15577034504E+02 -0.35581713675E+02 -0.13613030088E+02  0.17685592142E+03  0.17200000000E+03 0. -1.
</event>
<event>
 4    1  0.5640532E+000  0.1905312E+03  0.7818608E-02  0.1157983E+00
         21   -1    0    0  501  502  0.00000000000E+00  0.00000000000E+00  0.24657683665E+04  0.24657683665E+04  0.00000000000E+00 0. -1.
         21   -1    0    0  502  503 -0.00000000000E+00 -0.00000000000E+00 -0.34626128283E+02  0.34626128283E+02  0.00000000000E+00 0. -1.
          6    1    1    2  501    0 -0.73671846535E+02  0.35924786369E+02  0.21634292344E+04  0.21718029799E+04  0.17200000000E+03 0. -1.
         -6    1    1    2    0  503  0.73671846535E+02 -0.35924786369E+02  0.26771300388E+03  0.32859151494E+03  0.17200000000E+03 0. -1.
</event>
<event>
 4    1  0.5640532E+000  0.1904279E+03  0.7818608E-02  0.1158076E+00
         21   -1    0    0  503  502  0.00000000000E+00  0.00000000000E+00  0.12128279288E+04  0.12128279288E+04  0.00000000000E+00 0. -1.
         21   -1    0    0  501  503 -0.00000000000E+00 -0.00000000000E+00 -0.13776629352E+03  0.13776629352E+03  0.00000000000E+00 0. -1.
          6    1    1    2  501    0  0.38883736666E+02  0.71880817704E+02 -0.60009950525E+02  0.19965968820E+03  0.17200000000E+03 0. -1.
         -6    1    1    2    0  502 -0.38883736666E+02 -0.71880817704E+02  0.11350715858E+04  0.11509345341E+04  0.17200000000E+03 0. -1.
</event>
<event>
 4    1  0.5640532E+000  0.2306896E+03  0.7818608E-02  0.1126155E+00
         21   -1    0    0  501  502  0.00000000000E+00  0.00000000000E+00  0.14135548903E+04  0.14135548903E+04  0.00000000000E+00 0. -1.
         21   -1    0    0  502  503 -0.00000000000E+00 -0.00000000000E+00 -0.48928116607E+02  0.48928116607E+02  0.00000000000E+00 0. -1.
          6    1    1    2  501    0  0.14278575274E+03  0.56973173483E+02  0.10334172966E+04  0.10588526916E+04  0.17200000000E+03 0. -1.
         -6    1    1    2    0  503 -0.14278575274E+03 -0.56973173483E+02  0.33120947708E+03  0.40363031525E+03  0.17200000000E+03 0. -1.
</event>
<event>
 4    1  0.5640532E+000  0.1955239E+03  0.7818608E-02  0.1153571E+00
         21   -1    0    0  503  502  0.00000000000E+00  0.00000000000E+00  0.10033588752E+03  0.10033588752E+03  0.00000000000E+00 0.  1.
         21   -1    0    0  501  503 -0.00000000000E+00 -0.00000000000E+00 -0.66858607138E+03  0.66858607138E+03  0.00000000000E+00 0.  1.
          6    1    1    2  501    0  0.16499913910E+02 -0.91505985223E+02 -0.53626717888E+03  0.57079950914E+03  0.17200000000E+03 0.  1.
         -6    1    1    2    0  502 -0.16499913910E+02  0.91505985223E+02 -0.31983004984E+02  0.19812244976E+03  0.17200000000E+03 0.  1.
</event>
<event>
 4    1  0.5640532E+000  0.1997654E+03  0.7818608E-02  0.1149937E+00
         21   -1    0    0  503  502  0.00000000000E+00  0.00000000000E+00  0.35716455080E+03  0.35716455080E+03  0.00000000000E+00 0.  1.
         21   -1    0    0  501  503 -0.00000000000E+00 -0.00000000000E+00 -0.11893226900E+03  0.11893226900E+03  0.00000000000E+00 0.  1.
          6    1    1    2  501    0 -0.68740787013E+02  0.74812667575E+02  0.60538726461E+02  0.20873707967E+03  0.17200000000E+03 0.  1.
         -6    1    1    2    0  502  0.68740787013E+02 -0.74812667575E+02  0.17769355534E+03  0.26735974012E+03  0.17200000000E+03 0.  1.
</event>
<event>
 4    1  0.5640532E+000  0.1754575E+03  0.7818608E-02  0.1172273E+00
         21   -1    0    0  501  502  0.00000000000E+00  0.00000000000E+00  0.13172014392E+04  0.13172014392E+04  0.00000000000E+00 0.  1.
         21   -1    0    0  502  503 -0.00000000000E+00 -0.00000000000E+00 -0.30268734075E+02  0.30268734075E+02  0.00000000000E+00 0.  1.
          6    1    1    2  501    0 -0.21816162686E+02  0.26933004872E+02  0.96506999232E+03  0.98089011707E+03  0.17200000000E+03 0.  1.
         -6    1    1    2    0  503  0.21816162686E+02 -0.26933004872E+02  0.32186271280E+03  0.36658005619E+03  0.17200000000E+03 0.  1.
</event>
<event>
 4    1  0.5640532E+000  0.1854107E+03  0.7818608E-02  0.1162667E+00
         21   -1    0    0  501  502  0.00000000000E+00  0.00000000000E+00  0.21534403588E+03  0.21534403588E+03  0.00000000000E+00 0. -1.
         21   -1    0    0  502  503 -0.00000000000E+00 -0.00000000000E+00 -0.16189094374E+03  0.16189094374E+03  0.00000000000E+00 0.  1.
          6    1    1    2  501    0 -0.21828866109E+02 -0.65701070352E+02  0.44766251510E+01  0.18546474116E+03  0.17200000000E+03 0.  1.
         -6    1    1    2    0  503  0.21828866109E+02  0.65701070352E+02  0.48976466995E+02  0.19177023846E+03  0.17200000000E+03 0. -1.
</event>
<event>
 4    1  0.5640532E+000  0.1786414E+03  0.7818608E-02  0.1169124E+00
         21   -1    0    0  501  502  0.00000000000E+00  0.00000000000E+00  0.86823718155E+02  0.86823718155E+02  0.00000000000E+00 0.  1.
         21   -1    0    0  502  503 -0.00000000000E+00 -0.00000000000E+00 -0.40111990092E+03  0.40111990092E+03  0.00000000000E+00 0.  1.
          6    1    1    2  501    0 -0.14187762466E+02  0.46124390810E+02 -0.86577163034E+02  0.19851538275E+03  0.17200000000E+03 0. -1.
         -6    1    1    2    0  503  0.14187762466E+02 -0.46124390810E+02 -0.22771901973E+03  0.28942823632E+03  0.17200000000E+03 0. -1.
</event>
<event>
 4    1  0.5640532E+000  0.2216017E+03  0.7818608E-02  0.1132695E+00
         21   -1    0    0  503  502  0.00000000000E+00  0.00000000000E+00  0.53443741272E+03  0.53443741272E+03  0.00000000000E+00 0.  1.
         21   -1    0    0  501  503 -0.00000000000E+00 -0.00000000000E+00 -0.10519567485E+03  0.10519567485E+03  0.00000000000E+00 0. -1.
          6    1    1    2  501    0 -0.44535375956E+02  0.13243838541E+03  0.10086196069E+03  0.24347579091E+03  0.17200000000E+03 0. -1.
         -6    1    1    2    0  502  0.44535375956E+02 -0.13243838541E+03  0.32837977717E+03  0.39615729666E+03  0.17200000000E+03 0.  1.
</event>
<event>
 4    1  0.5640532E+000  0.2007356E+03  0.7818608E-02  0.1149120E+00
         21   -1    0    0  501  502  0.00000000000E+00  0.00000000000E+00  0.25407500350E+03  0.25407500350E+03  0.00000000000E+00 0. -1.
         21   -1    0    0  502  503 -0.00000000000E+00 -0.00000000000E+00 -0.17981430624E+03  0.17981430624E+03  0.00000000000E+00 0. -1.
          6    1    1    2  501    0  0.71688709371E+02 -0.74642678531E+02  0.11165697679E+03  0.22969998036E+03  0.17200000000E+03 0. -1.
         -6    1    1    2    0  503 -0.71688709371E+02  0.74642678531E+02 -0.37396279537E+02  0.20418932938E+03  0.17200000000E+03 0. -1.
</event>
<event>
 4    1  0.5640532E+000  0.2070828E+03  0.7818608E-02  0.1143897E+00
         21   -1    0    0  503  502  0.00000000000E+00  0.00000000000E+00  0.88082193312E+03  0.88082193312E+03  0.00000000000E+00 0. -1.
         21   -1    0    0  501  503 -0.00000000000E+00 -0.00000000000E+00 -0.52796790046E+02  0.52796790046E+02  0.00000000000E+00 0. -1.
          6    1    1    2  501    0 -0.52390452245E+02  0.10273527646E+03  0.28374916242E+03  0.35127892577E+03  0.17200000000E+03 0. -1.
         -6    1    1    2    0  502  0.52390452245E+02 -0.10273527646E+03  0.54427598066E+03  0.58233979740E+03  0.17200000000E+03 0. -1.
</event>
<event>
 4    1  0.5640532E+000  0.2272892E+03  0.7818608E-02  0.1128562E+00
         21   -1    0    0  503  502  0.00000000000E+00  0.00000000000E+00  0.16183418813E+03  0.16183418813E+03  0.00000000000E+00 0.  1.
         21   -1    0    0  501  503 -0.00000000000E+00 -0.00000000000E+00 -0.32016979176E+03  0.32016979176E+03  0.00000000000E+00 0.  1.
          6    1    1    2  501    0  0.13576536971E+03  0.60366575012E+02 -0.92309131377E+02  0.24531884299E+03  0.17200000000E+03 0.  1.
         -6    1    1    2    0  502 -0.13576536971E+03 -0.60366575012E+02 -0.66026472255E+02  0.23668513690E+03  0.17200000000E+03 0.  1.
</event>
<event>
 4    1  0.5640532E+000  0.1888386E+03  0.7818608E-02  0.1159513E+00
         21   -1    0    0  503  502  0.00000000000E+00  0.00000000000E+00  0.68262546748E+03  0.68262546748E+03  0.00000000000E+00 0.  1.
         21   -1    0    0  501  503 -0.00000000000E+00 -0.00000000000E+00 -0.66324621662E+02  0.66324621662E+02  0.00000000000E+00 0.  1.
          6    1    1    2  501    0 -0.55896274168E+02 -0.54328817896E+02  0.13558023442E+03  0.23246938268E+03  0.17200000000E+03 0.  1.
         -6    1    1    2    0  502  0.55896274168E+02  0.54328817896E+02  0.48072061140E+03  0.51648070646E+03  0.17200000000E+03 0.  1.
</event>
<event>
 4    1  0.5640532E+000  0.1727256E+03  0.7818608E-02  0.1175035E+00
         21   -1    0    0  503  502  0.00000000000E+00  0.00000000000E+00  0.24458058754E+02  0.24458058754E+02  0.00000000000E+00 0.  1.
         21   -1    0    0  501  503 -0.00000000000E+00 -0.00000000000E+00 -0.17062404320E+04  0.17062404320E+04  0.00000000000E+00 0.  1.
          6    1    1    2  501    0  0.66251259354E+01  0.14361277225E+02 -0.13029343136E+04  0.13143332774E+04  0.17200000000E+03 0. -1.
         -6    1    1    2    0  502 -0.66251259354E+01 -0.14361277225E+02 -0.37884805964E+03  0.41636521333E+03  0.17200000000E+03 0. -1.
</event>
<event>
 4    1  0.5640532E+000  0.1879766E+03  0.7818608E-02  0.1160299E+00
         21   -1    0    0  503  502  0.00000000000E+00  0.00000000000E+00  0.11191066825E+04  0.11191066825E+04  0.00000000000E+00 0. -1.
         21   -1    0    0  501  503 -0.00000000000E+00 -0.00000000000E+00 -0.32240773438E+02  0.32240773438E+02  0.00000000000E+00 0.  1.
          6    1    1    2  501    0 -0.44813509289E+02  0.61179625733E+02  0.62619107700E+03  0.65379695788E+03  0.17200000000E+03 0. -1.
         -6    1    1    2    0  502  0.44813509289E+02 -0.61179625733E+02  0.46067483202E+03  0.49755049802E+03  0.17200000000E+03 0.  1.
</event>
<event>
 4    1  0.5640532E+000  0.1729053E+03  0.7818608E-02  0.1174852E+00
         21   -1    0    0  503  502  0.00000000000E+00  0.00000000000E+00  0.20049783696E+04  0.20049783696E+04  0.00000000000E+00 0. -1.
         21   -1    0    0  501  503 -0.00000000000E+00 -0.00000000000E+00 -0.46417827694E+02  0.46417827694E+02  0.00000000000E+00 0. -1.
          6    1    1    2  501    0  0.15881447847E+02  0.77468493063E+01  0.13423596861E+03  0.21889616107E+03  0.17200000000E+03 0. -1.
         -6    1    1    2    0  502 -0.15881447847E+02 -0.77468493063E+01  0.18243245733E+04  0.18325000363E+04  0.17200000000E+03 0. -1.
</event>
<event>
 4    1  0.5640532E+000  0.2072947E+03  0.7818608E-02  0.1143726E+00
         21   -1    0    0  501  502  0.00000000000E+00  0.00000000000E+00  0.10284198851E+03  0.10284198851E+03  0.00000000000E+00 0.  1.
         21   -1    0    0  502  503 -0.00000000000E+00 -0.00000000000E+00 -0.47066339868E+03  0.47066339868E+03  0.00000000000E+00 0.  1.
          6    1    1    2  501    0  0.35236374613E+02  0.11020650699E+03 -0.87841928787E+02  0.22513835908E+03  0.17200000000E+03 0.  1.
         -6    1    1    2    0  503 -0.35236374613E+02 -0.11020650699E+03 -0.27997948138E+03  0.34836702811E+03  0.17200000000E+03 0.  1.
</event>
<event>
 4    1  0.5640532E+000  0.1915708E+03  0.7818608E-02  0.1157052E+00
         21   -1    0    0  503  502  0.00000000000E+00  0.00000000000E+00  0.30023820572E+03  0.30023820572E+03  0.00000000000E+00 0. -1.
         21   -1    0    0  501  503 -0.00000000000E+00 -0.00000000000E+00 -0.18120793810E+03  0.18120793810E+03  0.00000000000E+00 0. -1.
          6    1    1    2  501    0  0.58635764818E+02  0.60640051411E+02 -0.77812689271E+02  0.20677084747E+03  0.17200000000E+03 0. -1.
         -6    1    1    2    0  502 -0.58635764818E+02 -0.60640051411E+02  0.19684295689E+03  0.27467529636E+03  0.17200000000E+03 0. -1.
</event>
<event>
 4    1  0.5640532E+000  0.2522972E+03  0.7818608E-02  0.1111862E+00
         21   -1    0    0  501  502  0.00000000000E+00  0.00000000000E+00  0.14723187253E+03  0.14723187253E+03  0.00000000000E+00 0. -1.
         21   -1    0    0  502  503 -0.00000000000E+00 -0.00000000000E+00 -0.80388539276E+03  0.80388539276E+03  0.00000000000E+00 0.  1.
          6    1    1    2  501    0 -0.64358259409E+02 -0.17299686763E+03 -0.50204095870E+01  0.25234719391E+03  0.17200000000E+03 0. -1.
         -6    1    1    2    0  503  0.64358259409E+02  0.17299686763E+03 -0.65163311064E+03  0.69877007138E+03  0.17200000000E+03 0.  1.
</event>
<event>
 4    1  0.5640532E+000  0.1907335E+03  0.7818608E-02  0.1157801E+00
         21   -1    0    0  503  502  0.00000000000E+00  0.00000000000E+00  0.40674955706E+03  0.40674955706E+03  0.00000000000E+00 0.  1.
         21   -1    0    0  501  503 -0.00000000000E+00 -0.00000000000E+00 -0.91794545448E+02  0.91794545448E+02  0.00000000000E+00 0.  1.
          6    1    1    2  501    0 -0.81134964909E+02  0.14573310369E+02  0.19740877355E+03  0.27449861162E+03  0.17200000000E+03 0.  1.
         -6    1    1    2    0  502  0.81134964909E+02 -0.14573310369E+02  0.11754623806E+03  0.22404549089E+03  0.17200000000E+03 0.  1.
</event>
<event>
 4    1  0.5640532E+000  0.1790686E+03  0.7818608E-02  0.1168707E+00
         21   -1    0    0  503  502  0.00000000000E+00  0.00000000000E+00  0.33271916467E+02  0.33271916467E+02  0.00000000000E+00 0. -1.
         21   -1    0    0  501  503 -0.00000000000E+00 -0.00000000000E+00 -0.96587106415E+03  0.96587106415E+03  0.00000000000E+00 0. -1.
          6    1    1    2  501    0 -0.38545031744E+02 -0.31557278317E+02 -0.48974812569E+03  0.52145834724E+03  0.17200000000E+03 0.  1.
         -6    1    1    2    0  502  0.38545031744E+02  0.31557278317E+02 -0.44285102200E+03  0.47768463338E+03  0.17200000000E+03 0.  1.
</event>
<event>
 4    1  0.5640532E+000  0.2821949E+03  0.7818608E-02  0.1094496E+00
         21   -1    0    0  501  502  0.00000000000E+00  0.00000000000E+00  0.12730522929E+03  0.12730522929E+03  0.00000000000E+00 0.  1.
         21   -1    0    0  502  503 -0.00000000000E+00 -0.00000000000E+00 -0.75049285397E+03  0.75049285397E+03  0.00000000000E+00 0. -1.
          6    1    1    2  501    0 -0.12289000604E+03  0.18694381666E+03 -0.13250345272E+03  0.31175488634E+03  0.17200000000E+03 0.  1.
         -6    1    1    2    0  503  0.12289000604E+03 -0.18694381666E+03 -0.49068417196E+03  0.56604319692E+03  0.17200000000E+03 0. -1.
</event>
<event>
 4    1  0.5640532E+000  0.2056668E+03  0.7818608E-02  0.1145044E+00
         21   -1    0    0  503  502  0.00000000000E+00  0.00000000000E+00  0.16543381192E+04  0.16543381192E+04  0.00000000000E+00 0.  1.
         21   -1    0    0  501  503 -0.00000000000E+00 -0.00000000000E+00 -0.26897007698E+02  0.26897007698E+02  0.00000000000E+00 0. -1.
          6    1    1    2  501    0  0.44293693502E+02 -0.10369622192E+03  0.10005472947E+04  0.10214664589E+04  0.17200000000E+03 0. -1.
         -6    1    1    2    0  502 -0.44293693502E+02  0.10369622192E+03  0.62689381678E+03  0.65976866798E+03  0.17200000000E+03 0. -1.
</event>
<event>
 4    1  0.5640532E+000  0.2639697E+03  0.7818608E-02  0.1104781E+00
         21   -1    0    0  503  502  0.00000000000E+00  0.00000000000E+00  0.19623469572E+03  0.19623469572E+03  0.00000000000E+00 0.  1.
         21   -1    0    0  501  503 -0.00000000000E+00 -0.00000000000E+00 -0.49124793176E+03  0.49124793176E+03  0.00000000000E+00 0.  1.
          6    1    1    2  501    0 -0.13507325044E+03 -0.14782155466E+03 -0.32847838528E+03  0.42140010039E+03  0.17200000000E+03 0.  1.
         -6    1    1    2    0  502  0.13507325044E+03  0.14782155466E+03  0.33465149253E+02  0.26608252709E+03  0.17200000000E+03 0.  1.
</event>
<event>
 4    1  0.5640532E+000  0.3050796E+03  0.7818608E-02  0.1082729E+00
         21   -1    0    0  503  502  0.00000000000E+00  0.00000000000E+00  0.40412921490E+03  0.40412921490E+03  0.00000000000E+00 0.  1.
         21   -1    0    0  501  503 -0.00000000000E+00 -0.00000000000E+00 -0.23962197827E+03  0.23962197827E+03  0.00000000000E+00 0. -1.
          6    1    1    2  501    0 -0.23888670356E+03 -0.80141952174E+02  0.18789677006E+02  0.30565771968E+03  0.17200000000E+03 0.  1.
         -6    1    1    2    0  502  0.23888670356E+03  0.80141952174E+02  0.14571755962E+03  0.33809347349E+03  0.17200000000E+03 0. -1.
</event>
<event>
 4    1  0.5640532E+000  0.1778273E+03  0.7818608E-02  0.1169923E+00
         21   -1    0    0  501  502  0.00000000000E+00  0.00000000000E+00  0.24089013755E+03  0.24089013755E+03  0.00000000000E+00 0. -1.
         21   -1    0    0  502  503 -0.00000000000E+00 -0.00000000000E+00 -0.16170284987E+03  0.16170284987E+03  0.00000000000E+00 0. -1.
          6    1    1    2  501    0  0.37885592965E+02  0.24560495587E+02  0.12691538525E+03  0.21847208314E+03  0.17200000000E+03 0.  1.
         -6    1    1    2    0  503 -0.37885592965E+02 -0.24560495587E+02 -0.47728097568E+02  0.18412090429E+03  0.17200000000E+03 0.  1.
</event>
<event>
 4    1  0.5640532E+000  0.2755068E+03  0.7818608E-02  0.1098169E+00
         21   -1    0    0  503  502  0.00000000000E+00  0.00000000000E+00  0.88008114816E+02  0.88008114816E+02  0.00000000000E+00 0. -1.
         21   -1    0    0  501  503 -0.00000000000E+00 -0.00000000000E+00 -0.10072819790E+04  0.10072819790E+04  0.00000000000E+00 0. -1.
          6    1    1    2  501    0  0.32011487246E+01  0.21519697945E+03 -0.66728706123E+03  0.72192521039E+03  0.17200000000E+03 0. -1.
         -6    1    1    2    0  502 -0.32011487246E+01 -0.21519697945E+03 -0.25198680299E+03  0.37336488346E+03  0.17200000000E+03 0. -1.
</event>
<event>
 4    1  0.5640532E+000  0.1804054E+03  0.7818608E-02  0.1167411E+00
         21   -1    0    0  503  502  0.00000000000E+00  0.00000000000E+00  0.85210869236E+02  0.85210869236E+02  0.00000000000E+00 0. -1.
         21   -1    0    0  501  503 -0.00000000000E+00 -0.00000000000E+00 -0.52147592377E+03  0.52147592377E+03  0.00000000000E+00 0.  1.
          6    1    1    2  501    0  0.49166608588E+02  0.23339634030E+02 -0.37504175186E+03  0.41617593582E+03  0.17200000000E+03 0.  1.
         -6    1    1    2    0  502 -0.49166608588E+02 -0.23339634030E+02 -0.61223302678E+02  0.19051085719E+03  0.17200000000E+03 0. -1.
</event>
<event>
 4    1  0.5640532E+000  0.1824855E+03  0.7818608E-02  0.1165419E+00
         21   -1    0    0  501  502  0.00000000000E+00  0.00000000000E+00  0.65852358947E+03  0.65852358947E+03  0.00000000000E+00 0.  1.
         21   -1    0    0  502  503 -0.00000000000E+00 -0.00000000000E+00 -0.56014183268E+02  0.56014183268E+02  0.00000000000E+00 0.  1.
          6    1    1    2  501    0 -0.60260084631E+02 -0.92558321806E+01  0.41264523418E+03  0.45119512134E+03  0.17200000000E+03 0.  1.
         -6    1    1    2    0  503  0.60260084631E+02  0.92558321806E+01  0.18986417203E+03  0.26334265141E+03  0.17200000000E+03 0.  1.
</event>
<event>
 4    1  0.5640532E+000  0.1993611E+03  0.7818608E-02  0.1150279E+00
         21   -1    0    0  503  502  0.00000000000E+00  0.00000000000E+00  0.55796413715E+02  0.55796413715E+02  0.00000000000E+00 0.  1.
         21   -1    0    0  501  503 -0.00000000000E+00 -0.00000000000E+00 -0.89460057317E+03  0.89460057317E+03  0.00000000000E+00 0.  1.
          6    1    1    2  501    0 -0.44198926537E+02  0.90594124826E+02 -0.63390438363E+03  0.66451456579E+03  0.17200000000E+03 0.  1.
         -6    1    1    2    0  502  0.44198926537E+02 -0.90594124826E+02 -0.20489977583E+03  0.28588242110E+03  0.17200000000E+03 0.  1.
</event>
<event>
 4    1  0.5640532E+000  0.2090162E+03  0.7818608E-02  0.1142347E+00
         21   -1    0    0  503  502  0.00000000000E+00  0.00000000000E+00  0.14140064384E+03  0.14140064384E+03  0.00000000000E+00 0.  1.
         21   -1    0    0  501  503 -0.00000000000E+00 -0.00000000000E+00 -0.31893755091E+03  0.31893755091E+03  0.00000000000E+00 0.  1.
          6    1    1    2  501    0  0.32245549652E+02 -0.11429791542E+03 -0.48067300857E+02  0.21447203630E+03  0.17200000000E+03 0.  1.
         -6    1    1    2    0  502 -0.32245549652E+02  0.11429791542E+03 -0.12946960621E+03  0.24586615845E+03  0.17200000000E+03 0.  1.
</event>
<event>
 4    1  0.5640532E+000  0.1807379E+03  0.7818608E-02  0.1167091E+00
         21   -1    0    0  503  502  0.00000000000E+00  0.00000000000E+00  0.24125584228E+03  0.24125584228E+03  0.00000000000E+00 0. -1.
         21   -1    0    0  501  503 -0.00000000000E+00 -0.00000000000E+00 -0.15571593645E+03  0.15571593645E+03  0.00000000000E+00 0. -1.
          6    1    1    2  501    0  0.55511998800E+02 -0.78665284621E+00  0.11446257261E+03  0.21393429216E+03  0.17200000000E+03 0. -1.
         -6    1    1    2    0  502 -0.55511998800E+02  0.78665284621E+00 -0.28922666779E+02  0.18303748656E+03  0.17200000000E+03 0. -1.
</event>
<event>
 4    1  0.5640532E+000  0.2773992E+03  0.7818608E-02  0.1097118E+00
         21   -1    0    0  501  502  0.00000000000E+00  0.00000000000E+00  0.28610484443E+02  0.28610484443E+02  0.00000000000E+00 0.  1.
         21   -1    0    0  502  503 -0.00000000000E+00 -0.00000000000E+00 -0.29576238579E+04  0.29576238579E+04  0.00000000000E+00 0. -1.
          6    1    1    2  501    0 -0.13395186808E+03 -0.17153203287E+03 -0.10150157138E+04  0.10522391555E+04  0.17200000000E+03 0. -1.
         -6    1    1    2    0  503  0.13395186808E+03  0.17153203287E+03 -0.19139976597E+04  0.19339951868E+04  0.17200000000E+03 0. -1.
</event>
<event>
 4    1  0.5640532E+000  0.1960729E+03  0.7818608E-02  0.1153095E+00
         21   -1    0    0  503  502  0.00000000000E+00  0.00000000000E+00  0.85466533042E+02  0.85466533042E+02  0.00000000000E+00 0. -1.
         21   -1    0    0  501  503 -0.00000000000E+00 -0.00000000000E+00 -0.55682011234E+03  0.55682011234E+03  0.00000000000E+00 0. -1.
          6    1    1    2  501    0  0.55909130921E+01 -0.93964445504E+02 -0.37645423989E+03  0.42445538053E+03  0.17200000000E+03 0. -1.
         -6    1    1    2    0  502 -0.55909130921E+01  0.93964445504E+02 -0.94899339411E+02  0.21783126486E+03  0.17200000000E+03 0. -1.
</event>
<event>
 4    1  0.5640532E+000  0.2008547E+03  0.7818608E-02  0.1149020E+00
         21   -1    0    0  503  502  0.00000000000E+00  0.00000000000E+00  0.31350384668E+03  0.31350384668E+03  0.00000000000E+00 0. -1.
         21   -1    0    0  501  503 -0.00000000000E+00 -0.00000000000E+00 -0.14134019395E+03  0.14134019395E+03  0.00000000000E+00 0. -1.
          6    1    1    2  501    0  0.63400205944E+02  0.82091581455E+02  0.15413814909E+03  0.25318211403E+03  0.17200000000E+03 0. -1.
         -6    1    1    2    0  502 -0.63400205944E+02 -0.82091581455E+02  0.18025503639E+02  0.20166192660E+03  0.17200000000E+03 0. -1.
</event>
<event>
 4    1  0.5640532E+000  0.2313503E+03  0.7818608E-02  0.1125693E+00
         21   -1    0    0  501  502  0.00000000000E+00  0.00000000000E+00  0.86078847007E+03  0.86078847007E+03  0.00000000000E+00 0.  1.
         21   -1    0    0  502  503 -0.00000000000E+00 -0.00000000000E+00 -0.63857751414E+02  0.63857751414E+02  0.00000000000E+00 0.  1.
          6    1    1    2  501    0 -0.54799652007E+01  0.15462511042E+03  0.32350464525E+03  0.39771624343E+03  0.17200000000E+03 0.  1.
         -6    1    1    2    0  503  0.54799652007E+01 -0.15462511042E+03  0.47342607340E+03  0.52692997805E+03  0.17200000000E+03 0.  1.
</event>
<event>
 4    1  0.5640532E+000  0.1881077E+03  0.7818608E-02  0.1160179E+00
         21   -1    0    0  503  502  0.00000000000E+00  0.00000000000E+00  0.16467181537E+03  0.16467181537E+03  0.00000000000E+00 0. -1.
         21   -1    0    0  501  503 -0.00000000000E+00 -0.00000000000E+00 -0.42321644410E+03  0.42321644410E+03  0.00000000000E+00 0. -1.
          6    1    1    2  501    0 -0.14467683259E+02 -0.74774182930E+02 -0.33550967130E+03  0.38464429260E+03  0.17200000000E+03 0. -1.
         -6    1    1    2    0  502  0.14467683259E+02  0.74774182930E+02  0.76965042570E+02  0.20324396687E+03  0.17200000000E+03 0. -1.
</event>
<event>
 4    1  0.5640532E+000  0.1852209E+03  0.7818608E-02  0.1162844E+00
         21   -1    0    0  503  502  0.00000000000E+00  0.00000000000E+00  0.95026198024E+02  0.95026198024E+02  0.00000000000E+00 0. -1.
         21   -1    0    0  501  503 -0.00000000000E+00 -0.00000000000E+00 -0.36465020541E+03  0.36465020541E+03  0.00000000000E+00 0. -1.
          6    1    1    2  501    0 -0.49425847878E+02 -0.47747880078E+02 -0.15773056019E+03  0.24328112156E+03  0.17200000000E+03 0. -1.
         -6    1    1    2    0  502  0.49425847878E+02  0.47747880078E+02 -0.11189344719E+03  0.21639528187E+03  0.17200000000E+03 0. -1.
</event>
<event>
 4    1  0.5640532E+000  0.1802573E+03  0.7818608E-02  0.1167554E+00
         21   -1    0    0  503  502  0.00000000000E+00  0.00000000000E+00  0.25337285408E+03  0.25337285408E+03  0.00000000000E+00 0. -1.
         21   -1    0    0  501  503 -0.00000000000E+00 -0.00000000000E+00 -0.14983449349E+03  0.14983449349E+03  0.00000000000E+00 0. -1.
          6    1    1    2  501    0 -0.27212111724E+02  0.46563939822E+02 -0.24765366323E+02  0.18195060562E+03  0.17200000000E+03 0. -1.
         -6    1    1    2    0  502  0.27212111724E+02 -0.46563939822E+02  0.12830372691E+03  0.22125674195E+03  0.17200000000E+03 0. -1.
</event>
<event>
 4    1  0.5640532E+000  0.1795018E+03  0.7818608E-02  0.1168286E+00
         21   -1    0    0  503  502  0.00000000000E+00  0.00000000000E+00  0.55629996390E+02  0.55629996390E+02  0.00000000000E+00 0.  1.
         21   -1    0    0  501  503 -0.00000000000E+00 -0.00000000000E+00 -0.84233020295E+03  0.84233020295E+03  0.00000000000E+00 0.  1.
          6    1    1    2  501    0 -0.47702539282E+02  0.19009325289E+02 -0.64429095209E+03  0.66882861605E+03  0.17200000000E+03 0.  1.
         -6    1    1    2    0  502  0.47702539282E+02 -0.19009325289E+02 -0.14240925447E+03  0.22913158329E+03  0.17200000000E+03 0.  1.
</event>
<event>
 4    1  0.5640532E+000  0.3731582E+03  0.7818608E-02  0.1053492E+00
         21   -1    0    0  503  502  0.00000000000E+00  0.00000000000E+00  0.24593129106E+04  0.24593129106E+04  0.00000000000E+00 0.  1.
         21   -1    0    0  501  503 -0.00000000000E+00 -0.00000000000E+00 -0.76093933154E+02  0.76093933154E+02  0.00000000000E+00 0.  1.
          6    1    1    2  501    0 -0.12032793569E+02  0.33093545646E+03  0.55030245374E+03  0.66489085950E+03  0.17200000000E+03 0.  1.
         -6    1    1    2    0  502  0.12032793569E+02 -0.33093545646E+03  0.18329165237E+04  0.18705159842E+04  0.17200000000E+03 0.  1.
</event>
<event>
 4    1  0.5640532E+000  0.3119170E+03  0.7818608E-02  0.1079431E+00
         21   -1    0    0  501  502  0.00000000000E+00  0.00000000000E+00  0.56963854402E+03  0.56963854402E+03  0.00000000000E+00 0. -1.
         21   -1    0    0  502  503 -0.00000000000E+00 -0.00000000000E+00 -0.10546523212E+04  0.10546523212E+04  0.00000000000E+00 0.  1.
          6    1    1    2  501    0 -0.20048816783E+03  0.16586953925E+03  0.50097413646E+03  0.59014175830E+03  0.17200000000E+03 0. -1.
         -6    1    1    2    0  503  0.20048816783E+03 -0.16586953925E+03 -0.98598791364E+03  0.10341491069E+04  0.17200000000E+03 0.  1.
</event>
<event>
 4    1  0.5640532E+000  0.2043325E+03  0.7818608E-02  0.1146134E+00
         21   -1    0    0  501  502  0.00000000000E+00  0.00000000000E+00  0.58400330233E+03  0.58400330233E+03  0.00000000000E+00 0. -1.
         21   -1    0    0  502  503 -0.00000000000E+00 -0.00000000000E+00 -0.11292554560E+03  0.11292554560E+03  0.00000000000E+00 0. -1.
          6    1    1    2  501    0  0.28930175297E+02 -0.10644635624E+03  0.24464050926E+02  0.20579181613E+03  0.17200000000E+03 0. -1.
         -6    1    1    2    0  503 -0.28930175297E+02  0.10644635624E+03  0.44661370580E+03  0.49113703180E+03  0.17200000000E+03 0. -1.
</event>
<event>
 4    1  0.5640532E+000  0.1988625E+03  0.7818608E-02  0.1150702E+00
         21   -1    0    0  503  502  0.00000000000E+00  0.00000000000E+00  0.18446817915E+03  0.18446817915E+03  0.00000000000E+00 0. -1.
         21   -1    0    0  501  503 -0.00000000000E+00 -0.00000000000E+00 -0.34278173011E+03  0.34278173011E+03  0.00000000000E+00 0. -1.
          6    1    1    2  501    0 -0.98607511349E+02  0.15455243155E+02 -0.24050454323E+03  0.31207169232E+03  0.17200000000E+03 0. -1.
         -6    1    1    2    0  502  0.98607511349E+02 -0.15455243155E+02  0.82190992266E+02  0.21517821694E+03  0.17200000000E+03 0. -1.
</event>
<event>
 4    1  0.5640532E+000  0.1967999E+03  0.7818608E-02  0.1152467E+00
         21   -1    0    0  501  502  0.00000000000E+00  0.00000000000E+00  0.10639525241E+04  0.10639525241E+04  0.00000000000E+00 0. -1.
         21   -1    0    0  502  503 -0.00000000000E+00 -0.00000000000E+00 -0.36405395229E+02  0.36405395229E+02  0.00000000000E+00 0. -1.
          6    1    1    2  501    0  0.20325893812E+02  0.93450781005E+02  0.50860247559E+03  0.54535004227E+03  0.17200000000E+03 0. -1.
         -6    1    1    2    0  503 -0.20325893812E+02 -0.93450781005E+02  0.51894465332E+03  0.55500787710E+03  0.17200000000E+03 0. -1.
</event>
<event>
 4    1  0.5640532E+000  0.1728460E+03  0.7818608E-02  0.1174912E+00
         21   -1    0    0  501  502  0.00000000000E+00  0.00000000000E+00  0.85616881939E+02  0.85616881939E+02  0.00000000000E+00 0. -1.
         21   -1    0    0  502  503 -0.00000000000E+00 -0.00000000000E+00 -0.86220904734E+03  0.86220904734E+03  0.00000000000E+00 0. -1.
          6    1    1    2  501    0 -0.16525100473E+02  0.43187594272E+01 -0.22649100160E+02  0.17432358523E+03  0.17200000000E+03 0. -1.
         -6    1    1    2    0  503  0.16525100473E+02 -0.43187594272E+01 -0.75394306524E+03  0.77350234405E+03  0.17200000000E+03 0. -1.
</event>
<event>
 4    1  0.5640532E+000  0.2026694E+03  0.7818608E-02  0.1147506E+00
         21   -1    0    0  503  502  0.00000000000E+00  0.00000000000E+00  0.43651796077E+03  0.43651796077E+03  0.00000000000E+00 0. -1.
         21   -1    0    0  501  503 -0.00000000000E+00 -0.00000000000E+00 -0.10105690752E+03  0.10105690752E+03  0.00000000000E+00 0. -1.
          6    1    1    2  501    0 -0.10390588272E+03 -0.26352736407E+02  0.97190262148E+02  0.22476842802E+03  0.17200000000E+03 0. -1.
         -6    1    1    2    0  502  0.10390588272E+03  0.26352736407E+02  0.23827079110E+03  0.31280644027E+03  0.17200000000E+03 0. -1.
</event>
<event>
 4    1  0.5640532E+000  0.1797425E+03  0.7818608E-02  0.1168052E+00
         21   -1    0    0  503  502  0.00000000000E+00  0.00000000000E+00  0.21999291091E+03  0.21999291091E+03  0.00000000000E+00 0.  1.
         21   -1    0    0  501  503 -0.00000000000E+00 -0.00000000000E+00 -0.14687046889E+03  0.14687046889E+03  0.00000000000E+00 0.  1.
          6    1    1    2  501    0 -0.48999462073E+02  0.17956009982E+02  0.34765531134E+02  0.18307377675E+03  0.17200000000E+03 0.  1.
         -6    1    1    2    0  502  0.48999462073E+02 -0.17956009982E+02  0.38356910887E+02  0.18378960305E+03  0.17200000000E+03 0.  1.
</event>
<event>
 4    1  0.5640532E+000  0.1819961E+03  0.7818608E-02  0.1165885E+00
         21   -1    0    0  503  502  0.00000000000E+00  0.00000000000E+00  0.14223379205E+04  0.14223379205E+04  0.00000000000E+00 0. -1.
         21   -1    0    0  501  503 -0.00000000000E+00 -0.00000000000E+00 -0.60952526287E+02  0.60952526287E+02  0.00000000000E+00 0. -1.
          6    1    1    2  501    0 -0.59032397364E+02 -0.73309632706E+01  0.97690753740E+02  0.20655761987E+03  0.17200000000E+03 0. -1.
         -6    1    1    2    0  502  0.59032397364E+02  0.73309632706E+01  0.12636946405E+04  0.12767328269E+04  0.17200000000E+03 0. -1.
</event>
<event>
 4    1  0.5640532E+000  0.2047773E+03  0.7818608E-02  0.1145770E+00
         21   -1    0    0  503  502  0.00000000000E+00  0.00000000000E+00  0.13552885224E+04  0.13552885224E+04  0.00000000000E+00 0. -1.
         21   -1    0    0  501  503 -0.00000000000E+00 -0.00000000000E+00 -0.31972343212E+02  0.31972343212E+02  0.00000000000E+00 0. -1.
          6    1    1    2  501    0  0.21180160611E+02 -0.10909243729E+03  0.53706981569E+03  0.57478495631E+03  0.17200000000E+03 0. -1.
         -6    1    1    2    0  502 -0.21180160611E+02  0.10909243729E+03  0.78624636347E+03  0.81247590927E+03  0.17200000000E+03 0. -1.
</event>
<event>
 4    1  0.5640532E+000  0.1746197E+03  0.7818608E-02  0.1173114E+00
         21   -1    0    0  503  502  0.00000000000E+00  0.00000000000E+00  0.10733863647E+03  0.10733863647E+03  0.00000000000E+00 0. -1.
         21   -1    0    0  501  503 -0.00000000000E+00 -0.00000000000E+00 -0.33589560340E+03  0.33589560340E+03  0.00000000000E+00 0. -1.
          6    1    1    2  501    0 -0.28977583631E+02  0.82658725577E+01 -0.20132674762E+03  0.26650419192E+03  0.17200000000E+03 0. -1.
         -6    1    1    2    0  502  0.28977583631E+02 -0.82658725577E+01 -0.27230219307E+02  0.17673004794E+03  0.17200000000E+03 0. -1.
</event>
<event>
 4    1  0.5640532E+000  0.1782197E+03  0.7818608E-02  0.1169537E+00
         21   -1    0    0  501  502  0.00000000000E+00  0.00000000000E+00  0.63082991570E+03  0.63082991570E+03  0.00000000000E+00 0.  1.
         21   -1    0    0  502  503 -0.00000000000E+00 -0.00000000000E+00 -0.17382497889E+03  0.17382497889E+03  0.00000000000E+00 0.  1.
          6    1    1    2  501    0 -0.24683545179E+02 -0.39610597228E+02  0.56759097972E+03  0.59491326853E+03  0.17200000000E+03 0.  1.
         -6    1    1    2    0  503  0.24683545179E+02  0.39610597228E+02 -0.11058604291E+03  0.20974162606E+03  0.17200000000E+03 0.  1.
</event>
<event>
 4    1  0.5640532E+000  0.2022464E+03  0.7818608E-02  0.1147857E+00
         21   -1    0    0  501  502  0.00000000000E+00  0.00000000000E+00  0.16569061610E+04  0.16569061610E+04  0.00000000000E+00 0. -1.
         21   -1    0    0  502  503 -0.00000000000E+00 -0.00000000000E+00 -0.25859319560E+02  0.25859319560E+02  0.00000000000E+00 0. -1.
          6    1    1    2  501    0 -0.62877234069E+02 -0.85825707973E+02  0.99469026843E+03  0.10150430182E+04  0.17200000000E+03 0. -1.
         -6    1    1    2    0  503  0.62877234069E+02  0.85825707973E+02  0.63635657304E+03  0.66772246238E+03  0.17200000000E+03 0. -1.
</event>
<event>
 4    1  0.5640532E+000  0.2035348E+03  0.7818608E-02  0.1146790E+00
         21   -1    0    0  503  502  0.00000000000E+00  0.00000000000E+00  0.25952708858E+03  0.25952708858E+03  0.00000000000E+00 0. -1.
         21   -1    0    0  501  503 -0.00000000000E+00 -0.00000000000E+00 -0.18496392865E+03  0.18496392865E+03  0.00000000000E+00 0. -1.
          6    1    1    2  501    0  0.43705144618E+02 -0.99660835258E+02 -0.44981140946E+02  0.20844597571E+03  0.17200000000E+03 0. -1.
         -6    1    1    2    0  502 -0.43705144618E+02  0.99660835258E+02  0.11954430088E+03  0.23604504151E+03  0.17200000000E+03 0. -1.
</event>
<event>
 4    1  0.5640532E+000  0.1813315E+03  0.7818608E-02  0.1166521E+00
         21   -1    0    0  501  502  0.00000000000E+00  0.00000000000E+00  0.17622865770E+03  0.17622865770E+03  0.00000000000E+00 0.  1.
         21   -1    0    0  502  503 -0.00000000000E+00 -0.00000000000E+00 -0.39602543874E+03  0.39602543874E+03  0.00000000000E+00 0.  1.
          6    1    1    2  501    0 -0.57362006909E+02 -0.25916526764E+01  0.98181748069E+02  0.20620565500E+03  0.17200000000E+03 0.  1.
         -6    1    1    2    0  503  0.57362006909E+02  0.25916526764E+01 -0.31797852912E+03  0.36604844144E+03  0.17200000000E+03 0.  1.
</event>
<event>
 4    1  0.5640532E+000  0.2126264E+03  0.7818608E-02  0.1139503E+00
         21   -1    0    0  501  502  0.00000000000E+00  0.00000000000E+00  0.96629893125E+02  0.96629893125E+02  0.00000000000E+00 0.  1.
         21   -1    0    0  502  503 -0.00000000000E+00 -0.00000000000E+00 -0.54745754617E+03  0.54745754617E+03  0.00000000000E+00 0.  1.
          6    1    1    2  501    0 -0.64040385074E+02 -0.10735373546E+03 -0.10262220414E+03  0.23609598095E+03  0.17200000000E+03 0.  1.
         -6    1    1    2    0  503  0.64040385074E+02  0.10735373546E+03 -0.34820544890E+03  0.40799145834E+03  0.17200000000E+03 0.  1.
</event>
<event>
 4    1  0.5640532E+000  0.1735630E+03  0.7818608E-02  0.1174182E+00
         21   -1    0    0  503  502  0.00000000000E+00  0.00000000000E+00  0.87399103884E+03  0.87399103884E+03  0.00000000000E+00 0. -1.
         21   -1    0    0  501  503 -0.00000000000E+00 -0.00000000000E+00 -0.64498307577E+02  0.64498307577E+02  0.00000000000E+00 0. -1.
          6    1    1    2  501    0  0.20985452298E+02 -0.99862276571E+01  0.84554627334E+02  0.19306371734E+03  0.17200000000E+03 0. -1.
         -6    1    1    2    0  502 -0.20985452298E+02  0.99862276571E+01  0.72493810393E+03  0.74542562907E+03  0.17200000000E+03 0. -1.
</event>
<event>
 4    1  0.5640532E+000  0.2018732E+03  0.7818608E-02  0.1148168E+00
         21   -1    0    0  501  502  0.00000000000E+00  0.00000000000E+00  0.59904558329E+02  0.59904558329E+02  0.00000000000E+00 0. -1.
         21   -1    0    0  502  503 -0.00000000000E+00 -0.00000000000E+00 -0.80892150515E+03  0.80892150515E+03  0.00000000000E+00 0. -1.
          6    1    1    2  501    0  0.42543559099E+02 -0.96740987366E+02 -0.54773517879E+03  0.58375217271E+03  0.17200000000E+03 0. -1.
         -6    1    1    2    0  503 -0.42543559099E+02  0.96740987366E+02 -0.20128176803E+03  0.28507389077E+03  0.17200000000E+03 0. -1.
</event>
<event>
 4    1  0.5640532E+000  0.1926918E+03  0.7818608E-02  0.1156056E+00
         21   -1    0    0  501  502  0.00000000000E+00  0.00000000000E+00  0.23231432591E+03  0.23231432591E+03  0.00000000000E+00 0. -1.
         21   -1    0    0  502  503 -0.00000000000E+00 -0.00000000000E+00 -0.17734088876E+03  0.17734088876E+03  0.00000000000E+00 0. -1.
          6    1    1    2  501    0  0.86739987335E+02 -0.47222589478E+01  0.91855323714E+02  0.21346551391E+03  0.17200000000E+03 0. -1.
         -6    1    1    2    0  503 -0.86739987335E+02  0.47222589478E+01 -0.36881886564E+02  0.19618970077E+03  0.17200000000E+03 0. -1.
</event>
<event>
 4    1  0.5640532E+000  0.2158826E+03  0.7818608E-02  0.1136990E+00
         21   -1    0    0  503  502  0.00000000000E+00  0.00000000000E+00  0.95061988948E+02  0.95061988948E+02  0.00000000000E+00 0. -1.
         21   -1    0    0  501  503 -0.00000000000E+00 -0.00000000000E+00 -0.56918802246E+03  0.56918802246E+03  0.00000000000E+00 0. -1.
          6    1    1    2  501    0  0.12562831034E+03 -0.35197189266E+02 -0.36073827693E+03  0.42040149730E+03  0.17200000000E+03 0. -1.
         -6    1    1    2    0  502 -0.12562831034E+03  0.35197189266E+02 -0.11338775659E+03  0.24384851411E+03  0.17200000000E+03 0. -1.
</event>
<event>
 4    1  0.5640532E+000  0.1720345E+03  0.7818608E-02  0.1175743E+00
         21   -1    0    0  503  502  0.00000000000E+00  0.00000000000E+00  0.44706500088E+03  0.44706500088E+03  0.00000000000E+00 0.  1.
         21   -1    0    0  501  503 -0.00000000000E+00 -0.00000000000E+00 -0.14580944165E+03  0.14580944165E+03  0.00000000000E+00 0.  1.
          6    1    1    2  501    0  0.12647074333E+01 -0.32071766798E+01 -0.68411037895E+02  0.18513766654E+03  0.17200000000E+03 0.  1.
         -6    1    1    2    0  502 -0.12647074333E+01  0.32071766798E+01  0.36966659712E+03  0.40773677599E+03  0.17200000000E+03 0.  1.
</event>
<event>
 4    1  0.5640532E+000  0.2231868E+03  0.7818608E-02  0.1131529E+00
         21   -1    0    0  503  502  0.00000000000E+00  0.00000000000E+00  0.68999476050E+03  0.68999476050E+03  0.00000000000E+00 0. -1.
         21   -1    0    0  501  503 -0.00000000000E+00 -0.00000000000E+00 -0.21581990801E+03  0.21581990801E+03  0.00000000000E+00 0. -1.
          6    1    1    2  501    0 -0.14020640891E+03 -0.23885737844E+02 -0.13238534786E+03  0.25949613851E+03  0.17200000000E+03 0. -1.
         -6    1    1    2    0  502  0.14020640891E+03  0.23885737844E+02  0.60656020036E+03  0.64631853001E+03  0.17200000000E+03 0. -1.
</event>
<event>
 4    1  0.5640532E+000  0.1893274E+03  0.7818608E-02  0.1159069E+00
         21   -1    0    0  501  502  0.00000000000E+00  0.00000000000E+00  0.13173552857E+03  0.13173552857E+03  0.00000000000E+00 0.  1.
         21   -1    0    0  502  503 -0.00000000000E+00 -0.00000000000E+00 -0.33547262248E+03  0.33547262248E+03  0.00000000000E+00 0. -1.
          6    1    1    2  501    0  0.66560240005E+02 -0.42785373121E+02 -0.33426750018E+00  0.18932766686E+03  0.17200000000E+03 0.  1.
         -6    1    1    2    0  503 -0.66560240005E+02  0.42785373121E+02 -0.20340282641E+03  0.27788048419E+03  0.17200000000E+03 0. -1.
</event>
<event>
 4    1  0.5640532E+000  0.2780609E+03  0.7818608E-02  0.1096753E+00
         21   -1    0    0  501  502  0.00000000000E+00  0.00000000000E+00  0.22456356251E+03  0.22456356251E+03  0.00000000000E+00 0.  1.
         21   -1    0    0  502  503 -0.00000000000E+00 -0.00000000000E+00 -0.56016413026E+03  0.56016413026E+03  0.00000000000E+00 0. -1.
          6    1    1    2  501    0 -0.12763923775E+03 -0.17731912801E+03  0.75766929850E+02  0.28819867424E+03  0.17200000000E+03 0.  1.
         -6    1    1    2    0  503  0.12763923775E+03  0.17731912801E+03 -0.41136749760E+03  0.49652901854E+03  0.17200000000E+03 0. -1.
</event>
<event>
 4    1  0.5640532E+000  0.2625361E+03  0.7818608E-02  0.1105629E+00
         21   -1    0    0  503  502  0.00000000000E+00  0.00000000000E+00  0.32898327092E+03  0.32898327092E+03  0.00000000000E+00 0. -1.
         21   -1    0    0  501  503 -0.00000000000E+00 -0.00000000000E+00 -0.37731748057E+03  0.37731748057E+03  0.00000000000E+00 0.  1.
          6    1    1    2  501    0  0.12670773102E+03  0.15259859056E+03 -0.25967869551E+03  0.36926711720E+03  0.17200000000E+03 0.  1.
         -6    1    1    2    0  502 -0.12670773102E+03 -0.15259859056E+03  0.21134448586E+03  0.33703363429E+03  0.17200000000E+03 0. -1.
</event>
<event>
 4    1  0.5640532E+000  0.2109374E+03  0.7818608E-02  0.1140826E+00
         21   -1    0    0  501  502  0.00000000000E+00  0.00000000000E+00  0.43246932220E+03  0.43246932220E+03  0.00000000000E+00 0. -1.
         21   -1    0    0  502  503 -0.00000000000E+00 -0.00000000000E+00 -0.12239130429E+03  0.12239130429E+03  0.00000000000E+00 0. -1.
          6    1    1    2  501    0  0.11275603085E+03 -0.46868464443E+02  0.26579492158E+03  0.33932508865E+03  0.17200000000E+03 0. -1.
         -6    1    1    2    0  503 -0.11275603085E+03  0.46868464443E+02  0.44283096328E+02  0.21553553784E+03  0.17200000000E+03 0. -1.
</event>
<event>
 4    1  0.5640532E+000  0.2988584E+03  0.7818608E-02  0.1085813E+00
         21   -1    0    0  501  502  0.00000000000E+00  0.00000000000E+00  0.13766136692E+03  0.13766136692E+03  0.00000000000E+00 0. -1.
         21   -1    0    0  502  503 -0.00000000000E+00 -0.00000000000E+00 -0.17658111893E+04  0.17658111893E+04  0.00000000000E+00 0.  1.
          6    1    1    2  501    0 -0.75650211712E+02 -0.23239914206E+03 -0.57118338148E+02  0.30426767873E+03  0.17200000000E+03 0. -1.
         -6    1    1    2    0  503  0.75650211712E+02  0.23239914206E+03 -0.15710314842E+04  0.15992048774E+04  0.17200000000E+03 0.  1.
</event>
<event>
 4    1  0.5640532E+000  0.1877998E+03  0.7818608E-02  0.1160461E+00
         21   -1    0    0  503  502  0.00000000000E+00  0.00000000000E+00  0.41430450527E+03  0.41430450527E+03  0.00000000000E+00 0. -1.
         21   -1    0    0  501  503 -0.00000000000E+00 -0.00000000000E+00 -0.87140769591E+02  0.87140769591E+02  0.00000000000E+00 0. -1.
          6    1    1    2  501    0  0.20660263943E+02 -0.72511463809E+02  0.20169022706E+03  0.27558611464E+03  0.17200000000E+03 0. -1.
         -6    1    1    2    0  502 -0.20660263943E+02  0.72511463809E+02  0.12547350861E+03  0.22585916021E+03  0.17200000000E+03 0. -1.
</event>
<event>
 4    1  0.5640532E+000  0.2238840E+03  0.7818608E-02  0.1131020E+00
         21   -1    0    0  503  502  0.00000000000E+00  0.00000000000E+00  0.97223354167E+02  0.97223354167E+02  0.00000000000E+00 0. -1.
         21   -1    0    0  501  503 -0.00000000000E+00 -0.00000000000E+00 -0.77293888367E+03  0.77293888367E+03  0.00000000000E+00 0. -1.
          6    1    1    2  501    0 -0.13779601277E+03 -0.39399088886E+02 -0.58892379794E+03  0.63004386285E+03  0.17200000000E+03 0. -1.
         -6    1    1    2    0  502  0.13779601277E+03  0.39399088886E+02 -0.86791731573E+02  0.24011837499E+03  0.17200000000E+03 0. -1.
</event>
<event>
 4    1  0.5640532E+000  0.3465235E+03  0.7818608E-02  0.1064051E+00
         21   -1    0    0  503  502  0.00000000000E+00  0.00000000000E+00  0.11774480410E+03  0.11774480410E+03  0.00000000000E+00 0. -1.
         21   -1    0    0  501  503 -0.00000000000E+00 -0.00000000000E+00 -0.10199200787E+04  0.10199200787E+04  0.00000000000E+00 0.  1.
          6    1    1    2  501    0 -0.25819621019E+03  0.15436732983E+03 -0.45671054194E+03  0.57329143949E+03  0.17200000000E+03 0. -1.
         -6    1    1    2    0  502  0.25819621019E+03 -0.15436732983E+03 -0.44546473263E+03  0.56437344329E+03  0.17200000000E+03 0.  1.
</event>
<event>
 4    1  0.5640532E+000  0.2732904E+03  0.7818608E-02  0.1099411E+00
         21   -1    0    0  503  502  0.00000000000E+00  0.00000000000E+00  0.45261309317E+03  0.45261309317E+03  0.00000000000E+00 0.  1.
         21   -1    0    0  501  503 -0.00000000000E+00 -0.00000000000E+00 -0.18300396711E+03  0.18300396711E+03  0.00000000000E+00 0.  1.
          6    1    1    2  501    0 -0.17115899023E+03  0.12573085408E+03  0.35161638737E+02  0.27554307910E+03  0.17200000000E+03 0.  1.
         -6    1    1    2    0  502  0.17115899023E+03 -0.12573085408E+03  0.23444748733E+03  0.36007398118E+03  0.17200000000E+03 0.  1.
</event>
<event>
 4    1  0.5640532E+000  0.1915796E+03  0.7818608E-02  0.1157044E+00
         21   -1    0    0  503  502  0.00000000000E+00  0.00000000000E+00  0.18305168206E+03  0.18305168206E+03  0.00000000000E+00 0.  1.
         21   -1    0    0  501  503 -0.00000000000E+00 -0.00000000000E+00 -0.22360991330E+03  0.22360991330E+03  0.00000000000E+00 0.  1.
          6    1    1    2  501    0 -0.38779251227E+02 -0.74932834839E+02 -0.85638914211E+02  0.20984943100E+03  0.17200000000E+03 0.  1.
         -6    1    1    2    0  502  0.38779251227E+02  0.74932834839E+02  0.45080682971E+02  0.19681216436E+03  0.17200000000E+03 0.  1.
</event>
<event>
 4    1  0.5640532E+000  0.2800780E+03  0.7818608E-02  0.1095646E+00
         21   -1    0    0  503  502  0.00000000000E+00  0.00000000000E+00  0.15176384208E+03  0.15176384208E+03  0.00000000000E+00 0. -1.
         21   -1    0    0  501  503 -0.00000000000E+00 -0.00000000000E+00 -0.51739392989E+03  0.51739392989E+03  0.00000000000E+00 0. -1.
          6    1    1    2  501    0 -0.57708026312E+02 -0.21337639101E+03 -0.19335948384E+03  0.34034040391E+03  0.17200000000E+03 0. -1.
         -6    1    1    2    0  502  0.57708026312E+02  0.21337639101E+03 -0.17227060397E+03  0.32881736806E+03  0.17200000000E+03 0. -1.
</event>
<event>
 4    1  0.5640532E+000  0.1742065E+03  0.7818608E-02  0.1173531E+00
         21   -1    0    0  503  502  0.00000000000E+00  0.00000000000E+00  0.10862525452E+03  0.10862525452E+03  0.00000000000E+00 0.  1.
         21   -1    0    0  501  503 -0.00000000000E+00 -0.00000000000E+00 -0.27984212962E+03  0.27984212962E+03  0.00000000000E+00 0.  1.
          6    1    1    2  501    0 -0.65343087148E+01 -0.26855260319E+02 -0.77729348533E+02  0.19076098611E+03  0.17200000000E+03 0. -1.
         -6    1    1    2    0  502  0.65343087148E+01  0.26855260319E+02 -0.93487526573E+02  0.19770639803E+03  0.17200000000E+03 0. -1.
</event>
<event>
 4    1  0.5640532E+000  0.1767909E+03  0.7818608E-02  0.1170945E+00
         21   -1    0    0  503  502  0.00000000000E+00  0.00000000000E+00  0.55920691505E+03  0.55920691505E+03  0.00000000000E+00 0. -1.
         21   -1    0    0  501  503 -0.00000000000E+00 -0.00000000000E+00 -0.96256896083E+02  0.96256896083E+02  0.00000000000E+00 0. -1.
          6    1    1    2  501    0  0.38595568684E+02 -0.13468066086E+02  0.19245140053E+02  0.17783526687E+03  0.17200000000E+03 0. -1.
         -6    1    1    2    0  502 -0.38595568684E+02  0.13468066086E+02  0.44370487892E+03  0.47762854427E+03  0.17200000000E+03 0. -1.
</event>
<event>
 4    1  0.5640532E+000  0.1855071E+03  0.7818608E-02  0.1162577E+00
         21   -1    0    0  503  502  0.00000000000E+00  0.00000000000E+00  0.37381873472E+03  0.37381873472E+03  0.00000000000E+00 0. -1.
         21   -1    0    0  501  503 -0.00000000000E+00 -0.00000000000E+00 -0.17706427476E+03  0.17706427476E+03  0.00000000000E+00 0. -1.
          6    1    1    2  501    0 -0.49712138058E+02  0.48554808335E+02 -0.92471973557E+02  0.20727742756E+03  0.17200000000E+03 0. -1.
         -6    1    1    2    0  502  0.49712138058E+02 -0.48554808335E+02  0.28922643351E+03  0.34360558192E+03  0.17200000000E+03 0. -1.
</event>
<event>
 4    1  0.5640532E+000  0.2119135E+03  0.7818608E-02  0.1140060E+00
         21   -1    0    0  501  502  0.00000000000E+00  0.00000000000E+00  0.23585917725E+04  0.23585917725E+04  0.00000000000E+00 0.  1.
         21   -1    0    0  502  503 -0.00000000000E+00 -0.00000000000E+00 -0.19615068323E+02  0.19615068323E+02  0.00000000000E+00 0.  1.
          6    1    1    2  501    0  0.22828285682E+02  0.12166422572E+03  0.13731119585E+04  0.13893681172E+04  0.17200000000E+03 0. -1.
         -6    1    1    2    0  503 -0.22828285682E+02 -0.12166422572E+03  0.96586474571E+03  0.98883872369E+03  0.17200000000E+03 0. -1.
</event>
<event>
 4    1  0.5640532E+000  0.1787273E+03  0.7818608E-02  0.1169040E+00
         21   -1    0    0  503  502  0.00000000000E+00  0.00000000000E+00  0.18928240710E+03  0.18928240710E+03  0.00000000000E+00 0.  1.
         21   -1    0    0  501  503 -0.00000000000E+00 -0.00000000000E+00 -0.26880954757E+03  0.26880954757E+03  0.00000000000E+00 0.  1.
          6    1    1    2  501    0 -0.35012455093E+02  0.33668809725E+02 -0.17949883875E+03  0.25330474506E+03  0.17200000000E+03 0.  1.
         -6    1    1    2    0  502  0.35012455093E+02 -0.33668809725E+02  0.99971698283E+02  0.20478720960E+03  0.17200000000E+03 0.  1.
</event>
<event>
 4    1  0.5640532E+000  0.2189531E+03  0.7818608E-02  0.1134666E+00
         21   -1    0    0  501  502  0.00000000000E+00  0.00000000000E+00  0.14241239240E+03  0.14241239240E+03  0.00000000000E+00 0.  1.
         21   -1    0    0  502  503 -0.00000000000E+00 -0.00000000000E+00 -0.35223728950E+03  0.35223728950E+03  0.00000000000E+00 0.  1.
          6    1    1    2  501    0  0.11310542496E+03  0.74589658126E+02 -0.15697160763E+03  0.26940775760E+03  0.17200000000E+03 0.  1.
         -6    1    1    2    0  503 -0.11310542496E+03 -0.74589658126E+02 -0.52853289470E+02  0.22524192430E+03  0.17200000000E+03 0.  1.
</event>
<event>
 4    1  0.5640532E+000  0.1935823E+03  0.7818608E-02  0.1155269E+00
         21   -1    0    0  501  502  0.00000000000E+00  0.00000000000E+00  0.29298770694E+02  0.29298770694E+02  0.00000000000E+00 0. -1.
         21   -1    0    0  502  503 -0.00000000000E+00 -0.00000000000E+00 -0.13202937319E+04  0.13202937319E+04  0.00000000000E+00 0.  1.
          6    1    1    2  501    0 -0.48663995692E+02  0.74309760678E+02 -0.52620848618E+03  0.56068662899E+03  0.17200000000E+03 0. -1.
         -6    1    1    2    0  503  0.48663995692E+02 -0.74309760678E+02 -0.76478647498E+03  0.78890587355E+03  0.17200000000E+03 0.  1.
</event>
<event>
 4    1  0.5640532E+000  0.1960054E+03  0.7818608E-02  0.1153154E+00
         21   -1    0    0  501  502  0.00000000000E+00  0.00000000000E+00  0.48162590818E+03  0.48162590818E+03  0.00000000000E+00 0. -1.
         21   -1    0    0  502  503 -0.00000000000E+00 -0.00000000000E+00 -0.11284033218E+03  0.11284033218E+03  0.00000000000E+00 0. -1.
          6    1    1    2  501    0 -0.87633968293E+02  0.33976644506E+02  0.34530918694E+03  0.39705989392E+03  0.17200000000E+03 0. -1.
         -6    1    1    2    0  503  0.87633968293E+02 -0.33976644506E+02  0.23476389054E+02  0.19740634644E+03  0.17200000000E+03 0. -1.
</event>
<event>
 4    1  0.5640532E+000  0.2051201E+03  0.7818608E-02  0.1145490E+00
         21   -1    0    0  501  502  0.00000000000E+00  0.00000000000E+00  0.50008232199E+03  0.50008232199E+03  0.00000000000E+00 0.  1.
         21   -1    0    0  502  503 -0.00000000000E+00 -0.00000000000E+00 -0.10812822904E+03  0.10812822904E+03  0.00000000000E+00 0.  1.
          6    1    1    2  501    0 -0.63180560479E+02  0.92187230866E+02  0.33922934785E+03  0.39642252610E+03  0.17200000000E+03 0.  1.
         -6    1    1    2    0  503  0.63180560479E+02 -0.92187230866E+02  0.52724745105E+02  0.21178802493E+03  0.17200000000E+03 0.  1.
</event>
<event>
 4    1  0.5640532E+000  0.2575001E+03  0.7818608E-02  0.1108655E+00
         21   -1    0    0  501  502  0.00000000000E+00  0.00000000000E+00  0.92675452097E+03  0.92675452097E+03  0.00000000000E+00 0. -1.
         21   -1    0    0  502  503 -0.00000000000E+00 -0.00000000000E+00 -0.19567070135E+03  0.19567070135E+03  0.00000000000E+00 0.  1.
          6    1    1    2  501    0 -0.73232421661E+02 -0.17708564156E+03  0.81252618525E+03  0.85235269328E+03  0.17200000000E+03 0. -1.
         -6    1    1    2    0  503  0.73232421661E+02  0.17708564156E+03 -0.81442365628E+02  0.27007252905E+03  0.17200000000E+03 0.  1.
</event>
<event>
 4    1  0.5640532E+000  0.1974430E+03  0.7818608E-02  0.1151914E+00
         21   -1    0    0  501  502  0.00000000000E+00  0.00000000000E+00  0.22006339989E+02  0.22006339989E+02  0.00000000000E+00 0.  1.
         21   -1    0    0  502  503 -0.00000000000E+00 -0.00000000000E+00 -0.17854100240E+04  0.17854100240E+04  0.00000000000E+00 0.  1.
          6    1    1    2  501    0  0.65734752828E+02  0.71264903846E+02 -0.96153225794E+03  0.98159463492E+03  0.17200000000E+03 0.  1.
         -6    1    1    2    0  503 -0.65734752828E+02 -0.71264903846E+02 -0.80187142607E+03  0.82582172906E+03  0.17200000000E+03 0.  1.
</event>
<event>
 4    1  0.5640532E+000  0.2286136E+03  0.7818608E-02  0.1127619E+00
         21   -1    0    0  501  502  0.00000000000E+00  0.00000000000E+00  0.28987123466E+03  0.28987123466E+03  0.00000000000E+00 0. -1.
         21   -1    0    0  502  503 -0.00000000000E+00 -0.00000000000E+00 -0.18126911658E+03  0.18126911658E+03  0.00000000000E+00 0. -1.
          6    1    1    2  501    0  0.14606418243E+03  0.36680162767E+02  0.71513402222E+02  0.23953777662E+03  0.17200000000E+03 0. -1.
         -6    1    1    2    0  503 -0.14606418243E+03 -0.36680162767E+02  0.37088715861E+02  0.23160257463E+03  0.17200000000E+03 0. -1.
</event>
<event>
 4    1  0.5640532E+000  0.1974842E+03  0.7818608E-02  0.1151879E+00
         21   -1    0    0  503  502  0.00000000000E+00  0.00000000000E+00  0.60790664448E+03  0.60790664448E+03  0.00000000000E+00 0.  1.
         21   -1    0    0  501  503 -0.00000000000E+00 -0.00000000000E+00 -0.96036915347E+02  0.96036915347E+02  0.00000000000E+00 0.  1.
          6    1    1    2  501    0 -0.75783228508E+02 -0.60604391717E+02  0.53136771528E+02  0.20450796196E+03  0.17200000000E+03 0.  1.
         -6    1    1    2    0  502  0.75783228508E+02  0.60604391717E+02  0.45873295760E+03  0.49943559786E+03  0.17200000000E+03 0.  1.
</event>
<event>
 4    1  0.5640532E+000  0.2653702E+03  0.7818608E-02  0.1103959E+00
         21   -1    0    0  503  502  0.00000000000E+00  0.00000000000E+00  0.49006300461E+03  0.49006300461E+03  0.00000000000E+00 0.  1.
         21   -1    0    0  501  503 -0.00000000000E+00 -0.00000000000E+00 -0.16637367942E+03  0.16637367942E+03  0.00000000000E+00 0.  1.
          6    1    1    2  501    0 -0.18548439973E+03 -0.80205201584E+02  0.40674540256E+02  0.26846928154E+03  0.17200000000E+03 0.  1.
         -6    1    1    2    0  502  0.18548439973E+03  0.80205201584E+02  0.28301478493E+03  0.38796740249E+03  0.17200000000E+03 0.  1.
</event>
<event>
 4    1  0.5640532E+000  0.1862624E+03  0.7818608E-02  0.1161876E+00
         21   -1    0    0  501  502  0.00000000000E+00  0.00000000000E+00  0.22372613078E+03  0.22372613078E+03  0.00000000000E+00 0. -1.
         21   -1    0    0  502  503 -0.00000000000E+00 -0.00000000000E+00 -0.32735519883E+03  0.32735519883E+03  0.00000000000E+00 0. -1.
          6    1    1    2  501    0  0.71470603789E+02  0.12837192020E+01  0.14807835184E+03  0.23795145182E+03  0.17200000000E+03 0. -1.
         -6    1    1    2    0  503 -0.71470603789E+02 -0.12837192020E+01 -0.25170741989E+03  0.31312987779E+03  0.17200000000E+03 0. -1.
</event>
<event>
 4    1  0.5640532E+000  0.2119849E+03  0.7818608E-02  0.1140004E+00
         21   -1    0    0  503  502  0.00000000000E+00  0.00000000000E+00  0.55246923883E+03  0.55246923883E+03  0.00000000000E+00 0.  1.
         21   -1    0    0  501  503 -0.00000000000E+00 -0.00000000000E+00 -0.12136025045E+03  0.12136025045E+03  0.00000000000E+00 0. -1.
          6    1    1    2  501    0  0.20000077846E+02 -0.12228482506E+03  0.22079740464E+02  0.21313164123E+03  0.17200000000E+03 0. -1.
         -6    1    1    2    0  502 -0.20000077846E+02  0.12228482506E+03  0.40902924791E+03  0.46069784805E+03  0.17200000000E+03 0.  1.
</event>
<event>
 4    1  0.5640532E+000  0.1784983E+03  0.7818608E-02  0.1169264E+00
         21   -1    0    0  503  502  0.00000000000E+00  0.00000000000E+00  0.35350794848E+03  0.35350794848E+03  0.00000000000E+00 0. -1.
         21   -1    0    0  501  503 -0.00000000000E+00 -0.00000000000E+00 -0.15236280026E+03  0.15236280026E+03  0.00000000000E+00 0. -1.
          6    1    1    2  501    0  0.66034907220E+01 -0.47265693453E+02 -0.61079009456E+02  0.18865920933E+03  0.17200000000E+03 0. -1.
         -6    1    1    2    0  502 -0.66034907220E+01  0.47265693453E+02  0.26222415768E+03  0.31721153941E+03  0.17200000000E+03 0. -1.
</event>
<event>
 4    1  0.5640532E+000  0.1953174E+03  0.7818608E-02  0.1153751E+00
         21   -1    0    0  501  502  0.00000000000E+00  0.00000000000E+00  0.65598562665E+03  0.65598562665E+03  0.00000000000E+00 0.  1.
         21   -1    0    0  502  503 -0.00000000000E+00 -0.00000000000E+00 -0.69417157358E+02  0.69417157358E+02  0.00000000000E+00 0. -1.
          6    1    1    2  501    0 -0.90839371642E+02 -0.17694172528E+02  0.43937598492E+03  0.48083274775E+03  0.17200000000E+03 0.  1.
         -6    1    1    2    0  503  0.90839371642E+02  0.17694172528E+02  0.14719248437E+03  0.24457003626E+03  0.17200000000E+03 0. -1.
</event>
<event>
 4    1  0.5640532E+000  0.1874048E+03  0.7818608E-02  0.1160823E+00
         21   -1    0    0  503  502  0.00000000000E+00  0.00000000000E+00  0.18834787588E+03  0.18834787588E+03  0.00000000000E+00 0.  1.
         21   -1    0    0  501  503 -0.00000000000E+00 -0.00000000000E+00 -0.18681679395E+03  0.18681679395E+03  0.00000000000E+00 0.  1.
          6    1    1    2  501    0  0.62462820628E+02  0.40434793704E+02  0.88877891312E+01  0.18761548257E+03  0.17200000000E+03 0.  1.
         -6    1    1    2    0  502 -0.62462820628E+02 -0.40434793704E+02 -0.73567072040E+01  0.18754918726E+03  0.17200000000E+03 0.  1.
</event>
<event>
 4    1  0.5640532E+000  0.1924806E+03  0.7818608E-02  0.1156243E+00
         21   -1    0    0  501  502  0.00000000000E+00  0.00000000000E+00  0.85579100971E+03  0.85579100971E+03  0.00000000000E+00 0. -1.
         21   -1    0    0  502  503 -0.00000000000E+00 -0.00000000000E+00 -0.66016411291E+02  0.66016411291E+02  0.00000000000E+00 0. -1.
          6    1    1    2  501    0  0.19391461550E+02 -0.84194726457E+02  0.66530302845E+03  0.69258710673E+03  0.17200000000E+03 0. -1.
         -6    1    1    2    0  503 -0.19391461550E+02  0.84194726457E+02  0.12447156997E+03  0.22922031427E+03  0.17200000000E+03 0. -1.
</event>
<event>
 4    1  0.5640532E+000  0.1982815E+03  0.7818608E-02  0.1151197E+00
         21   -1    0    0  503  502  0.00000000000E+00  0.00000000000E+00  0.70255921186E+03  0.70255921186E+03  0.00000000000E+00 0. -1.
         21   -1    0    0  501  503 -0.00000000000E+00 -0.00000000000E+00 -0.59785839087E+02  0.59785839087E+02  0.00000000000E+00 0. -1.
          6    1    1    2  501    0  0.16041719393E+02  0.97335501733E+02  0.41780502990E+03  0.46246792285E+03  0.17200000000E+03 0. -1.
         -6    1    1    2    0  502 -0.16041719393E+02 -0.97335501733E+02  0.22496834287E+03  0.29987712809E+03  0.17200000000E+03 0. -1.
</event>
<event>
 4    1  0.5640532E+000  0.1968419E+03  0.7818608E-02  0.1152431E+00
         21   -1    0    0  501  502  0.00000000000E+00  0.00000000000E+00  0.79052990453E+03  0.79052990453E+03  0.00000000000E+00 0.  1.
         21   -1    0    0  502  503 -0.00000000000E+00 -0.00000000000E+00 -0.50688512245E+02  0.50688512245E+02  0.00000000000E+00 0.  1.
          6    1    1    2  501    0 -0.74721201573E+01  0.95430013459E+02  0.44637808390E+03  0.48785255337E+03  0.17200000000E+03 0.  1.
         -6    1    1    2    0  503  0.74721201573E+01 -0.95430013459E+02  0.29346330839E+03  0.35336586340E+03  0.17200000000E+03 0.  1.
</event>
<event>
 4    1  0.5640532E+000  0.1784705E+03  0.7818608E-02  0.1169292E+00
         21   -1    0    0  503  502  0.00000000000E+00  0.00000000000E+00  0.25820195205E+03  0.25820195205E+03  0.00000000000E+00 0. -1.
         21   -1    0    0  501  503 -0.00000000000E+00 -0.00000000000E+00 -0.44972950662E+03  0.44972950662E+03  0.00000000000E+00 0. -1.
          6    1    1    2  501    0 -0.28802415438E+02  0.37922900723E+02 -0.39730069113E+03  0.43554513510E+03  0.17200000000E+03 0. -1.
         -6    1    1    2    0  502  0.28802415438E+02 -0.37922900723E+02  0.20577313656E+03  0.27238632356E+03  0.17200000000E+03 0. -1.
</event>
<event>
 4    1  0.5640532E+000  0.3461419E+03  0.7818608E-02  0.1064210E+00
         21   -1    0    0  503  502  0.00000000000E+00  0.00000000000E+00  0.34382362983E+03  0.34382362983E+03  0.00000000000E+00 0.  1.
         21   -1    0    0  501  503 -0.00000000000E+00 -0.00000000000E+00 -0.45897546299E+03  0.45897546299E+03  0.00000000000E+00 0. -1.
          6    1    1    2  501    0 -0.29575549629E+03  0.52525153172E+02 -0.25452894914E+03  0.42965008001E+03  0.17200000000E+03 0. -1.
         -6    1    1    2    0  502  0.29575549629E+03 -0.52525153172E+02  0.13937711597E+03  0.37314901281E+03  0.17200000000E+03 0.  1.
</event>
<event>
 4    1  0.5640532E+000  0.1846829E+03  0.7818608E-02  0.1163346E+00
         21   -1    0    0  503  502  0.00000000000E+00  0.00000000000E+00  0.25314698178E+03  0.25314698178E+03  0.00000000000E+00 0. -1.
         21   -1    0    0  501  503 -0.00000000000E+00 -0.00000000000E+00 -0.47127436887E+03  0.47127436887E+03  0.00000000000E+00 0. -1.
          6    1    1    2  501    0 -0.18656039842E+02  0.64619961485E+02 -0.41514880179E+03  0.45437464154E+03  0.17200000000E+03 0. -1.
         -6    1    1    2    0  502  0.18656039842E+02 -0.64619961485E+02  0.19702141471E+03  0.27004670910E+03  0.17200000000E+03 0. -1.
</event>
<event>
 4    1  0.5640532E+000  0.1872933E+03  0.7818608E-02  0.1160925E+00
         21   -1    0    0  503  502  0.00000000000E+00  0.00000000000E+00  0.53939437105E+03  0.53939437105E+03  0.00000000000E+00 0. -1.
         21   -1    0    0  501  503 -0.00000000000E+00 -0.00000000000E+00 -0.98271146901E+02  0.98271146901E+02  0.00000000000E+00 0.  1.
          6    1    1    2  501    0  0.73416128777E+02 -0.10240023154E+02  0.35138415333E+02  0.19056099882E+03  0.17200000000E+03 0.  1.
         -6    1    1    2    0  502 -0.73416128777E+02  0.10240023154E+02  0.40598480882E+03  0.44710451913E+03  0.17200000000E+03 0. -1.
</event>
<event>
 4    1  0.5640532E+000  0.2369834E+03  0.7818608E-02  0.1121819E+00
         21   -1    0    0  501  502  0.00000000000E+00  0.00000000000E+00  0.88659266276E+03  0.88659266276E+03  0.00000000000E+00 0.  1.
         21   -1    0    0  502  503 -0.00000000000E+00 -0.00000000000E+00 -0.88058622391E+02  0.88058622391E+02  0.00000000000E+00 0.  1.
          6    1    1    2  501    0 -0.50076979147E+02 -0.15514322621E+03  0.65743501020E+03  0.69884327078E+03  0.17200000000E+03 0.  1.
         -6    1    1    2    0  503  0.50076979147E+02  0.15514322621E+03  0.14109903017E+03  0.27580801438E+03  0.17200000000E+03 0.  1.
</event>
<event>
 4    1  0.5640532E+000  0.2441011E+03  0.7818608E-02  0.1117091E+00
         21   -1    0    0  501  502  0.00000000000E+00  0.00000000000E+00  0.25250750878E+03  0.25250750878E+03  0.00000000000E+00 0. -1.
         21   -1    0    0  502  503 -0.00000000000E+00 -0.00000000000E+00 -0.28045219984E+03  0.28045219984E+03  0.00000000000E+00 0. -1.
          6    1    1    2  501    0  0.15533216410E+03  0.76637098068E+02  0.92149856849E+02  0.26091554596E+03  0.17200000000E+03 0. -1.
         -6    1    1    2    0  503 -0.15533216410E+03 -0.76637098068E+02 -0.12009454791E+03  0.27204416267E+03  0.17200000000E+03 0. -1.
</event>
<event>
 4    1  0.5640532E+000  0.2542150E+03  0.7818608E-02  0.1110670E+00
         21   -1    0    0  501  502  0.00000000000E+00  0.00000000000E+00  0.20564736346E+03  0.20564736346E+03  0.00000000000E+00 0. -1.
         21   -1    0    0  502  503 -0.00000000000E+00 -0.00000000000E+00 -0.31818476110E+03  0.31818476110E+03  0.00000000000E+00 0.  1.
          6    1    1    2  501    0  0.13041289323E+03 -0.13428981274E+03 -0.85384084968E+02  0.26817106200E+03  0.17200000000E+03 0. -1.
         -6    1    1    2    0  503 -0.13041289323E+03  0.13428981274E+03 -0.27153312670E+02  0.25566106257E+03  0.17200000000E+03 0. -1.
</event>
<event>
 4    1  0.5640532E+000  0.2239998E+03  0.7818608E-02  0.1130936E+00
         21   -1    0    0  501  502  0.00000000000E+00  0.00000000000E+00  0.14362728013E+04  0.14362728013E+04  0.00000000000E+00 0. -1.
         21   -1    0    0  502  503 -0.00000000000E+00 -0.00000000000E+00 -0.54001867395E+02  0.54001867395E+02  0.00000000000E+00 0. -1.
          6    1    1    2  501    0  0.46576303384E+02  0.13572973079E+03  0.11339010101E+04  0.11558146099E+04  0.17200000000E+03 0. -1.
         -6    1    1    2    0  503 -0.46576303384E+02 -0.13572973079E+03  0.24836992386E+03  0.33446005880E+03  0.17200000000E+03 0. -1.
</event>
<event>
 4    1  0.5640532E+000  0.1936517E+03  0.7818608E-02  0.1155208E+00
         21   -1    0    0  501  502  0.00000000000E+00  0.00000000000E+00  0.22778423920E+03  0.22778423920E+03  0.00000000000E+00 0. -1.
         21   -1    0    0  502  503 -0.00000000000E+00 -0.00000000000E+00 -0.16777900455E+03  0.16777900455E+03  0.00000000000E+00 0.  1.
          6    1    1    2  501    0  0.31786912758E+02  0.83105681693E+02  0.29226295775E+01  0.19367370476E+03  0.17200000000E+03 0.  1.
         -6    1    1    2    0  503 -0.31786912758E+02 -0.83105681693E+02  0.57082605064E+02  0.20188953899E+03  0.17200000000E+03 0. -1.
</event>
<event>
 4    1  0.5640532E+000  0.2365658E+03  0.7818608E-02  0.1122102E+00
         21   -1    0    0  501  502  0.00000000000E+00  0.00000000000E+00  0.26409424772E+03  0.26409424772E+03  0.00000000000E+00 0. -1.
         21   -1    0    0  502  503 -0.00000000000E+00 -0.00000000000E+00 -0.22167313256E+03  0.22167313256E+03  0.00000000000E+00 0.  1.
          6    1    1    2  501    0  0.15984507253E+03 -0.28790870585E+02 -0.29770406050E+02  0.23843162231E+03  0.17200000000E+03 0.  1.
         -6    1    1    2    0  503 -0.15984507253E+03  0.28790870585E+02  0.72191521205E+02  0.24733575798E+03  0.17200000000E+03 0. -1.
</event>
<event>
 4    1  0.5640532E+000  0.2282689E+03  0.7818608E-02  0.1127864E+00
         21   -1    0    0  501  502  0.00000000000E+00  0.00000000000E+00  0.60181848193E+03  0.60181848193E+03  0.00000000000E+00 0. -1.
         21   -1    0    0  502  503 -0.00000000000E+00 -0.00000000000E+00 -0.86649338265E+02  0.86649338265E+02  0.00000000000E+00 0. -1.
          6    1    1    2  501    0 -0.14971517566E+03 -0.10394938447E+02  0.24799314008E+03  0.33705679951E+03  0.17200000000E+03 0. -1.
         -6    1    1    2    0  503  0.14971517566E+03  0.10394938447E+02  0.26717600358E+03  0.35141102068E+03  0.17200000000E+03 0. -1.
</event>
<event>
 4    1  0.5640532E+000  0.1867172E+03  0.7818608E-02  0.1161456E+00
         21   -1    0    0  501  502  0.00000000000E+00  0.00000000000E+00  0.16740340589E+02  0.16740340589E+02  0.00000000000E+00 0. -1.
         21   -1    0    0  502  503 -0.00000000000E+00 -0.00000000000E+00 -0.22079414268E+04  0.22079414268E+04  0.00000000000E+00 0. -1.
          6    1    1    2  501    0  0.66389501209E+02 -0.29525177809E+02 -0.83056444320E+03  0.85129348423E+03  0.17200000000E+03 0.  1.
         -6    1    1    2    0  503 -0.66389501209E+02  0.29525177809E+02 -0.13606366430E+04  0.13733882832E+04  0.17200000000E+03 0.  1.
</event>
<event>
 4    1  0.5640532E+000  0.2340998E+03  0.7818608E-02  0.1123787E+00
         21   -1    0    0  501  502  0.00000000000E+00  0.00000000000E+00  0.34857301583E+03  0.34857301583E+03  0.00000000000E+00 0.  1.
         21   -1    0    0  502  503 -0.00000000000E+00 -0.00000000000E+00 -0.17582078022E+03  0.17582078022E+03  0.00000000000E+00 0. -1.
          6    1    1    2  501    0 -0.85864647364E+02 -0.13358892641E+03  0.17165765800E+03  0.29029138891E+03  0.17200000000E+03 0.  1.
         -6    1    1    2    0  503  0.85864647364E+02  0.13358892641E+03  0.10945776079E+01  0.23410240713E+03  0.17200000000E+03 0. -1.
</event>
<event>
 4    1  0.5640532E+000  0.2898682E+03  0.7818608E-02  0.1090418E+00
         21   -1    0    0  503  502  0.00000000000E+00  0.00000000000E+00  0.61692363987E+03  0.61692363987E+03  0.00000000000E+00 0. -1.
         21   -1    0    0  501  503 -0.00000000000E+00 -0.00000000000E+00 -0.29913036006E+03  0.29913036006E+03  0.00000000000E+00 0.  1.
          6    1    1    2  501    0 -0.10834092641E+03 -0.20664419200E+03  0.49693416392E+03  0.57529743758E+03  0.17200000000E+03 0. -1.
         -6    1    1    2    0  502  0.10834092641E+03  0.20664419200E+03 -0.17914088410E+03  0.34075656234E+03  0.17200000000E+03 0.  1.
</event>
<event>
 4    1  0.5640532E+000  0.1909169E+03  0.7818608E-02  0.1157637E+00
         21   -1    0    0  503  502  0.00000000000E+00  0.00000000000E+00  0.36015980083E+03  0.36015980083E+03  0.00000000000E+00 0. -1.
         21   -1    0    0  501  503 -0.00000000000E+00 -0.00000000000E+00 -0.14183392839E+03  0.14183392839E+03  0.00000000000E+00 0. -1.
          6    1    1    2  501    0 -0.34632036013E+02 -0.75272054599E+02 -0.25177417581E+02  0.19256988985E+03  0.17200000000E+03 0. -1.
         -6    1    1    2    0  502  0.34632036013E+02  0.75272054599E+02  0.24350329001E+03  0.30942383937E+03  0.17200000000E+03 0. -1.
</event>
<event>
 4    1  0.5640532E+000  0.1765536E+03  0.7818608E-02  0.1171181E+00
         21   -1    0    0  503  502  0.00000000000E+00  0.00000000000E+00  0.14042796494E+03  0.14042796494E+03  0.00000000000E+00 0. -1.
         21   -1    0    0  501  503 -0.00000000000E+00 -0.00000000000E+00 -0.22807233282E+03  0.22807233282E+03  0.00000000000E+00 0. -1.
          6    1    1    2  501    0  0.39706732554E+02  0.32456058038E+01 -0.73954147865E+02  0.19141675620E+03  0.17200000000E+03 0. -1.
         -6    1    1    2    0  502 -0.39706732554E+02 -0.32456058038E+01 -0.13690220014E+02  0.17708354156E+03  0.17200000000E+03 0. -1.
</event>
<event>
 4    1  0.5640532E+000  0.1923500E+03  0.7818608E-02  0.1156359E+00
         21   -1    0    0  501  502  0.00000000000E+00  0.00000000000E+00  0.39604056429E+03  0.39604056429E+03  0.00000000000E+00 0.  1.
         21   -1    0    0  502  503 -0.00000000000E+00 -0.00000000000E+00 -0.11794617621E+03  0.11794617621E+03  0.00000000000E+00 0. -1.
          6    1    1    2  501    0  0.13746450481E+02  0.85003391468E+02  0.25623576341E+03  0.32039867028E+03  0.17200000000E+03 0.  1.
         -6    1    1    2    0  503 -0.13746450481E+02 -0.85003391468E+02  0.21858624664E+02  0.19358807023E+03  0.17200000000E+03 0. -1.
</event>
<event>
 4    1  0.5640532E+000  0.2671025E+03  0.7818608E-02  0.1102949E+00
         21   -1    0    0  503  502  0.00000000000E+00  0.00000000000E+00  0.83451021591E+03  0.83451021591E+03  0.00000000000E+00 0. -1.
         21   -1    0    0  501  503 -0.00000000000E+00 -0.00000000000E+00 -0.56738391187E+03  0.56738391187E+03  0.00000000000E+00 0. -1.
          6    1    1    2  501    0  0.16444659773E+03  0.12131395047E+03 -0.51242065718E+03  0.57785697883E+03  0.17200000000E+03 0. -1.
         -6    1    1    2    0  502 -0.16444659773E+03 -0.12131395047E+03  0.77954696123E+03  0.82403714894E+03  0.17200000000E+03 0. -1.
</event>
<event>
 4    1  0.5640532E+000  0.1819215E+03  0.7818608E-02  0.1165956E+00
         21   -1    0    0  501  502  0.00000000000E+00  0.00000000000E+00  0.19577782266E+03  0.19577782266E+03  0.00000000000E+00 0. -1.
         21   -1    0    0  502  503 -0.00000000000E+00 -0.00000000000E+00 -0.27519110535E+03  0.27519110535E+03  0.00000000000E+00 0. -1.
          6    1    1    2  501    0  0.54437207376E+02  0.23409638216E+02  0.10654321144E+03  0.21082427899E+03  0.17200000000E+03 0. -1.
         -6    1    1    2    0  503 -0.54437207376E+02 -0.23409638216E+02 -0.18595649413E+03  0.26014464903E+03  0.17200000000E+03 0. -1.
</event>
<event>
 4    1  0.5640532E+000  0.1724601E+03  0.7818608E-02  0.1175306E+00
         21   -1    0    0  503  502  0.00000000000E+00  0.00000000000E+00  0.42247904833E+03  0.42247904833E+03  0.00000000000E+00 0. -1.
         21   -1    0    0  501  503 -0.00000000000E+00 -0.00000000000E+00 -0.19305332176E+03  0.19305332176E+03  0.00000000000E+00 0. -1.
          6    1    1    2  501    0 -0.10352568922E+02  0.71636937541E+01 -0.13060097530E+03  0.21633101706E+03  0.17200000000E+03 0. -1.
         -6    1    1    2    0  502  0.10352568922E+02 -0.71636937541E+01  0.36002670188E+03  0.39920135303E+03  0.17200000000E+03 0. -1.
</event>
<event>
 4    1  0.5640532E+000  0.2011200E+03  0.7818608E-02  0.1148797E+00
         21   -1    0    0  503  502  0.00000000000E+00  0.00000000000E+00  0.14806402483E+03  0.14806402483E+03  0.00000000000E+00 0. -1.
         21   -1    0    0  501  503 -0.00000000000E+00 -0.00000000000E+00 -0.44125811706E+03  0.44125811706E+03  0.00000000000E+00 0. -1.
          6    1    1    2  501    0 -0.65155867608E+02  0.81363279915E+02 -0.32845070693E+03  0.38513521948E+03  0.17200000000E+03 0. -1.
         -6    1    1    2    0  502  0.65155867608E+02 -0.81363279915E+02  0.35256614708E+02  0.20418692241E+03  0.17200000000E+03 0. -1.
</event>
<event>
 4    1  0.5640532E+000  0.2794536E+03  0.7818608E-02  0.1095988E+00
         21   -1    0    0  501  502  0.00000000000E+00  0.00000000000E+00  0.11729732825E+03  0.11729732825E+03  0.00000000000E+00 0. -1.
         21   -1    0    0  502  503 -0.00000000000E+00 -0.00000000000E+00 -0.69210399937E+03  0.69210399937E+03  0.00000000000E+00 0. -1.
          6    1    1    2  501    0  0.21737711588E+03 -0.35461286152E+02 -0.20847784815E+03  0.34865072277E+03  0.17200000000E+03 0. -1.
         -6    1    1    2    0  503 -0.21737711588E+03  0.35461286152E+02 -0.36632882297E+03  0.46075060484E+03  0.17200000000E+03 0. -1.
</event>
<event>
 4    1  0.5640532E+000  0.2243526E+03  0.7818608E-02  0.1130679E+00
         21   -1    0    0  503  502  0.00000000000E+00  0.00000000000E+00  0.26321433410E+02  0.26321433410E+02  0.00000000000E+00 0.  1.
         21   -1    0    0  501  503 -0.00000000000E+00 -0.00000000000E+00 -0.21317046724E+04  0.21317046724E+04  0.00000000000E+00 0.  1.
          6    1    1    2  501    0  0.78404566865E+02  0.12084212130E+03 -0.13988704499E+04  0.14167472004E+04  0.17200000000E+03 0.  1.
         -6    1    1    2    0  502 -0.78404566865E+02 -0.12084212130E+03 -0.70651278915E+03  0.74127890542E+03  0.17200000000E+03 0.  1.
</event>
<event>
 4    1  0.5640532E+000  0.1759933E+03  0.7818608E-02  0.1171738E+00
         21   -1    0    0  503  502  0.00000000000E+00  0.00000000000E+00  0.77775175330E+02  0.77775175330E+02  0.00000000000E+00 0.  1.
         21   -1    0    0  501  503 -0.00000000000E+00 -0.00000000000E+00 -0.55380486673E+03  0.55380486673E+03  0.00000000000E+00 0.  1.
          6    1    1    2  501    0  0.18436973318E+02 -0.32399249316E+02 -0.40538104230E+03  0.44193599401E+03  0.17200000000E+03 0.  1.
         -6    1    1    2    0  502 -0.18436973318E+02  0.32399249316E+02 -0.70648649093E+02  0.18964404805E+03  0.17200000000E+03 0.  1.
</event>
<event>
 4    1  0.5640532E+000  0.1777994E+03  0.7818608E-02  0.1169950E+00
         21   -1    0    0  503  502  0.00000000000E+00  0.00000000000E+00  0.20031546975E+03  0.20031546975E+03  0.00000000000E+00 0. -1.
         21   -1    0    0  501  503 -0.00000000000E+00 -0.00000000000E+00 -0.17124195917E+03  0.17124195917E+03  0.00000000000E+00 0. -1.
          6    1    1    2  501    0 -0.23528887737E+02  0.38405956628E+02 -0.37485909462E+02  0.18170806111E+03  0.17200000000E+03 0. -1.
         -6    1    1    2    0  502  0.23528887737E+02 -0.38405956628E+02  0.66559420048E+02  0.18984936782E+03  0.17200000000E+03 0. -1.
</event>
<event>
 4    1  0.5640532E+000  0.1795872E+03  0.7818608E-02  0.1168203E+00
         21   -1    0    0  501  502  0.00000000000E+00  0.00000000000E+00  0.11569765499E+03  0.11569765499E+03  0.00000000000E+00 0. -1.
         21   -1    0    0  502  503 -0.00000000000E+00 -0.00000000000E+00 -0.37493809305E+03  0.37493809305E+03  0.00000000000E+00 0. -1.
          6    1    1    2  501    0  0.16576756289E+02 -0.48916155189E+02 -0.53710968411E+01  0.17966754790E+03  0.17200000000E+03 0. -1.
         -6    1    1    2    0  503 -0.16576756289E+02  0.48916155189E+02 -0.25386934122E+03  0.31096820014E+03  0.17200000000E+03 0. -1.
</event>
<event>
 4    1  0.5640532E+000  0.1774708E+03  0.7818608E-02  0.1170273E+00
         21   -1    0    0  503  502  0.00000000000E+00  0.00000000000E+00  0.28699378933E+03  0.28699378933E+03  0.00000000000E+00 0.  1.
         21   -1    0    0  501  503 -0.00000000000E+00 -0.00000000000E+00 -0.11165857067E+03  0.11165857067E+03  0.00000000000E+00 0.  1.
          6    1    1    2  501    0  0.43612820004E+02 -0.31323184983E+01  0.11376739793E+03  0.21080538494E+03  0.17200000000E+03 0. -1.
         -6    1    1    2    0  502 -0.43612820004E+02  0.31323184983E+01  0.61567820733E+02  0.18784697506E+03  0.17200000000E+03 0. -1.
</event>
<event>
 4    1  0.5640532E+000  0.1885871E+03  0.7818608E-02  0.1159742E+00
         21   -1    0    0  503  502  0.00000000000E+00  0.00000000000E+00  0.43981232574E+03  0.43981232574E+03  0.00000000000E+00 0.  1.
         21   -1    0    0  501  503 -0.00000000000E+00 -0.00000000000E+00 -0.19736870837E+03  0.19736870837E+03  0.00000000000E+00 0. -1.
          6    1    1    2  501    0 -0.11579812488E+01 -0.77328798916E+02 -0.12355203598E+03  0.22545551592E+03  0.17200000000E+03 0. -1.
         -6    1    1    2    0  502  0.11579812488E+01  0.77328798916E+02  0.36599565335E+03  0.41172551819E+03  0.17200000000E+03 0.  1.
</event>
<event>
 4    1  0.5640532E+000  0.2361972E+03  0.7818608E-02  0.1122352E+00
         21   -1    0    0  503  502  0.00000000000E+00  0.00000000000E+00  0.11270302507E+03  0.11270302507E+03  0.00000000000E+00 0. -1.
         21   -1    0    0  501  503 -0.00000000000E+00 -0.00000000000E+00 -0.72682271328E+03  0.72682271328E+03  0.00000000000E+00 0. -1.
          6    1    1    2  501    0  0.16150305393E+03  0.11040689442E+02 -0.54411986934E+03  0.59317414430E+03  0.17200000000E+03 0. -1.
         -6    1    1    2    0  502 -0.16150305393E+03 -0.11040689442E+02 -0.69999818865E+02  0.24635159406E+03  0.17200000000E+03 0. -1.
</event>
<event>
 4    1  0.5640532E+000  0.1884010E+03  0.7818608E-02  0.1159911E+00
         21   -1    0    0  503  502  0.00000000000E+00  0.00000000000E+00  0.48908230080E+02  0.48908230080E+02  0.00000000000E+00 0. -1.
         21   -1    0    0  501  503 -0.00000000000E+00 -0.00000000000E+00 -0.85113921854E+03  0.85113921854E+03  0.00000000000E+00 0. -1.
          6    1    1    2  501    0 -0.37653156009E+02  0.67031154534E+02 -0.57384746094E+03  0.60398331456E+03  0.17200000000E+03 0. -1.
         -6    1    1    2    0  502  0.37653156009E+02 -0.67031154534E+02 -0.22838352751E+03  0.29606413406E+03  0.17200000000E+03 0. -1.
</event>
<event>
 4    1  0.5640532E+000  0.2168912E+03  0.7818608E-02  0.1136222E+00
         21   -1    0    0  503  502  0.00000000000E+00  0.00000000000E+00  0.19281540270E+03  0.19281540270E+03  0.00000000000E+00 0. -1.
         21   -1    0    0  501  503 -0.00000000000E+00 -0.00000000000E+00 -0.24777838776E+03  0.24777838776E+03  0.00000000000E+00 0.  1.
          6    1    1    2  501    0  0.29097828896E+02 -0.12888416514E+03 -0.18175100510E+00  0.21689132003E+03  0.17200000000E+03 0. -1.
         -6    1    1    2    0  502 -0.29097828896E+02  0.12888416514E+03 -0.54781234062E+02  0.22370247043E+03  0.17200000000E+03 0. -1.
</event>
<event>
 4    1  0.5640532E+000  0.2284483E+03  0.7818608E-02  0.1127737E+00
         21   -1    0    0  501  502  0.00000000000E+00  0.00000000000E+00  0.11902763673E+03  0.11902763673E+03  0.00000000000E+00 0.  1.
         21   -1    0    0  502  503 -0.00000000000E+00 -0.00000000000E+00 -0.12873404138E+04  0.12873404138E+04  0.00000000000E+00 0.  1.
          6    1    1    2  501    0 -0.13326775807E+03  0.69601302260E+02 -0.13143348975E+02  0.22882610043E+03  0.17200000000E+03 0.  1.
         -6    1    1    2    0  503  0.13326775807E+03 -0.69601302260E+02 -0.11551694281E+04  0.11775419501E+04  0.17200000000E+03 0.  1.
</event>
<event>
 4    1  0.5640532E+000  0.1726471E+03  0.7818608E-02  0.1175115E+00
         21   -1    0    0  503  502  0.00000000000E+00  0.00000000000E+00  0.85577999601E+03  0.85577999601E+03  0.00000000000E+00 0. -1.
         21   -1    0    0  501  503 -0.00000000000E+00 -0.00000000000E+00 -0.45042444332E+02  0.45042444332E+02  0.00000000000E+00 0. -1.
          6    1    1    2  501    0 -0.14082488328E+02 -0.49708126692E+01  0.19090304659E+03  0.25739269347E+03  0.17200000000E+03 0. -1.
         -6    1    1    2    0  502  0.14082488328E+02  0.49708126692E+01  0.61983450509E+03  0.64342974687E+03  0.17200000000E+03 0. -1.
</event>
<event>
 4    1  0.5640532E+000  0.3079189E+03  0.7818608E-02  0.1081348E+00
         21   -1    0    0  503  502  0.00000000000E+00  0.00000000000E+00  0.14864779419E+04  0.14864779419E+04  0.00000000000E+00 0.  1.
         21   -1    0    0  501  503 -0.00000000000E+00 -0.00000000000E+00 -0.64967165126E+02  0.64967165126E+02  0.00000000000E+00 0.  1.
          6    1    1    2  501    0  0.17400819662E+02  0.25480830255E+03  0.60608733247E+03  0.67982050143E+03  0.17200000000E+03 0.  1.
         -6    1    1    2    0  502 -0.17400819662E+02 -0.25480830255E+03  0.81542344428E+03  0.87162460558E+03  0.17200000000E+03 0.  1.
</event>
<event>
 4    1  0.5640532E+000  0.1966391E+03  0.7818608E-02  0.1152606E+00
         21   -1    0    0  501  502  0.00000000000E+00  0.00000000000E+00  0.12124640005E+04  0.12124640005E+04  0.00000000000E+00 0. -1.
         21   -1    0    0  502  503 -0.00000000000E+00 -0.00000000000E+00 -0.45782656479E+02  0.45782656479E+02  0.00000000000E+00 0. -1.
          6    1    1    2  501    0 -0.21372087706E+01 -0.95280427835E+02  0.23679598683E+03  0.30779744471E+03  0.17200000000E+03 0. -1.
         -6    1    1    2    0  503  0.21372087706E+01  0.95280427835E+02  0.92988535720E+03  0.95044921228E+03  0.17200000000E+03 0. -1.
</event>
<event>
 4    1  0.5640532E+000  0.1899450E+03  0.7818608E-02  0.1158511E+00
         21   -1    0    0  503  502  0.00000000000E+00  0.00000000000E+00  0.10892682921E+03  0.10892682921E+03  0.00000000000E+00 0. -1.
         21   -1    0    0  501  503 -0.00000000000E+00 -0.00000000000E+00 -0.34012527348E+03  0.34012527348E+03  0.00000000000E+00 0. -1.
          6    1    1    2  501    0 -0.21408105045E+02 -0.77696721159E+02 -0.79275185516E+02  0.20582430002E+03  0.17200000000E+03 0. -1.
         -6    1    1    2    0  502  0.21408105045E+02  0.77696721159E+02 -0.15192325875E+03  0.24322780267E+03  0.17200000000E+03 0. -1.
</event>
<event>
 4    1  0.5640532E+000  0.1723422E+03  0.7818608E-02  0.1175427E+00
         21   -1    0    0  503  502  0.00000000000E+00  0.00000000000E+00  0.16655080815E+03  0.16655080815E+03  0.00000000000E+00 0. -1.
         21   -1    0    0  501  503 -0.00000000000E+00 -0.00000000000E+00 -0.21049408649E+03  0.21049408649E+03  0.00000000000E+00 0. -1.
          6    1    1    2  501    0  0.91717633777E+01 -0.58064947382E+01 -0.95659346079E+02  0.19711049469E+03  0.17200000000E+03 0. -1.
         -6    1    1    2    0  502 -0.91717633777E+01  0.58064947382E+01  0.51716067737E+02  0.17993439995E+03  0.17200000000E+03 0. -1.
</event>
<event>
 4    1  0.5640532E+000  0.1840850E+03  0.7818608E-02  0.1163907E+00
         21   -1    0    0  501  502  0.00000000000E+00  0.00000000000E+00  0.50593865675E+02  0.50593865675E+02  0.00000000000E+00 0.  1.
         21   -1    0    0  502  503 -0.00000000000E+00 -0.00000000000E+00 -0.74596548310E+03  0.74596548310E+03  0.00000000000E+00 0.  1.
          6    1    1    2  501    0  0.31777154171E+02  0.57389063795E+02 -0.22041322189E+03  0.28717465166E+03  0.17200000000E+03 0.  1.
         -6    1    1    2    0  503 -0.31777154171E+02 -0.57389063795E+02 -0.47495839553E+03  0.50938469712E+03  0.17200000000E+03 0.  1.
</event>
<event>
 4    1  0.5640532E+000  0.2061302E+03  0.7818608E-02  0.1144668E+00
         21   -1    0    0  501  502  0.00000000000E+00  0.00000000000E+00  0.51870119537E+02  0.51870119537E+02  0.00000000000E+00 0. -1.
         21   -1    0    0  502  503 -0.00000000000E+00 -0.00000000000E+00 -0.99486518701E+03  0.99486518701E+03  0.00000000000E+00 0.  1.
          6    1    1    2  501    0  0.48495008124E+02  0.10273212871E+03 -0.25154776508E+03  0.32521674956E+03  0.17200000000E+03 0. -1.
         -6    1    1    2    0  503 -0.48495008124E+02 -0.10273212871E+03 -0.69144730240E+03  0.72151855699E+03  0.17200000000E+03 0. -1.
</event>
<event>
 4    1  0.5640532E+000  0.1960117E+03  0.7818608E-02  0.1153148E+00
         21   -1    0    0  503  502  0.00000000000E+00  0.00000000000E+00  0.13841824473E+04  0.13841824473E+04  0.00000000000E+00 0.  1.
         21   -1    0    0  501  503 -0.00000000000E+00 -0.00000000000E+00 -0.10597034097E+03  0.10597034097E+03  0.00000000000E+00 0.  1.
          6    1    1    2  501    0  0.22530025562E-01  0.94003024953E+02 -0.99630045712E+00  0.19601418781E+03  0.17200000000E+03 0.  1.
         -6    1    1    2    0  502 -0.22530025562E-01 -0.94003024953E+02  0.12792084068E+04  0.12941386005E+04  0.17200000000E+03 0.  1.
</event>
<event>
 4    1  0.5640532E+000  0.2855331E+03  0.7818608E-02  0.1092705E+00
         21   -1    0    0  501  502  0.00000000000E+00  0.00000000000E+00  0.38058561527E+03  0.38058561527E+03  0.00000000000E+00 0.  1.
         21   -1    0    0  502  503 -0.00000000000E+00 -0.00000000000E+00 -0.90454860426E+03  0.90454860426E+03  0.00000000000E+00 0. -1.
          6    1    1    2  501    0  0.22452606995E+03 -0.39156350461E+02  0.29936416530E+03  0.41370047055E+03  0.17200000000E+03 0.  1.
         -6    1    1    2    0  503 -0.22452606995E+03  0.39156350461E+02 -0.82332715429E+03  0.87143374898E+03  0.17200000000E+03 0. -1.
</event>
<event>
 4    1  0.5640532E+000  0.2161127E+03  0.7818608E-02  0.1136815E+00
         21   -1    0    0  503  502  0.00000000000E+00  0.00000000000E+00  0.43705889869E+03  0.43705889869E+03  0.00000000000E+00 0.  1.
         21   -1    0    0  501  503 -0.00000000000E+00 -0.00000000000E+00 -0.12370881499E+03  0.12370881499E+03  0.00000000000E+00 0.  1.
          6    1    1    2  501    0  0.27290766236E+02 -0.12796841777E+03  0.53203713505E+02  0.22256535444E+03  0.17200000000E+03 0.  1.
         -6    1    1    2    0  502 -0.27290766236E+02  0.12796841777E+03  0.26014637020E+03  0.33820235924E+03  0.17200000000E+03 0.  1.
</event>
<event>
 4    1  0.5640532E+000  0.1965234E+03  0.7818608E-02  0.1152706E+00
         21   -1    0    0  503  502  0.00000000000E+00  0.00000000000E+00  0.13788143164E+04  0.13788143164E+04  0.00000000000E+00 0. -1.
         21   -1    0    0  501  503 -0.00000000000E+00 -0.00000000000E+00 -0.35540850200E+02  0.35540850200E+02  0.00000000000E+00 0. -1.
          6    1    1    2  501    0  0.77965793361E+02  0.54394793043E+02  0.34612368577E+03  0.39802394940E+03  0.17200000000E+03 0.  1.
         -6    1    1    2    0  502 -0.77965793361E+02 -0.54394793043E+02  0.99714978047E+03  0.10163312172E+04  0.17200000000E+03 0.  1.
</event>
<event>
 4    1  0.5640532E+000  0.2040189E+03  0.7818608E-02  0.1146392E+00
         21   -1    0    0  503  502  0.00000000000E+00  0.00000000000E+00  0.63361376482E+03  0.63361376482E+03  0.00000000000E+00 0. -1.
         21   -1    0    0  501  503 -0.00000000000E+00 -0.00000000000E+00 -0.80797669389E+02  0.80797669389E+02  0.00000000000E+00 0. -1.
          6    1    1    2  501    0  0.15527978566E+02 -0.10862135535E+03  0.12196058794E+03  0.23769329390E+03  0.17200000000E+03 0. -1.
         -6    1    1    2    0  502 -0.15527978566E+02  0.10862135535E+03  0.43085550749E+03  0.47671814030E+03  0.17200000000E+03 0. -1.
</event>
<event>
 4    1  0.5640532E+000  0.1967739E+03  0.7818608E-02  0.1152490E+00
         21   -1    0    0  503  502  0.00000000000E+00  0.00000000000E+00  0.97873972795E+02  0.97873972795E+02  0.00000000000E+00 0.  1.
         21   -1    0    0  501  503 -0.00000000000E+00 -0.00000000000E+00 -0.39678456753E+03  0.39678456753E+03  0.00000000000E+00 0.  1.
          6    1    1    2  501    0  0.13591057255E+02  0.94610976635E+02 -0.16291011703E+03  0.25545970322E+03  0.17200000000E+03 0.  1.
         -6    1    1    2    0  502 -0.13591057255E+02 -0.94610976635E+02 -0.13600047770E+03  0.23919883711E+03  0.17200000000E+03 0.  1.
</event>
<event>
 4    1  0.5640532E+000  0.3578675E+03  0.7818608E-02  0.1059431E+00
         21   -1    0    0  501  502  0.00000000000E+00  0.00000000000E+00  0.34984232062E+03  0.34984232062E+03  0.00000000000E+00 0. -1.
         21   -1    0    0  502  503 -0.00000000000E+00 -0.00000000000E+00 -0.38271562764E+03  0.38271562764E+03  0.00000000000E+00 0.  1.
          6    1    1    2  501    0  0.75785359577E+02  0.30453528223E+03  0.59935527339E+02  0.36285179659E+03  0.17200000000E+03 0.  1.
         -6    1    1    2    0  503 -0.75785359577E+02 -0.30453528223E+03 -0.92808834351E+02  0.36970615167E+03  0.17200000000E+03 0. -1.
</event>
<event>
 4    1  0.5640532E+000  0.1739005E+03  0.7818608E-02  0.1173840E+00
         21   -1    0    0  501  502  0.00000000000E+00  0.00000000000E+00  0.30083660511E+03  0.30083660511E+03  0.00000000000E+00 0. -1.
         21   -1    0    0  502  503 -0.00000000000E+00 -0.00000000000E+00 -0.14583538745E+03  0.14583538745E+03  0.00000000000E+00 0. -1.
          6    1    1    2  501    0  0.24823371603E+02 -0.64169510059E+01  0.20198924294E+03  0.26653523463E+03  0.17200000000E+03 0. -1.
         -6    1    1    2    0  503 -0.24823371603E+02  0.64169510059E+01 -0.46988025280E+02  0.18013675793E+03  0.17200000000E+03 0. -1.
</event>
<event>
 4    1  0.5640532E+000  0.2109180E+03  0.7818608E-02  0.1140841E+00
         21   -1    0    0  503  502  0.00000000000E+00  0.00000000000E+00  0.35233506042E+03  0.35233506042E+03  0.00000000000E+00 0. -1.
         21   -1    0    0  501  503 -0.00000000000E+00 -0.00000000000E+00 -0.14888630990E+03  0.14888630990E+03  0.00000000000E+00 0. -1.
          6    1    1    2  501    0  0.10011608718E+03 -0.69851129933E+02  0.40314555647E+01  0.21095654505E+03  0.17200000000E+03 0. -1.
         -6    1    1    2    0  502 -0.10011608718E+03  0.69851129933E+02  0.19941729495E+03  0.29026482527E+03  0.17200000000E+03 0. -1.
</event>
<event>
 4    1  0.5640532E+000  0.1787685E+03  0.7818608E-02  0.1169000E+00
         21   -1    0    0  503  502  0.00000000000E+00  0.00000000000E+00  0.26797365041E+02  0.26797365041E+02  0.00000000000E+00 0.  1.
         21   -1    0    0  501  503 -0.00000000000E+00 -0.00000000000E+00 -0.11940314032E+04  0.11940314032E+04  0.00000000000E+00 0.  1.
          6    1    1    2  501    0  0.47257927729E+02  0.11868784922E+02 -0.56238389992E+03  0.59011340493E+03  0.17200000000E+03 0. -1.
         -6    1    1    2    0  502 -0.47257927729E+02 -0.11868784922E+02 -0.60485013826E+03  0.63071536333E+03  0.17200000000E+03 0. -1.
</event>
<event>
 4    1  0.5640532E+000  0.1860177E+03  0.7818608E-02  0.1162103E+00
         21   -1    0    0  501  502  0.00000000000E+00  0.00000000000E+00  0.69293232081E+03  0.69293232081E+03  0.00000000000E+00 0.  1.
         21   -1    0    0  502  503 -0.00000000000E+00 -0.00000000000E+00 -0.65655193314E+02  0.65655193314E+02  0.00000000000E+00 0.  1.
          6    1    1    2  501    0  0.67160650697E+02  0.22539163150E+02  0.49922675058E+03  0.53275690082E+03  0.17200000000E+03 0.  1.
         -6    1    1    2    0  503 -0.67160650697E+02 -0.22539163150E+02  0.12805037692E+03  0.22583061331E+03  0.17200000000E+03 0.  1.
</event>
<event>
 4    1  0.5640532E+000  0.1724605E+03  0.7818608E-02  0.1175306E+00
         21   -1    0    0  503  502  0.00000000000E+00  0.00000000000E+00  0.20404255112E+03  0.20404255112E+03  0.00000000000E+00 0.  1.
         21   -1    0    0  501  503 -0.00000000000E+00 -0.00000000000E+00 -0.16364673476E+03  0.16364673476E+03  0.00000000000E+00 0.  1.
          6    1    1    2  501    0  0.61765742554E+01 -0.10976245797E+02 -0.40570851654E+02  0.17716834380E+03  0.17200000000E+03 0.  1.
         -6    1    1    2    0  502 -0.61765742554E+01  0.10976245797E+02  0.80966668012E+02  0.19052094208E+03  0.17200000000E+03 0.  1.
</event>
<event>
 4    1  0.5640532E+000  0.2154824E+03  0.7818608E-02  0.1137297E+00
         21   -1    0    0  503  502  0.00000000000E+00  0.00000000000E+00  0.22549212659E+03  0.22549212659E+03  0.00000000000E+00 0. -1.
         21   -1    0    0  501  503 -0.00000000000E+00 -0.00000000000E+00 -0.25183922128E+03  0.25183922128E+03  0.00000000000E+00 0. -1.
          6    1    1    2  501    0  0.92263219243E+02 -0.91302619956E+02 -0.11508888719E+03  0.24429105999E+03  0.17200000000E+03 0. -1.
         -6    1    1    2    0  502 -0.92263219243E+02  0.91302619956E+02  0.88741792501E+02  0.23304028787E+03  0.17200000000E+03 0. -1.
</event>
<event>
 4    1  0.5640532E+000  0.1950867E+03  0.7818608E-02  0.1153952E+00
         21   -1    0    0  501  502  0.00000000000E+00  0.00000000000E+00  0.12841149151E+03  0.12841149151E+03  0.00000000000E+00 0.  1.
         21   -1    0    0  502  503 -0.00000000000E+00 -0.00000000000E+00 -0.40041790177E+03  0.40041790177E+03  0.00000000000E+00 0.  1.
          6    1    1    2  501    0 -0.72043818966E+02  0.57310604053E+02 -0.12245635441E+01  0.19509053474E+03  0.17200000000E+03 0.  1.
         -6    1    1    2    0  503  0.72043818966E+02 -0.57310604053E+02 -0.27078184672E+03  0.33373885854E+03  0.17200000000E+03 0.  1.
</event>
<event>
 4    1  0.5640532E+000  0.2019282E+03  0.7818608E-02  0.1148122E+00
         21   -1    0    0  501  502  0.00000000000E+00  0.00000000000E+00  0.15632174187E+03  0.15632174187E+03  0.00000000000E+00 0.  1.
         21   -1    0    0  502  503 -0.00000000000E+00 -0.00000000000E+00 -0.31128248891E+03  0.31128248891E+03  0.00000000000E+00 0. -1.
          6    1    1    2  501    0 -0.17713077670E+02 -0.10429394813E+03  0.16636796577E+02  0.20261234843E+03  0.17200000000E+03 0.  1.
         -6    1    1    2    0  503  0.17713077670E+02  0.10429394813E+03 -0.17159754362E+03  0.26499188235E+03  0.17200000000E+03 0.  1.
</event>
<event>
 4    1  0.5640532E+000  0.2567467E+03  0.7818608E-02  0.1109114E+00
         21   -1    0    0  503  502  0.00000000000E+00  0.00000000000E+00  0.19418725889E+03  0.19418725889E+03  0.00000000000E+00 0. -1.
         21   -1    0    0  501  503 -0.00000000000E+00 -0.00000000000E+00 -0.34057241640E+03  0.34057241640E+03  0.00000000000E+00 0. -1.
          6    1    1    2  501    0 -0.40590532123E+02  0.18624524230E+03 -0.88471142604E+02  0.27156219297E+03  0.17200000000E+03 0.  1.
         -6    1    1    2    0  502  0.40590532123E+02 -0.18624524230E+03 -0.57914014912E+02  0.26319748232E+03  0.17200000000E+03 0.  1.
</event>
<event>
 4    1  0.5640532E+000  0.1924087E+03  0.7818608E-02  0.1156307E+00
         21   -1    0    0  503  502  0.00000000000E+00  0.00000000000E+00  0.14200810523E+04  0.14200810523E+04  0.00000000000E+00 0. -1.
         21   -1    0    0  501  503 -0.00000000000E+00 -0.00000000000E+00 -0.26341847754E+02  0.26341847754E+02  0.00000000000E+00 0. -1.
          6    1    1    2  501    0  0.61577102932E+01 -0.86018497172E+02  0.77037812143E+03  0.79404253616E+03  0.17200000000E+03 0. -1.
         -6    1    1    2    0  502 -0.61577102932E+01  0.86018497172E+02  0.62336108312E+03  0.65238036389E+03  0.17200000000E+03 0. -1.
</event>
<event>
 4    1  0.5640532E+000  0.2869221E+03  0.7818608E-02  0.1091967E+00
         21   -1    0    0  501  502  0.00000000000E+00  0.00000000000E+00  0.45012985846E+03  0.45012985846E+03  0.00000000000E+00 0.  1.
         21   -1    0    0  502  503 -0.00000000000E+00 -0.00000000000E+00 -0.22294103177E+03  0.22294103177E+03  0.00000000000E+00 0. -1.
          6    1    1    2  501    0  0.18962946261E+03 -0.12954135555E+03  0.25623466894E+03  0.38468233837E+03  0.17200000000E+03 0.  1.
         -6    1    1    2    0  503 -0.18962946261E+03  0.12954135555E+03 -0.29045842249E+02  0.28838855185E+03  0.17200000000E+03 0. -1.
</event>
<event>
 4    1  0.5640532E+000  0.2090455E+03  0.7818608E-02  0.1142324E+00
         21   -1    0    0  501  502  0.00000000000E+00  0.00000000000E+00  0.30067698739E+03  0.30067698739E+03  0.00000000000E+00 0. -1.
         21   -1    0    0  502  503 -0.00000000000E+00 -0.00000000000E+00 -0.20836509116E+03  0.20836509116E+03  0.00000000000E+00 0.  1.
          6    1    1    2  501    0  0.11854611388E+03 -0.79272763476E+01 -0.93826052032E+02  0.22913609682E+03  0.17200000000E+03 0. -1.
         -6    1    1    2    0  503 -0.11854611388E+03  0.79272763476E+01  0.18613794826E+03  0.27990598173E+03  0.17200000000E+03 0. -1.
</event>
<event>
 4    1  0.5640532E+000  0.1797784E+03  0.7818608E-02  0.1168018E+00
         21   -1    0    0  503  502  0.00000000000E+00  0.00000000000E+00  0.60942444086E+03  0.60942444086E+03  0.00000000000E+00 0. -1.
         21   -1    0    0  501  503 -0.00000000000E+00 -0.00000000000E+00 -0.23638460019E+03  0.23638460019E+03  0.00000000000E+00 0. -1.
          6    1    1    2  501    0 -0.48810019961E+02 -0.18810709805E+02 -0.18593508741E+03  0.25863510509E+03  0.17200000000E+03 0. -1.
         -6    1    1    2    0  502  0.48810019961E+02  0.18810709805E+02  0.55897492808E+03  0.58717393597E+03  0.17200000000E+03 0. -1.
</event>
<event>
 4    1  0.5640532E+000  0.2068222E+03  0.7818608E-02  0.1144107E+00
         21   -1    0    0  501  502  0.00000000000E+00  0.00000000000E+00  0.67768512427E+02  0.67768512427E+02  0.00000000000E+00 0. -1.
         21   -1    0    0  502  503 -0.00000000000E+00 -0.00000000000E+00 -0.69616169518E+03  0.69616169518E+03  0.00000000000E+00 0.  1.
          6    1    1    2  501    0  0.47874184063E+02  0.10440061464E+03 -0.43087761248E+03  0.47794449758E+03  0.17200000000E+03 0.  1.
         -6    1    1    2    0  503 -0.47874184063E+02 -0.10440061464E+03 -0.19751557027E+03  0.28598571002E+03  0.17200000000E+03 0. -1.
</event>
<event>
 4    1  0.5640532E+000  0.3222537E+03  0.7818608E-02  0.1074617E+00
         21   -1    0    0  501  502  0.00000000000E+00  0.00000000000E+00  0.27147843398E+03  0.27147843398E+03  0.00000000000E+00 0. -1.
         21   -1    0    0  502  503 -0.00000000000E+00 -0.00000000000E+00 -0.41210866902E+03  0.41210866902E+03  0.00000000000E+00 0.  1.
          6    1    1    2  501    0 -0.26939600963E+03  0.41100295894E+02  0.21260483805E+02  0.32295425760E+03  0.17200000000E+03 0.  1.
         -6    1    1    2    0  503  0.26939600963E+03 -0.41100295894E+02 -0.16189071885E+03  0.36063284539E+03  0.17200000000E+03 0. -1.
</event>
<event>
 4    1  0.5640532E+000  0.2430553E+03  0.7818608E-02  0.1117774E+00
         21   -1    0    0  503  502  0.00000000000E+00  0.00000000000E+00  0.15713176289E+03  0.15713176289E+03  0.00000000000E+00 0. -1.
         21   -1    0    0  501  503 -0.00000000000E+00 -0.00000000000E+00 -0.37607993071E+03  0.37607993071E+03  0.00000000000E+00 0.  1.
          6    1    1    2  501    0 -0.14518791380E+03 -0.91718960467E+02 -0.11415344638E+03  0.26852729348E+03  0.17200000000E+03 0. -1.
         -6    1    1    2    0  502  0.14518791380E+03  0.91718960467E+02 -0.10479472143E+03  0.26468440012E+03  0.17200000000E+03 0.  1.
</event>
<event>
 4    1  0.5640532E+000  0.1910559E+03  0.7818608E-02  0.1157512E+00
         21   -1    0    0  501  502  0.00000000000E+00  0.00000000000E+00  0.58823835883E+03  0.58823835883E+03  0.00000000000E+00 0.  1.
         21   -1    0    0  502  503 -0.00000000000E+00 -0.00000000000E+00 -0.66854052438E+02  0.66854052438E+02  0.00000000000E+00 0.  1.
          6    1    1    2  501    0  0.78659274705E+02  0.27038096261E+02  0.34846239685E+03  0.39740204097E+03  0.17200000000E+03 0.  1.
         -6    1    1    2    0  503 -0.78659274705E+02 -0.27038096261E+02  0.17292190954E+03  0.25769037030E+03  0.17200000000E+03 0.  1.
</event>
<event>
 4    1  0.5640532E+000  0.2248068E+03  0.7818608E-02  0.1130349E+00
         21   -1    0    0  501  502  0.00000000000E+00  0.00000000000E+00  0.18391579591E+03  0.18391579591E+03  0.00000000000E+00 0.  1.
         21   -1    0    0  502  503 -0.00000000000E+00 -0.00000000000E+00 -0.33450444985E+03  0.33450444985E+03  0.00000000000E+00 0.  1.
          6    1    1    2  501    0 -0.11395245047E+03 -0.89268863450E+02  0.34225641063E+02  0.22739719756E+03  0.17200000000E+03 0.  1.
         -6    1    1    2    0  503  0.11395245047E+03  0.89268863450E+02 -0.18481429500E+03  0.29102304821E+03  0.17200000000E+03 0.  1.
</event>
<event>
 4    1  0.5640532E+000  0.1780139E+03  0.7818608E-02  0.1169739E+00
         21   -1    0    0  503  502  0.00000000000E+00  0.00000000000E+00  0.89005015943E+02  0.89005015943E+02  0.00000000000E+00 0.  1.
         21   -1    0    0  501  503 -0.00000000000E+00 -0.00000000000E+00 -0.38307648102E+03  0.38307648102E+03  0.00000000000E+00 0.  1.
          6    1    1    2  501    0  0.11085274692E+02 -0.44520378333E+02 -0.20974840023E+03  0.27510605010E+03  0.17200000000E+03 0. -1.
         -6    1    1    2    0  502 -0.11085274692E+02  0.44520378333E+02 -0.84323064844E+02  0.19697544686E+03  0.17200000000E+03 0. -1.
</event>
<event>
 4    1  0.5640532E+000  0.3047398E+03  0.7818608E-02  0.1082895E+00
         21   -1    0    0  501  502  0.00000000000E+00  0.00000000000E+00  0.61682017838E+03  0.61682017838E+03  0.00000000000E+00 0. -1.
         21   -1    0    0  502  503 -0.00000000000E+00 -0.00000000000E+00 -0.15074943712E+03  0.15074943712E+03  0.00000000000E+00 0. -1.
          6    1    1    2  501    0 -0.25074918266E+03  0.20179320326E+02  0.21930951731E+03  0.37545042543E+03  0.17200000000E+03 0. -1.
         -6    1    1    2    0  503  0.25074918266E+03 -0.20179320326E+02  0.24676122396E+03  0.39211919007E+03  0.17200000000E+03 0. -1.
</event>
<event>
 4    1  0.5640532E+000  0.1823218E+03  0.7818608E-02  0.1165575E+00
         21   -1    0    0  503  502  0.00000000000E+00  0.00000000000E+00  0.13313655696E+04  0.13313655696E+04  0.00000000000E+00 0.  1.
         21   -1    0    0  501  503 -0.00000000000E+00 -0.00000000000E+00 -0.37600527664E+02  0.37600527664E+02  0.00000000000E+00 0.  1.
          6    1    1    2  501    0  0.42208144394E+02 -0.43309612794E+02  0.10436303352E+04  0.10594364194E+04  0.17200000000E+03 0.  1.
         -6    1    1    2    0  502 -0.42208144394E+02  0.43309612794E+02  0.25013470668E+03  0.30952967790E+03  0.17200000000E+03 0.  1.
</event>
<event>
 4    1  0.5640532E+000  0.1906755E+03  0.7818608E-02  0.1157853E+00
         21   -1    0    0  503  502  0.00000000000E+00  0.00000000000E+00  0.53160844140E+03  0.53160844140E+03  0.00000000000E+00 0. -1.
         21   -1    0    0  501  503 -0.00000000000E+00 -0.00000000000E+00 -0.30469457805E+03  0.30469457805E+03  0.00000000000E+00 0. -1.
          6    1    1    2  501    0  0.48038509423E+02 -0.66824035105E+02 -0.25478784735E+03  0.31823575728E+03  0.17200000000E+03 0. -1.
         -6    1    1    2    0  502 -0.48038509423E+02  0.66824035105E+02  0.48170171069E+03  0.51806726218E+03  0.17200000000E+03 0. -1.
</event>
<event>
 4    1  0.5640532E+000  0.2262229E+03  0.7818608E-02  0.1129327E+00
         21   -1    0    0  503  502  0.00000000000E+00  0.00000000000E+00  0.40285238577E+03  0.40285238577E+03  0.00000000000E+00 0.  1.
         21   -1    0    0  501  503 -0.00000000000E+00 -0.00000000000E+00 -0.19948493788E+03  0.19948493788E+03  0.00000000000E+00 0. -1.
          6    1    1    2  501    0  0.52739159648E+02 -0.13715456443E+03 -0.79813695444E+02  0.23988959853E+03  0.17200000000E+03 0. -1.
         -6    1    1    2    0  502 -0.52739159648E+02  0.13715456443E+03  0.28318114333E+03  0.36244772512E+03  0.17200000000E+03 0.  1.
</event>
<event>
 4    1  0.5640532E+000  0.1781627E+03  0.7818608E-02  0.1169593E+00
         21   -1    0    0  501  502  0.00000000000E+00  0.00000000000E+00  0.95839055490E+02  0.95839055490E+02  0.00000000000E+00 0.  1.
         21   -1    0    0  502  503 -0.00000000000E+00 -0.00000000000E+00 -0.40951680493E+03  0.40951680493E+03  0.00000000000E+00 0.  1.
          6    1    1    2  501    0  0.11409749549E+02  0.45030681314E+02 -0.26733765808E+03  0.32126526123E+03  0.17200000000E+03 0. -1.
         -6    1    1    2    0  503 -0.11409749549E+02 -0.45030681314E+02 -0.46340091363E+02  0.18409059919E+03  0.17200000000E+03 0. -1.
</event>
<event>
 4    1  0.5640532E+000  0.1928409E+03  0.7818608E-02  0.1155924E+00
         21   -1    0    0  503  502  0.00000000000E+00  0.00000000000E+00  0.10316288102E+04  0.10316288102E+04  0.00000000000E+00 0.  1.
         21   -1    0    0  501  503 -0.00000000000E+00 -0.00000000000E+00 -0.55842426609E+02  0.55842426609E+02  0.00000000000E+00 0.  1.
          6    1    1    2  501    0 -0.22284356867E+02  0.84303239366E+02  0.81162301120E+03  0.83421792179E+03  0.17200000000E+03 0.  1.
         -6    1    1    2    0  502  0.22284356867E+02 -0.84303239366E+02  0.16416337237E+03  0.25325331499E+03  0.17200000000E+03 0.  1.
</event>
<event>
 4    1  0.5640532E+000  0.2031393E+03  0.7818608E-02  0.1147117E+00
         21   -1    0    0  501  502  0.00000000000E+00  0.00000000000E+00  0.15026286019E+03  0.15026286019E+03  0.00000000000E+00 0. -1.
         21   -1    0    0  502  503 -0.00000000000E+00 -0.00000000000E+00 -0.28037903171E+03  0.28037903171E+03  0.00000000000E+00 0.  1.
          6    1    1    2  501    0 -0.32001551629E+02 -0.10323502639E+03 -0.95910705143E+02  0.22464290183E+03  0.17200000000E+03 0.  1.
         -6    1    1    2    0  503  0.32001551629E+02  0.10323502639E+03 -0.34205466383E+02  0.20599899007E+03  0.17200000000E+03 0. -1.
</event>
<event>
 4    1  0.5640532E+000  0.2605065E+03  0.7818608E-02  0.1106839E+00
         21   -1    0    0  501  502  0.00000000000E+00  0.00000000000E+00  0.27537189545E+03  0.27537189545E+03  0.00000000000E+00 0.  1.
         21   -1    0    0  502  503 -0.00000000000E+00 -0.00000000000E+00 -0.52761393132E+03  0.52761393132E+03  0.00000000000E+00 0. -1.
          6    1    1    2  501    0  0.19340901757E+03  0.29539344317E+02  0.16697138414E+03  0.30942376131E+03  0.17200000000E+03 0.  1.
         -6    1    1    2    0  503 -0.19340901757E+03 -0.29539344317E+02 -0.41921342002E+03  0.49356206546E+03  0.17200000000E+03 0. -1.
</event>
<event>
 4    1  0.5640532E+000  0.1873209E+03  0.7818608E-02  0.1160900E+00
         21   -1    0    0  501  502  0.00000000000E+00  0.00000000000E+00  0.77512336950E+02  0.77512336950E+02  0.00000000000E+00 0.  1.
         21   -1    0    0  502  503 -0.00000000000E+00 -0.00000000000E+00 -0.23194210441E+04  0.23194210441E+04  0.00000000000E+00 0.  1.
          6    1    1    2  501    0 -0.64450064363E+02  0.36760202007E+02 -0.45784815936E+02  0.19283509177E+03  0.17200000000E+03 0.  1.
         -6    1    1    2    0  503  0.64450064363E+02 -0.36760202007E+02 -0.21961238913E+04  0.22040982893E+04  0.17200000000E+03 0.  1.
</event>
<event>
 4    1  0.5640532E+000  0.1775259E+03  0.7818608E-02  0.1170219E+00
         21   -1    0    0  503  502  0.00000000000E+00  0.00000000000E+00  0.33603734352E+02  0.33603734352E+02  0.00000000000E+00 0. -1.
         21   -1    0    0  501  503 -0.00000000000E+00 -0.00000000000E+00 -0.96225197064E+03  0.96225197064E+03  0.00000000000E+00 0. -1.
          6    1    1    2  501    0 -0.26113132789E+02 -0.35349051531E+02 -0.54360791498E+03  0.57186101142E+03  0.17200000000E+03 0. -1.
         -6    1    1    2    0  502  0.26113132789E+02  0.35349051531E+02 -0.38504032130E+03  0.42399469357E+03  0.17200000000E+03 0. -1.
</event>
<event>
 4    1  0.5640532E+000  0.2137253E+03  0.7818608E-02  0.1138649E+00
         21   -1    0    0  501  502  0.00000000000E+00  0.00000000000E+00  0.36803818433E+03  0.36803818433E+03  0.00000000000E+00 0.  1.
         21   -1    0    0  502  503 -0.00000000000E+00 -0.00000000000E+00 -0.22368900043E+03  0.22368900043E+03  0.00000000000E+00 0. -1.
          6    1    1    2  501    0  0.72772790802E+02  0.10391642013E+03  0.26957384027E+03  0.34401825070E+03  0.17200000000E+03 0.  1.
         -6    1    1    2    0  503 -0.72772790802E+02 -0.10391642013E+03 -0.12522465637E+03  0.24770893407E+03  0.17200000000E+03 0. -1.
</event>
<event>
 4    1  0.5640532E+000  0.1880621E+03  0.7818608E-02  0.1160221E+00
         21   -1    0    0  501  502  0.00000000000E+00  0.00000000000E+00  0.26637338774E+04  0.26637338774E+04  0.00000000000E+00 0.  1.
         21   -1    0    0  502  503 -0.00000000000E+00 -0.00000000000E+00 -0.13786254285E+02  0.13786254285E+02  0.00000000000E+00 0.  1.
          6    1    1    2  501    0  0.32269350181E+02 -0.68862386715E+02  0.15821884586E+04  0.15933259735E+04  0.17200000000E+03 0.  1.
         -6    1    1    2    0  503 -0.32269350181E+02  0.68862386715E+02  0.10677591645E+04  0.10841941582E+04  0.17200000000E+03 0.  1.
</event>
<event>
 4    1  0.5640532E+000  0.3160564E+03  0.7818608E-02  0.1077479E+00
         21   -1    0    0  503  502  0.00000000000E+00  0.00000000000E+00  0.28770935128E+03  0.28770935128E+03  0.00000000000E+00 0.  1.
         21   -1    0    0  501  503 -0.00000000000E+00 -0.00000000000E+00 -0.34772523256E+03  0.34772523256E+03  0.00000000000E+00 0. -1.
          6    1    1    2  501    0 -0.23052962764E+03 -0.13101044635E+03 -0.42398434114E+02  0.31888755618E+03  0.17200000000E+03 0.  1.
         -6    1    1    2    0  502  0.23052962764E+03  0.13101044635E+03 -0.17617447174E+02  0.31654702766E+03  0.17200000000E+03 0.  1.
</event>
<event>
 4    1  0.5640532E+000  0.1834208E+03  0.7818608E-02  0.1164533E+00
         21   -1    0    0  501  502  0.00000000000E+00  0.00000000000E+00  0.70937358218E+02  0.70937358218E+02  0.00000000000E+00 0. -1.
         21   -1    0    0  502  503 -0.00000000000E+00 -0.00000000000E+00 -0.52782170900E+03  0.52782170900E+03  0.00000000000E+00 0. -1.
          6    1    1    2  501    0  0.48227052402E+02  0.41633250679E+02 -0.32380550942E+03  0.37214672385E+03  0.17200000000E+03 0. -1.
         -6    1    1    2    0  503 -0.48227052402E+02 -0.41633250679E+02 -0.13307884136E+03  0.22661234336E+03  0.17200000000E+03 0. -1.
</event>
<event>
 4    1  0.5640532E+000  0.4745390E+03  0.7818608E-02  0.1020647E+00
         21   -1    0    0  503  502  0.00000000000E+00  0.00000000000E+00  0.16343745907E+04  0.16343745907E+04  0.00000000000E+00 0. -1.
         21   -1    0    0  501  503 -0.00000000000E+00 -0.00000000000E+00 -0.13835895525E+03  0.13835895525E+03  0.00000000000E+00 0.  1.
          6    1    1    2  501    0 -0.35200814270E+03  0.26775647455E+03  0.69076610831E+03  0.83806030724E+03  0.17200000000E+03 0.  1.
         -6    1    1    2    0  502  0.35200814270E+03 -0.26775647455E+03  0.80524952716E+03  0.93467323872E+03  0.17200000000E+03 0. -1.
</event>
<event>
 4    1  0.5640532E+000  0.2890160E+03  0.7818608E-02  0.1090864E+00
         21   -1    0    0  501  502  0.00000000000E+00  0.00000000000E+00  0.43528640831E+03  0.43528640831E+03  0.00000000000E+00 0. -1.
         21   -1    0    0  502  503 -0.00000000000E+00 -0.00000000000E+00 -0.20181916574E+03  0.20181916574E+03  0.00000000000E+00 0.  1.
          6    1    1    2  501    0  0.15371148325E+03 -0.17412359005E+03  0.18736521078E+03  0.34443572246E+03  0.17200000000E+03 0.  1.
         -6    1    1    2    0  503 -0.15371148325E+03  0.17412359005E+03  0.46102031793E+02  0.29266985159E+03  0.17200000000E+03 0. -1.
</event>
<event>
 4    1  0.5640532E+000  0.2201032E+03  0.7818608E-02  0.1133806E+00
         21   -1    0    0  501  502  0.00000000000E+00  0.00000000000E+00  0.88932673684E+02  0.88932673684E+02  0.00000000000E+00 0.  1.
         21   -1    0    0  502  503 -0.00000000000E+00 -0.00000000000E+00 -0.54527415495E+03  0.54527415495E+03  0.00000000000E+00 0.  1.
          6    1    1    2  501    0  0.13536694019E+03  0.23177763249E+02 -0.21827014128E+03  0.30997946993E+03  0.17200000000E+03 0.  1.
         -6    1    1    2    0  503 -0.13536694019E+03 -0.23177763249E+02 -0.23807133999E+03  0.32422735870E+03  0.17200000000E+03 0.  1.
</event>
<event>
 4    1  0.5640532E+000  0.1988810E+03  0.7818608E-02  0.1150687E+00
         21   -1    0    0  501  502  0.00000000000E+00  0.00000000000E+00  0.35410137700E+03  0.35410137700E+03  0.00000000000E+00 0. -1.
         21   -1    0    0  502  503 -0.00000000000E+00 -0.00000000000E+00 -0.11513737245E+03  0.11513737245E+03  0.00000000000E+00 0.  1.
          6    1    1    2  501    0 -0.24685732054E+02  0.96748499563E+02  0.16001173811E+03  0.25525950299E+03  0.17200000000E+03 0. -1.
         -6    1    1    2    0  503  0.24685732054E+02 -0.96748499563E+02  0.78952266437E+02  0.21397924645E+03  0.17200000000E+03 0.  1.
</event>
<event>
 4    1  0.5640532E+000  0.1915726E+03  0.7818608E-02  0.1157051E+00
         21   -1    0    0  503  502  0.00000000000E+00  0.00000000000E+00  0.26317863895E+03  0.26317863895E+03  0.00000000000E+00 0. -1.
         21   -1    0    0  501  503 -0.00000000000E+00 -0.00000000000E+00 -0.40994233698E+03  0.40994233698E+03  0.00000000000E+00 0. -1.
          6    1    1    2  501    0 -0.65781218937E+02 -0.52809841217E+02 -0.34677011818E+03  0.39616860421E+03  0.17200000000E+03 0. -1.
         -6    1    1    2    0  502  0.65781218937E+02  0.52809841217E+02  0.20000642016E+03  0.27695237171E+03  0.17200000000E+03 0. -1.
</event>
<event>
 4    1  0.5640532E+000  0.2370940E+03  0.7818608E-02  0.1121744E+00
         21   -1    0    0  501  502  0.00000000000E+00  0.00000000000E+00  0.67761527268E+02  0.67761527268E+02  0.00000000000E+00 0. -1.
         21   -1    0    0  502  503 -0.00000000000E+00 -0.00000000000E+00 -0.11088940289E+04  0.11088940289E+04  0.00000000000E+00 0.  1.
          6    1    1    2  501    0  0.15155554283E+03  0.60501929726E+02 -0.22529498550E+03  0.32706482012E+03  0.17200000000E+03 0. -1.
         -6    1    1    2    0  503 -0.15155554283E+03 -0.60501929726E+02 -0.81583751610E+03  0.84959073603E+03  0.17200000000E+03 0.  1.
</event>
<event>
 4    1  0.5640532E+000  0.2471483E+03  0.7818608E-02  0.1115120E+00
         21   -1    0    0  503  502  0.00000000000E+00  0.00000000000E+00  0.11583518423E+04  0.11583518423E+04  0.00000000000E+00 0. -1.
         21   -1    0    0  501  503 -0.00000000000E+00 -0.00000000000E+00 -0.55910704974E+02  0.55910704974E+02  0.00000000000E+00 0. -1.
          6    1    1    2  501    0 -0.59250965558E+02  0.16729490575E+03  0.40645772640E+03  0.47569963818E+03  0.17200000000E+03 0. -1.
         -6    1    1    2    0  502  0.59250965558E+02 -0.16729490575E+03  0.69598341088E+03  0.73856290906E+03  0.17200000000E+03 0. -1.
</event>
<event>
 4    1  0.5640532E+000  0.1791664E+03  0.7818608E-02  0.1168612E+00
         21   -1    0    0  503  502  0.00000000000E+00  0.00000000000E+00  0.65199706977E+03  0.65199706977E+03  0.00000000000E+00 0. -1.
         21   -1    0    0  501  503 -0.00000000000E+00 -0.00000000000E+00 -0.46370672381E+03  0.46370672381E+03  0.00000000000E+00 0. -1.
          6    1    1    2  501    0 -0.25008189445E+02 -0.43487605305E+02 -0.43326082967E+03  0.46884488680E+03  0.17200000000E+03 0. -1.
         -6    1    1    2    0  502  0.25008189445E+02  0.43487605305E+02  0.62155117563E+03  0.64685890678E+03  0.17200000000E+03 0. -1.
</event>
<event>
 4    1  0.5640532E+000  0.1952159E+03  0.7818608E-02  0.1153839E+00
         21   -1    0    0  503  502  0.00000000000E+00  0.00000000000E+00  0.31763201665E+03  0.31763201665E+03  0.00000000000E+00 0.  1.
         21   -1    0    0  501  503 -0.00000000000E+00 -0.00000000000E+00 -0.12458066565E+03  0.12458066565E+03  0.00000000000E+00 0. -1.
          6    1    1    2  501    0 -0.88865634926E+02 -0.25062663723E+02  0.54032074962E+02  0.20255543268E+03  0.17200000000E+03 0. -1.
         -6    1    1    2    0  502  0.88865634926E+02  0.25062663723E+02  0.13901927603E+03  0.23965724961E+03  0.17200000000E+03 0.  1.
</event>
<event>
 4    1  0.5640532E+000  0.1930116E+03  0.7818608E-02  0.1155773E+00
         21   -1    0    0  501  502  0.00000000000E+00  0.00000000000E+00  0.38098791156E+03  0.38098791156E+03  0.00000000000E+00 0. -1.
         21   -1    0    0  502  503 -0.00000000000E+00 -0.00000000000E+00 -0.71839106918E+03  0.71839106918E+03  0.00000000000E+00 0. -1.
          6    1    1    2  501    0  0.82688641035E+02 -0.28845872830E+02  0.34221062077E+03  0.39288879432E+03  0.17200000000E+03 0. -1.
         -6    1    1    2    0  503 -0.82688641035E+02  0.28845872830E+02 -0.67961377838E+03  0.70649018642E+03  0.17200000000E+03 0. -1.
</event>
<event>
 4    1  0.5640532E+000  0.3374961E+03  0.7818608E-02  0.1067867E+00
         21   -1    0    0  501  502  0.00000000000E+00  0.00000000000E+00  0.24629772512E+04  0.24629772512E+04  0.00000000000E+00 0.  1.
         21   -1    0    0  502  503 -0.00000000000E+00 -0.00000000000E+00 -0.93676513012E+02  0.93676513012E+02  0.00000000000E+00 0. -1.
          6    1    1    2  501    0 -0.17666750525E+03  0.23045223949E+03  0.20942577900E+04  0.21212777595E+04  0.17200000000E+03 0. -1.
         -6    1    1    2    0  503  0.17666750525E+03 -0.23045223949E+03  0.27504294815E+03  0.43537600464E+03  0.17200000000E+03 0.  1.
</event>
<event>
 4    1  0.5640532E+000  0.2486598E+03  0.7818608E-02  0.1114155E+00
         21   -1    0    0  501  502  0.00000000000E+00  0.00000000000E+00  0.53302787429E+03  0.53302787429E+03  0.00000000000E+00 0. -1.
         21   -1    0    0  502  503 -0.00000000000E+00 -0.00000000000E+00 -0.11600823189E+03  0.11600823189E+03  0.00000000000E+00 0. -1.
          6    1    1    2  501    0  0.61237292662E+02 -0.16881256701E+03  0.21109774278E+03  0.32618084830E+03  0.17200000000E+03 0. -1.
         -6    1    1    2    0  503 -0.61237292662E+02  0.16881256701E+03  0.20592189962E+03  0.32285525787E+03  0.17200000000E+03 0. -1.
</event>
<event>
 4    1  0.5640532E+000  0.2207055E+03  0.7818608E-02  0.1133358E+00
         21   -1    0    0  503  502  0.00000000000E+00  0.00000000000E+00  0.14371237579E+04  0.14371237579E+04  0.00000000000E+00 0. -1.
         21   -1    0    0  501  503 -0.00000000000E+00 -0.00000000000E+00 -0.23104586303E+03  0.23104586303E+03  0.00000000000E+00 0.  1.
          6    1    1    2  501    0  0.13791186900E+03 -0.10355944803E+02 -0.16743994741E+03  0.27703260673E+03  0.17200000000E+03 0.  1.
         -6    1    1    2    0  502 -0.13791186900E+03  0.10355944803E+02  0.13735178423E+04  0.13911370142E+04  0.17200000000E+03 0. -1.
</event>
<event>
 4    1  0.5640532E+000  0.1794702E+03  0.7818608E-02  0.1168317E+00
         21   -1    0    0  501  502  0.00000000000E+00  0.00000000000E+00  0.32781255154E+03  0.32781255154E+03  0.00000000000E+00 0. -1.
         21   -1    0    0  502  503 -0.00000000000E+00 -0.00000000000E+00 -0.11029944895E+03  0.11029944895E+03  0.00000000000E+00 0. -1.
          6    1    1    2  501    0  0.28910022528E+01  0.51158413825E+02  0.18114085614E+03  0.25499323709E+03  0.17200000000E+03 0. -1.
         -6    1    1    2    0  503 -0.28910022528E+01 -0.51158413825E+02  0.36372246452E+02  0.18311876341E+03  0.17200000000E+03 0. -1.
</event>
<event>
 4    1  0.5640532E+000  0.4035238E+03  0.7818608E-02  0.1042566E+00
         21   -1    0    0  503  502  0.00000000000E+00  0.00000000000E+00  0.32351456592E+03  0.32351456592E+03  0.00000000000E+00 0. -1.
         21   -1    0    0  501  503 -0.00000000000E+00 -0.00000000000E+00 -0.53981586432E+03  0.53981586432E+03  0.00000000000E+00 0.  1.
          6    1    1    2  501    0  0.36257493503E+03  0.42271298875E+02 -0.22038978466E+03  0.45978593215E+03  0.17200000000E+03 0.  1.
         -6    1    1    2    0  502 -0.36257493503E+03 -0.42271298875E+02  0.40884862575E+01  0.40354449809E+03  0.17200000000E+03 0. -1.
</event>
<event>
 4    1  0.5640532E+000  0.1901761E+03  0.7818608E-02  0.1158303E+00
         21   -1    0    0  501  502  0.00000000000E+00  0.00000000000E+00  0.42414292085E+03  0.42414292085E+03  0.00000000000E+00 0. -1.
         21   -1    0    0  502  503 -0.00000000000E+00 -0.00000000000E+00 -0.10056553479E+03  0.10056553479E+03  0.00000000000E+00 0. -1.
          6    1    1    2  501    0 -0.58519155575E+02 -0.56200218050E+02  0.59474440495E+02  0.19925904032E+03  0.17200000000E+03 0. -1.
         -6    1    1    2    0  503  0.58519155575E+02  0.56200218050E+02  0.26410294557E+03  0.32544941532E+03  0.17200000000E+03 0. -1.
</event>
<event>
 4    1  0.5640532E+000  0.3227472E+03  0.7818608E-02  0.1074392E+00
         21   -1    0    0  503  502  0.00000000000E+00  0.00000000000E+00  0.63166829102E+03  0.63166829102E+03  0.00000000000E+00 0. -1.
         21   -1    0    0  501  503 -0.00000000000E+00 -0.00000000000E+00 -0.16493238578E+03  0.16493238578E+03  0.00000000000E+00 0.  1.
          6    1    1    2  501    0  0.22983497866E+03 -0.14750476887E+03  0.22831248957E+03  0.39533829456E+03  0.17200000000E+03 0.  1.
         -6    1    1    2    0  502 -0.22983497866E+03  0.14750476887E+03  0.23842341567E+03  0.40126238223E+03  0.17200000000E+03 0.  1.
</event>
<event>
 4    1  0.5640532E+000  0.1956330E+03  0.7818608E-02  0.1153477E+00
         21   -1    0    0  501  502  0.00000000000E+00  0.00000000000E+00  0.60126899773E+02  0.60126899773E+02  0.00000000000E+00 0.  1.
         21   -1    0    0  502  503 -0.00000000000E+00 -0.00000000000E+00 -0.63657049432E+03  0.63657049432E+03  0.00000000000E+00 0. -1.
          6    1    1    2  501    0  0.25668685835E+02  0.89606862700E+02 -0.28527496579E+03  0.34591050487E+03  0.17200000000E+03 0.  1.
         -6    1    1    2    0  503 -0.25668685835E+02 -0.89606862700E+02 -0.29116862875E+03  0.35078688921E+03  0.17200000000E+03 0. -1.
</event>
<event>
 4    1  0.5640532E+000  0.2543998E+03  0.7818608E-02  0.1110555E+00
         21   -1    0    0  501  502  0.00000000000E+00  0.00000000000E+00  0.32727466103E+03  0.32727466103E+03  0.00000000000E+00 0. -1.
         21   -1    0    0  502  503 -0.00000000000E+00 -0.00000000000E+00 -0.23709759558E+03  0.23709759558E+03  0.00000000000E+00 0. -1.
          6    1    1    2  501    0 -0.17714544355E+03 -0.61275998783E+02  0.16004132280E+03  0.30055362450E+03  0.17200000000E+03 0. -1.
         -6    1    1    2    0  503  0.17714544355E+03  0.61275998783E+02 -0.69864257350E+02  0.26381863212E+03  0.17200000000E+03 0. -1.
</event>
<event>
 4    1  0.5640532E+000  0.1750352E+03  0.7818608E-02  0.1172696E+00
         21   -1    0    0  503  502  0.00000000000E+00  0.00000000000E+00  0.57707260535E+02  0.57707260535E+02  0.00000000000E+00 0. -1.
         21   -1    0    0  501  503 -0.00000000000E+00 -0.00000000000E+00 -0.11056639987E+04  0.11056639987E+04  0.00000000000E+00 0. -1.
          6    1    1    2  501    0  0.27360033702E+02  0.17456819916E+02 -0.94336837444E+03  0.95946922926E+03  0.17200000000E+03 0. -1.
         -6    1    1    2    0  502 -0.27360033702E+02 -0.17456819916E+02 -0.10458836375E+03  0.20390203000E+03  0.17200000000E+03 0. -1.
</event>
<event>
 4    1  0.5640532E+000  0.1819211E+03  0.7818608E-02  0.1165957E+00
         21   -1    0    0  503  502  0.00000000000E+00  0.00000000000E+00  0.75610100964E+02  0.75610100964E+02  0.00000000000E+00 0.  1.
         21   -1    0    0  501  503 -0.00000000000E+00 -0.00000000000E+00 -0.63473603967E+03  0.63473603967E+03  0.00000000000E+00 0.  1.
          6    1    1    2  501    0 -0.50819763730E+01  0.59037721208E+02 -0.47744462306E+03  0.51092919969E+03  0.17200000000E+03 0.  1.
         -6    1    1    2    0  502  0.50819763730E+01 -0.59037721208E+02 -0.81681315648E+02  0.19941694094E+03  0.17200000000E+03 0.  1.
</event>
<event>
 4    1  0.5640532E+000  0.1726408E+03  0.7818608E-02  0.1175122E+00
         21   -1    0    0  503  502  0.00000000000E+00  0.00000000000E+00  0.38536319127E+03  0.38536319127E+03  0.00000000000E+00 0. -1.
         21   -1    0    0  501  503 -0.00000000000E+00 -0.00000000000E+00 -0.77802003681E+02  0.77802003681E+02  0.00000000000E+00 0. -1.
          6    1    1    2  501    0 -0.52522449535E+01 -0.13901446670E+02  0.17158377564E+03  0.24340465969E+03  0.17200000000E+03 0. -1.
         -6    1    1    2    0  502  0.52522449535E+01  0.13901446670E+02  0.13597741194E+03  0.21976053525E+03  0.17200000000E+03 0. -1.
</event>
<event>
 4    1  0.5640532E+000  0.1927425E+03  0.7818608E-02  0.1156011E+00
         21   -1    0    0  501  502  0.00000000000E+00  0.00000000000E+00  0.26616662787E+03  0.26616662787E+03  0.00000000000E+00 0.  1.
         21   -1    0    0  502  503 -0.00000000000E+00 -0.00000000000E+00 -0.15084449570E+03  0.15084449570E+03  0.00000000000E+00 0. -1.
          6    1    1    2  501    0  0.26108070373E+02 -0.82970084065E+02  0.11465705653E+03  0.22426748940E+03  0.17200000000E+03 0.  1.
         -6    1    1    2    0  503 -0.26108070373E+02  0.82970084065E+02  0.66507563662E+00  0.19274363417E+03  0.17200000000E+03 0. -1.
</event>
<event>
 4    1  0.5640532E+000  0.2481943E+03  0.7818608E-02  0.1114451E+00
         21   -1    0    0  501  502  0.00000000000E+00  0.00000000000E+00  0.31895777785E+03  0.31895777785E+03  0.00000000000E+00 0. -1.
         21   -1    0    0  502  503 -0.00000000000E+00 -0.00000000000E+00 -0.34586775062E+03  0.34586775062E+03  0.00000000000E+00 0. -1.
          6    1    1    2  501    0 -0.12685139258E+03 -0.12619485582E+03 -0.23435482498E+03  0.34135407046E+03  0.17200000000E+03 0. -1.
         -6    1    1    2    0  503  0.12685139258E+03  0.12619485582E+03  0.20744485221E+03  0.32347145800E+03  0.17200000000E+03 0. -1.
</event>
<event>
 4    1  0.5640532E+000  0.2117483E+03  0.7818608E-02  0.1140189E+00
         21   -1    0    0  503  502  0.00000000000E+00  0.00000000000E+00  0.12160553996E+04  0.12160553996E+04  0.00000000000E+00 0. -1.
         21   -1    0    0  501  503 -0.00000000000E+00 -0.00000000000E+00 -0.41171828302E+02  0.41171828302E+02  0.00000000000E+00 0.  1.
          6    1    1    2  501    0 -0.36202511335E+02 -0.11807928301E+03  0.38427481540E+03  0.43875331641E+03  0.17200000000E+03 0.  1.
         -6    1    1    2    0  502  0.36202511335E+02  0.11807928301E+03  0.79060875588E+03  0.81847391148E+03  0.17200000000E+03 0. -1.
</event>
<event>
 4    1  0.5640532E+000  0.2037765E+03  0.7818608E-02  0.1146591E+00
         21   -1    0    0  503  502  0.00000000000E+00  0.00000000000E+00  0.72735060941E+03  0.72735060941E+03  0.00000000000E+00 0.  1.
         21   -1    0    0  501  503 -0.00000000000E+00 -0.00000000000E+00 -0.64365358551E+02  0.64365358551E+02  0.00000000000E+00 0.  1.
          6    1    1    2  501    0  0.58211153681E+02  0.92478855930E+02  0.19840954970E+03  0.28441382986E+03  0.17200000000E+03 0.  1.
         -6    1    1    2    0  502 -0.58211153681E+02 -0.92478855930E+02  0.46457570117E+03  0.50730213810E+03  0.17200000000E+03 0.  1.
</event>
<event>
 4    1  0.5640532E+000  0.2712302E+03  0.7818608E-02  0.1100578E+00
         21   -1    0    0  501  502  0.00000000000E+00  0.00000000000E+00  0.53389390284E+03  0.53389390284E+03  0.00000000000E+00 0. -1.
         21   -1    0    0  502  503 -0.00000000000E+00 -0.00000000000E+00 -0.14353892260E+03  0.14353892260E+03  0.00000000000E+00 0. -1.
          6    1    1    2  501    0  0.20971809682E+03  0.37186720722E+00  0.12739714642E+03  0.29965955906E+03  0.17200000000E+03 0. -1.
         -6    1    1    2    0  503 -0.20971809682E+03 -0.37186720722E+00  0.26295783382E+03  0.37777326638E+03  0.17200000000E+03 0. -1.
</event>
<event>
 4    1  0.5640532E+000  0.1739605E+03  0.7818608E-02  0.1173780E+00
         21   -1    0    0  501  502  0.00000000000E+00  0.00000000000E+00  0.44884923365E+02  0.44884923365E+02  0.00000000000E+00 0.  1.
         21   -1    0    0  502  503 -0.00000000000E+00 -0.00000000000E+00 -0.80498086336E+03  0.80498086336E+03  0.00000000000E+00 0.  1.
          6    1    1    2  501    0 -0.13239168346E+02 -0.22426872215E+02 -0.55131318241E+03  0.57810765890E+03  0.17200000000E+03 0.  1.
         -6    1    1    2    0  503  0.13239168346E+02  0.22426872215E+02 -0.20878275758E+03  0.27175812783E+03  0.17200000000E+03 0.  1.
</event>
<event>
 4    1  0.5640532E+000  0.3761832E+03  0.7818608E-02  0.1052354E+00
         21   -1    0    0  501  502  0.00000000000E+00  0.00000000000E+00  0.33641321409E+03  0.33641321409E+03  0.00000000000E+00 0. -1.
         21   -1    0    0  502  503 -0.00000000000E+00 -0.00000000000E+00 -0.49415398308E+03  0.49415398308E+03  0.00000000000E+00 0.  1.
          6    1    1    2  501    0 -0.11311268427E+03  0.31485765988E+03  0.81289945513E+02  0.38486605536E+03  0.17200000000E+03 0. -1.
         -6    1    1    2    0  503  0.11311268427E+03 -0.31485765988E+03 -0.23903071451E+03  0.44570114181E+03  0.17200000000E+03 0.  1.
</event>
<event>
 4    1  0.5640532E+000  0.1960735E+03  0.7818608E-02  0.1153095E+00
         21   -1    0    0  503  502  0.00000000000E+00  0.00000000000E+00  0.46926281808E+03  0.46926281808E+03  0.00000000000E+00 0. -1.
         21   -1    0    0  501  503 -0.00000000000E+00 -0.00000000000E+00 -0.27715142448E+03  0.27715142448E+03  0.00000000000E+00 0. -1.
          6    1    1    2  501    0  0.23894696690E+02  0.91048568626E+02 -0.21717161049E+03  0.29258897242E+03  0.17200000000E+03 0. -1.
         -6    1    1    2    0  502 -0.23894696690E+02 -0.91048568626E+02  0.40928300409E+03  0.45382527014E+03  0.17200000000E+03 0. -1.
</event>
<event>
 4    1  0.5640532E+000  0.2437377E+03  0.7818608E-02  0.1117328E+00
         21   -1    0    0  503  502  0.00000000000E+00  0.00000000000E+00  0.51575100731E+02  0.51575100731E+02  0.00000000000E+00 0.  1.
         21   -1    0    0  501  503 -0.00000000000E+00 -0.00000000000E+00 -0.18788795320E+04  0.18788795320E+04  0.00000000000E+00 0.  1.
          6    1    1    2  501    0  0.14742369543E+03 -0.89946326415E+02 -0.15140631443E+04  0.15335564197E+04  0.17200000000E+03 0.  1.
         -6    1    1    2    0  502 -0.14742369543E+03  0.89946326415E+02 -0.31324128696E+03  0.39689821298E+03  0.17200000000E+03 0.  1.
</event>
<event>
 4    1  0.5640532E+000  0.2185494E+03  0.7818608E-02  0.1134969E+00
         21   -1    0    0  503  502  0.00000000000E+00  0.00000000000E+00  0.74700823143E+03  0.74700823143E+03  0.00000000000E+00 0.  1.
         21   -1    0    0  501  503 -0.00000000000E+00 -0.00000000000E+00 -0.87386192573E+02  0.87386192573E+02  0.00000000000E+00 0.  1.
          6    1    1    2  501    0 -0.86355886774E+02 -0.10354948722E+03  0.11371112675E+03  0.24636163628E+03  0.17200000000E+03 0.  1.
         -6    1    1    2    0  502  0.86355886774E+02  0.10354948722E+03  0.54591091211E+03  0.58803278773E+03  0.17200000000E+03 0.  1.
</event>
<event>
 4    1  0.5640532E+000  0.1815632E+03  0.7818608E-02  0.1166299E+00
         21   -1    0    0  501  502  0.00000000000E+00  0.00000000000E+00  0.45665164847E+02  0.45665164847E+02  0.00000000000E+00 0.  1.
         21   -1    0    0  502  503 -0.00000000000E+00 -0.00000000000E+00 -0.83608059296E+03  0.83608059296E+03  0.00000000000E+00 0.  1.
          6    1    1    2  501    0  0.47743224336E+02  0.33193047412E+02 -0.23227593190E+03  0.29481740520E+03  0.17200000000E+03 0.  1.
         -6    1    1    2    0  503 -0.47743224336E+02 -0.33193047412E+02 -0.55813949622E+03  0.58692835261E+03  0.17200000000E+03 0.  1.
</event>
<event>
 4    1  0.5640532E+000  0.2056073E+03  0.7818608E-02  0.1145092E+00
         21   -1    0    0  501  502  0.00000000000E+00  0.00000000000E+00  0.15140204985E+03  0.15140204985E+03  0.00000000000E+00 0. -1.
         21   -1    0    0  502  503 -0.00000000000E+00 -0.00000000000E+00 -0.39912225333E+03  0.39912225333E+03  0.00000000000E+00 0. -1.
          6    1    1    2  501    0 -0.56456348890E+02  0.97483610731E+02  0.27011839087E+02  0.20737408985E+03  0.17200000000E+03 0. -1.
         -6    1    1    2    0  503  0.56456348890E+02 -0.97483610731E+02 -0.27473204256E+03  0.34315021332E+03  0.17200000000E+03 0. -1.
</event>
<event>
 4    1  0.5640532E+000  0.1774694E+03  0.7818608E-02  0.1170275E+00
         21   -1    0    0  503  502  0.00000000000E+00  0.00000000000E+00  0.93418206115E+03  0.93418206115E+03  0.00000000000E+00 0. -1.
         21   -1    0    0  501  503 -0.00000000000E+00 -0.00000000000E+00 -0.83019094172E+03  0.83019094172E+03  0.00000000000E+00 0. -1.
          6    1    1    2  501    0  0.13465460863E+02  0.41594000310E+02 -0.81209231315E+03  0.83125766437E+03  0.17200000000E+03 0. -1.
         -6    1    1    2    0  502 -0.13465460863E+02 -0.41594000310E+02  0.91608343258E+03  0.93311533850E+03  0.17200000000E+03 0. -1.
</event>
<event>
 4    1  0.5640532E+000  0.2974684E+03  0.7818608E-02  0.1086513E+00
         21   -1    0    0  501  502  0.00000000000E+00  0.00000000000E+00  0.48733145910E+03  0.48733145910E+03  0.00000000000E+00 0.  1.
         21   -1    0    0  502  503 -0.00000000000E+00 -0.00000000000E+00 -0.25435790968E+03  0.25435790968E+03  0.00000000000E+00 0. -1.
          6    1    1    2  501    0  0.22480944661E+03  0.91455877349E+02  0.31485978316E+03  0.43315603175E+03  0.17200000000E+03 0.  1.
         -6    1    1    2    0  503 -0.22480944661E+03 -0.91455877349E+02 -0.81886233740E+02  0.30853333703E+03  0.17200000000E+03 0. -1.
</event>
<event>
 4    1  0.5640532E+000  0.1955554E+03  0.7818608E-02  0.1153544E+00
         21   -1    0    0  503  502  0.00000000000E+00  0.00000000000E+00  0.22734611354E+03  0.22734611354E+03  0.00000000000E+00 0.  1.
         21   -1    0    0  501  503 -0.00000000000E+00 -0.00000000000E+00 -0.16821610827E+03  0.16821610827E+03  0.00000000000E+00 0.  1.
          6    1    1    2  501    0  0.18882257462E+01 -0.93028833818E+02  0.30739723460E+02  0.19795671223E+03  0.17200000000E+03 0.  1.
         -6    1    1    2    0  502 -0.18882257462E+01  0.93028833818E+02  0.28390281813E+02  0.19760550959E+03  0.17200000000E+03 0.  1.
</event>
<event>
 4    1  0.5640532E+000  0.2029774E+03  0.7818608E-02  0.1147251E+00
         21   -1    0    0  503  502  0.00000000000E+00  0.00000000000E+00  0.30811966265E+03  0.30811966265E+03  0.00000000000E+00 0. -1.
         21   -1    0    0  501  503 -0.00000000000E+00 -0.00000000000E+00 -0.23673250353E+03  0.23673250353E+03  0.00000000000E+00 0.  1.
          6    1    1    2  501    0  0.10769603065E+03 -0.41681079565E+01 -0.14401883265E+03  0.24887995560E+03  0.17200000000E+03 0.  1.
         -6    1    1    2    0  502 -0.10769603065E+03  0.41681079565E+01  0.21540599178E+03  0.29597221058E+03  0.17200000000E+03 0. -1.
</event>
<event>
 4    1  0.5640532E+000  0.1733644E+03  0.7818608E-02  0.1174384E+00
         21   -1    0    0  501  502  0.00000000000E+00  0.00000000000E+00  0.43439137143E+03  0.43439137143E+03  0.00000000000E+00 0. -1.
         21   -1    0    0  502  503 -0.00000000000E+00 -0.00000000000E+00 -0.11928697718E+03  0.11928697718E+03  0.00000000000E+00 0. -1.
          6    1    1    2  501    0  0.16234812443E+01  0.21646728604E+02  0.33695945436E+03  0.37894180349E+03  0.17200000000E+03 0. -1.
         -6    1    1    2    0  503 -0.16234812443E+01 -0.21646728604E+02 -0.21855060111E+02  0.17473654513E+03  0.17200000000E+03 0. -1.
</event>
<event>
 4    1  0.5640532E+000  0.2730670E+03  0.7818608E-02  0.1099537E+00
         21   -1    0    0  501  502  0.00000000000E+00  0.00000000000E+00  0.14947278633E+03  0.14947278633E+03  0.00000000000E+00 0. -1.
         21   -1    0    0  502  503 -0.00000000000E+00 -0.00000000000E+00 -0.95883933606E+03  0.95883933606E+03  0.00000000000E+00 0. -1.
          6    1    1    2  501    0  0.12945020745E+03 -0.16800071762E+03 -0.20861525116E+02  0.27386274037E+03  0.17200000000E+03 0. -1.
         -6    1    1    2    0  503 -0.12945020745E+03  0.16800071762E+03 -0.78850502461E+03  0.83444938203E+03  0.17200000000E+03 0. -1.
</event>
<event>
 4    1  0.5640532E+000  0.2245112E+03  0.7818608E-02  0.1130564E+00
         21   -1    0    0  501  502  0.00000000000E+00  0.00000000000E+00  0.24616093799E+03  0.24616093799E+03  0.00000000000E+00 0.  1.
         21   -1    0    0  502  503 -0.00000000000E+00 -0.00000000000E+00 -0.43949289028E+03  0.43949289028E+03  0.00000000000E+00 0.  1.
          6    1    1    2  501    0 -0.14363424622E+03 -0.13802323465E+02  0.15387614083E+03  0.27218223222E+03  0.17200000000E+03 0.  1.
         -6    1    1    2    0  503  0.14363424622E+03  0.13802323465E+02 -0.34720809312E+03  0.41347159606E+03  0.17200000000E+03 0.  1.
</event>
<event>
 4    1  0.5640532E+000  0.2116824E+03  0.7818608E-02  0.1140241E+00
         21   -1    0    0  503  502  0.00000000000E+00  0.00000000000E+00  0.77549766949E+02  0.77549766949E+02  0.00000000000E+00 0.  1.
         21   -1    0    0  501  503 -0.00000000000E+00 -0.00000000000E+00 -0.57785914165E+03  0.57785914165E+03  0.00000000000E+00 0. -1.
          6    1    1    2  501    0 -0.50915388130E+02  0.11239696563E+03 -0.25300371843E+03  0.32987927515E+03  0.17200000000E+03 0. -1.
         -6    1    1    2    0  502  0.50915388130E+02 -0.11239696563E+03 -0.24730565627E+03  0.32552963345E+03  0.17200000000E+03 0. -1.
</event>
<event>
 4    1  0.5640532E+000  0.1837781E+03  0.7818608E-02  0.1164196E+00
         21   -1    0    0  501  502  0.00000000000E+00  0.00000000000E+00  0.25998719451E+03  0.25998719451E+03  0.00000000000E+00 0. -1.
         21   -1    0    0  502  503 -0.00000000000E+00 -0.00000000000E+00 -0.25692108341E+03  0.25692108341E+03  0.00000000000E+00 0. -1.
          6    1    1    2  501    0  0.54084650475E+02 -0.35569999437E+02  0.18325531423E+03  0.25953204902E+03  0.17200000000E+03 0. -1.
         -6    1    1    2    0  503 -0.54084650475E+02  0.35569999437E+02 -0.18018920312E+03  0.25737622889E+03  0.17200000000E+03 0. -1.
</event>
<event>
 4    1  0.5640532E+000  0.2585771E+03  0.7818608E-02  0.1108001E+00
         21   -1    0    0  501  502  0.00000000000E+00  0.00000000000E+00  0.11411901430E+04  0.11411901430E+04  0.00000000000E+00 0.  1.
         21   -1    0    0  502  503 -0.00000000000E+00 -0.00000000000E+00 -0.16526293473E+03  0.16526293473E+03  0.00000000000E+00 0.  1.
          6    1    1    2  501    0 -0.21009326495E+02 -0.19192890673E+03  0.10127754490E+04  0.10452637022E+04  0.17200000000E+03 0.  1.
         -6    1    1    2    0  503  0.21009326495E+02  0.19192890673E+03 -0.36848240735E+02  0.26118937552E+03  0.17200000000E+03 0.  1.
</event>
<event>
 4    1  0.5640532E+000  0.3554671E+03  0.7818608E-02  0.1060393E+00
         21   -1    0    0  501  502  0.00000000000E+00  0.00000000000E+00  0.68301012119E+03  0.68301012119E+03  0.00000000000E+00 0. -1.
         21   -1    0    0  502  503 -0.00000000000E+00 -0.00000000000E+00 -0.33884609715E+03  0.33884609715E+03  0.00000000000E+00 0.  1.
          6    1    1    2  501    0  0.16099866985E+03 -0.26618087521E+03  0.51635415417E+03  0.62687992673E+03  0.17200000000E+03 0. -1.
         -6    1    1    2    0  503 -0.16099866985E+03  0.26618087521E+03 -0.17219013012E+03  0.39497629160E+03  0.17200000000E+03 0.  1.
</event>
<event>
 4    1  0.5640532E+000  0.2313734E+03  0.7818608E-02  0.1125677E+00
         21   -1    0    0  503  502  0.00000000000E+00  0.00000000000E+00  0.65194218319E+03  0.65194218319E+03  0.00000000000E+00 0.  1.
         21   -1    0    0  501  503 -0.00000000000E+00 -0.00000000000E+00 -0.93215471242E+02  0.93215471242E+02  0.00000000000E+00 0.  1.
          6    1    1    2  501    0  0.11424848167E+03  0.10438846674E+03  0.40793992323E+03  0.46898683193E+03  0.17200000000E+03 0.  1.
         -6    1    1    2    0  502 -0.11424848167E+03 -0.10438846674E+03  0.15078678872E+03  0.27617082251E+03  0.17200000000E+03 0.  1.
</event>
<event>
 4    1  0.5640532E+000  0.3595086E+03  0.7818608E-02  0.1058779E+00
         21   -1    0    0  501  502  0.00000000000E+00  0.00000000000E+00  0.61330425427E+03  0.61330425427E+03  0.00000000000E+00 0.  1.
         21   -1    0    0  502  503 -0.00000000000E+00 -0.00000000000E+00 -0.25807326890E+03  0.25807326890E+03  0.00000000000E+00 0. -1.
          6    1    1    2  501    0  0.14301620721E+02 -0.31536945964E+03  0.36420957453E+03  0.51175682370E+03  0.17200000000E+03 0. -1.
         -6    1    1    2    0  503 -0.14301620721E+02  0.31536945964E+03 -0.89785891619E+01  0.35962069947E+03  0.17200000000E+03 0. -1.
</event>
<event>
 4    1  0.5640532E+000  0.2566381E+03  0.7818608E-02  0.1109180E+00
         21   -1    0    0  503  502  0.00000000000E+00  0.00000000000E+00  0.10857954862E+03  0.10857954862E+03  0.00000000000E+00 0. -1.
         21   -1    0    0  501  503 -0.00000000000E+00 -0.00000000000E+00 -0.65073908141E+03  0.65073908141E+03  0.00000000000E+00 0.  1.
          6    1    1    2  501    0 -0.55835230144E+02  0.18210309868E+03 -0.36997117412E+03  0.45026856559E+03  0.17200000000E+03 0.  1.
         -6    1    1    2    0  502  0.55835230144E+02 -0.18210309868E+03 -0.17218835866E+03  0.30905006444E+03  0.17200000000E+03 0.  1.
</event>
<event>
 4    1  0.5640532E+000  0.2280894E+03  0.7818608E-02  0.1127992E+00
         21   -1    0    0  501  502  0.00000000000E+00  0.00000000000E+00  0.44025300835E+02  0.44025300835E+02  0.00000000000E+00 0. -1.
         21   -1    0    0  502  503 -0.00000000000E+00 -0.00000000000E+00 -0.12477471664E+04  0.12477471664E+04  0.00000000000E+00 0. -1.
          6    1    1    2  501    0  0.64235644473E+02  0.13533130578E+03 -0.45326268881E+03  0.50741683595E+03  0.17200000000E+03 0. -1.
         -6    1    1    2    0  503 -0.64235644473E+02 -0.13533130578E+03 -0.75045917676E+03  0.78435563128E+03  0.17200000000E+03 0. -1.
</event>
<event>
 4    1  0.5640532E+000  0.2283220E+03  0.7818608E-02  0.1127826E+00
         21   -1    0    0  503  502  0.00000000000E+00  0.00000000000E+00  0.15573759167E+04  0.15573759167E+04  0.00000000000E+00 0.  1.
         21   -1    0    0  501  503 -0.00000000000E+00 -0.00000000000E+00 -0.33510125206E+02  0.33510125206E+02  0.00000000000E+00 0. -1.
          6    1    1    2  501    0  0.80060680329E+01  0.14994274931E+03  0.78820656459E+03  0.82060984253E+03  0.17200000000E+03 0. -1.
         -6    1    1    2    0  502 -0.80060680329E+01 -0.14994274931E+03  0.73565922690E+03  0.77027619938E+03  0.17200000000E+03 0.  1.
</event>
<event>
 4    1  0.5640532E+000  0.1952144E+03  0.7818608E-02  0.1153841E+00
         21   -1    0    0  503  502  0.00000000000E+00  0.00000000000E+00  0.49902033242E+03  0.49902033242E+03  0.00000000000E+00 0. -1.
         21   -1    0    0  501  503 -0.00000000000E+00 -0.00000000000E+00 -0.84570956358E+02  0.84570956358E+02  0.00000000000E+00 0.  1.
          6    1    1    2  501    0 -0.90128992995E+01 -0.91888152591E+02  0.11634204320E+03  0.22725346192E+03  0.17200000000E+03 0.  1.
         -6    1    1    2    0  502  0.90128992995E+01  0.91888152591E+02  0.29810733287E+03  0.35633782686E+03  0.17200000000E+03 0. -1.
</event>
<event>
 4    1  0.5640532E+000  0.3665200E+03  0.7818608E-02  0.1056032E+00
         21   -1    0    0  503  502  0.00000000000E+00  0.00000000000E+00  0.47547263848E+03  0.47547263848E+03  0.00000000000E+00 0.  1.
         21   -1    0    0  501  503 -0.00000000000E+00 -0.00000000000E+00 -0.39098183253E+03  0.39098183253E+03  0.00000000000E+00 0. -1.
          6    1    1    2  501    0 -0.57974454256E+01 -0.32360358053E+03  0.27041047305E+03  0.45547635684E+03  0.17200000000E+03 0.  1.
         -6    1    1    2    0  502  0.57974454256E+01  0.32360358053E+03 -0.18591966710E+03  0.41097811416E+03  0.17200000000E+03 0. -1.
</event>
<event>
 4    1  0.5640532E+000  0.1776939E+03  0.7818608E-02  0.1170054E+00
         21   -1    0    0  503  502  0.00000000000E+00  0.00000000000E+00  0.92521997383E+03  0.92521997383E+03  0.00000000000E+00 0.  1.
         21   -1    0    0  501  503 -0.00000000000E+00 -0.00000000000E+00 -0.36599338404E+02  0.36599338404E+02  0.00000000000E+00 0.  1.
          6    1    1    2  501    0 -0.40259197018E+02  0.19243760621E+02  0.31932262786E+03  0.36543407877E+03  0.17200000000E+03 0.  1.
         -6    1    1    2    0  502  0.40259197018E+02 -0.19243760621E+02  0.56929800757E+03  0.59638523346E+03  0.17200000000E+03 0.  1.
</event>
<event>
 4    1  0.5640532E+000  0.2412895E+03  0.7818608E-02  0.1118937E+00
         21   -1    0    0  503  502  0.00000000000E+00  0.00000000000E+00  0.41342395548E+03  0.41342395548E+03  0.00000000000E+00 0. -1.
         21   -1    0    0  501  503 -0.00000000000E+00 -0.00000000000E+00 -0.34776470862E+03  0.34776470862E+03  0.00000000000E+00 0.  1.
          6    1    1    2  501    0 -0.12015496426E+03  0.11916127965E+03 -0.26076018666E+03  0.35526961727E+03  0.17200000000E+03 0.  1.
         -6    1    1    2    0  502  0.12015496426E+03 -0.11916127965E+03  0.32641943352E+03  0.40591904684E+03  0.17200000000E+03 0. -1.
</event>
<event>
 4    1  0.5640532E+000  0.2036684E+03  0.7818608E-02  0.1146680E+00
         21   -1    0    0  503  502  0.00000000000E+00  0.00000000000E+00  0.12002923447E+03  0.12002923447E+03  0.00000000000E+00 0. -1.
         21   -1    0    0  501  503 -0.00000000000E+00 -0.00000000000E+00 -0.49735268059E+03  0.49735268059E+03  0.00000000000E+00 0. -1.
          6    1    1    2  501    0  0.10756790717E+03 -0.18054235972E+02 -0.35918170584E+03  0.41290714198E+03  0.17200000000E+03 0. -1.
         -6    1    1    2    0  502 -0.10756790717E+03  0.18054235972E+02 -0.18141740280E+02  0.20447477309E+03  0.17200000000E+03 0. -1.
</event>
<event>
 4    1  0.5640532E+000  0.1849573E+03  0.7818608E-02  0.1163090E+00
         21   -1    0    0  501  502  0.00000000000E+00  0.00000000000E+00  0.37958251267E+02  0.37958251267E+02  0.00000000000E+00 0. -1.
         21   -1    0    0  502  503 -0.00000000000E+00 -0.00000000000E+00 -0.10011829315E+04  0.10011829315E+04  0.00000000000E+00 0. -1.
          6    1    1    2  501    0  0.59111900605E+02  0.33630241161E+02 -0.31744749308E+03  0.36739913007E+03  0.17200000000E+03 0. -1.
         -6    1    1    2    0  503 -0.59111900605E+02 -0.33630241161E+02 -0.64577718716E+03  0.67174205270E+03  0.17200000000E+03 0. -1.
</event>
<event>
 4    1  0.5640532E+000  0.2316694E+03  0.7818608E-02  0.1125470E+00
         21   -1    0    0  503  502  0.00000000000E+00  0.00000000000E+00  0.35722925848E+03  0.35722925848E+03  0.00000000000E+00 0. -1.
         21   -1    0    0  501  503 -0.00000000000E+00 -0.00000000000E+00 -0.21042733415E+03  0.21042733415E+03  0.00000000000E+00 0.  1.
          6    1    1    2  501    0  0.51502977988E+02 -0.14640401389E+03 -0.78391927482E+02  0.24457306949E+03  0.17200000000E+03 0.  1.
         -6    1    1    2    0  502 -0.51502977988E+02  0.14640401389E+03  0.22519385182E+03  0.32308352314E+03  0.17200000000E+03 0. -1.
</event>
<event>
 4    1  0.5640532E+000  0.1950163E+03  0.7818608E-02  0.1154013E+00
         21   -1    0    0  501  502  0.00000000000E+00  0.00000000000E+00  0.62720502889E+02  0.62720502889E+02  0.00000000000E+00 0.  1.
         21   -1    0    0  502  503 -0.00000000000E+00 -0.00000000000E+00 -0.85787248207E+03  0.85787248207E+03  0.00000000000E+00 0.  1.
          6    1    1    2  501    0 -0.71067542501E+02  0.58281695939E+02 -0.14834385480E+03  0.24502500063E+03  0.17200000000E+03 0.  1.
         -6    1    1    2    0  503  0.71067542501E+02 -0.58281695939E+02 -0.64680812438E+03  0.67556798432E+03  0.17200000000E+03 0.  1.
</event>
<event>
 4    1  0.5640532E+000  0.1887465E+03  0.7818608E-02  0.1159597E+00
         21   -1    0    0  503  502  0.00000000000E+00  0.00000000000E+00  0.52698722432E+03  0.52698722432E+03  0.00000000000E+00 0. -1.
         21   -1    0    0  501  503 -0.00000000000E+00 -0.00000000000E+00 -0.72996700683E+02  0.72996700683E+02  0.00000000000E+00 0. -1.
          6    1    1    2  501    0 -0.52511294052E+02  0.57304458215E+02  0.30855078857E+03  0.36170267633E+03  0.17200000000E+03 0. -1.
         -6    1    1    2    0  502  0.52511294052E+02 -0.57304458215E+02  0.14543973506E+03  0.23828124867E+03  0.17200000000E+03 0. -1.
</event>
<event>
 4    1  0.5640532E+000  0.2756170E+03  0.7818608E-02  0.1098107E+00
         21   -1    0    0  503  502  0.00000000000E+00  0.00000000000E+00  0.51334789973E+03  0.51334789973E+03  0.00000000000E+00 0.  1.
         21   -1    0    0  501  503 -0.00000000000E+00 -0.00000000000E+00 -0.14936666877E+03  0.14936666877E+03  0.00000000000E+00 0.  1.
          6    1    1    2  501    0 -0.74837596586E+02 -0.20194078283E+03  0.15005308222E+03  0.31381630473E+03  0.17200000000E+03 0. -1.
         -6    1    1    2    0  502  0.74837596586E+02  0.20194078283E+03  0.21392814874E+03  0.34889826377E+03  0.17200000000E+03 0. -1.
</event>
<event>
 4    1  0.5640532E+000  0.2119196E+03  0.7818608E-02  0.1140055E+00
         21   -1    0    0  503  502  0.00000000000E+00  0.00000000000E+00  0.91021683174E+03  0.91021683174E+03  0.00000000000E+00 0.  1.
         21   -1    0    0  501  503 -0.00000000000E+00 -0.00000000000E+00 -0.11292858238E+03  0.11292858238E+03  0.00000000000E+00 0. -1.
          6    1    1    2  501    0  0.84663027500E+02 -0.90322096347E+02  0.14763927324E+02  0.21243324331E+03  0.17200000000E+03 0. -1.
         -6    1    1    2    0  502 -0.84663027500E+02  0.90322096347E+02  0.78252432204E+03  0.81071217081E+03  0.17200000000E+03 0.  1.
</event>
<event>
 4    1  0.5640532E+000  0.1757631E+03  0.7818608E-02  0.1171968E+00
         21   -1    0    0  503  502  0.00000000000E+00  0.00000000000E+00  0.16521988268E+03  0.16521988268E+03  0.00000000000E+00 0.  1.
         21   -1    0    0  501  503 -0.00000000000E+00 -0.00000000000E+00 -0.26699365794E+03  0.26699365794E+03  0.00000000000E+00 0.  1.
          6    1    1    2  501    0  0.25134342930E+02  0.26017880586E+02 -0.16919169691E+03  0.24396412771E+03  0.17200000000E+03 0.  1.
         -6    1    1    2    0  502 -0.25134342930E+02 -0.26017880586E+02  0.67417921651E+02  0.18824941292E+03  0.17200000000E+03 0.  1.
</event>
<event>
 4    1  0.5640532E+000  0.2499257E+03  0.7818608E-02  0.1113352E+00
         21   -1    0    0  501  502  0.00000000000E+00  0.00000000000E+00  0.24629887019E+03  0.24629887019E+03  0.00000000000E+00 0. -1.
         21   -1    0    0  502  503 -0.00000000000E+00 -0.00000000000E+00 -0.27158016083E+03  0.27158016083E+03  0.00000000000E+00 0.  1.
          6    1    1    2  501    0 -0.15124592092E+03 -0.10001762617E+03  0.53974727450E+02  0.25568755414E+03  0.17200000000E+03 0. -1.
         -6    1    1    2    0  503  0.15124592092E+03  0.10001762617E+03 -0.79256018092E+02  0.26219147687E+03  0.17200000000E+03 0.  1.
</event>
<event>
 4    1  0.5640532E+000  0.2482401E+03  0.7818608E-02  0.1114422E+00
         21   -1    0    0  501  502  0.00000000000E+00  0.00000000000E+00  0.18426180662E+04  0.18426180662E+04  0.00000000000E+00 0. -1.
         21   -1    0    0  502  503 -0.00000000000E+00 -0.00000000000E+00 -0.34245135181E+02  0.34245135181E+02  0.00000000000E+00 0.  1.
          6    1    1    2  501    0  0.55783096566E+02  0.17008055876E+03  0.10477873992E+04  0.10767922661E+04  0.17200000000E+03 0.  1.
         -6    1    1    2    0  503 -0.55783096566E+02 -0.17008055876E+03  0.76058553183E+03  0.80007093533E+03  0.17200000000E+03 0. -1.
</event>
<event>
 4    1  0.5640532E+000  0.2574390E+03  0.7818608E-02  0.1108692E+00
         21   -1    0    0  503  502  0.00000000000E+00  0.00000000000E+00  0.86221831164E+03  0.86221831164E+03  0.00000000000E+00 0. -1.
         21   -1    0    0  501  503 -0.00000000000E+00 -0.00000000000E+00 -0.77182910650E+02  0.77182910650E+02  0.00000000000E+00 0.  1.
          6    1    1    2  501    0 -0.14634433729E+03  0.12358863587E+03  0.36239515601E+03  0.44452791259E+03  0.17200000000E+03 0.  1.
         -6    1    1    2    0  502  0.14634433729E+03 -0.12358863587E+03  0.42264024499E+03  0.49487330970E+03  0.17200000000E+03 0.  1.
</event>
<event>
 4    1  0.5640532E+000  0.2158563E+03  0.7818608E-02  0.1137011E+00
         21   -1    0    0  503  502  0.00000000000E+00  0.00000000000E+00  0.53253034647E+03  0.53253034647E+03  0.00000000000E+00 0. -1.
         21   -1    0    0  501  503 -0.00000000000E+00 -0.00000000000E+00 -0.89263442880E+02  0.89263442880E+02  0.00000000000E+00 0. -1.
          6    1    1    2  501    0 -0.34085923677E+02 -0.12588921334E+03  0.17787835946E+03  0.27970458522E+03  0.17200000000E+03 0.  1.
         -6    1    1    2    0  502  0.34085923677E+02  0.12588921334E+03  0.26538854414E+03  0.34208920414E+03  0.17200000000E+03 0.  1.
</event>
<event>
 4    1  0.5640532E+000  0.1860954E+03  0.7818608E-02  0.1162031E+00
         21   -1    0    0  501  502  0.00000000000E+00  0.00000000000E+00  0.10761427158E+04  0.10761427158E+04  0.00000000000E+00 0. -1.
         21   -1    0    0  502  503 -0.00000000000E+00 -0.00000000000E+00 -0.84972004763E+02  0.84972004763E+02  0.00000000000E+00 0. -1.
          6    1    1    2  501    0  0.60955003319E+02  0.36496221475E+02  0.95318601321E+03  0.97118230132E+03  0.17200000000E+03 0. -1.
         -6    1    1    2    0  503 -0.60955003319E+02 -0.36496221475E+02  0.37984697827E+02  0.18993241925E+03  0.17200000000E+03 0. -1.
</event>
<event>
 4    1  0.5640532E+000  0.2445823E+03  0.7818608E-02  0.1116777E+00
         21   -1    0    0  501  502  0.00000000000E+00  0.00000000000E+00  0.11307633041E+03  0.11307633041E+03  0.00000000000E+00 0.  1.
         21   -1    0    0  502  503 -0.00000000000E+00 -0.00000000000E+00 -0.58780010559E+03  0.58780010559E+03  0.00000000000E+00 0.  1.
          6    1    1    2  501    0  0.14877589481E+03  0.90012544136E+02 -0.12655087840E+03  0.27538273330E+03  0.17200000000E+03 0.  1.
         -6    1    1    2    0  503 -0.14877589481E+03 -0.90012544136E+02 -0.34817289678E+03  0.42549370269E+03  0.17200000000E+03 0.  1.
</event>
<event>
 4    1  0.5640532E+000  0.1800682E+03  0.7818608E-02  0.1167737E+00
         21   -1    0    0  503  502  0.00000000000E+00  0.00000000000E+00  0.93920577563E+02  0.93920577563E+02  0.00000000000E+00 0.  1.
         21   -1    0    0  501  503 -0.00000000000E+00 -0.00000000000E+00 -0.54414210535E+03  0.54414210535E+03  0.00000000000E+00 0.  1.
          6    1    1    2  501    0  0.35002841915E+02  0.40191431071E+02 -0.41799810797E+03  0.45513401141E+03  0.17200000000E+03 0.  1.
         -6    1    1    2    0  502 -0.35002841915E+02 -0.40191431071E+02 -0.32223419816E+02  0.18292867150E+03  0.17200000000E+03 0.  1.
</event>
<event>
 4    1  0.5640532E+000  0.4920209E+03  0.7818608E-02  0.1015883E+00
         21   -1    0    0  501  502  0.00000000000E+00  0.00000000000E+00  0.33788937950E+03  0.33788937950E+03  0.00000000000E+00 0.  1.
         21   -1    0    0  502  503 -0.00000000000E+00 -0.00000000000E+00 -0.73856712330E+03  0.73856712330E+03  0.00000000000E+00 0. -1.
          6    1    1    2  501    0  0.26400921454E+03 -0.37788842890E+03 -0.10722192069E+03  0.50356833730E+03  0.17200000000E+03 0.  1.
         -6    1    1    2    0  503 -0.26400921454E+03  0.37788842890E+03 -0.29345582311E+03  0.57288816550E+03  0.17200000000E+03 0. -1.
</event>
<event>
 4    1  0.5640532E+000  0.2281585E+03  0.7818608E-02  0.1127943E+00
         21   -1    0    0  501  502  0.00000000000E+00  0.00000000000E+00  0.77824160572E+02  0.77824160572E+02  0.00000000000E+00 0. -1.
         21   -1    0    0  502  503 -0.00000000000E+00 -0.00000000000E+00 -0.69561442115E+03  0.69561442115E+03  0.00000000000E+00 0.  1.
          6    1    1    2  501    0  0.26590582133E+02  0.14753040828E+03 -0.23310444659E+03  0.32618087535E+03  0.17200000000E+03 0. -1.
         -6    1    1    2    0  503 -0.26590582133E+02 -0.14753040828E+03 -0.38468581399E+03  0.44725770637E+03  0.17200000000E+03 0.  1.
</event>
<event>
 4    1  0.5640532E+000  0.1781670E+03  0.7818608E-02  0.1169589E+00
         21   -1    0    0  503  502  0.00000000000E+00  0.00000000000E+00  0.97146032861E+02  0.97146032861E+02  0.00000000000E+00 0. -1.
         21   -1    0    0  501  503 -0.00000000000E+00 -0.00000000000E+00 -0.42709752728E+03  0.42709752728E+03  0.00000000000E+00 0. -1.
          6    1    1    2  501    0  0.35935019721E+02  0.29464520142E+02 -0.29202445574E+03  0.34208444329E+03  0.17200000000E+03 0. -1.
         -6    1    1    2    0  502 -0.35935019721E+02 -0.29464520142E+02 -0.37927038680E+02  0.18215911685E+03  0.17200000000E+03 0. -1.
</event>
<event>
 4    1  0.5640532E+000  0.1978466E+03  0.7818608E-02  0.1151569E+00
         21   -1    0    0  503  502  0.00000000000E+00  0.00000000000E+00  0.14123282748E+04  0.14123282748E+04  0.00000000000E+00 0. -1.
         21   -1    0    0  501  503 -0.00000000000E+00 -0.00000000000E+00 -0.28571149010E+02  0.28571149010E+02  0.00000000000E+00 0. -1.
          6    1    1    2  501    0 -0.85679324820E+02 -0.47099268245E+02  0.56719620983E+03  0.60071193448E+03  0.17200000000E+03 0. -1.
         -6    1    1    2    0  502  0.85679324820E+02  0.47099268245E+02  0.81656091598E+03  0.84018748936E+03  0.17200000000E+03 0. -1.
</event>
<event>
 4    1  0.5640532E+000  0.1831167E+03  0.7818608E-02  0.1164820E+00
         21   -1    0    0  501  502  0.00000000000E+00  0.00000000000E+00  0.23029341470E+03  0.23029341470E+03  0.00000000000E+00 0.  1.
         21   -1    0    0  502  503 -0.00000000000E+00 -0.00000000000E+00 -0.23258329456E+03  0.23258329456E+03  0.00000000000E+00 0.  1.
          6    1    1    2  501    0  0.46410708834E+01 -0.62659299892E+02  0.14038655457E+03  0.23073818953E+03  0.17200000000E+03 0.  1.
         -6    1    1    2    0  503 -0.46410708834E+01  0.62659299892E+02 -0.14267643443E+03  0.23213851973E+03  0.17200000000E+03 0.  1.
</event>
<event>
 4    1  0.5640532E+000  0.2094568E+03  0.7818608E-02  0.1141997E+00
         21   -1    0    0  501  502  0.00000000000E+00  0.00000000000E+00  0.24293585037E+02  0.24293585037E+02  0.00000000000E+00 0.  1.
         21   -1    0    0  502  503 -0.00000000000E+00 -0.00000000000E+00 -0.25578292890E+04  0.25578292890E+04  0.00000000000E+00 0.  1.
          6    1    1    2  501    0  0.10169891438E+03 -0.62812940253E+02 -0.56677198103E+03  0.60423721594E+03  0.17200000000E+03 0.  1.
         -6    1    1    2    0  503 -0.10169891438E+03  0.62812940253E+02 -0.19667637230E+04  0.19778856581E+04  0.17200000000E+03 0.  1.
</event>
<event>
 4    1  0.5640532E+000  0.2260567E+03  0.7818608E-02  0.1129446E+00
         21   -1    0    0  501  502  0.00000000000E+00  0.00000000000E+00  0.60314385261E+02  0.60314385261E+02  0.00000000000E+00 0.  1.
         21   -1    0    0  502  503 -0.00000000000E+00 -0.00000000000E+00 -0.89470873842E+03  0.89470873842E+03  0.00000000000E+00 0. -1.
          6    1    1    2  501    0 -0.13816977597E+03  0.49262211554E+02 -0.30722592224E+03  0.38143075358E+03  0.17200000000E+03 0.  1.
         -6    1    1    2    0  503  0.13816977597E+03 -0.49262211554E+02 -0.52716843091E+03  0.57359237009E+03  0.17200000000E+03 0. -1.
</event>
<event>
 4    1  0.5640532E+000  0.1851174E+03  0.7818608E-02  0.1162940E+00
         21   -1    0    0  503  502  0.00000000000E+00  0.00000000000E+00  0.13429272142E+04  0.13429272142E+04  0.00000000000E+00 0.  1.
         21   -1    0    0  501  503 -0.00000000000E+00 -0.00000000000E+00 -0.12704169798E+03  0.12704169798E+03  0.00000000000E+00 0.  1.
          6    1    1    2  501    0  0.65881305845E+02  0.18549846667E+02 -0.49093472826E+02  0.19151661115E+03  0.17200000000E+03 0.  1.
         -6    1    1    2    0  502 -0.65881305845E+02 -0.18549846667E+02  0.12649789890E+04  0.12784523010E+04  0.17200000000E+03 0.  1.
</event>
<event>
 4    1  0.5640532E+000  0.2627802E+03  0.7818608E-02  0.1105484E+00
         21   -1    0    0  501  502  0.00000000000E+00  0.00000000000E+00  0.19005416450E+03  0.19005416450E+03  0.00000000000E+00 0.  1.
         21   -1    0    0  502  503 -0.00000000000E+00 -0.00000000000E+00 -0.39341280395E+03  0.39341280395E+03  0.00000000000E+00 0. -1.
          6    1    1    2  501    0 -0.19676847411E+03 -0.27415029203E+02 -0.21014936974E+02  0.26361912640E+03  0.17200000000E+03 0. -1.
         -6    1    1    2    0  503  0.19676847411E+03  0.27415029203E+02 -0.18234370248E+03  0.31984784205E+03  0.17200000000E+03 0. -1.
</event>
<event>
 4    1  0.5640532E+000  0.2097185E+03  0.7818608E-02  0.1141789E+00
         21   -1    0    0  503  502  0.00000000000E+00  0.00000000000E+00  0.62419482609E+02  0.62419482609E+02  0.00000000000E+00 0. -1.
         21   -1    0    0  501  503 -0.00000000000E+00 -0.00000000000E+00 -0.71165690461E+03  0.71165690461E+03  0.00000000000E+00 0. -1.
          6    1    1    2  501    0 -0.10993157232E+03 -0.48092471929E+02 -0.28612427259E+03  0.35475193560E+03  0.17200000000E+03 0. -1.
         -6    1    1    2    0  502  0.10993157232E+03  0.48092471929E+02 -0.36311314941E+03  0.41932445161E+03  0.17200000000E+03 0. -1.
</event>
<event>
 4    1  0.5640532E+000  0.2048524E+03  0.7818608E-02  0.1145708E+00
         21   -1    0    0  501  502  0.00000000000E+00  0.00000000000E+00  0.14355226271E+03  0.14355226271E+03  0.00000000000E+00 0. -1.
         21   -1    0    0  502  503 -0.00000000000E+00 -0.00000000000E+00 -0.58474895930E+03  0.58474895930E+03  0.00000000000E+00 0. -1.
          6    1    1    2  501    0 -0.80958517090E+02 -0.76329784671E+02  0.36914958008E+02  0.20815194364E+03  0.17200000000E+03 0. -1.
         -6    1    1    2    0  503  0.80958517090E+02  0.76329784671E+02 -0.47811165460E+03  0.52014927836E+03  0.17200000000E+03 0. -1.
</event>
<event>
 4    1  0.5640532E+000  0.2282822E+03  0.7818608E-02  0.1127855E+00
         21   -1    0    0  503  502  0.00000000000E+00  0.00000000000E+00  0.96878032301E+03  0.96878032301E+03  0.00000000000E+00 0. -1.
         21   -1    0    0  501  503 -0.00000000000E+00 -0.00000000000E+00 -0.61618684238E+02  0.61618684238E+02  0.00000000000E+00 0. -1.
          6    1    1    2  501    0 -0.14613776353E+03  0.34241924373E+02  0.26996733346E+03  0.35354648415E+03  0.17200000000E+03 0. -1.
         -6    1    1    2    0  502  0.14613776353E+03 -0.34241924373E+02  0.63719430530E+03  0.67685252310E+03  0.17200000000E+03 0. -1.
</event>
<event>
 4    1  0.5640532E+000  0.1736510E+03  0.7818608E-02  0.1174093E+00
         21   -1    0    0  501  502  0.00000000000E+00  0.00000000000E+00  0.13450260926E+03  0.13450260926E+03  0.00000000000E+00 0. -1.
         21   -1    0    0  502  503 -0.00000000000E+00 -0.00000000000E+00 -0.47526758769E+03  0.47526758769E+03  0.00000000000E+00 0. -1.
          6    1    1    2  501    0  0.43306334131E+01  0.23492544226E+02  0.51216496371E+02  0.18104635738E+03  0.17200000000E+03 0. -1.
         -6    1    1    2    0  503 -0.43306334131E+01 -0.23492544226E+02 -0.39198147480E+03  0.42872383956E+03  0.17200000000E+03 0. -1.
</event>
<event>
 4    1  0.5640532E+000  0.1738641E+03  0.7818608E-02  0.1173877E+00
         21   -1    0    0  501  502  0.00000000000E+00  0.00000000000E+00  0.11613538867E+04  0.11613538867E+04  0.00000000000E+00 0.  1.
         21   -1    0    0  502  503 -0.00000000000E+00 -0.00000000000E+00 -0.37313109512E+02  0.37313109512E+02  0.00000000000E+00 0.  1.
          6    1    1    2  501    0 -0.17046410591E+02 -0.18818627153E+02  0.89161045912E+03  0.90840405748E+03  0.17200000000E+03 0.  1.
         -6    1    1    2    0  503  0.17046410591E+02  0.18818627153E+02  0.23243031808E+03  0.29026293873E+03  0.17200000000E+03 0.  1.
</event>
<event>
 4    1  0.5640532E+000  0.2002193E+03  0.7818608E-02  0.1149554E+00
         21   -1    0    0  503  502  0.00000000000E+00  0.00000000000E+00  0.20484040925E+03  0.20484040925E+03  0.00000000000E+00 0. -1.
         21   -1    0    0  501  503 -0.00000000000E+00 -0.00000000000E+00 -0.20655530460E+03  0.20655530460E+03  0.00000000000E+00 0.  1.
          6    1    1    2  501    0  0.10207360736E+03  0.92062395418E+01 -0.48007586490E+02  0.20589440140E+03  0.17200000000E+03 0.  1.
         -6    1    1    2    0  502 -0.10207360736E+03 -0.92062395418E+01  0.46292691141E+02  0.20550131245E+03  0.17200000000E+03 0. -1.
</event>
<event>
 4    1  0.5640532E+000  0.2529387E+03  0.7818608E-02  0.1111462E+00
         21   -1    0    0  501  502  0.00000000000E+00  0.00000000000E+00  0.15851211004E+03  0.15851211004E+03  0.00000000000E+00 0. -1.
         21   -1    0    0  502  503 -0.00000000000E+00 -0.00000000000E+00 -0.43255027136E+03  0.43255027136E+03  0.00000000000E+00 0. -1.
          6    1    1    2  501    0  0.35872860200E+02  0.18195361904E+03 -0.21345426255E+03  0.33096933964E+03  0.17200000000E+03 0.  1.
         -6    1    1    2    0  503 -0.35872860200E+02 -0.18195361904E+03 -0.60583898764E+02  0.26009304176E+03  0.17200000000E+03 0.  1.
</event>
<event>
 4    1  0.5640532E+000  0.3392194E+03  0.7818608E-02  0.1067129E+00
         21   -1    0    0  503  502  0.00000000000E+00  0.00000000000E+00  0.11891488592E+04  0.11891488592E+04  0.00000000000E+00 0. -1.
         21   -1    0    0  501  503 -0.00000000000E+00 -0.00000000000E+00 -0.99204020286E+02  0.99204020286E+02  0.00000000000E+00 0. -1.
          6    1    1    2  501    0 -0.29192982593E+03 -0.16209741067E+02  0.64594742342E+03  0.72960116009E+03  0.17200000000E+03 0. -1.
         -6    1    1    2    0  502  0.29192982593E+03  0.16209741067E+02  0.44399741553E+03  0.55875171943E+03  0.17200000000E+03 0. -1.
</event>
<event>
 4    1  0.5640532E+000  0.2260273E+03  0.7818608E-02  0.1129468E+00
         21   -1    0    0  503  502  0.00000000000E+00  0.00000000000E+00  0.63571961658E+03  0.63571961658E+03  0.00000000000E+00 0. -1.
         21   -1    0    0  501  503 -0.00000000000E+00 -0.00000000000E+00 -0.17684128628E+03  0.17684128628E+03  0.00000000000E+00 0. -1.
          6    1    1    2  501    0  0.14662227183E+03 -0.24962368307E+01 -0.70649044679E+02  0.23681133695E+03  0.17200000000E+03 0. -1.
         -6    1    1    2    0  502 -0.14662227183E+03  0.24962368307E+01  0.52952737498E+03  0.57574956591E+03  0.17200000000E+03 0. -1.
</event>
<event>
 4    1  0.5640532E+000  0.2847729E+03  0.7818608E-02  0.1093110E+00
         21   -1    0    0  501  502  0.00000000000E+00  0.00000000000E+00  0.56703241276E+03  0.56703241276E+03  0.00000000000E+00 0. -1.
         21   -1    0    0  502  503 -0.00000000000E+00 -0.00000000000E+00 -0.17727505682E+03  0.17727505682E+03  0.00000000000E+00 0. -1.
          6    1    1    2  501    0  0.19886508648E+03 -0.10938128330E+03  0.35847608912E+03  0.45782168388E+03  0.17200000000E+03 0. -1.
         -6    1    1    2    0  503 -0.19886508648E+03  0.10938128330E+03  0.31281266821E+02  0.28648578570E+03  0.17200000000E+03 0. -1.
</event>
<event>
 4    1  0.5640532E+000  0.1916934E+03  0.7818608E-02  0.1156943E+00
         21   -1    0    0  503  502  0.00000000000E+00  0.00000000000E+00  0.36033528167E+03  0.36033528167E+03  0.00000000000E+00 0.  1.
         21   -1    0    0  501  503 -0.00000000000E+00 -0.00000000000E+00 -0.10396939245E+03  0.10396939245E+03  0.00000000000E+00 0. -1.
          6    1    1    2  501    0 -0.41888724904E+02 -0.73537083749E+02  0.16030989473E+03  0.24989123696E+03  0.17200000000E+03 0.  1.
         -6    1    1    2    0  502  0.41888724904E+02  0.73537083749E+02  0.96055994490E+02  0.21441343717E+03  0.17200000000E+03 0. -1.
</event>
<event>
 4    1  0.5640532E+000  0.1728673E+03  0.7818608E-02  0.1174890E+00
         21   -1    0    0  503  502  0.00000000000E+00  0.00000000000E+00  0.77337670187E+03  0.77337670187E+03  0.00000000000E+00 0.  1.
         21   -1    0    0  501  503 -0.00000000000E+00 -0.00000000000E+00 -0.57848774958E+02  0.57848774958E+02  0.00000000000E+00 0.  1.
          6    1    1    2  501    0  0.16128289612E+02 -0.62437440854E+01  0.11827027008E+03  0.20945396356E+03  0.17200000000E+03 0.  1.
         -6    1    1    2    0  502 -0.16128289612E+02  0.62437440854E+01  0.59725765683E+03  0.62177151327E+03  0.17200000000E+03 0.  1.
</event>
<event>
 4    1  0.5640532E+000  0.1955859E+03  0.7818608E-02  0.1153518E+00
         21   -1    0    0  503  502  0.00000000000E+00  0.00000000000E+00  0.35988032216E+02  0.35988032216E+02  0.00000000000E+00 0.  1.
         21   -1    0    0  501  503 -0.00000000000E+00 -0.00000000000E+00 -0.16224045713E+04  0.16224045713E+04  0.00000000000E+00 0. -1.
          6    1    1    2  501    0  0.80866386476E+02 -0.46157025788E+02 -0.12801267482E+04  0.12949819824E+04  0.17200000000E+03 0. -1.
         -6    1    1    2    0  502 -0.80866386476E+02  0.46157025788E+02 -0.30628979097E+03  0.36341062112E+03  0.17200000000E+03 0. -1.
</event>
<event>
 4    1  0.5640532E+000  0.1772713E+03  0.7818608E-02  0.1170470E+00
         21   -1    0    0  503  502  0.00000000000E+00  0.00000000000E+00  0.10533556847E+04  0.10533556847E+04  0.00000000000E+00 0.  1.
         21   -1    0    0  501  503 -0.00000000000E+00 -0.00000000000E+00 -0.33819802032E+02  0.33819802032E+02  0.00000000000E+00 0.  1.
          6    1    1    2  501    0 -0.33898739794E+02 -0.26306005955E+02  0.69639615929E+03  0.71860471831E+03  0.17200000000E+03 0.  1.
         -6    1    1    2    0  502  0.33898739794E+02  0.26306005955E+02  0.32313972339E+03  0.36857076843E+03  0.17200000000E+03 0.  1.
</event>
<event>
 4    1  0.5640532E+000  0.2208137E+03  0.7818608E-02  0.1133278E+00
         21   -1    0    0  503  502  0.00000000000E+00  0.00000000000E+00  0.40535141619E+02  0.40535141619E+02  0.00000000000E+00 0. -1.
         21   -1    0    0  501  503 -0.00000000000E+00 -0.00000000000E+00 -0.12030861252E+04  0.12030861252E+04  0.00000000000E+00 0.  1.
          6    1    1    2  501    0  0.34804541995E+02 -0.13402740427E+03 -0.57303480678E+03  0.61410714947E+03  0.17200000000E+03 0.  1.
         -6    1    1    2    0  502 -0.34804541995E+02  0.13402740427E+03 -0.58951617677E+03  0.62951411732E+03  0.17200000000E+03 0. -1.
</event>
<event>
 4    1  0.5640532E+000  0.3401508E+03  0.7818608E-02  0.1066732E+00
         21   -1    0    0  501  502  0.00000000000E+00  0.00000000000E+00  0.71785435142E+03  0.71785435142E+03  0.00000000000E+00 0.  1.
         21   -1    0    0  502  503 -0.00000000000E+00 -0.00000000000E+00 -0.46536916139E+03  0.46536916139E+03  0.00000000000E+00 0. -1.
          6    1    1    2  501    0  0.12006572219E+02  0.29321396895E+03  0.60455432511E+03  0.69367753414E+03  0.17200000000E+03 0.  1.
         -6    1    1    2    0  503 -0.12006572219E+02 -0.29321396895E+03 -0.35206913508E+03  0.48954597868E+03  0.17200000000E+03 0. -1.
</event>
<event>
 4    1  0.5640532E+000  0.2184307E+03  0.7818608E-02  0.1135058E+00
         21   -1    0    0  501  502  0.00000000000E+00  0.00000000000E+00  0.57690440790E+02  0.57690440790E+02  0.00000000000E+00 0. -1.
         21   -1    0    0  502  503 -0.00000000000E+00 -0.00000000000E+00 -0.93547355780E+03  0.93547355780E+03  0.00000000000E+00 0. -1.
          6    1    1    2  501    0 -0.37240253916E+02 -0.12938749636E+03 -0.26982063697E+03  0.34715290127E+03  0.17200000000E+03 0. -1.
         -6    1    1    2    0  503  0.37240253916E+02  0.12938749636E+03 -0.60796248003E+03  0.64601109731E+03  0.17200000000E+03 0. -1.
</event>
<event>
 4    1  0.5640532E+000  0.1986186E+03  0.7818608E-02  0.1150910E+00
         21   -1    0    0  501  502  0.00000000000E+00  0.00000000000E+00  0.37186410491E+03  0.37186410491E+03  0.00000000000E+00 0. -1.
         21   -1    0    0  502  503 -0.00000000000E+00 -0.00000000000E+00 -0.11365933445E+03  0.11365933445E+03  0.00000000000E+00 0. -1.
          6    1    1    2  501    0 -0.90590253000E+02 -0.40727899476E+02  0.19176927755E+03  0.27608841255E+03  0.17200000000E+03 0.  1.
         -6    1    1    2    0  503  0.90590253000E+02  0.40727899476E+02  0.66435492912E+02  0.20943502681E+03  0.17200000000E+03 0.  1.
</event>
<event>
 4    1  0.5640532E+000  0.2181899E+03  0.7818608E-02  0.1135240E+00
         21   -1    0    0  501  502  0.00000000000E+00  0.00000000000E+00  0.47550113752E+02  0.47550113752E+02  0.00000000000E+00 0. -1.
         21   -1    0    0  502  503 -0.00000000000E+00 -0.00000000000E+00 -0.10199751866E+04  0.10199751866E+04  0.00000000000E+00 0.  1.
          6    1    1    2  501    0 -0.44700290271E+02  0.12658880113E+03 -0.41378118663E+03  0.46778382927E+03  0.17200000000E+03 0. -1.
         -6    1    1    2    0  503  0.44700290271E+02 -0.12658880113E+03 -0.55864388622E+03  0.59974147108E+03  0.17200000000E+03 0.  1.
</event>
<event>
 4    1  0.5640532E+000  0.2130778E+03  0.7818608E-02  0.1139152E+00
         21   -1    0    0  501  502  0.00000000000E+00  0.00000000000E+00  0.45935702838E+03  0.45935702838E+03  0.00000000000E+00 0.  1.
         21   -1    0    0  502  503 -0.00000000000E+00 -0.00000000000E+00 -0.10818260274E+03  0.10818260274E+03  0.00000000000E+00 0.  1.
          6    1    1    2  501    0 -0.81504246023E+01  0.12550586127E+03  0.25898542557E+03  0.33537382320E+03  0.17200000000E+03 0. -1.
         -6    1    1    2    0  503  0.81504246023E+01 -0.12550586127E+03  0.92189000070E+02  0.23216580792E+03  0.17200000000E+03 0. -1.
</event>
<event>
 4    1  0.5640532E+000  0.2401908E+03  0.7818608E-02  0.1119666E+00
         21   -1    0    0  501  502  0.00000000000E+00  0.00000000000E+00  0.45219681461E+03  0.45219681461E+03  0.00000000000E+00 0.  1.
         21   -1    0    0  502  503 -0.00000000000E+00 -0.00000000000E+00 -0.15951846711E+03  0.15951846711E+03  0.00000000000E+00 0. -1.
          6    1    1    2  501    0  0.70056490471E+02 -0.15231444069E+03  0.28319582422E+03  0.37133741470E+03  0.17200000000E+03 0.  1.
         -6    1    1    2    0  503 -0.70056490471E+02  0.15231444069E+03  0.94825232778E+01  0.24037786701E+03  0.17200000000E+03 0. -1.
</event>
<event>
 4    1  0.5640532E+000  0.2574878E+03  0.7818608E-02  0.1108662E+00
         21   -1    0    0  501  502  0.00000000000E+00  0.00000000000E+00  0.41711792029E+03  0.41711792029E+03  0.00000000000E+00 0. -1.
         21   -1    0    0  502  503 -0.00000000000E+00 -0.00000000000E+00 -0.22463521819E+03  0.22463521819E+03  0.00000000000E+00 0. -1.
          6    1    1    2  501    0 -0.90972694117E+02  0.16864137353E+03  0.26975771212E+03  0.37291978654E+03  0.17200000000E+03 0. -1.
         -6    1    1    2    0  503  0.90972694117E+02 -0.16864137353E+03 -0.77275010019E+02  0.26883335194E+03  0.17200000000E+03 0. -1.
</event>
<event>
 4    1  0.5640532E+000  0.2064521E+03  0.7818608E-02  0.1144407E+00
         21   -1    0    0  503  502  0.00000000000E+00  0.00000000000E+00  0.94688360668E+03  0.94688360668E+03  0.00000000000E+00 0. -1.
         21   -1    0    0  501  503 -0.00000000000E+00 -0.00000000000E+00 -0.10237188628E+03  0.10237188628E+03  0.00000000000E+00 0.  1.
          6    1    1    2  501    0  0.10898288132E+03 -0.34076637398E+02  0.29557033699E+02  0.20855719570E+03  0.17200000000E+03 0.  1.
         -6    1    1    2    0  502 -0.10898288132E+03  0.34076637398E+02  0.81495468670E+03  0.84069829726E+03  0.17200000000E+03 0. -1.
</event>
<event>
 4    1  0.5640532E+000  0.2208051E+03  0.7818608E-02  0.1133284E+00
         21   -1    0    0  503  502  0.00000000000E+00  0.00000000000E+00  0.88886193174E+02  0.88886193174E+02  0.00000000000E+00 0. -1.
         21   -1    0    0  501  503 -0.00000000000E+00 -0.00000000000E+00 -0.60059359896E+03  0.60059359896E+03  0.00000000000E+00 0.  1.
          6    1    1    2  501    0 -0.83087608203E+02 -0.11075799744E+03 -0.35737461191E+03  0.42008510789E+03  0.17200000000E+03 0. -1.
         -6    1    1    2    0  502  0.83087608203E+02  0.11075799744E+03 -0.15433279387E+03  0.26939468424E+03  0.17200000000E+03 0.  1.
</event>
<event>
 4    1  0.5640532E+000  0.1969378E+03  0.7818608E-02  0.1152349E+00
         21   -1    0    0  501  502  0.00000000000E+00  0.00000000000E+00  0.19560385734E+03  0.19560385734E+03  0.00000000000E+00 0. -1.
         21   -1    0    0  502  503 -0.00000000000E+00 -0.00000000000E+00 -0.23942478754E+03  0.23942478754E+03  0.00000000000E+00 0. -1.
          6    1    1    2  501    0 -0.54832828342E+02 -0.78700977811E+02 -0.11207934287E+03  0.22659713606E+03  0.17200000000E+03 0. -1.
         -6    1    1    2    0  503  0.54832828342E+02  0.78700977811E+02  0.68258412670E+02  0.20843150883E+03  0.17200000000E+03 0. -1.
</event>
<event>
 4    1  0.5640532E+000  0.1734988E+03  0.7818608E-02  0.1174248E+00
         21   -1    0    0  501  502  0.00000000000E+00  0.00000000000E+00  0.32266921639E+02  0.32266921639E+02  0.00000000000E+00 0.  1.
         21   -1    0    0  502  503 -0.00000000000E+00 -0.00000000000E+00 -0.15044680601E+04  0.15044680601E+04  0.00000000000E+00 0.  1.
          6    1    1    2  501    0  0.19473262974E+02 -0.11773913363E+02 -0.26250109129E+03  0.31465640934E+03  0.17200000000E+03 0.  1.
         -6    1    1    2    0  503 -0.19473262974E+02  0.11773913363E+02 -0.12097000472E+04  0.12220785724E+04  0.17200000000E+03 0.  1.
</event>
<event>
 4    1  0.5640532E+000  0.1984728E+03  0.7818608E-02  0.1151034E+00
         21   -1    0    0  501  502  0.00000000000E+00  0.00000000000E+00  0.45997291715E+02  0.45997291715E+02  0.00000000000E+00 0. -1.
         21   -1    0    0  502  503 -0.00000000000E+00 -0.00000000000E+00 -0.85639195129E+03  0.85639195129E+03  0.00000000000E+00 0.  1.
          6    1    1    2  501    0  0.23951876744E+02  0.96092380503E+02 -0.40638385641E+03  0.45226018700E+03  0.17200000000E+03 0. -1.
         -6    1    1    2    0  503 -0.23951876744E+02 -0.96092380503E+02 -0.40401080316E+03  0.45012905601E+03  0.17200000000E+03 0.  1.
</event>
<event>
 4    1  0.5640532E+000  0.2014517E+03  0.7818608E-02  0.1148520E+00
         21   -1    0    0  503  502  0.00000000000E+00  0.00000000000E+00  0.31513572219E+03  0.31513572219E+03  0.00000000000E+00 0. -1.
         21   -1    0    0  501  503 -0.00000000000E+00 -0.00000000000E+00 -0.14157025494E+03  0.14157025494E+03  0.00000000000E+00 0.  1.
          6    1    1    2  501    0  0.58607609387E+02 -0.86970851635E+02  0.18142034055E+02  0.20226693826E+03  0.17200000000E+03 0.  1.
         -6    1    1    2    0  502 -0.58607609387E+02  0.86970851635E+02  0.15542343320E+03  0.25443903887E+03  0.17200000000E+03 0.  1.
</event>
<event>
 4    1  0.5640532E+000  0.2042756E+03  0.7818608E-02  0.1146181E+00
         21   -1    0    0  501  502  0.00000000000E+00  0.00000000000E+00  0.31728011436E+03  0.31728011436E+03  0.00000000000E+00 0. -1.
         21   -1    0    0  502  503 -0.00000000000E+00 -0.00000000000E+00 -0.13663158148E+03  0.13663158148E+03  0.00000000000E+00 0. -1.
          6    1    1    2  501    0 -0.67594005121E+02  0.87037809928E+02  0.13422417927E+03  0.24442720836E+03  0.17200000000E+03 0. -1.
         -6    1    1    2    0  503  0.67594005121E+02 -0.87037809928E+02  0.46424353609E+02  0.20948448748E+03  0.17200000000E+03 0. -1.
</event>
<event>
 4    1  0.5640532E+000  0.1989309E+03  0.7818608E-02  0.1150644E+00
         21   -1    0    0  503  502  0.00000000000E+00  0.00000000000E+00  0.10489293543E+03  0.10489293543E+03  0.00000000000E+00 0.  1.
         21   -1    0    0  501  503 -0.00000000000E+00 -0.00000000000E+00 -0.43954694652E+03  0.43954694652E+03  0.00000000000E+00 0. -1.
          6    1    1    2  501    0 -0.17167964906E+02  0.98461963958E+02 -0.64864960727E+02  0.20923900328E+03  0.17200000000E+03 0.  1.
         -6    1    1    2    0  502  0.17167964906E+02 -0.98461963958E+02 -0.26978905036E+03  0.33520087867E+03  0.17200000000E+03 0. -1.
</event>
<event>
 4    1  0.5640532E+000  0.1769513E+03  0.7818608E-02  0.1170787E+00
         21   -1    0    0  501  502  0.00000000000E+00  0.00000000000E+00  0.44092021514E+03  0.44092021514E+03  0.00000000000E+00 0. -1.
         21   -1    0    0  502  503 -0.00000000000E+00 -0.00000000000E+00 -0.12655934750E+03  0.12655934750E+03  0.00000000000E+00 0. -1.
          6    1    1    2  501    0 -0.20944026924E+02  0.35904317284E+02  0.34515306412E+03  0.38786906287E+03  0.17200000000E+03 0. -1.
         -6    1    1    2    0  503  0.20944026924E+02 -0.35904317284E+02 -0.30792196480E+02  0.17961049977E+03  0.17200000000E+03 0. -1.
</event>
<event>
 4    1  0.5640532E+000  0.1839075E+03  0.7818608E-02  0.1164074E+00
         21   -1    0    0  503  502  0.00000000000E+00  0.00000000000E+00  0.77537080069E+03  0.77537080069E+03  0.00000000000E+00 0.  1.
         21   -1    0    0  501  503 -0.00000000000E+00 -0.00000000000E+00 -0.12643157376E+03  0.12643157376E+03  0.00000000000E+00 0.  1.
          6    1    1    2  501    0 -0.64267860846E+02 -0.10374232208E+02 -0.40450736995E+02  0.18830359730E+03  0.17200000000E+03 0.  1.
         -6    1    1    2    0  502  0.64267860846E+02  0.10374232208E+02  0.68938996393E+03  0.71349877716E+03  0.17200000000E+03 0.  1.
</event>
<event>
 4    1  0.5640532E+000  0.1744456E+03  0.7818608E-02  0.1173290E+00
         21   -1    0    0  503  502  0.00000000000E+00  0.00000000000E+00  0.22739777878E+02  0.22739777878E+02  0.00000000000E+00 0. -1.
         21   -1    0    0  501  503 -0.00000000000E+00 -0.00000000000E+00 -0.13389231325E+04  0.13389231325E+04  0.00000000000E+00 0. -1.
          6    1    1    2  501    0  0.19922752703E+02 -0.21221468517E+02 -0.67347689173E+03  0.69570280329E+03  0.17200000000E+03 0.  1.
         -6    1    1    2    0  502 -0.19922752703E+02  0.21221468517E+02 -0.64270646292E+03  0.66596010712E+03  0.17200000000E+03 0.  1.
</event>
<event>
 4    1  0.5640532E+000  0.2959877E+03  0.7818608E-02  0.1087264E+00
         21   -1    0    0  501  502  0.00000000000E+00  0.00000000000E+00  0.22864624150E+04  0.22864624150E+04  0.00000000000E+00 0.  1.
         21   -1    0    0  502  503 -0.00000000000E+00 -0.00000000000E+00 -0.39706449383E+02  0.39706449383E+02  0.00000000000E+00 0. -1.
          6    1    1    2  501    0  0.11229939911E+02 -0.24062129335E+03  0.13410064237E+04  0.13732832726E+04  0.17200000000E+03 0.  1.
         -6    1    1    2    0  503 -0.11229939911E+02  0.24062129335E+03  0.90574954190E+03  0.95288559178E+03  0.17200000000E+03 0. -1.
</event>
<event>
 4    1  0.5640532E+000  0.2077968E+03  0.7818608E-02  0.1143323E+00
         21   -1    0    0  501  502  0.00000000000E+00  0.00000000000E+00  0.10679778108E+03  0.10679778108E+03  0.00000000000E+00 0.  1.
         21   -1    0    0  502  503 -0.00000000000E+00 -0.00000000000E+00 -0.12617444583E+04  0.12617444583E+04  0.00000000000E+00 0.  1.
          6    1    1    2  501    0  0.78421980212E+02 -0.86287226743E+02 -0.13390638562E+02  0.20822776395E+03  0.17200000000E+03 0.  1.
         -6    1    1    2    0  503 -0.78421980212E+02  0.86287226743E+02 -0.11415560387E+04  0.11603144755E+04  0.17200000000E+03 0.  1.
</event>
<event>
 4    1  0.5640532E+000  0.1898094E+03  0.7818608E-02  0.1158633E+00
         21   -1    0    0  503  502  0.00000000000E+00  0.00000000000E+00  0.92625154876E+03  0.92625154876E+03  0.00000000000E+00 0. -1.
         21   -1    0    0  501  503 -0.00000000000E+00 -0.00000000000E+00 -0.24153515861E+03  0.24153515861E+03  0.00000000000E+00 0. -1.
          6    1    1    2  501    0 -0.30780815471E+02  0.74136072902E+02 -0.19245841038E+03  0.27031066503E+03  0.17200000000E+03 0. -1.
         -6    1    1    2    0  502  0.30780815471E+02 -0.74136072902E+02  0.87717480052E+03  0.89747604234E+03  0.17200000000E+03 0. -1.
</event>
<event>
 4    1  0.5640532E+000  0.2580752E+03  0.7818608E-02  0.1108305E+00
         21   -1    0    0  501  502  0.00000000000E+00  0.00000000000E+00  0.18251419163E+03  0.18251419163E+03  0.00000000000E+00 0.  1.
         21   -1    0    0  502  503 -0.00000000000E+00 -0.00000000000E+00 -0.63977251484E+03  0.63977251484E+03  0.00000000000E+00 0. -1.
          6    1    1    2  501    0 -0.18607183390E+03 -0.48949627347E+02  0.40853964939E+02  0.26128880542E+03  0.17200000000E+03 0.  1.
         -6    1    1    2    0  503  0.18607183390E+03  0.48949627347E+02 -0.49811228815E+03  0.56099790106E+03  0.17200000000E+03 0. -1.
</event>
<event>
 4    1  0.5640532E+000  0.1777455E+03  0.7818608E-02  0.1170003E+00
         21   -1    0    0  501  502  0.00000000000E+00  0.00000000000E+00  0.14773961086E+03  0.14773961086E+03  0.00000000000E+00 0. -1.
         21   -1    0    0  502  503 -0.00000000000E+00 -0.00000000000E+00 -0.22452417420E+03  0.22452417420E+03  0.00000000000E+00 0. -1.
          6    1    1    2  501    0  0.12154413642E+02  0.43147671005E+02 -0.78984974478E+02  0.19450469783E+03  0.17200000000E+03 0.  1.
         -6    1    1    2    0  503 -0.12154413642E+02 -0.43147671005E+02  0.22004111400E+01  0.17775908723E+03  0.17200000000E+03 0.  1.
</event>
<event>
 4    1  0.5640532E+000  0.2549874E+03  0.7818608E-02  0.1110193E+00
         21   -1    0    0  503  502  0.00000000000E+00  0.00000000000E+00  0.98950096626E+03  0.98950096626E+03  0.00000000000E+00 0. -1.
         21   -1    0    0  501  503 -0.00000000000E+00 -0.00000000000E+00 -0.71789337943E+02  0.71789337943E+02  0.00000000000E+00 0. -1.
          6    1    1    2  501    0 -0.13776707421E+02 -0.18773597073E+03  0.30441677479E+03  0.39709969170E+03  0.17200000000E+03 0.  1.
         -6    1    1    2    0  502  0.13776707421E+02  0.18773597073E+03  0.61329485353E+03  0.66419061250E+03  0.17200000000E+03 0.  1.
</event>
<event>
 4    1  0.5640532E+000  0.1739808E+03  0.7818608E-02  0.1173759E+00
         21   -1    0    0  503  502  0.00000000000E+00  0.00000000000E+00  0.10563225096E+04  0.10563225096E+04  0.00000000000E+00 0.  1.
         21   -1    0    0  501  503 -0.00000000000E+00 -0.00000000000E+00 -0.19955090526E+03  0.19955090526E+03  0.00000000000E+00 0.  1.
          6    1    1    2  501    0 -0.23710830243E+02 -0.11095074455E+02 -0.15271889845E+03  0.23150025074E+03  0.17200000000E+03 0.  1.
         -6    1    1    2    0  502  0.23710830243E+02  0.11095074455E+02  0.10094905028E+04  0.10243731642E+04  0.17200000000E+03 0.  1.
</event>
<event>
 4    1  0.5640532E+000  0.2604431E+03  0.7818608E-02  0.1106877E+00
         21   -1    0    0  501  502  0.00000000000E+00  0.00000000000E+00  0.16199319387E+03  0.16199319387E+03  0.00000000000E+00 0.  1.
         21   -1    0    0  502  503 -0.00000000000E+00 -0.00000000000E+00 -0.41929546600E+03  0.41929546600E+03  0.00000000000E+00 0. -1.
          6    1    1    2  501    0 -0.90222409201E+02  0.17351233622E+03 -0.11793139902E+03  0.28589933336E+03  0.17200000000E+03 0. -1.
         -6    1    1    2    0  503  0.90222409201E+02 -0.17351233622E+03 -0.13937087311E+03  0.29538932651E+03  0.17200000000E+03 0. -1.
</event>
<event>
 4    1  0.5640532E+000  0.4118406E+03  0.7818608E-02  0.1039755E+00
         21   -1    0    0  503  502  0.00000000000E+00  0.00000000000E+00  0.79029158315E+02  0.79029158315E+02  0.00000000000E+00 0.  1.
         21   -1    0    0  501  503 -0.00000000000E+00 -0.00000000000E+00 -0.25726233774E+04  0.25726233774E+04  0.00000000000E+00 0. -1.
          6    1    1    2  501    0  0.34567149013E+03  0.14331758088E+03 -0.17865772468E+04  0.18334314732E+04  0.17200000000E+03 0. -1.
         -6    1    1    2    0  502 -0.34567149013E+03 -0.14331758088E+03 -0.70701697230E+03  0.81822106255E+03  0.17200000000E+03 0.  1.
</event>
<event>
 4    1  0.5640532E+000  0.2374025E+03  0.7818608E-02  0.1121535E+00
         21   -1    0    0  503  502  0.00000000000E+00  0.00000000000E+00  0.21850132090E+03  0.21850132090E+03  0.00000000000E+00 0.  1.
         21   -1    0    0  501  503 -0.00000000000E+00 -0.00000000000E+00 -0.30113734846E+03  0.30113734846E+03  0.00000000000E+00 0.  1.
          6    1    1    2  501    0 -0.73902562083E+02 -0.14599431542E+03  0.57088681058E+02  0.24417011759E+03  0.17200000000E+03 0.  1.
         -6    1    1    2    0  502  0.73902562083E+02  0.14599431542E+03 -0.13972470861E+03  0.27546855177E+03  0.17200000000E+03 0.  1.
</event>
<event>
 4    1  0.5640532E+000  0.1999449E+03  0.7818608E-02  0.1149785E+00
         21   -1    0    0  501  502  0.00000000000E+00  0.00000000000E+00  0.57356102429E+02  0.57356102429E+02  0.00000000000E+00 0. -1.
         21   -1    0    0  502  503 -0.00000000000E+00 -0.00000000000E+00 -0.86646883855E+03  0.86646883855E+03  0.00000000000E+00 0. -1.
          6    1    1    2  501    0  0.10001925150E+03  0.19751671749E+02 -0.20028344331E+03  0.28300430539E+03  0.17200000000E+03 0. -1.
         -6    1    1    2    0  503 -0.10001925150E+03 -0.19751671749E+02 -0.60882929282E+03  0.64082063559E+03  0.17200000000E+03 0. -1.
</event>
<event>
 4    1  0.5640532E+000  0.1885454E+03  0.7818608E-02  0.1159780E+00
         21   -1    0    0  503  502  0.00000000000E+00  0.00000000000E+00  0.50802734441E+03  0.50802734441E+03  0.00000000000E+00 0. -1.
         21   -1    0    0  501  503 -0.00000000000E+00 -0.00000000000E+00 -0.91101359147E+02  0.91101359147E+02  0.00000000000E+00 0. -1.
          6    1    1    2  501    0 -0.77189251666E+02 -0.26835224961E+01  0.64206083026E+02  0.19917781745E+03  0.17200000000E+03 0. -1.
         -6    1    1    2    0  502  0.77189251666E+02  0.26835224961E+01  0.35271990224E+03  0.39995088611E+03  0.17200000000E+03 0. -1.
</event>
<event>
 4    1  0.5640532E+000  0.1760990E+03  0.7818608E-02  0.1171633E+00
         21   -1    0    0  501  502  0.00000000000E+00  0.00000000000E+00  0.60657506797E+02  0.60657506797E+02  0.00000000000E+00 0.  1.
         21   -1    0    0  502  503 -0.00000000000E+00 -0.00000000000E+00 -0.10434335965E+04  0.10434335965E+04  0.00000000000E+00 0.  1.
          6    1    1    2  501    0 -0.17820868449E+02  0.33305948457E+02 -0.97134926011E+02  0.20111206678E+03  0.17200000000E+03 0.  1.
         -6    1    1    2    0  503  0.17820868449E+02 -0.33305948457E+02 -0.88564116364E+03  0.90297903647E+03  0.17200000000E+03 0.  1.
</event>
<event>
 4    1  0.5640532E+000  0.1846171E+03  0.7818608E-02  0.1163408E+00
         21   -1    0    0  501  502  0.00000000000E+00  0.00000000000E+00  0.42850593541E+03  0.42850593541E+03  0.00000000000E+00 0.  1.
         21   -1    0    0  502  503 -0.00000000000E+00 -0.00000000000E+00 -0.89281018591E+02  0.89281018591E+02  0.00000000000E+00 0. -1.
          6    1    1    2  501    0  0.42413099910E+02 -0.51967389558E+02  0.25512652514E+03  0.31491748832E+03  0.17200000000E+03 0. -1.
         -6    1    1    2    0  503 -0.42413099910E+02  0.51967389558E+02  0.84098391678E+02  0.20286946568E+03  0.17200000000E+03 0. -1.
</event>
<event>
 4    1  0.5640532E+000  0.2377821E+03  0.7818608E-02  0.1121279E+00
         21   -1    0    0  501  502  0.00000000000E+00  0.00000000000E+00  0.15424127544E+03  0.15424127544E+03  0.00000000000E+00 0.  1.
         21   -1    0    0  502  503 -0.00000000000E+00 -0.00000000000E+00 -0.36831962407E+03  0.36831962407E+03  0.00000000000E+00 0. -1.
          6    1    1    2  501    0  0.13843938835E+03  0.88265872804E+02 -0.12504375407E+03  0.26865641436E+03  0.17200000000E+03 0. -1.
         -6    1    1    2    0  503 -0.13843938835E+03 -0.88265872804E+02 -0.89034594560E+02  0.25390448514E+03  0.17200000000E+03 0. -1.
</event>
<event>
 4    1  0.5640532E+000  0.1950186E+03  0.7818608E-02  0.1154011E+00
         21   -1    0    0  501  502  0.00000000000E+00  0.00000000000E+00  0.23450245219E+03  0.23450245219E+03  0.00000000000E+00 0. -1.
         21   -1    0    0  502  503 -0.00000000000E+00 -0.00000000000E+00 -0.16486559761E+03  0.16486559761E+03  0.00000000000E+00 0. -1.
          6    1    1    2  501    0  0.80867587309E+02  0.43688395748E+02  0.60291406863E+02  0.20412568761E+03  0.17200000000E+03 0. -1.
         -6    1    1    2    0  503 -0.80867587309E+02 -0.43688395748E+02  0.93454477179E+01  0.19524236219E+03  0.17200000000E+03 0. -1.
</event>
<event>
 4    1  0.5640532E+000  0.1880914E+03  0.7818608E-02  0.1160194E+00
         21   -1    0    0  503  502  0.00000000000E+00  0.00000000000E+00  0.50394460762E+03  0.50394460762E+03  0.00000000000E+00 0. -1.
         21   -1    0    0  501  503 -0.00000000000E+00 -0.00000000000E+00 -0.27156726852E+03  0.27156726852E+03  0.00000000000E+00 0.  1.
          6    1    1    2  501    0  0.77543471464E+01 -0.75724887882E+02 -0.21770718258E+03  0.28770611028E+03  0.17200000000E+03 0.  1.
         -6    1    1    2    0  502 -0.77543471464E+01  0.75724887882E+02  0.45008452169E+03  0.48780576586E+03  0.17200000000E+03 0. -1.
</event>
<event>
 4    1  0.5640532E+000  0.2132685E+03  0.7818608E-02  0.1139004E+00
         21   -1    0    0  503  502  0.00000000000E+00  0.00000000000E+00  0.39166230430E+03  0.39166230430E+03  0.00000000000E+00 0. -1.
         21   -1    0    0  501  503 -0.00000000000E+00 -0.00000000000E+00 -0.11865010274E+03  0.11865010274E+03  0.00000000000E+00 0. -1.
          6    1    1    2  501    0  0.10875075147E+03  0.63817838458E+02  0.99314283939E+02  0.23525894126E+03  0.17200000000E+03 0. -1.
         -6    1    1    2    0  502 -0.10875075147E+03 -0.63817838458E+02  0.17369791763E+03  0.27505346578E+03  0.17200000000E+03 0. -1.
</event>
<event>
 4    1  0.5640532E+000  0.3146145E+03  0.7818608E-02  0.1078155E+00
         21   -1    0    0  503  502  0.00000000000E+00  0.00000000000E+00  0.15349932802E+04  0.15349932802E+04  0.00000000000E+00 0.  1.
         21   -1    0    0  501  503 -0.00000000000E+00 -0.00000000000E+00 -0.10751501634E+03  0.10751501634E+03  0.00000000000E+00 0. -1.
          6    1    1    2  501    0  0.25901033677E+03  0.48082790308E+02  0.19418061980E+03  0.36971397374E+03  0.17200000000E+03 0. -1.
         -6    1    1    2    0  502 -0.25901033677E+03 -0.48082790308E+02  0.12332976441E+04  0.12727943228E+04  0.17200000000E+03 0.  1.
</event>
<event>
 4    1  0.5640532E+000  0.2128845E+03  0.7818608E-02  0.1139302E+00
         21   -1    0    0  503  502  0.00000000000E+00  0.00000000000E+00  0.12246527364E+03  0.12246527364E+03  0.00000000000E+00 0. -1.
         21   -1    0    0  501  503 -0.00000000000E+00 -0.00000000000E+00 -0.37076340159E+03  0.37076340159E+03  0.00000000000E+00 0. -1.
          6    1    1    2  501    0 -0.95616699372E+02 -0.81198782748E+02 -0.11342589309E+03  0.24121614528E+03  0.17200000000E+03 0. -1.
         -6    1    1    2    0  502  0.95616699372E+02  0.81198782748E+02 -0.13487223486E+03  0.25201252995E+03  0.17200000000E+03 0. -1.
</event>
<event>
 4    1  0.5640532E+000  0.1776151E+03  0.7818608E-02  0.1170131E+00
         21   -1    0    0  501  502  0.00000000000E+00  0.00000000000E+00  0.41859787553E+03  0.41859787553E+03  0.00000000000E+00 0.  1.
         21   -1    0    0  502  503 -0.00000000000E+00 -0.00000000000E+00 -0.85857823722E+02  0.85857823722E+02  0.00000000000E+00 0.  1.
          6    1    1    2  501    0  0.34958039243E+02 -0.27222566831E+02  0.25455078224E+03  0.31039206400E+03  0.17200000000E+03 0.  1.
         -6    1    1    2    0  503 -0.34958039243E+02  0.27222566831E+02  0.78189269565E+02  0.19406363525E+03  0.17200000000E+03 0.  1.
</event>
<event>
 4    1  0.5640532E+000  0.1778365E+03  0.7818608E-02  0.1169913E+00
         21   -1    0    0  501  502  0.00000000000E+00  0.00000000000E+00  0.23720504214E+03  0.23720504214E+03  0.00000000000E+00 0.  1.
         21   -1    0    0  502  503 -0.00000000000E+00 -0.00000000000E+00 -0.15938499471E+03  0.15938499471E+03  0.00000000000E+00 0. -1.
          6    1    1    2  501    0 -0.35517886661E+02  0.27934027417E+02  0.11908868703E+03  0.21402790832E+03  0.17200000000E+03 0.  1.
         -6    1    1    2    0  503  0.35517886661E+02 -0.27934027417E+02 -0.41268639600E+02  0.18256212853E+03  0.17200000000E+03 0. -1.
</event>
<event>
 4    1  0.5640532E+000  0.1852992E+03  0.7818608E-02  0.1162771E+00
         21   -1    0    0  501  502  0.00000000000E+00  0.00000000000E+00  0.11345978881E+03  0.11345978881E+03  0.00000000000E+00 0.  1.
         21   -1    0    0  502  503 -0.00000000000E+00 -0.00000000000E+00 -0.81058435419E+03  0.81058435419E+03  0.00000000000E+00 0.  1.
          6    1    1    2  501    0 -0.64133465990E+02 -0.25272395578E+02  0.17182377819E+02  0.18609414162E+03  0.17200000000E+03 0.  1.
         -6    1    1    2    0  503  0.64133465990E+02  0.25272395578E+02 -0.71430694320E+03  0.73795000138E+03  0.17200000000E+03 0.  1.
</event>
<event>
 4    1  0.5640532E+000  0.1906733E+03  0.7818608E-02  0.1157855E+00
         21   -1    0    0  503  502  0.00000000000E+00  0.00000000000E+00  0.64727755676E+03  0.64727755676E+03  0.00000000000E+00 0.  1.
         21   -1    0    0  501  503 -0.00000000000E+00 -0.00000000000E+00 -0.59016248960E+02  0.59016248960E+02  0.00000000000E+00 0.  1.
          6    1    1    2  501    0  0.70220234767E+02 -0.42911933986E+02  0.21654970575E+03  0.28853091777E+03  0.17200000000E+03 0. -1.
         -6    1    1    2    0  502 -0.70220234767E+02  0.42911933986E+02  0.37171160205E+03  0.41776288795E+03  0.17200000000E+03 0. -1.
</event>
<event>
 4    1  0.5640532E+000  0.2635662E+03  0.7818608E-02  0.1105019E+00
         21   -1    0    0  503  502  0.00000000000E+00  0.00000000000E+00  0.46828567464E+02  0.46828567464E+02  0.00000000000E+00 0. -1.
         21   -1    0    0  501  503 -0.00000000000E+00 -0.00000000000E+00 -0.14836478219E+04  0.14836478219E+04  0.00000000000E+00 0. -1.
          6    1    1    2  501    0 -0.13560398453E+03  0.14661068137E+03 -0.70924288813E+03  0.75663241199E+03  0.17200000000E+03 0. -1.
         -6    1    1    2    0  502  0.13560398453E+03 -0.14661068137E+03 -0.72757636636E+03  0.77384397742E+03  0.17200000000E+03 0. -1.
</event>
<event>
 4    1  0.5640532E+000  0.2105499E+03  0.7818608E-02  0.1141131E+00
         21   -1    0    0  501  502  0.00000000000E+00  0.00000000000E+00  0.86146886867E+03  0.86146886867E+03  0.00000000000E+00 0. -1.
         21   -1    0    0  502  503 -0.00000000000E+00 -0.00000000000E+00 -0.51493309865E+02  0.51493309865E+02  0.00000000000E+00 0. -1.
          6    1    1    2  501    0 -0.11507067909E+03 -0.38807435350E+02  0.39339600674E+03  0.44619692552E+03  0.17200000000E+03 0. -1.
         -6    1    1    2    0  503  0.11507067909E+03  0.38807435350E+02  0.41657955207E+03  0.46676525302E+03  0.17200000000E+03 0. -1.
</event>
<event>
 4    1  0.5640532E+000  0.2064734E+03  0.7818608E-02  0.1144389E+00
         21   -1    0    0  503  502  0.00000000000E+00  0.00000000000E+00  0.18933357869E+03  0.18933357869E+03  0.00000000000E+00 0. -1.
         21   -1    0    0  501  503 -0.00000000000E+00 -0.00000000000E+00 -0.32740401806E+03  0.32740401806E+03  0.00000000000E+00 0. -1.
          6    1    1    2  501    0 -0.32721279875E+02 -0.10943758021E+03 -0.21341511563E+03  0.29694659065E+03  0.17200000000E+03 0. -1.
         -6    1    1    2    0  502  0.32721279875E+02  0.10943758021E+03  0.75344676262E+02  0.21979100609E+03  0.17200000000E+03 0. -1.
</event>
<event>
 4    1  0.5640532E+000  0.2269053E+03  0.7818608E-02  0.1128837E+00
         21   -1    0    0  501  502  0.00000000000E+00  0.00000000000E+00  0.12106974877E+04  0.12106974877E+04  0.00000000000E+00 0. -1.
         21   -1    0    0  502  503 -0.00000000000E+00 -0.00000000000E+00 -0.44240188904E+02  0.44240188904E+02  0.00000000000E+00 0. -1.
          6    1    1    2  501    0 -0.14392631894E+03 -0.34456288483E+02  0.45971256767E+03  0.51266135604E+03  0.17200000000E+03 0. -1.
         -6    1    1    2    0  503  0.14392631894E+03  0.34456288483E+02  0.70674473116E+03  0.74227632060E+03  0.17200000000E+03 0. -1.
</event>
<event>
 4    1  0.5640532E+000  0.1765279E+03  0.7818608E-02  0.1171206E+00
         21   -1    0    0  503  502  0.00000000000E+00  0.00000000000E+00  0.36176785807E+02  0.36176785807E+02  0.00000000000E+00 0.  1.
         21   -1    0    0  501  503 -0.00000000000E+00 -0.00000000000E+00 -0.10871026079E+04  0.10871026079E+04  0.00000000000E+00 0.  1.
          6    1    1    2  501    0 -0.37448510135E+02  0.13255870515E+02 -0.78138400773E+03  0.80107619897E+03  0.17200000000E+03 0.  1.
         -6    1    1    2    0  502  0.37448510135E+02 -0.13255870515E+02 -0.26954181439E+03  0.32220319477E+03  0.17200000000E+03 0.  1.
</event>
<event>
 4    1  0.5640532E+000  0.1989797E+03  0.7818608E-02  0.1150603E+00
         21   -1    0    0  501  502  0.00000000000E+00  0.00000000000E+00  0.69716134351E+02  0.69716134351E+02  0.00000000000E+00 0.  1.
         21   -1    0    0  502  503 -0.00000000000E+00 -0.00000000000E+00 -0.88811276352E+03  0.88811276352E+03  0.00000000000E+00 0.  1.
          6    1    1    2  501    0 -0.99849540332E+02 -0.62436025088E+01 -0.12163577969E+03  0.23321272730E+03  0.17200000000E+03 0.  1.
         -6    1    1    2    0  503  0.99849540332E+02  0.62436025088E+01 -0.69676084949E+03  0.72461617057E+03  0.17200000000E+03 0.  1.
</event>
<event>
 4    1  0.5640532E+000  0.1965612E+03  0.7818608E-02  0.1152673E+00
         21   -1    0    0  501  502  0.00000000000E+00  0.00000000000E+00  0.23803201065E+03  0.23803201065E+03  0.00000000000E+00 0. -1.
         21   -1    0    0  502  503 -0.00000000000E+00 -0.00000000000E+00 -0.31845793647E+03  0.31845793647E+03  0.00000000000E+00 0. -1.
          6    1    1    2  501    0 -0.55137753769E+02  0.77538046703E+02  0.15461960579E+03  0.25008707098E+03  0.17200000000E+03 0. -1.
         -6    1    1    2    0  503  0.55137753769E+02 -0.77538046703E+02 -0.23504553161E+03  0.30640287614E+03  0.17200000000E+03 0. -1.
</event>
<event>
 4    1  0.5640532E+000  0.1896735E+03  0.7818608E-02  0.1158756E+00
         21   -1    0    0  503  502  0.00000000000E+00  0.00000000000E+00  0.73152405561E+02  0.73152405561E+02  0.00000000000E+00 0. -1.
         21   -1    0    0  501  503 -0.00000000000E+00 -0.00000000000E+00 -0.66933110640E+03  0.66933110640E+03  0.00000000000E+00 0. -1.
          6    1    1    2  501    0 -0.79051545637E+02  0.11954092887E+02 -0.48928528677E+03  0.52476293605E+03  0.17200000000E+03 0. -1.
         -6    1    1    2    0  502  0.79051545637E+02 -0.11954092887E+02 -0.10689341408E+03  0.21772057592E+03  0.17200000000E+03 0. -1.
</event>
<event>
 4    1  0.5640532E+000  0.2385926E+03  0.7818608E-02  0.1120734E+00
         21   -1    0    0  503  502  0.00000000000E+00  0.00000000000E+00  0.18358716249E+03  0.18358716249E+03  0.00000000000E+00 0.  1.
         21   -1    0    0  501  503 -0.00000000000E+00 -0.00000000000E+00 -0.31042692119E+03  0.31042692119E+03  0.00000000000E+00 0.  1.
          6    1    1    2  501    0  0.15365009008E+03  0.61107269976E+02 -0.71694066752E+02  0.24913146697E+03  0.17200000000E+03 0.  1.
         -6    1    1    2    0  502 -0.15365009008E+03 -0.61107269976E+02 -0.55145691956E+02  0.24488261671E+03  0.17200000000E+03 0.  1.
</event>
<event>
 4    1  0.5640532E+000  0.2838556E+03  0.7818608E-02  0.1093602E+00
         21   -1    0    0  501  502  0.00000000000E+00  0.00000000000E+00  0.61241535926E+03  0.61241535926E+03  0.00000000000E+00 0.  1.
         21   -1    0    0  502  503 -0.00000000000E+00 -0.00000000000E+00 -0.13171728690E+03  0.13171728690E+03  0.00000000000E+00 0. -1.
          6    1    1    2  501    0 -0.11684630597E+03 -0.19322763990E+03  0.22780367458E+03  0.36396221534E+03  0.17200000000E+03 0.  1.
         -6    1    1    2    0  503  0.11684630597E+03  0.19322763990E+03  0.25289439778E+03  0.38017043082E+03  0.17200000000E+03 0. -1.
</event>
<event>
 4    1  0.5640532E+000  0.2100388E+03  0.7818608E-02  0.1141535E+00
         21   -1    0    0  501  502  0.00000000000E+00  0.00000000000E+00  0.91328612280E+02  0.91328612280E+02  0.00000000000E+00 0. -1.
         21   -1    0    0  502  503 -0.00000000000E+00 -0.00000000000E+00 -0.49048708873E+03  0.49048708873E+03  0.00000000000E+00 0.  1.
          6    1    1    2  501    0 -0.31460150987E+02 -0.11637252360E+03 -0.16375829652E+03  0.26633265858E+03  0.17200000000E+03 0.  1.
         -6    1    1    2    0  503  0.31460150987E+02  0.11637252360E+03 -0.23540017992E+03  0.31548304242E+03  0.17200000000E+03 0. -1.
</event>
<event>
 4    1  0.5640532E+000  0.2383548E+03  0.7818608E-02  0.1120894E+00
         21   -1    0    0  501  502  0.00000000000E+00  0.00000000000E+00  0.19368451780E+03  0.19368451780E+03  0.00000000000E+00 0.  1.
         21   -1    0    0  502  503 -0.00000000000E+00 -0.00000000000E+00 -0.34196067051E+03  0.34196067051E+03  0.00000000000E+00 0.  1.
          6    1    1    2  501    0 -0.16430798837E+03 -0.15227632150E+02  0.26862863251E+02  0.23986373058E+03  0.17200000000E+03 0.  1.
         -6    1    1    2    0  503  0.16430798837E+03  0.15227632150E+02 -0.17513901597E+03  0.29578145773E+03  0.17200000000E+03 0.  1.
</event>
<event>
 4    1  0.5640532E+000  0.1924289E+03  0.7818608E-02  0.1156289E+00
         21   -1    0    0  501  502  0.00000000000E+00  0.00000000000E+00  0.32056451225E+03  0.32056451225E+03  0.00000000000E+00 0. -1.
         21   -1    0    0  502  503 -0.00000000000E+00 -0.00000000000E+00 -0.19573024137E+03  0.19573024137E+03  0.00000000000E+00 0. -1.
          6    1    1    2  501    0 -0.80004032747E+02  0.32314443274E+02  0.22768059278E+03  0.29810622407E+03  0.17200000000E+03 0. -1.
         -6    1    1    2    0  503  0.80004032747E+02 -0.32314443274E+02 -0.10284632190E+03  0.21818852955E+03  0.17200000000E+03 0. -1.
</event>
<event>
 4    1  0.5640532E+000  0.1722200E+03  0.7818608E-02  0.1175552E+00
         21   -1    0    0  503  502  0.00000000000E+00  0.00000000000E+00  0.13237658943E+04  0.13237658943E+04  0.00000000000E+00 0.  1.
         21   -1    0    0  501  503 -0.00000000000E+00 -0.00000000000E+00 -0.11711122992E+03  0.11711122992E+03  0.00000000000E+00 0.  1.
          6    1    1    2  501    0 -0.83837956284E+01  0.23359012169E+01 -0.44539312584E+02  0.17788618504E+03  0.17200000000E+03 0.  1.
         -6    1    1    2    0  502  0.83837956284E+01 -0.23359012169E+01  0.12511939770E+04  0.12629909392E+04  0.17200000000E+03 0.  1.
</event>
<event>
 4    1  0.5640532E+000  0.1971778E+03  0.7818608E-02  0.1152142E+00
         21   -1    0    0  501  502  0.00000000000E+00  0.00000000000E+00  0.13956421625E+04  0.13956421625E+04  0.00000000000E+00 0. -1.
         21   -1    0    0  502  503 -0.00000000000E+00 -0.00000000000E+00 -0.39749213720E+02  0.39749213720E+02  0.00000000000E+00 0.  1.
          6    1    1    2  501    0  0.52861322786E+02  0.80627424032E+02  0.10704994704E+04  0.10885073344E+04  0.17200000000E+03 0. -1.
         -6    1    1    2    0  503 -0.52861322786E+02 -0.80627424032E+02  0.28539347835E+03  0.34688404178E+03  0.17200000000E+03 0.  1.
</event>
<event>
 4    1  0.5640532E+000  0.2061985E+03  0.7818608E-02  0.1144612E+00
         21   -1    0    0  501  502  0.00000000000E+00  0.00000000000E+00  0.12682634529E+04  0.12682634529E+04  0.00000000000E+00 0. -1.
         21   -1    0    0  502  503 -0.00000000000E+00 -0.00000000000E+00 -0.15527130942E+03  0.15527130942E+03  0.00000000000E+00 0.  1.
          6    1    1    2  501    0 -0.10768736511E+03 -0.36568305154E+02  0.11867584624E+04  0.12045386908E+04  0.17200000000E+03 0. -1.
         -6    1    1    2    0  503  0.10768736511E+03  0.36568305154E+02 -0.73766318902E+02  0.21899607154E+03  0.17200000000E+03 0.  1.
</event>
<event>
 4    1  0.5640532E+000  0.2926016E+03  0.7818608E-02  0.1088999E+00
         21   -1    0    0  503  502  0.00000000000E+00  0.00000000000E+00  0.10491040014E+03  0.10491040014E+03  0.00000000000E+00 0. -1.
         21   -1    0    0  501  503 -0.00000000000E+00 -0.00000000000E+00 -0.87285472966E+03  0.87285472966E+03  0.00000000000E+00 0.  1.
          6    1    1    2  501    0 -0.74032186537E+02  0.22483539646E+03 -0.50865165880E+03  0.58680680819E+03  0.17200000000E+03 0. -1.
         -6    1    1    2    0  502  0.74032186537E+02 -0.22483539646E+03 -0.25929267073E+03  0.39095832161E+03  0.17200000000E+03 0. -1.
</event>
<event>
 4    1  0.5640532E+000  0.1799797E+03  0.7818608E-02  0.1167823E+00
         21   -1    0    0  501  502  0.00000000000E+00  0.00000000000E+00  0.13848586023E+03  0.13848586023E+03  0.00000000000E+00 0. -1.
         21   -1    0    0  502  503 -0.00000000000E+00 -0.00000000000E+00 -0.40259755766E+03  0.40259755766E+03  0.00000000000E+00 0. -1.
          6    1    1    2  501    0  0.49768140722E+02 -0.18216520812E+02  0.43067882646E+02  0.18506094125E+03  0.17200000000E+03 0. -1.
         -6    1    1    2    0  503 -0.49768140722E+02  0.18216520812E+02 -0.30717958008E+03  0.35602247665E+03  0.17200000000E+03 0. -1.
</event>
<event>
 4    1  0.5640532E+000  0.1928958E+03  0.7818608E-02  0.1155875E+00
         21   -1    0    0  501  502  0.00000000000E+00  0.00000000000E+00  0.42498183068E+03  0.42498183068E+03  0.00000000000E+00 0.  1.
         21   -1    0    0  502  503 -0.00000000000E+00 -0.00000000000E+00 -0.25134848929E+03  0.25134848929E+03  0.00000000000E+00 0.  1.
          6    1    1    2  501    0  0.24693475293E+02 -0.83755663571E+02  0.35980282199E+03  0.40824851453E+03  0.17200000000E+03 0.  1.
         -6    1    1    2    0  503 -0.24693475293E+02  0.83755663571E+02 -0.18616948061E+03  0.26808180545E+03  0.17200000000E+03 0.  1.
</event>
<event>
 4    1  0.5640532E+000  0.1921602E+03  0.7818608E-02  0.1156527E+00
         21   -1    0    0  503  502  0.00000000000E+00  0.00000000000E+00  0.39728126561E+03  0.39728126561E+03  0.00000000000E+00 0. -1.
         21   -1    0    0  501  503 -0.00000000000E+00 -0.00000000000E+00 -0.11718348445E+03  0.11718348445E+03  0.00000000000E+00 0. -1.
          6    1    1    2  501    0  0.99450540416E+01 -0.85103610777E+02  0.23061201814E+02  0.19353900820E+03  0.17200000000E+03 0. -1.
         -6    1    1    2    0  502 -0.99450540416E+01  0.85103610777E+02  0.25703657934E+03  0.32092574186E+03  0.17200000000E+03 0. -1.
</event>
<event>
 4    1  0.5640532E+000  0.1776360E+03  0.7818608E-02  0.1170111E+00
         21   -1    0    0  501  502  0.00000000000E+00  0.00000000000E+00  0.23215525045E+04  0.23215525045E+04  0.00000000000E+00 0.  1.
         21   -1    0    0  502  503 -0.00000000000E+00 -0.00000000000E+00 -0.13856388035E+02  0.13856388035E+02  0.00000000000E+00 0.  1.
          6    1    1    2  501    0 -0.22695490802E+02 -0.38150674426E+02  0.13151436806E+04  0.13270860785E+04  0.17200000000E+03 0.  1.
         -6    1    1    2    0  503  0.22695490802E+02  0.38150674426E+02  0.99255243595E+03  0.10083228141E+04  0.17200000000E+03 0.  1.
</event>
<event>
 4    1  0.5640532E+000  0.1960284E+03  0.7818608E-02  0.1153134E+00
         21   -1    0    0  503  502  0.00000000000E+00  0.00000000000E+00  0.41536367027E+02  0.41536367027E+02  0.00000000000E+00 0.  1.
         21   -1    0    0  501  503 -0.00000000000E+00 -0.00000000000E+00 -0.98521201182E+03  0.98521201182E+03  0.00000000000E+00 0. -1.
          6    1    1    2  501    0 -0.89445399689E+02 -0.29028671947E+02 -0.59859975282E+03  0.62987999444E+03  0.17200000000E+03 0. -1.
         -6    1    1    2    0  502  0.89445399689E+02  0.29028671947E+02 -0.34507589197E+03  0.39686838440E+03  0.17200000000E+03 0.  1.
</event>
<event>
 4    1  0.5640532E+000  0.1816719E+03  0.7818608E-02  0.1166195E+00
         21   -1    0    0  503  502  0.00000000000E+00  0.00000000000E+00  0.12977581333E+04  0.12977581333E+04  0.00000000000E+00 0.  1.
         21   -1    0    0  501  503 -0.00000000000E+00 -0.00000000000E+00 -0.26068836102E+02  0.26068836102E+02  0.00000000000E+00 0. -1.
          6    1    1    2  501    0  0.58333330846E+02  0.42312315114E+01  0.53239499730E+03  0.56253810001E+03  0.17200000000E+03 0. -1.
         -6    1    1    2    0  502 -0.58333330846E+02 -0.42312315114E+01  0.73929429992E+03  0.76128886942E+03  0.17200000000E+03 0. -1.
</event>
<event>
 4    1  0.5640532E+000  0.2432999E+03  0.7818608E-02  0.1117614E+00
         21   -1    0    0  503  502  0.00000000000E+00  0.00000000000E+00  0.39530727226E+03  0.39530727226E+03  0.00000000000E+00 0. -1.
         21   -1    0    0  501  503 -0.00000000000E+00 -0.00000000000E+00 -0.14975938361E+03  0.14975938361E+03  0.00000000000E+00 0. -1.
          6    1    1    2  501    0 -0.11644079764E+03 -0.12669802954E+03  0.12000221355E+03  0.27128468681E+03  0.17200000000E+03 0. -1.
         -6    1    1    2    0  502  0.11644079764E+03  0.12669802954E+03  0.12554567511E+03  0.27378196906E+03  0.17200000000E+03 0. -1.
</event>
<event>
 4    1  0.5640532E+000  0.2275259E+03  0.7818608E-02  0.1128393E+00
         21   -1    0    0  503  502  0.00000000000E+00  0.00000000000E+00  0.36793408205E+03  0.36793408205E+03  0.00000000000E+00 0. -1.
         21   -1    0    0  501  503 -0.00000000000E+00 -0.00000000000E+00 -0.26593683811E+03  0.26593683811E+03  0.00000000000E+00 0.  1.
          6    1    1    2  501    0 -0.26137772960E+02  0.14663161729E+03 -0.16649628660E+03  0.28193798576E+03  0.17200000000E+03 0.  1.
         -6    1    1    2    0  502  0.26137772960E+02 -0.14663161729E+03  0.26849353055E+03  0.35193293439E+03  0.17200000000E+03 0. -1.
</event>
<event>
 4    1  0.5640532E+000  0.2050565E+03  0.7818608E-02  0.1145542E+00
         21   -1    0    0  503  502  0.00000000000E+00  0.00000000000E+00  0.14852537444E+04  0.14852537444E+04  0.00000000000E+00 0. -1.
         21   -1    0    0  501  503 -0.00000000000E+00 -0.00000000000E+00 -0.29082200760E+02  0.29082200760E+02  0.00000000000E+00 0.  1.
          6    1    1    2  501    0  0.55258430147E+02 -0.97008656492E+02  0.60474050137E+03  0.63856029280E+03  0.17200000000E+03 0.  1.
         -6    1    1    2    0  502 -0.55258430147E+02  0.97008656492E+02  0.85143104228E+03  0.87577565238E+03  0.17200000000E+03 0.  1.
</event>
<event>
 4    1  0.5640532E+000  0.2057348E+03  0.7818608E-02  0.1144989E+00
         21   -1    0    0  501  502  0.00000000000E+00  0.00000000000E+00  0.24858871919E+03  0.24858871919E+03  0.00000000000E+00 0.  1.
         21   -1    0    0  502  503 -0.00000000000E+00 -0.00000000000E+00 -0.19339738635E+03  0.19339738635E+03  0.00000000000E+00 0. -1.
          6    1    1    2  501    0  0.11269205887E+03  0.65804933023E+01  0.10401999604E+03  0.23053625008E+03  0.17200000000E+03 0.  1.
         -6    1    1    2    0  503 -0.11269205887E+03 -0.65804933023E+01 -0.48828663197E+02  0.21144985546E+03  0.17200000000E+03 0. -1.
</event>
<event>
 4    1  0.5640532E+000  0.3398188E+03  0.7818608E-02  0.1066873E+00
         21   -1    0    0  501  502  0.00000000000E+00  0.00000000000E+00  0.29307586330E+03  0.29307586330E+03  0.00000000000E+00 0. -1.
         21   -1    0    0  502  503 -0.00000000000E+00 -0.00000000000E+00 -0.77497424732E+03  0.77497424732E+03  0.00000000000E+00 0.  1.
          6    1    1    2  501    0 -0.14198932662E+03  0.25638217798E+03  0.13346842802E+03  0.36508986748E+03  0.17200000000E+03 0. -1.
         -6    1    1    2    0  503  0.14198932662E+03 -0.25638217798E+03 -0.61536681204E+03  0.70296024313E+03  0.17200000000E+03 0.  1.
</event>
<event>
 4    1  0.5640532E+000  0.2049455E+03  0.7818608E-02  0.1145632E+00
         21   -1    0    0  501  502  0.00000000000E+00  0.00000000000E+00  0.10422096493E+03  0.10422096493E+03  0.00000000000E+00 0.  1.
         21   -1    0    0  502  503 -0.00000000000E+00 -0.00000000000E+00 -0.40529398080E+03  0.40529398080E+03  0.00000000000E+00 0.  1.
          6    1    1    2  501    0 -0.10414415315E+03  0.39656868880E+02 -0.13143544217E+03  0.24347062932E+03  0.17200000000E+03 0.  1.
         -6    1    1    2    0  503  0.10414415315E+03 -0.39656868880E+02 -0.16963757369E+03  0.26604431641E+03  0.17200000000E+03 0.  1.
</event>
<event>
 4    1  0.5640532E+000  0.1868211E+03  0.7818608E-02  0.1161360E+00
         21   -1    0    0  503  502  0.00000000000E+00  0.00000000000E+00  0.44800694094E+03  0.44800694094E+03  0.00000000000E+00 0. -1.
         21   -1    0    0  501  503 -0.00000000000E+00 -0.00000000000E+00 -0.23788698110E+03  0.23788698110E+03  0.00000000000E+00 0. -1.
          6    1    1    2  501    0 -0.52378627320E+02  0.50740599310E+02 -0.17617977271E+03  0.25679065662E+03  0.17200000000E+03 0. -1.
         -6    1    1    2    0  502  0.52378627320E+02 -0.50740599310E+02  0.38629973255E+03  0.42910326541E+03  0.17200000000E+03 0. -1.
</event>
<event>
 4    1  0.5640532E+000  0.2991914E+03  0.7818608E-02  0.1085646E+00
         21   -1    0    0  503  502  0.00000000000E+00  0.00000000000E+00  0.13682822407E+03  0.13682822407E+03  0.00000000000E+00 0.  1.
         21   -1    0    0  501  503 -0.00000000000E+00 -0.00000000000E+00 -0.74958743048E+03  0.74958743048E+03  0.00000000000E+00 0. -1.
          6    1    1    2  501    0  0.18477825882E+03  0.16058798425E+03 -0.46446820567E+03  0.55249092273E+03  0.17200000000E+03 0. -1.
         -6    1    1    2    0  502 -0.18477825882E+03 -0.16058798425E+03 -0.14829100074E+03  0.33392473182E+03  0.17200000000E+03 0.  1.
</event>
<event>
 4    1  0.5640532E+000  0.2169636E+03  0.7818608E-02  0.1136167E+00
         21   -1    0    0  503  502  0.00000000000E+00  0.00000000000E+00  0.60552153801E+02  0.60552153801E+02  0.00000000000E+00 0. -1.
         21   -1    0    0  501  503 -0.00000000000E+00 -0.00000000000E+00 -0.92089991794E+03  0.92089991794E+03  0.00000000000E+00 0.  1.
          6    1    1    2  501    0  0.12580950977E+03 -0.40757570826E+02 -0.62388721360E+03  0.66053649984E+03  0.17200000000E+03 0.  1.
         -6    1    1    2    0  502 -0.12580950977E+03  0.40757570826E+02 -0.23646055055E+03  0.32091557191E+03  0.17200000000E+03 0. -1.
</event>
<event>
 4    1  0.5640532E+000  0.2250093E+03  0.7818608E-02  0.1130203E+00
         21   -1    0    0  501  502  0.00000000000E+00  0.00000000000E+00  0.12361455988E+04  0.12361455988E+04  0.00000000000E+00 0. -1.
         21   -1    0    0  502  503 -0.00000000000E+00 -0.00000000000E+00 -0.42870722256E+02  0.42870722256E+02  0.00000000000E+00 0. -1.
          6    1    1    2  501    0  0.14334634418E+03 -0.22293471919E+02  0.46153217090E+03  0.51345994785E+03  0.17200000000E+03 0. -1.
         -6    1    1    2    0  503 -0.14334634418E+03  0.22293471919E+02  0.73174270563E+03  0.76555637318E+03  0.17200000000E+03 0. -1.
</event>
<event>
 4    1  0.5640532E+000  0.2499401E+03  0.7818608E-02  0.1113343E+00
         21   -1    0    0  503  502  0.00000000000E+00  0.00000000000E+00  0.29282187936E+03  0.29282187936E+03  0.00000000000E+00 0.  1.
         21   -1    0    0  501  503 -0.00000000000E+00 -0.00000000000E+00 -0.35178999088E+03  0.35178999088E+03  0.00000000000E+00 0.  1.
          6    1    1    2  501    0 -0.98259544198E+02  0.15241749453E+03 -0.23168174332E+03  0.34080267143E+03  0.17200000000E+03 0.  1.
         -6    1    1    2    0  502  0.98259544198E+02 -0.15241749453E+03  0.17271363181E+03  0.30380919881E+03  0.17200000000E+03 0.  1.
</event>
<event>
 4    1  0.5640532E+000  0.1883335E+03  0.7818608E-02  0.1159973E+00
         21   -1    0    0  501  502  0.00000000000E+00  0.00000000000E+00  0.14976647394E+03  0.14976647394E+03  0.00000000000E+00 0. -1.
         21   -1    0    0  502  503 -0.00000000000E+00 -0.00000000000E+00 -0.51691770234E+03  0.51691770234E+03  0.00000000000E+00 0.  1.
          6    1    1    2  501    0 -0.75270040482E+02 -0.14830127484E+02  0.61796285388E+02  0.19821274571E+03  0.17200000000E+03 0. -1.
         -6    1    1    2    0  503  0.75270040482E+02  0.14830127484E+02 -0.42894751379E+03  0.46847143057E+03  0.17200000000E+03 0.  1.
</event>
<event>
 4    1  0.5640532E+000  0.1753928E+03  0.7818608E-02  0.1172338E+00
         21   -1    0    0  501  502  0.00000000000E+00  0.00000000000E+00  0.50539273004E+03  0.50539273004E+03  0.00000000000E+00 0. -1.
         21   -1    0    0  502  503 -0.00000000000E+00 -0.00000000000E+00 -0.69365130162E+02  0.69365130162E+02  0.00000000000E+00 0. -1.
          6    1    1    2  501    0 -0.15941216513E+01 -0.34294221672E+02  0.31859127442E+03  0.36367985235E+03  0.17200000000E+03 0. -1.
         -6    1    1    2    0  503  0.15941216513E+01  0.34294221672E+02  0.11743632545E+03  0.21107800785E+03  0.17200000000E+03 0. -1.
</event>
<event>
 4    1  0.5640532E+000  0.1985706E+03  0.7818608E-02  0.1150951E+00
         21   -1    0    0  503  502  0.00000000000E+00  0.00000000000E+00  0.48794634009E+03  0.48794634009E+03  0.00000000000E+00 0.  1.
         21   -1    0    0  501  503 -0.00000000000E+00 -0.00000000000E+00 -0.89440584036E+02  0.89440584036E+02  0.00000000000E+00 0.  1.
          6    1    1    2  501    0  0.92998810533E+02 -0.34604991860E+02  0.10956706845E+03  0.22679335685E+03  0.17200000000E+03 0.  1.
         -6    1    1    2    0  502 -0.92998810533E+02  0.34604991860E+02  0.28893868761E+03  0.35059356728E+03  0.17200000000E+03 0.  1.
</event>
<event>
 4    1  0.5640532E+000  0.2212919E+03  0.7818608E-02  0.1132924E+00
         21   -1    0    0  503  502  0.00000000000E+00  0.00000000000E+00  0.35572684148E+02  0.35572684148E+02  0.00000000000E+00 0. -1.
         21   -1    0    0  501  503 -0.00000000000E+00 -0.00000000000E+00 -0.13863460535E+04  0.13863460535E+04  0.00000000000E+00 0.  1.
          6    1    1    2  501    0 -0.46364542262E+02  0.13128766926E+03 -0.61584198317E+03  0.65439397240E+03  0.17200000000E+03 0. -1.
         -6    1    1    2    0  502  0.46364542262E+02 -0.13128766926E+03 -0.73493138622E+03  0.76752476528E+03  0.17200000000E+03 0. -1.
</event>
<event>
 4    1  0.5640532E+000  0.1999296E+03  0.7818608E-02  0.1149798E+00
         21   -1    0    0  503  502  0.00000000000E+00  0.00000000000E+00  0.46979606102E+03  0.46979606102E+03  0.00000000000E+00 0.  1.
         21   -1    0    0  501  503 -0.00000000000E+00 -0.00000000000E+00 -0.85128202742E+02  0.85128202742E+02  0.00000000000E+00 0.  1.
          6    1    1    2  501    0  0.98124079139E+02  0.27558972777E+02  0.18596646264E+03  0.27304826883E+03  0.17200000000E+03 0.  1.
         -6    1    1    2    0  502 -0.98124079139E+02 -0.27558972777E+02  0.19870139564E+03  0.28187599493E+03  0.17200000000E+03 0.  1.
</event>
<event>
 4    1  0.5640532E+000  0.2031819E+03  0.7818608E-02  0.1147082E+00
         21   -1    0    0  501  502  0.00000000000E+00  0.00000000000E+00  0.22091387576E+03  0.22091387576E+03  0.00000000000E+00 0.  1.
         21   -1    0    0  502  503 -0.00000000000E+00 -0.00000000000E+00 -0.19091680088E+03  0.19091680088E+03  0.00000000000E+00 0.  1.
          6    1    1    2  501    0 -0.10623406729E+02  0.10763841524E+03 -0.14968940954E+02  0.20373255606E+03  0.17200000000E+03 0.  1.
         -6    1    1    2    0  503  0.10623406729E+02 -0.10763841524E+03  0.44966015836E+02  0.20809812057E+03  0.17200000000E+03 0.  1.
</event>
<event>
 4    1  0.5640532E+000  0.3055292E+03  0.7818608E-02  0.1082509E+00
         21   -1    0    0  501  502  0.00000000000E+00  0.00000000000E+00  0.35712671641E+03  0.35712671641E+03  0.00000000000E+00 0. -1.
         21   -1    0    0  502  503 -0.00000000000E+00 -0.00000000000E+00 -0.31447688829E+03  0.31447688829E+03  0.00000000000E+00 0.  1.
          6    1    1    2  501    0  0.23867767493E+03  0.82444283323E+02  0.15929874486E+03  0.34456375677E+03  0.17200000000E+03 0. -1.
         -6    1    1    2    0  503 -0.23867767493E+03 -0.82444283323E+02 -0.11664891673E+03  0.32703984794E+03  0.17200000000E+03 0.  1.
</event>
<event>
 4    1  0.5640532E+000  0.2414253E+03  0.7818608E-02  0.1118847E+00
         21   -1    0    0  501  502  0.00000000000E+00  0.00000000000E+00  0.93851619325E+03  0.93851619325E+03  0.00000000000E+00 0. -1.
         21   -1    0    0  502  503 -0.00000000000E+00 -0.00000000000E+00 -0.63540134723E+02  0.63540134723E+02  0.00000000000E+00 0.  1.
          6    1    1    2  501    0  0.42124044893E+02 -0.16409679157E+03  0.51279614820E+03  0.56678574591E+03  0.17200000000E+03 0. -1.
         -6    1    1    2    0  503 -0.42124044893E+02  0.16409679157E+03  0.36217991032E+03  0.43527058205E+03  0.17200000000E+03 0.  1.
</event>
<event>
 4    1  0.5640532E+000  0.2325287E+03  0.7818608E-02  0.1124873E+00
         21   -1    0    0  501  502  0.00000000000E+00  0.00000000000E+00  0.68660374673E+02  0.68660374673E+02  0.00000000000E+00 0. -1.
         21   -1    0    0  502  503 -0.00000000000E+00 -0.00000000000E+00 -0.89843984607E+03  0.89843984607E+03  0.00000000000E+00 0. -1.
          6    1    1    2  501    0  0.98823378719E+02  0.12132410835E+03 -0.24496622719E+03  0.33775442545E+03  0.17200000000E+03 0. -1.
         -6    1    1    2    0  503 -0.98823378719E+02 -0.12132410835E+03 -0.58481324421E+03  0.62934579529E+03  0.17200000000E+03 0. -1.
</event>
<event>
 4    1  0.5640532E+000  0.1822761E+03  0.7818608E-02  0.1165618E+00
         21   -1    0    0  503  502  0.00000000000E+00  0.00000000000E+00  0.46152193121E+02  0.46152193121E+02  0.00000000000E+00 0. -1.
         21   -1    0    0  501  503 -0.00000000000E+00 -0.00000000000E+00 -0.17314954499E+04  0.17314954499E+04  0.00000000000E+00 0. -1.
          6    1    1    2  501    0 -0.11683036089E+02  0.59195163915E+02 -0.15220478099E+04  0.15329233824E+04  0.17200000000E+03 0. -1.
         -6    1    1    2    0  502  0.11683036089E+02 -0.59195163915E+02 -0.16329544695E+03  0.24472426066E+03  0.17200000000E+03 0. -1.
</event>
<event>
 4    1  0.5640532E+000  0.2733347E+03  0.7818608E-02  0.1099386E+00
         21   -1    0    0  501  502  0.00000000000E+00  0.00000000000E+00  0.25216401128E+03  0.25216401128E+03  0.00000000000E+00 0. -1.
         21   -1    0    0  502  503 -0.00000000000E+00 -0.00000000000E+00 -0.64418723263E+03  0.64418723263E+03  0.00000000000E+00 0.  1.
          6    1    1    2  501    0 -0.44387248304E+02 -0.20774420382E+03 -0.52537255420E+03  0.59222310216E+03  0.17200000000E+03 0.  1.
         -6    1    1    2    0  503  0.44387248304E+02  0.20774420382E+03  0.13334933284E+03  0.30412814175E+03  0.17200000000E+03 0. -1.
</event>
<event>
 4    1  0.5640532E+000  0.2080159E+03  0.7818608E-02  0.1143147E+00
         21   -1    0    0  503  502  0.00000000000E+00  0.00000000000E+00  0.23563481321E+03  0.23563481321E+03  0.00000000000E+00 0. -1.
         21   -1    0    0  501  503 -0.00000000000E+00 -0.00000000000E+00 -0.18673750876E+03  0.18673750876E+03  0.00000000000E+00 0.  1.
          6    1    1    2  501    0 -0.74095921945E+02 -0.90534041381E+02 -0.27758425289E+01  0.20803442888E+03  0.17200000000E+03 0.  1.
         -6    1    1    2    0  502  0.74095921945E+02  0.90534041381E+02  0.51673146983E+02  0.21433789310E+03  0.17200000000E+03 0. -1.
</event>
<event>
 4    1  0.5640532E+000  0.2076931E+03  0.7818608E-02  0.1143406E+00
         21   -1    0    0  501  502  0.00000000000E+00  0.00000000000E+00  0.42558941026E+03  0.42558941026E+03  0.00000000000E+00 0.  1.
         21   -1    0    0  502  503 -0.00000000000E+00 -0.00000000000E+00 -0.10269973305E+03  0.10269973305E+03  0.00000000000E+00 0.  1.
          6    1    1    2  501    0  0.11637424363E+03  0.30727994501E+01  0.19164952693E+03  0.28260564016E+03  0.17200000000E+03 0.  1.
         -6    1    1    2    0  503 -0.11637424363E+03 -0.30727994501E+01  0.13124015027E+03  0.24568350315E+03  0.17200000000E+03 0.  1.
</event>
<event>
 4    1  0.5640532E+000  0.2712240E+03  0.7818608E-02  0.1100581E+00
         21   -1    0    0  501  502  0.00000000000E+00  0.00000000000E+00  0.22686024586E+04  0.22686024586E+04  0.00000000000E+00 0.  1.
         21   -1    0    0  502  503 -0.00000000000E+00 -0.00000000000E+00 -0.56409433624E+02  0.56409433624E+02  0.00000000000E+00 0.  1.
          6    1    1    2  501    0  0.59212378566E+01 -0.20962677291E+03  0.18641014476E+04  0.18837294529E+04  0.17200000000E+03 0.  1.
         -6    1    1    2    0  503 -0.59212378566E+01  0.20962677291E+03  0.34809157745E+03  0.44128243934E+03  0.17200000000E+03 0.  1.
</event>
<event>
 4    1  0.5640532E+000  0.1768928E+03  0.7818608E-02  0.1170845E+00
         21   -1    0    0  503  502  0.00000000000E+00  0.00000000000E+00  0.12747989499E+03  0.12747989499E+03  0.00000000000E+00 0.  1.
         21   -1    0    0  501  503 -0.00000000000E+00 -0.00000000000E+00 -0.32351535541E+03  0.32351535541E+03  0.00000000000E+00 0.  1.
          6    1    1    2  501    0  0.15842782949E+02  0.38158605910E+02 -0.20878181814E+03  0.27364378407E+03  0.17200000000E+03 0.  1.
         -6    1    1    2    0  502 -0.15842782949E+02 -0.38158605910E+02  0.12746357718E+02  0.17735146634E+03  0.17200000000E+03 0.  1.
</event>
<event>
 4    1  0.5640532E+000  0.1801364E+03  0.7818608E-02  0.1167671E+00
         21   -1    0    0  501  502  0.00000000000E+00  0.00000000000E+00  0.23745509076E+03  0.23745509076E+03  0.00000000000E+00 0. -1.
         21   -1    0    0  502  503 -0.00000000000E+00 -0.00000000000E+00 -0.21715741734E+03  0.21715741734E+03  0.00000000000E+00 0. -1.
          6    1    1    2  501    0 -0.29703877776E+02  0.44528857242E+02  0.14854745681E+03  0.23348551648E+03  0.17200000000E+03 0. -1.
         -6    1    1    2    0  503  0.29703877776E+02 -0.44528857242E+02 -0.12824978340E+03  0.22112699162E+03  0.17200000000E+03 0. -1.
</event>
<event>
 4    1  0.5640532E+000  0.2313707E+03  0.7818608E-02  0.1125679E+00
         21   -1    0    0  503  502  0.00000000000E+00  0.00000000000E+00  0.97448200237E+03  0.97448200237E+03  0.00000000000E+00 0. -1.
         21   -1    0    0  501  503 -0.00000000000E+00 -0.00000000000E+00 -0.22379925391E+03  0.22379925391E+03  0.00000000000E+00 0.  1.
          6    1    1    2  501    0 -0.74109723813E+02  0.13585349239E+03 -0.14509698704E+03  0.27310356682E+03  0.17200000000E+03 0.  1.
         -6    1    1    2    0  502  0.74109723813E+02 -0.13585349239E+03  0.89577973550E+03  0.92517768947E+03  0.17200000000E+03 0. -1.
</event>
<event>
 4    1  0.5640532E+000  0.2204764E+03  0.7818608E-02  0.1133528E+00
         21   -1    0    0  503  502  0.00000000000E+00  0.00000000000E+00  0.11672253305E+04  0.11672253305E+04  0.00000000000E+00 0. -1.
         21   -1    0    0  501  503 -0.00000000000E+00 -0.00000000000E+00 -0.62623997737E+02  0.62623997737E+02  0.00000000000E+00 0.  1.
          6    1    1    2  501    0  0.13735408057E+03  0.12636607431E+02  0.19639293110E+03  0.29526261308E+03  0.17200000000E+03 0.  1.
         -6    1    1    2    0  502 -0.13735408057E+03 -0.12636607431E+02  0.90820840168E+03  0.93458671517E+03  0.17200000000E+03 0. -1.
</event>
<event>
 4    1  0.5640532E+000  0.1724312E+03  0.7818608E-02  0.1175336E+00
         21   -1    0    0  501  502  0.00000000000E+00  0.00000000000E+00  0.68839748945E+02  0.68839748945E+02  0.00000000000E+00 0. -1.
         21   -1    0    0  502  503 -0.00000000000E+00 -0.00000000000E+00 -0.43309336324E+03  0.43309336324E+03  0.00000000000E+00 0. -1.
          6    1    1    2  501    0  0.39253479614E+01 -0.11537359537E+02 -0.16900372446E+03  0.24144311525E+03  0.17200000000E+03 0.  1.
         -6    1    1    2    0  503 -0.39253479614E+01  0.11537359537E+02 -0.19524988984E+03  0.26048999694E+03  0.17200000000E+03 0.  1.
</event>
<event>
 4    1  0.5640532E+000  0.1998638E+03  0.7818608E-02  0.1149854E+00
         21   -1    0    0  501  502  0.00000000000E+00  0.00000000000E+00  0.12753764581E+03  0.12753764581E+03  0.00000000000E+00 0.  1.
         21   -1    0    0  502  503 -0.00000000000E+00 -0.00000000000E+00 -0.56023911747E+03  0.56023911747E+03  0.00000000000E+00 0.  1.
          6    1    1    2  501    0  0.90797503208E+02 -0.46014859760E+02  0.12003142455E+02  0.20022394796E+03  0.17200000000E+03 0.  1.
         -6    1    1    2    0  503 -0.90797503208E+02  0.46014859760E+02 -0.44470461412E+03  0.48755281532E+03  0.17200000000E+03 0.  1.
</event>
<event>
 4    1  0.5640532E+000  0.1912388E+03  0.7818608E-02  0.1157349E+00
         21   -1    0    0  501  502  0.00000000000E+00  0.00000000000E+00  0.15596114075E+03  0.15596114075E+03  0.00000000000E+00 0. -1.
         21   -1    0    0  502  503 -0.00000000000E+00 -0.00000000000E+00 -0.26202378011E+03  0.26202378011E+03  0.00000000000E+00 0. -1.
          6    1    1    2  501    0  0.47747330128E+02  0.68618307637E+02  0.14708658156E+02  0.19180360868E+03  0.17200000000E+03 0. -1.
         -6    1    1    2    0  503 -0.47747330128E+02 -0.68618307637E+02 -0.12077129751E+03  0.22618131218E+03  0.17200000000E+03 0. -1.
</event>
<event>
 4    1  0.5640532E+000  0.1876910E+03  0.7818608E-02  0.1160561E+00
         21   -1    0    0  503  502  0.00000000000E+00  0.00000000000E+00  0.22691850741E+03  0.22691850741E+03  0.00000000000E+00 0. -1.
         21   -1    0    0  501  503 -0.00000000000E+00 -0.00000000000E+00 -0.23409037259E+03  0.23409037259E+03  0.00000000000E+00 0.  1.
          6    1    1    2  501    0 -0.72694626285E+02 -0.18957490329E+02 -0.13736139342E+03  0.23258557035E+03  0.17200000000E+03 0.  1.
         -6    1    1    2    0  502  0.72694626285E+02  0.18957490329E+02  0.13018952824E+03  0.22842330966E+03  0.17200000000E+03 0. -1.
</event>
<event>
 4    1  0.5640532E+000  0.1855900E+03  0.7818608E-02  0.1162500E+00
         21   -1    0    0  503  502  0.00000000000E+00  0.00000000000E+00  0.14411783473E+04  0.14411783473E+04  0.00000000000E+00 0.  1.
         21   -1    0    0  501  503 -0.00000000000E+00 -0.00000000000E+00 -0.42591041076E+02  0.42591041076E+02  0.00000000000E+00 0.  1.
          6    1    1    2  501    0  0.32653111427E+02  0.61590759372E+02  0.20782233007E+03  0.27862836934E+03  0.17200000000E+03 0.  1.
         -6    1    1    2    0  502 -0.32653111427E+02 -0.61590759372E+02  0.11907649762E+04  0.12051410191E+04  0.17200000000E+03 0.  1.
</event>
<event>
 4    1  0.5640532E+000  0.2594222E+03  0.7818608E-02  0.1107491E+00
         21   -1    0    0  503  502  0.00000000000E+00  0.00000000000E+00  0.37235447239E+02  0.37235447239E+02  0.00000000000E+00 0. -1.
         21   -1    0    0  501  503 -0.00000000000E+00 -0.00000000000E+00 -0.18088580470E+04  0.18088580470E+04  0.00000000000E+00 0.  1.
          6    1    1    2  501    0  0.45872201829E+02 -0.18871044993E+03 -0.91188570748E+03  0.94806932042E+03  0.17200000000E+03 0. -1.
         -6    1    1    2    0  502 -0.45872201829E+02  0.18871044993E+03 -0.85973689224E+03  0.89802417378E+03  0.17200000000E+03 0.  1.
</event>
<event>
 4    1  0.5640532E+000  0.1737910E+03  0.7818608E-02  0.1173951E+00
         21   -1    0    0  501  502  0.00000000000E+00  0.00000000000E+00  0.88068381093E+03  0.88068381093E+03  0.00000000000E+00 0.  1.
         21   -1    0    0  502  503 -0.00000000000E+00 -0.00000000000E+00 -0.58771814270E+02  0.58771814270E+02  0.00000000000E+00 0.  1.
          6    1    1    2  501    0  0.20576143294E+02 -0.13998086652E+02  0.71409123699E+03  0.73493511200E+03  0.17200000000E+03 0.  1.
         -6    1    1    2    0  503 -0.20576143294E+02  0.13998086652E+02  0.10782075966E+03  0.20452051319E+03  0.17200000000E+03 0.  1.
</event>
<event>
 4    1  0.5640532E+000  0.1862343E+03  0.7818608E-02  0.1161902E+00
         21   -1    0    0  501  502  0.00000000000E+00  0.00000000000E+00  0.12993935922E+03  0.12993935922E+03  0.00000000000E+00 0. -1.
         21   -1    0    0  502  503 -0.00000000000E+00 -0.00000000000E+00 -0.49358331221E+03  0.49358331221E+03  0.00000000000E+00 0. -1.
          6    1    1    2  501    0  0.67820747083E+02  0.22350451927E+02  0.29446274589E+02  0.18854781760E+03  0.17200000000E+03 0. -1.
         -6    1    1    2    0  503 -0.67820747083E+02 -0.22350451927E+02 -0.39309022758E+03  0.43497485382E+03  0.17200000000E+03 0. -1.
</event>
<event>
 4    1  0.5640532E+000  0.1863145E+03  0.7818608E-02  0.1161828E+00
         21   -1    0    0  501  502  0.00000000000E+00  0.00000000000E+00  0.34017323010E+03  0.34017323010E+03  0.00000000000E+00 0. -1.
         21   -1    0    0  502  503 -0.00000000000E+00 -0.00000000000E+00 -0.17898939943E+03  0.17898939943E+03  0.00000000000E+00 0. -1.
          6    1    1    2  501    0 -0.69471079433E+02  0.17402724189E+02  0.25078714372E+03  0.31242163360E+03  0.17200000000E+03 0. -1.
         -6    1    1    2    0  503  0.69471079433E+02 -0.17402724189E+02 -0.89603313054E+02  0.20674099593E+03  0.17200000000E+03 0. -1.
</event>
<event>
 4    1  0.5640532E+000  0.2767699E+03  0.7818608E-02  0.1097466E+00
         21   -1    0    0  501  502  0.00000000000E+00  0.00000000000E+00  0.56648982174E+03  0.56648982174E+03  0.00000000000E+00 0.  1.
         21   -1    0    0  502  503 -0.00000000000E+00 -0.00000000000E+00 -0.16231196325E+03  0.16231196325E+03  0.00000000000E+00 0. -1.
          6    1    1    2  501    0 -0.15302770863E+03 -0.15362314697E+03  0.53216893995E+02  0.28183965069E+03  0.17200000000E+03 0. -1.
         -6    1    1    2    0  503  0.15302770863E+03  0.15362314697E+03  0.35096096449E+03  0.44696213430E+03  0.17200000000E+03 0.  1.
</event>
<event>
 4    1  0.5640532E+000  0.2431252E+03  0.7818608E-02  0.1117728E+00
         21   -1    0    0  501  502  0.00000000000E+00  0.00000000000E+00  0.52954926604E+03  0.52954926604E+03  0.00000000000E+00 0.  1.
         21   -1    0    0  502  503 -0.00000000000E+00 -0.00000000000E+00 -0.18148416532E+03  0.18148416532E+03  0.00000000000E+00 0.  1.
          6    1    1    2  501    0 -0.17081405140E+03  0.18666357942E+02  0.39460872268E+03  0.46349316833E+03  0.17200000000E+03 0.  1.
         -6    1    1    2    0  503  0.17081405140E+03 -0.18666357942E+02 -0.46543621968E+02  0.24754026303E+03  0.17200000000E+03 0.  1.
</event>
<event>
 4    1  0.5640532E+000  0.2456800E+03  0.7818608E-02  0.1116066E+00
         21   -1    0    0  503  502  0.00000000000E+00  0.00000000000E+00  0.55077492837E+03  0.55077492837E+03  0.00000000000E+00 0. -1.
         21   -1    0    0  501  503 -0.00000000000E+00 -0.00000000000E+00 -0.18913284881E+03  0.18913284881E+03  0.00000000000E+00 0.  1.
          6    1    1    2  501    0 -0.24937658788E+02 -0.17364551657E+03 -0.59100097930E+02  0.25268849168E+03  0.17200000000E+03 0.  1.
         -6    1    1    2    0  502  0.24937658788E+02  0.17364551657E+03  0.42074217748E+03  0.48721928550E+03  0.17200000000E+03 0.  1.
</event>
<event>
 4    1  0.5640532E+000  0.3021379E+03  0.7818608E-02  0.1084177E+00
         21   -1    0    0  503  502  0.00000000000E+00  0.00000000000E+00  0.11598419867E+04  0.11598419867E+04  0.00000000000E+00 0. -1.
         21   -1    0    0  501  503 -0.00000000000E+00 -0.00000000000E+00 -0.12977545063E+03  0.12977545063E+03  0.00000000000E+00 0.  1.
          6    1    1    2  501    0 -0.18607171792E+03  0.16456194112E+03  0.11053905458E+03  0.32172379343E+03  0.17200000000E+03 0.  1.
         -6    1    1    2    0  502  0.18607171792E+03 -0.16456194112E+03  0.91952748147E+03  0.96789364388E+03  0.17200000000E+03 0. -1.
</event>
<event>
 4    1  0.5640532E+000  0.2001252E+03  0.7818608E-02  0.1149633E+00
         21   -1    0    0  503  502  0.00000000000E+00  0.00000000000E+00  0.35674072265E+03  0.35674072265E+03  0.00000000000E+00 0. -1.
         21   -1    0    0  501  503 -0.00000000000E+00 -0.00000000000E+00 -0.27708208142E+03  0.27708208142E+03  0.00000000000E+00 0. -1.
          6    1    1    2  501    0 -0.15388743962E+02  0.10113988210E+03 -0.20458833130E+03  0.28619307206E+03  0.17200000000E+03 0. -1.
         -6    1    1    2    0  502  0.15388743962E+02 -0.10113988210E+03  0.28424697252E+03  0.34762973202E+03  0.17200000000E+03 0. -1.
</event>
<event>
 4    1  0.5640532E+000  0.2921169E+03  0.7818608E-02  0.1089249E+00
         21   -1    0    0  501  502  0.00000000000E+00  0.00000000000E+00  0.14002666798E+03  0.14002666798E+03  0.00000000000E+00 0. -1.
         21   -1    0    0  502  503 -0.00000000000E+00 -0.00000000000E+00 -0.69175817222E+03  0.69175817222E+03  0.00000000000E+00 0. -1.
          6    1    1    2  501    0  0.14382554636E+03 -0.18724978066E+03 -0.13236410310E+03  0.32070628920E+03  0.17200000000E+03 0. -1.
         -6    1    1    2    0  503 -0.14382554636E+03  0.18724978066E+03 -0.41936740114E+03  0.51107855099E+03  0.17200000000E+03 0. -1.
</event>
<event>
 4    1  0.5640532E+000  0.1787876E+03  0.7818608E-02  0.1168982E+00
         21   -1    0    0  501  502  0.00000000000E+00  0.00000000000E+00  0.23913249857E+02  0.23913249857E+02  0.00000000000E+00 0.  1.
         21   -1    0    0  502  503 -0.00000000000E+00 -0.00000000000E+00 -0.13448505543E+04  0.13448505543E+04  0.00000000000E+00 0.  1.
          6    1    1    2  501    0  0.48430757153E+02  0.59540760982E+01 -0.60721002994E+03  0.63298420969E+03  0.17200000000E+03 0. -1.
         -6    1    1    2    0  503 -0.48430757153E+02 -0.59540760982E+01 -0.71372727448E+03  0.73577959445E+03  0.17200000000E+03 0. -1.
</event>
<event>
 4    1  0.5640532E+000  0.3240551E+03  0.7818608E-02  0.1073798E+00
         21   -1    0    0  503  502  0.00000000000E+00  0.00000000000E+00  0.40482302302E+03  0.40482302302E+03  0.00000000000E+00 0. -1.
         21   -1    0    0  501  503 -0.00000000000E+00 -0.00000000000E+00 -0.26422559967E+03  0.26422559967E+03  0.00000000000E+00 0.  1.
          6    1    1    2  501    0 -0.25486649344E+03  0.10232685633E+03  0.11549956575E+03  0.34402305838E+03  0.17200000000E+03 0. -1.
         -6    1    1    2    0  502  0.25486649344E+03 -0.10232685633E+03  0.25097857598E+02  0.32502556432E+03  0.17200000000E+03 0.  1.
</event>
<event>
 4    1  0.5640532E+000  0.2144346E+03  0.7818608E-02  0.1138102E+00
         21   -1    0    0  501  502  0.00000000000E+00  0.00000000000E+00  0.73805384275E+03  0.73805384275E+03  0.00000000000E+00 0.  1.
         21   -1    0    0  502  503 -0.00000000000E+00 -0.00000000000E+00 -0.10597239958E+03  0.10597239958E+03  0.00000000000E+00 0. -1.
          6    1    1    2  501    0  0.12781346743E+03  0.78679731882E+01  0.58694972764E+03  0.62489372715E+03  0.17200000000E+03 0.  1.
         -6    1    1    2    0  503 -0.12781346743E+03 -0.78679731882E+01  0.45131715533E+02  0.21913251517E+03  0.17200000000E+03 0. -1.
</event>
<event>
 4    1  0.5640532E+000  0.1770753E+03  0.7818608E-02  0.1170664E+00
         21   -1    0    0  503  502  0.00000000000E+00  0.00000000000E+00  0.84686253444E+03  0.84686253444E+03  0.00000000000E+00 0. -1.
         21   -1    0    0  501  503 -0.00000000000E+00 -0.00000000000E+00 -0.37258794334E+02  0.37258794334E+02  0.00000000000E+00 0.  1.
          6    1    1    2  501    0 -0.23256866398E+01 -0.42026746725E+02  0.43976879188E+03  0.47408042205E+03  0.17200000000E+03 0. -1.
         -6    1    1    2    0  502  0.23256866398E+01  0.42026746725E+02  0.36983494823E+03  0.41004090673E+03  0.17200000000E+03 0.  1.
</event>
<event>
 4    1  0.5640532E+000  0.1793076E+03  0.7818608E-02  0.1168475E+00
         21   -1    0    0  501  502  0.00000000000E+00  0.00000000000E+00  0.21084605352E+03  0.21084605352E+03  0.00000000000E+00 0.  1.
         21   -1    0    0  502  503 -0.00000000000E+00 -0.00000000000E+00 -0.15578898532E+03  0.15578898532E+03  0.00000000000E+00 0.  1.
          6    1    1    2  501    0 -0.76960161625E+01 -0.50079630653E+02  0.54218584442E+02  0.18732552674E+03  0.17200000000E+03 0.  1.
         -6    1    1    2    0  503  0.76960161625E+01  0.50079630653E+02  0.83848375613E+00  0.17930951209E+03  0.17200000000E+03 0.  1.
</event>
<event>
 4    1  0.5640532E+000  0.2093843E+03  0.7818608E-02  0.1142054E+00
         21   -1    0    0  503  502  0.00000000000E+00  0.00000000000E+00  0.43831392732E+03  0.43831392732E+03  0.00000000000E+00 0.  1.
         21   -1    0    0  501  503 -0.00000000000E+00 -0.00000000000E+00 -0.12425347945E+03  0.12425347945E+03  0.00000000000E+00 0.  1.
          6    1    1    2  501    0  0.11911303668E+03 -0.83595755023E+01  0.32817904978E+02  0.21194058813E+03  0.17200000000E+03 0. -1.
         -6    1    1    2    0  502 -0.11911303668E+03  0.83595755023E+01  0.28124254289E+03  0.35062681863E+03  0.17200000000E+03 0. -1.
</event>
<event>
 4    1  0.5640532E+000  0.2058160E+03  0.7818608E-02  0.1144923E+00
         21   -1    0    0  503  502  0.00000000000E+00  0.00000000000E+00  0.27347139469E+02  0.27347139469E+02  0.00000000000E+00 0. -1.
         21   -1    0    0  501  503 -0.00000000000E+00 -0.00000000000E+00 -0.26903916741E+04  0.26903916741E+04  0.00000000000E+00 0. -1.
          6    1    1    2  501    0 -0.10993527755E+03 -0.26276781663E+02 -0.22166188967E+04  0.22261535364E+04  0.17200000000E+03 0. -1.
         -6    1    1    2    0  502  0.10993527755E+03  0.26276781663E+02 -0.44642563789E+03  0.49158527710E+03  0.17200000000E+03 0. -1.
</event>
<event>
 4    1  0.5640532E+000  0.1980801E+03  0.7818608E-02  0.1151369E+00
         21   -1    0    0  503  502  0.00000000000E+00  0.00000000000E+00  0.47083983032E+03  0.47083983032E+03  0.00000000000E+00 0. -1.
         21   -1    0    0  501  503 -0.00000000000E+00 -0.00000000000E+00 -0.83519459394E+02  0.83519459394E+02  0.00000000000E+00 0. -1.
          6    1    1    2  501    0 -0.93546770448E+02  0.30011885985E+02  0.18050520442E+03  0.26798850794E+03  0.17200000000E+03 0. -1.
         -6    1    1    2    0  502  0.93546770448E+02 -0.30011885985E+02  0.20681516651E+03  0.28637078178E+03  0.17200000000E+03 0. -1.
</event>
<event>
 4    1  0.5640532E+000  0.2159113E+03  0.7818608E-02  0.1136969E+00
         21   -1    0    0  503  502  0.00000000000E+00  0.00000000000E+00  0.35391224282E+03  0.35391224282E+03  0.00000000000E+00 0. -1.
         21   -1    0    0  501  503 -0.00000000000E+00 -0.00000000000E+00 -0.15457483928E+03  0.15457483928E+03  0.00000000000E+00 0. -1.
          6    1    1    2  501    0 -0.12208644394E+03  0.46136807896E+02  0.19091283541E+01  0.21591977586E+03  0.17200000000E+03 0. -1.
         -6    1    1    2    0  502  0.12208644394E+03 -0.46136807896E+02  0.19742827518E+03  0.29256730624E+03  0.17200000000E+03 0. -1.
</event>
<event>
 4    1  0.5640532E+000  0.2483832E+03  0.7818608E-02  0.1114331E+00
         21   -1    0    0  503  502  0.00000000000E+00  0.00000000000E+00  0.75320493211E+02  0.75320493211E+02  0.00000000000E+00 0.  1.
         21   -1    0    0  501  503 -0.00000000000E+00 -0.00000000000E+00 -0.10344941358E+04  0.10344941358E+04  0.00000000000E+00 0. -1.
          6    1    1    2  501    0  0.17051578238E+03 -0.55086950289E+02 -0.22637484860E+03  0.33606513686E+03  0.17200000000E+03 0.  1.
         -6    1    1    2    0  502 -0.17051578238E+03  0.55086950289E+02 -0.73279879396E+03  0.77374949213E+03  0.17200000000E+03 0. -1.
</event>
<event>
 4    1  0.5640532E+000  0.4018270E+03  0.7818608E-02  0.1043149E+00
         21   -1    0    0  503  502  0.00000000000E+00  0.00000000000E+00  0.10728670111E+04  0.10728670111E+04  0.00000000000E+00 0.  1.
         21   -1    0    0  501  503 -0.00000000000E+00 -0.00000000000E+00 -0.28501350546E+03  0.28501350546E+03  0.00000000000E+00 0.  1.
          6    1    1    2  501    0  0.32613641135E+03  0.15973724614E+03 -0.72500697556E+02  0.40831519413E+03  0.17200000000E+03 0.  1.
         -6    1    1    2    0  502 -0.32613641135E+03 -0.15973724614E+03  0.86035420316E+03  0.94956532240E+03  0.17200000000E+03 0.  1.
</event>
<event>
 4    1  0.5640532E+000  0.1906623E+03  0.7818608E-02  0.1157865E+00
         21   -1    0    0  501  502  0.00000000000E+00  0.00000000000E+00  0.16269572588E+04  0.16269572588E+04  0.00000000000E+00 0. -1.
         21   -1    0    0  502  503 -0.00000000000E+00 -0.00000000000E+00 -0.31327056357E+02  0.31327056357E+02  0.00000000000E+00 0.  1.
          6    1    1    2  501    0  0.77625161785E+02 -0.27248105762E+02  0.12418225933E+04  0.12563739405E+04  0.17200000000E+03 0. -1.
         -6    1    1    2    0  503 -0.77625161785E+02  0.27248105762E+02  0.35380760914E+03  0.40191037471E+03  0.17200000000E+03 0.  1.
</event>
<event>
 4    1  0.5640532E+000  0.2046014E+03  0.7818608E-02  0.1145914E+00
         21   -1    0    0  503  502  0.00000000000E+00  0.00000000000E+00  0.39156059588E+03  0.39156059588E+03  0.00000000000E+00 0. -1.
         21   -1    0    0  501  503 -0.00000000000E+00 -0.00000000000E+00 -0.21610710720E+03  0.21610710720E+03  0.00000000000E+00 0. -1.
          6    1    1    2  501    0  0.11080170686E+03 -0.85647035620E+00  0.30370357192E+03  0.36619340707E+03  0.17200000000E+03 0. -1.
         -6    1    1    2    0  502 -0.11080170686E+03  0.85647035620E+00 -0.12825008324E+03  0.24147429601E+03  0.17200000000E+03 0. -1.
</event>
<event>
 4    1  0.5640532E+000  0.2499002E+03  0.7818608E-02  0.1113368E+00
         21   -1    0    0  501  502  0.00000000000E+00  0.00000000000E+00  0.84439339032E+03  0.84439339032E+03  0.00000000000E+00 0.  1.
         21   -1    0    0  502  503 -0.00000000000E+00 -0.00000000000E+00 -0.74190598158E+02  0.74190598158E+02  0.00000000000E+00 0. -1.
          6    1    1    2  501    0 -0.15698401324E+03 -0.90675928462E+02  0.41078822838E+03  0.48082956751E+03  0.17200000000E+03 0.  1.
         -6    1    1    2    0  503  0.15698401324E+03  0.90675928462E+02  0.35941456377E+03  0.43775442096E+03  0.17200000000E+03 0. -1.
</event>
<event>
 4    1  0.5640532E+000  0.1776091E+03  0.7818608E-02  0.1170137E+00
         21   -1    0    0  503  502  0.00000000000E+00  0.00000000000E+00  0.17919379473E+03  0.17919379473E+03  0.00000000000E+00 0. -1.
         21   -1    0    0  501  503 -0.00000000000E+00 -0.00000000000E+00 -0.37434712154E+03  0.37434712154E+03  0.00000000000E+00 0. -1.
          6    1    1    2  501    0  0.12916347080E+02  0.42357345533E+02 -0.29902025933E+03  0.34779029922E+03  0.17200000000E+03 0. -1.
         -6    1    1    2    0  502 -0.12916347080E+02 -0.42357345533E+02  0.10386693252E+03  0.20575061704E+03  0.17200000000E+03 0. -1.
</event>
<event>
 4    1  0.5640532E+000  0.1851326E+03  0.7818608E-02  0.1162926E+00
         21   -1    0    0  501  502  0.00000000000E+00  0.00000000000E+00  0.10525173571E+03  0.10525173571E+03  0.00000000000E+00 0. -1.
         21   -1    0    0  502  503 -0.00000000000E+00 -0.00000000000E+00 -0.33334908359E+03  0.33334908359E+03  0.00000000000E+00 0.  1.
          6    1    1    2  501    0 -0.11770220775E+02 -0.67464988953E+02 -0.80696721532E+02  0.20195549930E+03  0.17200000000E+03 0.  1.
         -6    1    1    2    0  503  0.11770220775E+02  0.67464988953E+02 -0.14740062635E+03  0.23664532000E+03  0.17200000000E+03 0.  1.
</event>
<event>
 4    1  0.5640532E+000  0.1745429E+03  0.7818608E-02  0.1173191E+00
         21   -1    0    0  503  502  0.00000000000E+00  0.00000000000E+00  0.12634100332E+03  0.12634100332E+03  0.00000000000E+00 0.  1.
         21   -1    0    0  501  503 -0.00000000000E+00 -0.00000000000E+00 -0.45445385261E+03  0.45445385261E+03  0.00000000000E+00 0. -1.
          6    1    1    2  501    0  0.54074277788E+01 -0.29188777024E+02 -0.36301496856E+03  0.40279658934E+03  0.17200000000E+03 0. -1.
         -6    1    1    2    0  502 -0.54074277788E+01  0.29188777024E+02  0.34902119276E+02  0.17799826659E+03  0.17200000000E+03 0.  1.
</event>
<event>
 4    1  0.5640532E+000  0.2125480E+03  0.7818608E-02  0.1139564E+00
         21   -1    0    0  503  502  0.00000000000E+00  0.00000000000E+00  0.15895217729E+03  0.15895217729E+03  0.00000000000E+00 0. -1.
         21   -1    0    0  501  503 -0.00000000000E+00 -0.00000000000E+00 -0.45117528421E+03  0.45117528421E+03  0.00000000000E+00 0.  1.
          6    1    1    2  501    0 -0.92957187775E+02  0.83376394087E+02  0.39465361924E+02  0.21618088871E+03  0.17200000000E+03 0. -1.
         -6    1    1    2    0  502  0.92957187775E+02 -0.83376394087E+02 -0.33168846884E+03  0.39394657279E+03  0.17200000000E+03 0.  1.
</event>
<event>
 4    1  0.5640532E+000  0.1826149E+03  0.7818608E-02  0.1165296E+00
         21   -1    0    0  503  502  0.00000000000E+00  0.00000000000E+00  0.80996013820E+02  0.80996013820E+02  0.00000000000E+00 0.  1.
         21   -1    0    0  501  503 -0.00000000000E+00 -0.00000000000E+00 -0.48070272960E+03  0.48070272960E+03  0.00000000000E+00 0.  1.
          6    1    1    2  501    0 -0.16073031361E+02  0.59210366292E+02 -0.30623941469E+03  0.35655404769E+03  0.17200000000E+03 0.  1.
         -6    1    1    2    0  502  0.16073031361E+02 -0.59210366292E+02 -0.93467301090E+02  0.20514469573E+03  0.17200000000E+03 0.  1.
</event>
<event>
 4    1  0.5640532E+000  0.1751571E+03  0.7818608E-02  0.1172574E+00
         21   -1    0    0  501  502  0.00000000000E+00  0.00000000000E+00  0.35648212009E+03  0.35648212009E+03  0.00000000000E+00 0.  1.
         21   -1    0    0  502  503 -0.00000000000E+00 -0.00000000000E+00 -0.11137513533E+03  0.11137513533E+03  0.00000000000E+00 0.  1.
          6    1    1    2  501    0 -0.31411077006E+02 -0.10456773787E+02  0.23407322956E+03  0.29235300011E+03  0.17200000000E+03 0.  1.
         -6    1    1    2    0  503  0.31411077006E+02  0.10456773787E+02  0.11033755202E+02  0.17550425531E+03  0.17200000000E+03 0.  1.
</event>
<event>
 4    1  0.5640532E+000  0.2165668E+03  0.7818608E-02  0.1136469E+00
         21   -1    0    0  503  502  0.00000000000E+00  0.00000000000E+00  0.75671336108E+03  0.75671336108E+03  0.00000000000E+00 0. -1.
         21   -1    0    0  501  503 -0.00000000000E+00 -0.00000000000E+00 -0.73365343337E+02  0.73365343337E+02  0.00000000000E+00 0. -1.
          6    1    1    2  501    0  0.24428633357E+02  0.12930754637E+03  0.50517267157E+03  0.54963681443E+03  0.17200000000E+03 0. -1.
         -6    1    1    2    0  502 -0.24428633357E+02 -0.12930754637E+03  0.17817534618E+03  0.28044188999E+03  0.17200000000E+03 0. -1.
</event>
<event>
 4    1  0.5640532E+000  0.1792045E+03  0.7818608E-02  0.1168575E+00
         21   -1    0    0  503  502  0.00000000000E+00  0.00000000000E+00  0.87575903750E+02  0.87575903750E+02  0.00000000000E+00 0. -1.
         21   -1    0    0  501  503 -0.00000000000E+00 -0.00000000000E+00 -0.41216828128E+03  0.41216828128E+03  0.00000000000E+00 0. -1.
          6    1    1    2  501    0 -0.50197285185E+02 -0.32394201684E+01 -0.24528605525E+03  0.30377542722E+03  0.17200000000E+03 0. -1.
         -6    1    1    2    0  502  0.50197285185E+02  0.32394201684E+01 -0.79306322278E+02  0.19596875781E+03  0.17200000000E+03 0. -1.
</event>
<event>
 4    1  0.5640532E+000  0.1965151E+03  0.7818608E-02  0.1152713E+00
         21   -1    0    0  503  502  0.00000000000E+00  0.00000000000E+00  0.20422871194E+03  0.20422871194E+03  0.00000000000E+00 0. -1.
         21   -1    0    0  501  503 -0.00000000000E+00 -0.00000000000E+00 -0.18911822542E+03  0.18911822542E+03  0.00000000000E+00 0. -1.
          6    1    1    2  501    0 -0.28221500313E+02  0.90761962556E+02  0.98339090299E+01  0.19676100400E+03  0.17200000000E+03 0. -1.
         -6    1    1    2    0  502  0.28221500313E+02 -0.90761962556E+02  0.52765774814E+01  0.19658593336E+03  0.17200000000E+03 0. -1.
</event>
<event>
 4    1  0.5640532E+000  0.2289253E+03  0.7818608E-02  0.1127398E+00
         21   -1    0    0  503  502  0.00000000000E+00  0.00000000000E+00  0.23019592722E+04  0.23019592722E+04  0.00000000000E+00 0. -1.
         21   -1    0    0  501  503 -0.00000000000E+00 -0.00000000000E+00 -0.35678823380E+02  0.35678823380E+02  0.00000000000E+00 0. -1.
          6    1    1    2  501    0  0.68318100104E+02  0.13474217252E+03  0.42998756915E+03  0.48713050149E+03  0.17200000000E+03 0. -1.
         -6    1    1    2    0  502 -0.68318100104E+02 -0.13474217252E+03  0.18362928796E+04  0.18505075941E+04  0.17200000000E+03 0. -1.
</event>
<event>
 4    1  0.5640532E+000  0.1964664E+03  0.7818608E-02  0.1152755E+00
         21   -1    0    0  503  502  0.00000000000E+00  0.00000000000E+00  0.48439714470E+03  0.48439714470E+03  0.00000000000E+00 0. -1.
         21   -1    0    0  501  503 -0.00000000000E+00 -0.00000000000E+00 -0.12776504213E+03  0.12776504213E+03  0.00000000000E+00 0.  1.
          6    1    1    2  501    0 -0.88764070075E+02  0.33704501987E+02 -0.94487325646E+01  0.19669349795E+03  0.17200000000E+03 0.  1.
         -6    1    1    2    0  502  0.88764070075E+02 -0.33704501987E+02  0.36608083513E+03  0.41546868888E+03  0.17200000000E+03 0. -1.
</event>
<event>
 4    1  0.5640532E+000  0.1921806E+03  0.7818608E-02  0.1156509E+00
         21   -1    0    0  503  502  0.00000000000E+00  0.00000000000E+00  0.42987812263E+03  0.42987812263E+03  0.00000000000E+00 0.  1.
         21   -1    0    0  501  503 -0.00000000000E+00 -0.00000000000E+00 -0.90882353430E+02  0.90882353430E+02  0.00000000000E+00 0. -1.
          6    1    1    2  501    0 -0.83882943284E+02  0.17692971478E+02  0.10862988642E+03  0.22075742714E+03  0.17200000000E+03 0.  1.
         -6    1    1    2    0  502  0.83882943284E+02 -0.17692971478E+02  0.23036588278E+03  0.30000304892E+03  0.17200000000E+03 0.  1.
</event>
<event>
 4    1  0.5640532E+000  0.1973700E+03  0.7818608E-02  0.1151977E+00
         21   -1    0    0  501  502  0.00000000000E+00  0.00000000000E+00  0.14749896056E+03  0.14749896056E+03  0.00000000000E+00 0.  1.
         21   -1    0    0  502  503 -0.00000000000E+00 -0.00000000000E+00 -0.56150278307E+03  0.56150278307E+03  0.00000000000E+00 0.  1.
          6    1    1    2  501    0  0.87968189934E+02 -0.40404298264E+02  0.50993341853E+02  0.20385100116E+03  0.17200000000E+03 0.  1.
         -6    1    1    2    0  503 -0.87968189934E+02  0.40404298264E+02 -0.46499716437E+03  0.50515074248E+03  0.17200000000E+03 0.  1.
</event>
<event>
 4    1  0.5640532E+000  0.2140379E+03  0.7818608E-02  0.1138408E+00
         21   -1    0    0  503  502  0.00000000000E+00  0.00000000000E+00  0.46570336353E+03  0.46570336353E+03  0.00000000000E+00 0.  1.
         21   -1    0    0  501  503 -0.00000000000E+00 -0.00000000000E+00 -0.98874500862E+02  0.98874500862E+02  0.00000000000E+00 0.  1.
          6    1    1    2  501    0  0.69217924219E+02 -0.10694443393E+03  0.16329281612E+03  0.26921511246E+03  0.17200000000E+03 0.  1.
         -6    1    1    2    0  502 -0.69217924219E+02  0.10694443393E+03  0.20353604654E+03  0.29536275193E+03  0.17200000000E+03 0.  1.
</event>
<event>
 4    1  0.5640532E+000  0.3988465E+03  0.7818608E-02  0.1044180E+00
         21   -1    0    0  503  502  0.00000000000E+00  0.00000000000E+00  0.62739568254E+03  0.62739568254E+03  0.00000000000E+00 0. -1.
         21   -1    0    0  501  503 -0.00000000000E+00 -0.00000000000E+00 -0.34866373235E+03  0.34866373235E+03  0.00000000000E+00 0.  1.
          6    1    1    2  501    0 -0.32613008947E+03  0.15209767020E+03 -0.11552584090E+03  0.41524060068E+03  0.17200000000E+03 0.  1.
         -6    1    1    2    0  502  0.32613008947E+03 -0.15209767020E+03  0.39425779109E+03  0.56081881421E+03  0.17200000000E+03 0. -1.
</event>
<event>
 4    1  0.5640532E+000  0.1905856E+03  0.7818608E-02  0.1157934E+00
         21   -1    0    0  501  502  0.00000000000E+00  0.00000000000E+00  0.57041876826E+03  0.57041876826E+03  0.00000000000E+00 0.  1.
         21   -1    0    0  502  503 -0.00000000000E+00 -0.00000000000E+00 -0.15311339250E+03  0.15311339250E+03  0.00000000000E+00 0.  1.
          6    1    1    2  501    0  0.81594928433E+02 -0.90082350888E+01  0.48514114769E+03  0.52123393388E+03  0.17200000000E+03 0.  1.
         -6    1    1    2    0  503 -0.81594928433E+02  0.90082350888E+01 -0.67835771925E+02  0.20229822688E+03  0.17200000000E+03 0.  1.
</event>
<event>
 4    1  0.5640532E+000  0.1990802E+03  0.7818608E-02  0.1150517E+00
         21   -1    0    0  501  502  0.00000000000E+00  0.00000000000E+00  0.22711851072E+03  0.22711851072E+03  0.00000000000E+00 0. -1.
         21   -1    0    0  502  503 -0.00000000000E+00 -0.00000000000E+00 -0.38396355999E+03  0.38396355999E+03  0.00000000000E+00 0. -1.
          6    1    1    2  501    0  0.21399997605E+02  0.97933427889E+02  0.14724830291E+03  0.24761861583E+03  0.17200000000E+03 0. -1.
         -6    1    1    2    0  503 -0.21399997605E+02 -0.97933427889E+02 -0.30409335218E+03  0.36346345489E+03  0.17200000000E+03 0. -1.
</event>
<event>
 4    1  0.5640532E+000  0.1941223E+03  0.7818608E-02  0.1154795E+00
         21   -1    0    0  501  502  0.00000000000E+00  0.00000000000E+00  0.19174151095E+03  0.19174151095E+03  0.00000000000E+00 0. -1.
         21   -1    0    0  502  503 -0.00000000000E+00 -0.00000000000E+00 -0.34475294058E+03  0.34475294058E+03  0.00000000000E+00 0.  1.
          6    1    1    2  501    0  0.76550219615E+02 -0.47323885950E+02  0.99381768246E+02  0.21808306253E+03  0.17200000000E+03 0. -1.
         -6    1    1    2    0  503 -0.76550219615E+02  0.47323885950E+02 -0.25239319787E+03  0.31841138899E+03  0.17200000000E+03 0.  1.
</event>
<event>
 4    1  0.5640532E+000  0.1847654E+03  0.7818608E-02  0.1163269E+00
         21   -1    0    0  501  502  0.00000000000E+00  0.00000000000E+00  0.73508959460E+02  0.73508959460E+02  0.00000000000E+00 0. -1.
         21   -1    0    0  502  503 -0.00000000000E+00 -0.00000000000E+00 -0.49857029109E+03  0.49857029109E+03  0.00000000000E+00 0. -1.
          6    1    1    2  501    0  0.32777037193E+02 -0.58990705210E+02 -0.13765704540E+03  0.23040768133E+03  0.17200000000E+03 0. -1.
         -6    1    1    2    0  503 -0.32777037193E+02  0.58990705210E+02 -0.28740428623E+03  0.34167156922E+03  0.17200000000E+03 0. -1.
</event>
<event>
 4    1  0.5640532E+000  0.1849777E+03  0.7818608E-02  0.1163071E+00
         21   -1    0    0  501  502  0.00000000000E+00  0.00000000000E+00  0.72288975856E+03  0.72288975856E+03  0.00000000000E+00 0. -1.
         21   -1    0    0  502  503 -0.00000000000E+00 -0.00000000000E+00 -0.60858737730E+03  0.60858737730E+03  0.00000000000E+00 0. -1.
          6    1    1    2  501    0  0.46812552019E+01  0.67903015190E+02  0.69647667260E+03  0.72062229295E+03  0.17200000000E+03 0. -1.
         -6    1    1    2    0  503 -0.46812552019E+01 -0.67903015190E+02 -0.58217429133E+03  0.61085484291E+03  0.17200000000E+03 0. -1.
</event>
<event>
 4    1  0.5640532E+000  0.1894737E+03  0.7818608E-02  0.1158937E+00
         21   -1    0    0  503  502  0.00000000000E+00  0.00000000000E+00  0.39636992808E+03  0.39636992808E+03  0.00000000000E+00 0. -1.
         21   -1    0    0  501  503 -0.00000000000E+00 -0.00000000000E+00 -0.93163398361E+02  0.93163398361E+02  0.00000000000E+00 0. -1.
          6    1    1    2  501    0 -0.78831448270E+02 -0.10093574161E+02  0.11078621147E+03  0.21948544855E+03  0.17200000000E+03 0. -1.
         -6    1    1    2    0  502  0.78831448270E+02  0.10093574161E+02  0.19242031825E+03  0.27004787789E+03  0.17200000000E+03 0. -1.
</event>
<event>
 4    1  0.5640532E+000  0.2062992E+03  0.7818608E-02  0.1144531E+00
         21   -1    0    0  501  502  0.00000000000E+00  0.00000000000E+00  0.17780325801E+03  0.17780325801E+03  0.00000000000E+00 0. -1.
         21   -1    0    0  502  503 -0.00000000000E+00 -0.00000000000E+00 -0.76323901792E+03  0.76323901792E+03  0.00000000000E+00 0. -1.
          6    1    1    2  501    0 -0.70036211447E+02  0.89834700423E+02  0.97101591232E+02  0.22800891065E+03  0.17200000000E+03 0. -1.
         -6    1    1    2    0  503  0.70036211447E+02 -0.89834700423E+02 -0.68253735114E+03  0.71303336529E+03  0.17200000000E+03 0. -1.
</event>
<event>
 4    1  0.5640532E+000  0.2091469E+03  0.7818608E-02  0.1142243E+00
         21   -1    0    0  501  502  0.00000000000E+00  0.00000000000E+00  0.18756932196E+03  0.18756932196E+03  0.00000000000E+00 0. -1.
         21   -1    0    0  502  503 -0.00000000000E+00 -0.00000000000E+00 -0.33770786873E+03  0.33770786873E+03  0.00000000000E+00 0. -1.
          6    1    1    2  501    0  0.66756566810E+02  0.98498619307E+02  0.71030179769E+02  0.22087938712E+03  0.17200000000E+03 0. -1.
         -6    1    1    2    0  503 -0.66756566810E+02 -0.98498619307E+02 -0.22116872654E+03  0.30439780357E+03  0.17200000000E+03 0. -1.
</event>
<event>
 4    1  0.5640532E+000  0.1776230E+03  0.7818608E-02  0.1170124E+00
         21   -1    0    0  501  502  0.00000000000E+00  0.00000000000E+00  0.48253078637E+03  0.48253078637E+03  0.00000000000E+00 0. -1.
         21   -1    0    0  502  503 -0.00000000000E+00 -0.00000000000E+00 -0.93317243199E+02  0.93317243199E+02  0.00000000000E+00 0. -1.
          6    1    1    2  501    0 -0.32390313666E+02 -0.30278805534E+02  0.35213387078E+03  0.39439599572E+03  0.17200000000E+03 0. -1.
         -6    1    1    2    0  503  0.32390313666E+02  0.30278805534E+02  0.37079672384E+02  0.18145203385E+03  0.17200000000E+03 0. -1.
</event>
<event>
 4    1  0.5640532E+000  0.1834111E+03  0.7818608E-02  0.1164542E+00
         21   -1    0    0  501  502  0.00000000000E+00  0.00000000000E+00  0.91433807355E+03  0.91433807355E+03  0.00000000000E+00 0. -1.
         21   -1    0    0  502  503 -0.00000000000E+00 -0.00000000000E+00 -0.36864161558E+02  0.36864161558E+02  0.00000000000E+00 0.  1.
          6    1    1    2  501    0 -0.82259894147E+01  0.63150194400E+02  0.45989257840E+03  0.49511695348E+03  0.17200000000E+03 0. -1.
         -6    1    1    2    0  503  0.82259894147E+01 -0.63150194400E+02  0.41758133359E+03  0.45608528163E+03  0.17200000000E+03 0.  1.
</event>
<event>
 4    1  0.5640532E+000  0.1964919E+03  0.7818608E-02  0.1152733E+00
         21   -1    0    0  503  502  0.00000000000E+00  0.00000000000E+00  0.16740476408E+03  0.16740476408E+03  0.00000000000E+00 0. -1.
         21   -1    0    0  501  503 -0.00000000000E+00 -0.00000000000E+00 -0.24831915066E+03  0.24831915066E+03  0.00000000000E+00 0. -1.
          6    1    1    2  501    0  0.94567371483E+02  0.90596517247E+01 -0.95930801222E+02  0.21865905804E+03  0.17200000000E+03 0. -1.
         -6    1    1    2    0  502 -0.94567371483E+02 -0.90596517247E+01  0.15016414637E+02  0.19706485670E+03  0.17200000000E+03 0. -1.
</event>
<event>
 4    1  0.5640532E+000  0.2783248E+03  0.7818608E-02  0.1096607E+00
         21   -1    0    0  503  502  0.00000000000E+00  0.00000000000E+00  0.94007603256E+02  0.94007603256E+02  0.00000000000E+00 0.  1.
         21   -1    0    0  501  503 -0.00000000000E+00 -0.00000000000E+00 -0.13340573658E+04  0.13340573658E+04  0.00000000000E+00 0. -1.
          6    1    1    2  501    0 -0.15222824713E+03  0.15718546097E+03 -0.10615233122E+04  0.10974044153E+04  0.17200000000E+03 0.  1.
         -6    1    1    2    0  502  0.15222824713E+03 -0.15718546097E+03 -0.17852645043E+03  0.33066055384E+03  0.17200000000E+03 0.  1.
</event>
<event>
 4    1  0.5640532E+000  0.1936933E+03  0.7818608E-02  0.1155172E+00
         21   -1    0    0  503  502  0.00000000000E+00  0.00000000000E+00  0.10545298381E+03  0.10545298381E+03  0.00000000000E+00 0.  1.
         21   -1    0    0  501  503 -0.00000000000E+00 -0.00000000000E+00 -0.40167700155E+03  0.40167700155E+03  0.00000000000E+00 0.  1.
          6    1    1    2  501    0 -0.19244062564E+02 -0.86964193193E+02 -0.62391264593E+02  0.20349391819E+03  0.17200000000E+03 0.  1.
         -6    1    1    2    0  502  0.19244062564E+02  0.86964193193E+02 -0.23383275315E+03  0.30363606717E+03  0.17200000000E+03 0.  1.
</event>
<event>
 4    1  0.5640532E+000  0.2147769E+03  0.7818608E-02  0.1137838E+00
         21   -1    0    0  503  502  0.00000000000E+00  0.00000000000E+00  0.13158050522E+03  0.13158050522E+03  0.00000000000E+00 0. -1.
         21   -1    0    0  501  503 -0.00000000000E+00 -0.00000000000E+00 -0.66155614976E+03  0.66155614976E+03  0.00000000000E+00 0. -1.
          6    1    1    2  501    0  0.59341932204E+02  0.11412113583E+03 -0.53688225009E+03  0.57824877780E+03  0.17200000000E+03 0. -1.
         -6    1    1    2    0  502 -0.59341932204E+02 -0.11412113583E+03  0.69066055481E+01  0.21488787718E+03  0.17200000000E+03 0. -1.
</event>
<event>
 4    1  0.5640532E+000  0.1789125E+03  0.7818608E-02  0.1168860E+00
         21   -1    0    0  501  502  0.00000000000E+00  0.00000000000E+00  0.64697491919E+02  0.64697491919E+02  0.00000000000E+00 0.  1.
         21   -1    0    0  502  503 -0.00000000000E+00 -0.00000000000E+00 -0.61282210251E+03  0.61282210251E+03  0.00000000000E+00 0.  1.
          6    1    1    2  501    0  0.35845084423E+01 -0.49120763595E+02 -0.12537261796E+03  0.21846736930E+03  0.17200000000E+03 0.  1.
         -6    1    1    2    0  503 -0.35845084423E+01  0.49120763595E+02 -0.42275199264E+03  0.45905222513E+03  0.17200000000E+03 0.  1.
</event>
<event>
 4    1  0.5640532E+000  0.2210645E+03  0.7818608E-02  0.1133092E+00
         21   -1    0    0  501  502  0.00000000000E+00  0.00000000000E+00  0.94364204727E+02  0.94364204727E+02  0.00000000000E+00 0. -1.
         21   -1    0    0  502  503 -0.00000000000E+00 -0.00000000000E+00 -0.62031735341E+03  0.62031735341E+03  0.00000000000E+00 0. -1.
          6    1    1    2  501    0  0.38981812752E+02  0.13328882249E+03 -0.11776499486E+03  0.25047571926E+03  0.17200000000E+03 0. -1.
         -6    1    1    2    0  503 -0.38981812752E+02 -0.13328882249E+03 -0.40818815382E+03  0.46420583888E+03  0.17200000000E+03 0. -1.
</event>
<event>
 4    1  0.5640532E+000  0.2536744E+03  0.7818608E-02  0.1111004E+00
         21   -1    0    0  501  502  0.00000000000E+00  0.00000000000E+00  0.40535048301E+03  0.40535048301E+03  0.00000000000E+00 0. -1.
         21   -1    0    0  502  503 -0.00000000000E+00 -0.00000000000E+00 -0.16488629579E+03  0.16488629579E+03  0.00000000000E+00 0.  1.
          6    1    1    2  501    0  0.12756068409E+03  0.13599621933E+03  0.17522056455E+03  0.30830657800E+03  0.17200000000E+03 0. -1.
         -6    1    1    2    0  503 -0.12756068409E+03 -0.13599621933E+03  0.65243622675E+02  0.26193020081E+03  0.17200000000E+03 0.  1.
</event>
<event>
 4    1  0.5640532E+000  0.3578235E+03  0.7818608E-02  0.1059449E+00
         21   -1    0    0  503  502  0.00000000000E+00  0.00000000000E+00  0.24897741696E+03  0.24897741696E+03  0.00000000000E+00 0.  1.
         21   -1    0    0  501  503 -0.00000000000E+00 -0.00000000000E+00 -0.79672713686E+03  0.79672713686E+03  0.00000000000E+00 0.  1.
          6    1    1    2  501    0  0.11633786646E+03  0.29140891368E+03  0.37449216636E+02  0.35977784530E+03  0.17200000000E+03 0.  1.
         -6    1    1    2    0  502 -0.11633786646E+03 -0.29140891368E+03 -0.58519893654E+03  0.68592670853E+03  0.17200000000E+03 0.  1.
</event>
<event>
 4    1  0.5640532E+000  0.2033532E+03  0.7818608E-02  0.1146940E+00
         21   -1    0    0  501  502  0.00000000000E+00  0.00000000000E+00  0.11281849714E+03  0.11281849714E+03  0.00000000000E+00 0.  1.
         21   -1    0    0  502  503 -0.00000000000E+00 -0.00000000000E+00 -0.63170998353E+03  0.63170998353E+03  0.00000000000E+00 0. -1.
          6    1    1    2  501    0 -0.10278997612E+02  0.10799469871E+03 -0.18258418908E+02  0.20417120905E+03  0.17200000000E+03 0.  1.
         -6    1    1    2    0  503  0.10278997612E+02 -0.10799469871E+03 -0.50063306748E+03  0.54035727163E+03  0.17200000000E+03 0.  1.
</event>
<event>
 4    1  0.5640532E+000  0.1741798E+03  0.7818608E-02  0.1173558E+00
         21   -1    0    0  501  502  0.00000000000E+00  0.00000000000E+00  0.82481471892E+02  0.82481471892E+02  0.00000000000E+00 0. -1.
         21   -1    0    0  502  503 -0.00000000000E+00 -0.00000000000E+00 -0.70709554034E+03  0.70709554034E+03  0.00000000000E+00 0. -1.
          6    1    1    2  501    0  0.22193375698E+02  0.16188676671E+02 -0.38843437687E+02  0.17845848769E+03  0.17200000000E+03 0. -1.
         -6    1    1    2    0  503 -0.22193375698E+02 -0.16188676671E+02 -0.58577063076E+03  0.61111852455E+03  0.17200000000E+03 0. -1.
</event>
<event>
 4    1  0.5640532E+000  0.2298161E+03  0.7818608E-02  0.1126769E+00
         21   -1    0    0  501  502  0.00000000000E+00  0.00000000000E+00  0.15109716925E+03  0.15109716925E+03  0.00000000000E+00 0.  1.
         21   -1    0    0  502  503 -0.00000000000E+00 -0.00000000000E+00 -0.39143499291E+03  0.39143499291E+03  0.00000000000E+00 0.  1.
          6    1    1    2  501    0 -0.13743689829E+03 -0.65897980010E+02 -0.31429923257E+02  0.23195535100E+03  0.17200000000E+03 0.  1.
         -6    1    1    2    0  503  0.13743689829E+03  0.65897980010E+02 -0.20890790040E+03  0.31057681116E+03  0.17200000000E+03 0.  1.
</event>
<event>
 4    1  0.5640532E+000  0.1875994E+03  0.7818608E-02  0.1160645E+00
         21   -1    0    0  501  502  0.00000000000E+00  0.00000000000E+00  0.25401099287E+03  0.25401099287E+03  0.00000000000E+00 0.  1.
         21   -1    0    0  502  503 -0.00000000000E+00 -0.00000000000E+00 -0.18161459255E+03  0.18161459255E+03  0.00000000000E+00 0.  1.
          6    1    1    2  501    0 -0.60413617487E+02  0.44268670942E+02  0.14226080323E+03  0.23543928419E+03  0.17200000000E+03 0.  1.
         -6    1    1    2    0  503  0.60413617487E+02 -0.44268670942E+02 -0.69864402908E+02  0.20018630123E+03  0.17200000000E+03 0.  1.
</event>
<event>
 4    1  0.5640532E+000  0.1903238E+03  0.7818608E-02  0.1158170E+00
         21   -1    0    0  501  502  0.00000000000E+00  0.00000000000E+00  0.15666016985E+03  0.15666016985E+03  0.00000000000E+00 0. -1.
         21   -1    0    0  502  503 -0.00000000000E+00 -0.00000000000E+00 -0.88509799886E+03  0.88509799886E+03  0.00000000000E+00 0. -1.
          6    1    1    2  501    0  0.32942959228E+02  0.74524615967E+02  0.83483249803E+02  0.20782831844E+03  0.17200000000E+03 0. -1.
         -6    1    1    2    0  503 -0.32942959228E+02 -0.74524615967E+02 -0.81192107882E+03  0.83392985027E+03  0.17200000000E+03 0. -1.
</event>
<event>
 4    1  0.5640532E+000  0.1820369E+03  0.7818608E-02  0.1165846E+00
         21   -1    0    0  503  502  0.00000000000E+00  0.00000000000E+00  0.20440569891E+03  0.20440569891E+03  0.00000000000E+00 0.  1.
         21   -1    0    0  501  503 -0.00000000000E+00 -0.00000000000E+00 -0.28451946863E+03  0.28451946863E+03  0.00000000000E+00 0.  1.
          6    1    1    2  501    0 -0.59565138426E+02 -0.23289722661E+01 -0.20040110298E+03  0.27073609273E+03  0.17200000000E+03 0.  1.
         -6    1    1    2    0  502  0.59565138426E+02  0.23289722661E+01  0.12028733326E+03  0.21818907482E+03  0.17200000000E+03 0.  1.
</event>
<event>
 4    1  0.5640532E+000  0.1778201E+03  0.7818608E-02  0.1169930E+00
         21   -1    0    0  501  502  0.00000000000E+00  0.00000000000E+00  0.23465347180E+03  0.23465347180E+03  0.00000000000E+00 0.  1.
         21   -1    0    0  502  503 -0.00000000000E+00 -0.00000000000E+00 -0.13800962514E+03  0.13800962514E+03  0.00000000000E+00 0.  1.
          6    1    1    2  501    0 -0.43297248223E+02  0.12701665545E+02  0.19693739485E+02  0.17890731507E+03  0.17200000000E+03 0.  1.
         -6    1    1    2    0  503  0.43297248223E+02 -0.12701665545E+02  0.76950107184E+02  0.19375578187E+03  0.17200000000E+03 0.  1.
</event>
<event>
 4    1  0.5640532E+000  0.1854340E+03  0.7818608E-02  0.1162645E+00
         21   -1    0    0  501  502  0.00000000000E+00  0.00000000000E+00  0.69342608157E+02  0.69342608157E+02  0.00000000000E+00 0.  1.
         21   -1    0    0  502  503 -0.00000000000E+00 -0.00000000000E+00 -0.59213390122E+03  0.59213390122E+03  0.00000000000E+00 0.  1.
          6    1    1    2  501    0 -0.40214681920E+02  0.56431665409E+02 -0.12804993560E+03  0.22534981586E+03  0.17200000000E+03 0.  1.
         -6    1    1    2    0  503  0.40214681920E+02 -0.56431665409E+02 -0.39474135746E+03  0.43612669351E+03  0.17200000000E+03 0.  1.
</event>
<event>
 4    1  0.5640532E+000  0.1750783E+03  0.7818608E-02  0.1172653E+00
         21   -1    0    0  501  502  0.00000000000E+00  0.00000000000E+00  0.32625251791E+03  0.32625251791E+03  0.00000000000E+00 0. -1.
         21   -1    0    0  502  503 -0.00000000000E+00 -0.00000000000E+00 -0.19633837764E+03  0.19633837764E+03  0.00000000000E+00 0. -1.
          6    1    1    2  501    0 -0.55595189976E+01 -0.32210447956E+02  0.25364672637E+03  0.30820298994E+03  0.17200000000E+03 0. -1.
         -6    1    1    2    0  503  0.55595189976E+01  0.32210447956E+02 -0.12373258610E+03  0.21438790561E+03  0.17200000000E+03 0. -1.
</event>
<event>
 4    1  0.5640532E+000  0.2581398E+03  0.7818608E-02  0.1108266E+00
         21   -1    0    0  503  502  0.00000000000E+00  0.00000000000E+00  0.13691288611E+03  0.13691288611E+03  0.00000000000E+00 0.  1.
         21   -1    0    0  501  503 -0.00000000000E+00 -0.00000000000E+00 -0.18091901677E+04  0.18091901677E+04  0.00000000000E+00 0.  1.
          6    1    1    2  501    0  0.18183869201E+03  0.63141492586E+02 -0.16680732044E+04  0.16879290190E+04  0.17200000000E+03 0.  1.
         -6    1    1    2    0  502 -0.18183869201E+03 -0.63141492586E+02 -0.42040772234E+01  0.25817403483E+03  0.17200000000E+03 0.  1.
</event>
<event>
 4    1  0.5640532E+000  0.1772744E+03  0.7818608E-02  0.1170467E+00
         21   -1    0    0  501  502  0.00000000000E+00  0.00000000000E+00  0.12813559504E+03  0.12813559504E+03  0.00000000000E+00 0. -1.
         21   -1    0    0  502  503 -0.00000000000E+00 -0.00000000000E+00 -0.25192741713E+03  0.25192741713E+03  0.00000000000E+00 0. -1.
          6    1    1    2  501    0 -0.35370529956E+02  0.24313677013E+02 -0.92816279605E+02  0.20010270123E+03  0.17200000000E+03 0. -1.
         -6    1    1    2    0  503  0.35370529956E+02 -0.24313677013E+02 -0.30975542484E+02  0.17996031093E+03  0.17200000000E+03 0. -1.
</event>
<event>
 4    1  0.5640532E+000  0.1922837E+03  0.7818608E-02  0.1156418E+00
         21   -1    0    0  503  502  0.00000000000E+00  0.00000000000E+00  0.61629586963E+03  0.61629586963E+03  0.00000000000E+00 0.  1.
         21   -1    0    0  501  503 -0.00000000000E+00 -0.00000000000E+00 -0.11758481927E+03  0.11758481927E+03  0.00000000000E+00 0.  1.
          6    1    1    2  501    0  0.21699813169E+02 -0.83175280097E+02 -0.74491108601E+01  0.19242790433E+03  0.17200000000E+03 0.  1.
         -6    1    1    2    0  502 -0.21699813169E+02  0.83175280097E+02  0.50616016123E+03  0.54145278458E+03  0.17200000000E+03 0.  1.
</event>
<event>
 4    1  0.5640532E+000  0.2212131E+03  0.7818608E-02  0.1132982E+00
         21   -1    0    0  503  502  0.00000000000E+00  0.00000000000E+00  0.33739273828E+02  0.33739273828E+02  0.00000000000E+00 0.  1.
         21   -1    0    0  501  503 -0.00000000000E+00 -0.00000000000E+00 -0.17558157329E+04  0.17558157329E+04  0.00000000000E+00 0. -1.
          6    1    1    2  501    0  0.52147212128E+02  0.12896473029E+03 -0.12342245389E+04  0.12538921189E+04  0.17200000000E+03 0. -1.
         -6    1    1    2    0  502 -0.52147212128E+02 -0.12896473029E+03 -0.48785192014E+03  0.53566288781E+03  0.17200000000E+03 0.  1.
</event>
<event>
 4    1  0.5640532E+000  0.1747057E+03  0.7818608E-02  0.1173028E+00
         21   -1    0    0  501  502  0.00000000000E+00  0.00000000000E+00  0.23171842673E+03  0.23171842673E+03  0.00000000000E+00 0.  1.
         21   -1    0    0  502  503 -0.00000000000E+00 -0.00000000000E+00 -0.13182121045E+03  0.13182121045E+03  0.00000000000E+00 0.  1.
          6    1    1    2  501    0  0.47533581160E+01 -0.30256967916E+02  0.44925651523E+02  0.18038955814E+03  0.17200000000E+03 0.  1.
         -6    1    1    2    0  503 -0.47533581160E+01  0.30256967916E+02  0.54971564762E+02  0.18315007904E+03  0.17200000000E+03 0.  1.
</event>
<event>
 4    1  0.5640532E+000  0.2103338E+03  0.7818608E-02  0.1141302E+00
         21   -1    0    0  503  502  0.00000000000E+00  0.00000000000E+00  0.33661419155E+02  0.33661419155E+02  0.00000000000E+00 0.  1.
         21   -1    0    0  501  503 -0.00000000000E+00 -0.00000000000E+00 -0.13338069755E+04  0.13338069755E+04  0.00000000000E+00 0.  1.
          6    1    1    2  501    0 -0.56841042309E+02  0.10688958838E+03 -0.73281709161E+03  0.76240486485E+03  0.17200000000E+03 0.  1.
         -6    1    1    2    0  502  0.56841042309E+02 -0.10688958838E+03 -0.56732846471E+03  0.60506352978E+03  0.17200000000E+03 0.  1.
</event>
<event>
 4    1  0.5640532E+000  0.1843641E+03  0.7818608E-02  0.1163645E+00
         21   -1    0    0  503  502  0.00000000000E+00  0.00000000000E+00  0.18362216554E+03  0.18362216554E+03  0.00000000000E+00 0. -1.
         21   -1    0    0  501  503 -0.00000000000E+00 -0.00000000000E+00 -0.24845919035E+03  0.24845919035E+03  0.00000000000E+00 0.  1.
          6    1    1    2  501    0 -0.33244080823E+02  0.57454061895E+02 -0.14150765717E+03  0.23241031642E+03  0.17200000000E+03 0.  1.
         -6    1    1    2    0  502  0.33244080823E+02 -0.57454061895E+02  0.76670632362E+02  0.19967103947E+03  0.17200000000E+03 0. -1.
</event>
<event>
 4    1  0.5640532E+000  0.3519045E+03  0.7818608E-02  0.1061836E+00
         21   -1    0    0  503  502  0.00000000000E+00  0.00000000000E+00  0.33855975470E+03  0.33855975470E+03  0.00000000000E+00 0. -1.
         21   -1    0    0  501  503 -0.00000000000E+00 -0.00000000000E+00 -0.42212275057E+03  0.42212275057E+03  0.00000000000E+00 0.  1.
          6    1    1    2  501    0  0.14692313162E+03 -0.26956698089E+03 -0.18074205718E+03  0.39560643956E+03  0.17200000000E+03 0.  1.
         -6    1    1    2    0  502 -0.14692313162E+03  0.26956698089E+03  0.97179061312E+02  0.36507606570E+03  0.17200000000E+03 0.  1.
</event>
<event>
 4    1  0.5640532E+000  0.1779961E+03  0.7818608E-02  0.1169757E+00
         21   -1    0    0  503  502  0.00000000000E+00  0.00000000000E+00  0.42708792395E+03  0.42708792395E+03  0.00000000000E+00 0.  1.
         21   -1    0    0  501  503 -0.00000000000E+00 -0.00000000000E+00 -0.22506608409E+03  0.22506608409E+03  0.00000000000E+00 0.  1.
          6    1    1    2  501    0  0.44351247363E+02  0.11471488646E+02 -0.16597326719E+03  0.24337163684E+03  0.17200000000E+03 0.  1.
         -6    1    1    2    0  502 -0.44351247363E+02 -0.11471488646E+02  0.36799510705E+03  0.40878237121E+03  0.17200000000E+03 0.  1.
</event>
<event>
 4    1  0.5640532E+000  0.1990227E+03  0.7818608E-02  0.1150566E+00
         21   -1    0    0  501  502  0.00000000000E+00  0.00000000000E+00  0.15677437903E+03  0.15677437903E+03  0.00000000000E+00 0.  1.
         21   -1    0    0  502  503 -0.00000000000E+00 -0.00000000000E+00 -0.31027599586E+03  0.31027599586E+03  0.00000000000E+00 0.  1.
          6    1    1    2  501    0  0.85540785728E+02 -0.52046289791E+02 -0.17738485453E+03  0.26659975417E+03  0.17200000000E+03 0.  1.
         -6    1    1    2    0  503 -0.85540785728E+02  0.52046289791E+02  0.23883237707E+02  0.20045062072E+03  0.17200000000E+03 0.  1.
</event>
<event>
 4    1  0.5640532E+000  0.2113156E+03  0.7818608E-02  0.1140528E+00
         21   -1    0    0  501  502  0.00000000000E+00  0.00000000000E+00  0.18002684035E+03  0.18002684035E+03  0.00000000000E+00 0. -1.
         21   -1    0    0  502  503 -0.00000000000E+00 -0.00000000000E+00 -0.26671946624E+03  0.26671946624E+03  0.00000000000E+00 0. -1.
          6    1    1    2  501    0 -0.11211966354E+03  0.49994832362E+02  0.15763165793E+02  0.21190275980E+03  0.17200000000E+03 0. -1.
         -6    1    1    2    0  503  0.11211966354E+03 -0.49994832362E+02 -0.10245579168E+03  0.23484354678E+03  0.17200000000E+03 0. -1.
</event>
<event>
 4    1  0.5640532E+000  0.1876577E+03  0.7818608E-02  0.1160591E+00
         21   -1    0    0  503  502  0.00000000000E+00  0.00000000000E+00  0.10845509919E+04  0.10845509919E+04  0.00000000000E+00 0.  1.
         21   -1    0    0  501  503 -0.00000000000E+00 -0.00000000000E+00 -0.36128564726E+02  0.36128564726E+02  0.00000000000E+00 0.  1.
          6    1    1    2  501    0  0.69235108478E+01 -0.74722769336E+02  0.70252231234E+03  0.72715405974E+03  0.17200000000E+03 0. -1.
         -6    1    1    2    0  502 -0.69235108478E+01  0.74722769336E+02  0.34590011485E+03  0.39352549691E+03  0.17200000000E+03 0. -1.
</event>
<event>
 4    1  0.5640532E+000  0.2052535E+03  0.7818608E-02  0.1145381E+00
         21   -1    0    0  501  502  0.00000000000E+00  0.00000000000E+00  0.20411285942E+03  0.20411285942E+03  0.00000000000E+00 0. -1.
         21   -1    0    0  502  503 -0.00000000000E+00 -0.00000000000E+00 -0.34618975024E+03  0.34618975024E+03  0.00000000000E+00 0. -1.
          6    1    1    2  501    0 -0.60338401451E+02  0.94362387021E+02 -0.24588273959E+03  0.32029252942E+03  0.17200000000E+03 0. -1.
         -6    1    1    2    0  503  0.60338401451E+02 -0.94362387021E+02  0.10380584877E+03  0.23001008024E+03  0.17200000000E+03 0. -1.
</event>
<event>
 4    1  0.5640532E+000  0.2370862E+03  0.7818608E-02  0.1121749E+00
         21   -1    0    0  501  502  0.00000000000E+00  0.00000000000E+00  0.21418615135E+04  0.21418615135E+04  0.00000000000E+00 0.  1.
         21   -1    0    0  502  503 -0.00000000000E+00 -0.00000000000E+00 -0.42802729725E+02  0.42802729725E+02  0.00000000000E+00 0.  1.
          6    1    1    2  501    0  0.10812733923E+03  0.12220625318E+03  0.17289510087E+04  0.17451307917E+04  0.17200000000E+03 0.  1.
         -6    1    1    2    0  503 -0.10812733923E+03 -0.12220625318E+03  0.37010777511E+03  0.43953345152E+03  0.17200000000E+03 0.  1.
</event>
<event>
 4    1  0.5640532E+000  0.2078665E+03  0.7818608E-02  0.1143267E+00
         21   -1    0    0  501  502  0.00000000000E+00  0.00000000000E+00  0.61149903836E+03  0.61149903836E+03  0.00000000000E+00 0.  1.
         21   -1    0    0  502  503 -0.00000000000E+00 -0.00000000000E+00 -0.21909049205E+03  0.21909049205E+03  0.00000000000E+00 0.  1.
          6    1    1    2  501    0  0.96609263251E+02  0.65506697837E+02  0.53803127225E+03  0.57678949984E+03  0.17200000000E+03 0.  1.
         -6    1    1    2    0  503 -0.96609263251E+02 -0.65506697837E+02 -0.14562272594E+03  0.25380003057E+03  0.17200000000E+03 0.  1.
</event>
<event>
 4    1  0.5640532E+000  0.1791738E+03  0.7818608E-02  0.1168605E+00
         21   -1    0    0  501  502  0.00000000000E+00  0.00000000000E+00  0.89707418695E+03  0.89707418695E+03  0.00000000000E+00 0.  1.
         21   -1    0    0  502  503 -0.00000000000E+00 -0.00000000000E+00 -0.35912366797E+02  0.35912366797E+02  0.00000000000E+00 0.  1.
          6    1    1    2  501    0  0.49137569288E+02 -0.10235183485E+02  0.40297773580E+03  0.44101509639E+03  0.17200000000E+03 0. -1.
         -6    1    1    2    0  503 -0.49137569288E+02  0.10235183485E+02  0.45818408435E+03  0.49197145735E+03  0.17200000000E+03 0. -1.
</event>
<event>
 4    1  0.5640532E+000  0.1972732E+03  0.7818608E-02  0.1152060E+00
         21   -1    0    0  501  502  0.00000000000E+00  0.00000000000E+00  0.12255489826E+03  0.12255489826E+03  0.00000000000E+00 0. -1.
         21   -1    0    0  502  503 -0.00000000000E+00 -0.00000000000E+00 -0.32057054745E+03  0.32057054745E+03  0.00000000000E+00 0. -1.
          6    1    1    2  501    0 -0.90947797092E+02 -0.32576361418E+02 -0.12053175951E+03  0.23118093816E+03  0.17200000000E+03 0. -1.
         -6    1    1    2    0  503  0.90947797092E+02  0.32576361418E+02 -0.77483889675E+02  0.21194450754E+03  0.17200000000E+03 0. -1.
</event>
<event>
 4    1  0.5640532E+000  0.1857941E+03  0.7818608E-02  0.1162310E+00
         21   -1    0    0  503  502  0.00000000000E+00  0.00000000000E+00  0.12125353091E+04  0.12125353091E+04  0.00000000000E+00 0.  1.
         21   -1    0    0  501  503 -0.00000000000E+00 -0.00000000000E+00 -0.53164835077E+02  0.53164835077E+02  0.00000000000E+00 0.  1.
          6    1    1    2  501    0 -0.52965278113E+02  0.46153334077E+02  0.14836282166E+03  0.23776243981E+03  0.17200000000E+03 0.  1.
         -6    1    1    2    0  502  0.52965278113E+02 -0.46153334077E+02  0.10110076524E+04  0.10279377044E+04  0.17200000000E+03 0.  1.
</event>
<event>
 4    1  0.5640532E+000  0.1960245E+03  0.7818608E-02  0.1153137E+00
         21   -1    0    0  501  502  0.00000000000E+00  0.00000000000E+00  0.40052088624E+03  0.40052088624E+03  0.00000000000E+00 0.  1.
         21   -1    0    0  502  503 -0.00000000000E+00 -0.00000000000E+00 -0.14245666523E+03  0.14245666523E+03  0.00000000000E+00 0.  1.
          6    1    1    2  501    0 -0.96356279483E+01 -0.93534866186E+02  0.28417038011E+03  0.34522227832E+03  0.17200000000E+03 0.  1.
         -6    1    1    2    0  503  0.96356279483E+01  0.93534866186E+02 -0.26106159095E+02  0.19775527316E+03  0.17200000000E+03 0.  1.
</event>
<event>
 4    1  0.5640532E+000  0.1817815E+03  0.7818608E-02  0.1166090E+00
         21   -1    0    0  501  502  0.00000000000E+00  0.00000000000E+00  0.59520707910E+02  0.59520707910E+02  0.00000000000E+00 0.  1.
         21   -1    0    0  502  503 -0.00000000000E+00 -0.00000000000E+00 -0.69109823786E+03  0.69109823786E+03  0.00000000000E+00 0.  1.
          6    1    1    2  501    0 -0.10641002017E+02  0.57855732801E+02 -0.14934650747E+03  0.23526346090E+03  0.17200000000E+03 0.  1.
         -6    1    1    2    0  503  0.10641002017E+02 -0.57855732801E+02 -0.48223102247E+03  0.51535548486E+03  0.17200000000E+03 0.  1.
</event>
<event>
 4    1  0.5640532E+000  0.1874913E+03  0.7818608E-02  0.1160744E+00
         21   -1    0    0  501  502  0.00000000000E+00  0.00000000000E+00  0.96586509575E+03  0.96586509575E+03  0.00000000000E+00 0.  1.
         21   -1    0    0  502  503 -0.00000000000E+00 -0.00000000000E+00 -0.37670039979E+02  0.37670039979E+02  0.00000000000E+00 0.  1.
          6    1    1    2  501    0 -0.77367245002E+00 -0.74621550366E+02  0.55639951296E+03  0.58714001088E+03  0.17200000000E+03 0.  1.
         -6    1    1    2    0  503  0.77367245002E+00  0.74621550366E+02  0.37179554281E+03  0.41639512485E+03  0.17200000000E+03 0.  1.
</event>
<event>
 4    1  0.5640532E+000  0.1924208E+03  0.7818608E-02  0.1156296E+00
         21   -1    0    0  503  502  0.00000000000E+00  0.00000000000E+00  0.18328334581E+03  0.18328334581E+03  0.00000000000E+00 0.  1.
         21   -1    0    0  501  503 -0.00000000000E+00 -0.00000000000E+00 -0.47581340618E+03  0.47581340618E+03  0.00000000000E+00 0.  1.
          6    1    1    2  501    0  0.35559049712E+02  0.78595839048E+02 -0.39625196152E+03  0.44050127008E+03  0.17200000000E+03 0.  1.
         -6    1    1    2    0  502 -0.35559049712E+02 -0.78595839048E+02  0.10372190115E+03  0.21859548191E+03  0.17200000000E+03 0.  1.
</event>
<event>
 4    1  0.5640532E+000  0.1748270E+03  0.7818608E-02  0.1172905E+00
         21   -1    0    0  503  502  0.00000000000E+00  0.00000000000E+00  0.10300394051E+04  0.10300394051E+04  0.00000000000E+00 0. -1.
         21   -1    0    0  501  503 -0.00000000000E+00 -0.00000000000E+00 -0.44701179194E+02  0.44701179194E+02  0.00000000000E+00 0. -1.
          6    1    1    2  501    0 -0.28846838710E+02 -0.12180066747E+02  0.18109206802E+03  0.25171180192E+03  0.17200000000E+03 0. -1.
         -6    1    1    2    0  502  0.28846838710E+02  0.12180066747E+02  0.80424615789E+03  0.82302878237E+03  0.17200000000E+03 0. -1.
</event>
<event>
 4    1  0.5640532E+000  0.2852319E+03  0.7818608E-02  0.1092865E+00
         21   -1    0    0  501  502  0.00000000000E+00  0.00000000000E+00  0.21364389298E+03  0.21364389298E+03  0.00000000000E+00 0. -1.
         21   -1    0    0  502  503 -0.00000000000E+00 -0.00000000000E+00 -0.40447063956E+03  0.40447063956E+03  0.00000000000E+00 0. -1.
          6    1    1    2  501    0 -0.37934192648E+01  0.22750568846E+03 -0.20660087665E+02  0.28597913828E+03  0.17200000000E+03 0. -1.
         -6    1    1    2    0  503  0.37934192648E+01 -0.22750568846E+03 -0.17016665891E+03  0.33213539425E+03  0.17200000000E+03 0. -1.
</event>
<event>
 4    1  0.5640532E+000  0.2213096E+03  0.7818608E-02  0.1132910E+00
         21   -1    0    0  501  502  0.00000000000E+00  0.00000000000E+00  0.40017369308E+03  0.40017369308E+03  0.00000000000E+00 0.  1.
         21   -1    0    0  502  503 -0.00000000000E+00 -0.00000000000E+00 -0.12325101612E+03  0.12325101612E+03  0.00000000000E+00 0.  1.
          6    1    1    2  501    0  0.13050120245E+03  0.48614363176E+02  0.16031464199E+03  0.27327404667E+03  0.17200000000E+03 0.  1.
         -6    1    1    2    0  503 -0.13050120245E+03 -0.48614363176E+02  0.11660803497E+03  0.25015066254E+03  0.17200000000E+03 0.  1.
</event>
<event>
 4    1  0.5640532E+000  0.3646300E+03  0.7818608E-02  0.1056765E+00
         21   -1    0    0  501  502  0.00000000000E+00  0.00000000000E+00  0.71639886229E+03  0.71639886229E+03  0.00000000000E+00 0. -1.
         21   -1    0    0  502  503 -0.00000000000E+00 -0.00000000000E+00 -0.18720156127E+03  0.18720156127E+03  0.00000000000E+00 0.  1.
          6    1    1    2  501    0  0.15094252908E+03 -0.28387918766E+03  0.22265339121E+03  0.42723479831E+03  0.17200000000E+03 0. -1.
         -6    1    1    2    0  503 -0.15094252908E+03  0.28387918766E+03  0.30654390981E+03  0.47636562524E+03  0.17200000000E+03 0.  1.
</event>
<event>
 4    1  0.5640532E+000  0.3156061E+03  0.7818608E-02  0.1077689E+00
         21   -1    0    0  503  502  0.00000000000E+00  0.00000000000E+00  0.44827960467E+03  0.44827960467E+03  0.00000000000E+00 0. -1.
         21   -1    0    0  501  503 -0.00000000000E+00 -0.00000000000E+00 -0.53542739629E+03  0.53542739629E+03  0.00000000000E+00 0.  1.
          6    1    1    2  501    0  0.25523955628E+02  0.26338516691E+03 -0.41977159102E+03  0.52518130878E+03  0.17200000000E+03 0.  1.
         -6    1    1    2    0  502 -0.25523955628E+02 -0.26338516691E+03  0.33262379940E+03  0.45852569218E+03  0.17200000000E+03 0. -1.
</event>
<event>
 4    1  0.5640532E+000  0.2092635E+03  0.7818608E-02  0.1142151E+00
         21   -1    0    0  503  502  0.00000000000E+00  0.00000000000E+00  0.37342417929E+03  0.37342417929E+03  0.00000000000E+00 0.  1.
         21   -1    0    0  501  503 -0.00000000000E+00 -0.00000000000E+00 -0.13927200133E+03  0.13927200133E+03  0.00000000000E+00 0.  1.
          6    1    1    2  501    0  0.11871509453E+03  0.10674193227E+02  0.15185129369E+02  0.20981372745E+03  0.17200000000E+03 0. -1.
         -6    1    1    2    0  502 -0.11871509453E+03 -0.10674193227E+02  0.21896704859E+03  0.30288245317E+03  0.17200000000E+03 0. -1.
</event>
<event>
 4    1  0.5640532E+000  0.2378400E+03  0.7818608E-02  0.1121240E+00
         21   -1    0    0  503  502  0.00000000000E+00  0.00000000000E+00  0.82112292989E+03  0.82112292989E+03  0.00000000000E+00 0. -1.
         21   -1    0    0  501  503 -0.00000000000E+00 -0.00000000000E+00 -0.17675914577E+03  0.17675914577E+03  0.00000000000E+00 0. -1.
          6    1    1    2  501    0  0.48631883742E+02 -0.15690382532E+03 -0.67585186184E+02  0.24725619893E+03  0.17200000000E+03 0. -1.
         -6    1    1    2    0  502 -0.48631883742E+02  0.15690382532E+03  0.71194897030E+03  0.75062587674E+03  0.17200000000E+03 0. -1.
</event>
<event>
 4    1  0.5640532E+000  0.2846032E+03  0.7818608E-02  0.1093201E+00
         21   -1    0    0  503  502  0.00000000000E+00  0.00000000000E+00  0.19865960901E+04  0.19865960901E+04  0.00000000000E+00 0. -1.
         21   -1    0    0  501  503 -0.00000000000E+00 -0.00000000000E+00 -0.54832903187E+02  0.54832903187E+02  0.00000000000E+00 0.  1.
          6    1    1    2  501    0 -0.22671924085E+03 -0.36565675575E+01  0.44901472189E+03  0.53161377440E+03  0.17200000000E+03 0.  1.
         -6    1    1    2    0  502  0.22671924085E+03  0.36565675575E+01  0.14827484650E+04  0.15098152189E+04  0.17200000000E+03 0. -1.
</event>
<event>
 4    1  0.5640532E+000  0.4062231E+03  0.7818608E-02  0.1041646E+00
         21   -1    0    0  501  502  0.00000000000E+00  0.00000000000E+00  0.16918108786E+03  0.16918108786E+03  0.00000000000E+00 0. -1.
         21   -1    0    0  502  503 -0.00000000000E+00 -0.00000000000E+00 -0.10201352376E+04  0.10201352376E+04  0.00000000000E+00 0.  1.
          6    1    1    2  501    0  0.16911771522E+03  0.32685227243E+03 -0.30093346946E+03  0.50554738910E+03  0.17200000000E+03 0. -1.
         -6    1    1    2    0  503 -0.16911771522E+03 -0.32685227243E+03 -0.55002068025E+03  0.68376893633E+03  0.17200000000E+03 0. -1.
</event>
<event>
 4    1  0.5640532E+000  0.2693220E+03  0.7818608E-02  0.1101668E+00
         21   -1    0    0  503  502  0.00000000000E+00  0.00000000000E+00  0.86527643346E+03  0.86527643346E+03  0.00000000000E+00 0.  1.
         21   -1    0    0  501  503 -0.00000000000E+00 -0.00000000000E+00 -0.10756952284E+03  0.10756952284E+03  0.00000000000E+00 0. -1.
          6    1    1    2  501    0 -0.18442840331E+03 -0.94533219735E+02  0.15033354982E+03  0.30843887852E+03  0.17200000000E+03 0. -1.
         -6    1    1    2    0  502  0.18442840331E+03  0.94533219735E+02  0.60737336081E+03  0.66440707778E+03  0.17200000000E+03 0.  1.
</event>
<event>
 4    1  0.5640532E+000  0.1743260E+03  0.7818608E-02  0.1173410E+00
         21   -1    0    0  501  502  0.00000000000E+00  0.00000000000E+00  0.11373342271E+04  0.11373342271E+04  0.00000000000E+00 0. -1.
         21   -1    0    0  502  503 -0.00000000000E+00 -0.00000000000E+00 -0.64260965077E+02  0.64260965077E+02  0.00000000000E+00 0. -1.
          6    1    1    2  501    0 -0.28279275328E+02 -0.24190132775E+01  0.99574235059E+03  0.10108869362E+04  0.17200000000E+03 0. -1.
         -6    1    1    2    0  503  0.28279275328E+02  0.24190132775E+01  0.77330911463E+02  0.19070825600E+03  0.17200000000E+03 0. -1.
</event>
<event>
 4    1  0.5640532E+000  0.2043933E+03  0.7818608E-02  0.1146084E+00
         21   -1    0    0  503  502  0.00000000000E+00  0.00000000000E+00  0.98722991603E+02  0.98722991603E+02  0.00000000000E+00 0. -1.
         21   -1    0    0  501  503 -0.00000000000E+00 -0.00000000000E+00 -0.68007371598E+03  0.68007371598E+03  0.00000000000E+00 0.  1.
          6    1    1    2  501    0 -0.10273885133E+03  0.40463926203E+02 -0.51343029898E+02  0.21074322674E+03  0.17200000000E+03 0. -1.
         -6    1    1    2    0  502  0.10273885133E+03 -0.40463926203E+02 -0.53000769448E+03  0.56805348085E+03  0.17200000000E+03 0.  1.
</event>
<event>
 4    1  0.5640532E+000  0.2127248E+03  0.7818608E-02  0.1139426E+00
         21   -1    0    0  503  502  0.00000000000E+00  0.00000000000E+00  0.81683600338E+02  0.81683600338E+02  0.00000000000E+00 0.  1.
         21   -1    0    0  501  503 -0.00000000000E+00 -0.00000000000E+00 -0.56131733341E+03  0.56131733341E+03  0.00000000000E+00 0.  1.
          6    1    1    2  501    0 -0.11743131654E+03 -0.43332908524E+02 -0.27655066543E+03  0.34890131214E+03  0.17200000000E+03 0.  1.
         -6    1    1    2    0  502  0.11743131654E+03  0.43332908524E+02 -0.20308306764E+03  0.29409962160E+03  0.17200000000E+03 0.  1.
</event>
<event>
 4    1  0.5640532E+000  0.1748123E+03  0.7818608E-02  0.1172920E+00
         21   -1    0    0  501  502  0.00000000000E+00  0.00000000000E+00  0.95371891310E+02  0.95371891310E+02  0.00000000000E+00 0.  1.
         21   -1    0    0  502  503 -0.00000000000E+00 -0.00000000000E+00 -0.44839613317E+03  0.44839613317E+03  0.00000000000E+00 0.  1.
          6    1    1    2  501    0  0.31192453403E+02 -0.15356257545E+01 -0.31263337897E+02  0.17758582036E+03  0.17200000000E+03 0. -1.
         -6    1    1    2    0  503 -0.31192453403E+02  0.15356257545E+01 -0.32176090396E+03  0.36618220412E+03  0.17200000000E+03 0. -1.
</event>
<event>
 4    1  0.5640532E+000  0.1929665E+03  0.7818608E-02  0.1155813E+00
         21   -1    0    0  503  502  0.00000000000E+00  0.00000000000E+00  0.22555318265E+03  0.22555318265E+03  0.00000000000E+00 0.  1.
         21   -1    0    0  501  503 -0.00000000000E+00 -0.00000000000E+00 -0.16778871349E+03  0.16778871349E+03  0.00000000000E+00 0.  1.
          6    1    1    2  501    0 -0.27217505702E+02  0.83134045612E+02  0.39293891980E+01  0.19300648242E+03  0.17200000000E+03 0.  1.
         -6    1    1    2    0  502  0.27217505702E+02 -0.83134045612E+02  0.53835079968E+02  0.20033541372E+03  0.17200000000E+03 0.  1.
</event>
<event>
 4    1  0.5640532E+000  0.1912607E+03  0.7818608E-02  0.1157329E+00
         21   -1    0    0  503  502  0.00000000000E+00  0.00000000000E+00  0.80424251692E+03  0.80424251692E+03  0.00000000000E+00 0. -1.
         21   -1    0    0  501  503 -0.00000000000E+00 -0.00000000000E+00 -0.85209051330E+02  0.85209051330E+02  0.00000000000E+00 0. -1.
          6    1    1    2  501    0 -0.32874471299E+02 -0.76915046297E+02  0.55863186682E+02  0.19925197825E+03  0.17200000000E+03 0. -1.
         -6    1    1    2    0  502  0.32874471299E+02  0.76915046297E+02  0.66317027891E+03  0.69019959000E+03  0.17200000000E+03 0. -1.
</event>
<event>
 4    1  0.5640532E+000  0.1918213E+03  0.7818608E-02  0.1156829E+00
         21   -1    0    0  503  502  0.00000000000E+00  0.00000000000E+00  0.34286798353E+03  0.34286798353E+03  0.00000000000E+00 0. -1.
         21   -1    0    0  501  503 -0.00000000000E+00 -0.00000000000E+00 -0.21708941176E+03  0.21708941176E+03  0.00000000000E+00 0. -1.
          6    1    1    2  501    0 -0.52742881872E+02  0.66555313599E+02 -0.13620238459E+03  0.23525839182E+03  0.17200000000E+03 0. -1.
         -6    1    1    2    0  502  0.52742881872E+02 -0.66555313599E+02  0.26198095636E+03  0.32469900347E+03  0.17200000000E+03 0. -1.
</event>
<event>
 4    1  0.5640532E+000  0.1924887E+03  0.7818608E-02  0.1156236E+00
         21   -1    0    0  503  502  0.00000000000E+00  0.00000000000E+00  0.35798548556E+03  0.35798548556E+03  0.00000000000E+00 0.  1.
         21   -1    0    0  501  503 -0.00000000000E+00 -0.00000000000E+00 -0.12069242959E+03  0.12069242959E+03  0.00000000000E+00 0.  1.
          6    1    1    2  501    0  0.65222615394E+02 -0.56691297735E+02  0.28317347709E+02  0.19456044043E+03  0.17200000000E+03 0.  1.
         -6    1    1    2    0  502 -0.65222615394E+02  0.56691297735E+02  0.20897570826E+03  0.28411747472E+03  0.17200000000E+03 0.  1.
</event>
<event>
 4    1  0.5640532E+000  0.2083844E+03  0.7818608E-02  0.1142852E+00
         21   -1    0    0  503  502  0.00000000000E+00  0.00000000000E+00  0.32509493809E+04  0.32509493809E+04  0.00000000000E+00 0.  1.
         21   -1    0    0  501  503 -0.00000000000E+00 -0.00000000000E+00 -0.13817442391E+02  0.13817442391E+02  0.00000000000E+00 0.  1.
          6    1    1    2  501    0 -0.71337953939E+02 -0.93546552750E+02  0.13206924084E+04  0.13370312258E+04  0.17200000000E+03 0.  1.
         -6    1    1    2    0  502  0.71337953939E+02  0.93546552750E+02  0.19164395302E+04  0.19277355975E+04  0.17200000000E+03 0.  1.
</event>
<event>
 4    1  0.5640532E+000  0.2220891E+03  0.7818608E-02  0.1132335E+00
         21   -1    0    0  501  502  0.00000000000E+00  0.00000000000E+00  0.28277066166E+03  0.28277066166E+03  0.00000000000E+00 0.  1.
         21   -1    0    0  502  503 -0.00000000000E+00 -0.00000000000E+00 -0.17756693381E+03  0.17756693381E+03  0.00000000000E+00 0. -1.
          6    1    1    2  501    0  0.12369322716E+03  0.66629837101E+02  0.22006784548E+02  0.22317671967E+03  0.17200000000E+03 0.  1.
         -6    1    1    2    0  503 -0.12369322716E+03 -0.66629837101E+02  0.83196943300E+02  0.23716087580E+03  0.17200000000E+03 0.  1.
</event>
<event>
 4    1  0.5640532E+000  0.2339642E+03  0.7818608E-02  0.1123880E+00
         21   -1    0    0  501  502  0.00000000000E+00  0.00000000000E+00  0.40194970290E+03  0.40194970290E+03  0.00000000000E+00 0. -1.
         21   -1    0    0  502  503 -0.00000000000E+00 -0.00000000000E+00 -0.13873352904E+03  0.13873352904E+03  0.00000000000E+00 0. -1.
          6    1    1    2  501    0  0.18731463838E+02 -0.15749406936E+03  0.16825389907E+03  0.28818158194E+03  0.17200000000E+03 0. -1.
         -6    1    1    2    0  503 -0.18731463838E+02  0.15749406936E+03  0.94962274787E+02  0.25250165000E+03  0.17200000000E+03 0. -1.
</event>
<event>
 4    1  0.5640532E+000  0.2147676E+03  0.7818608E-02  0.1137845E+00
         21   -1    0    0  503  502  0.00000000000E+00  0.00000000000E+00  0.34485374185E+03  0.34485374185E+03  0.00000000000E+00 0. -1.
         21   -1    0    0  501  503 -0.00000000000E+00 -0.00000000000E+00 -0.17013447760E+03  0.17013447760E+03  0.00000000000E+00 0. -1.
          6    1    1    2  501    0  0.10453569635E+03  0.74922680444E+02 -0.31713307866E+02  0.21709641580E+03  0.17200000000E+03 0. -1.
         -6    1    1    2    0  502 -0.10453569635E+03 -0.74922680444E+02  0.20643257211E+03  0.29789180365E+03  0.17200000000E+03 0. -1.
</event>
<event>
 4    1  0.5640532E+000  0.2489262E+03  0.7818608E-02  0.1113985E+00
         21   -1    0    0  501  502  0.00000000000E+00  0.00000000000E+00  0.22231929383E+03  0.22231929383E+03  0.00000000000E+00 0.  1.
         21   -1    0    0  502  503 -0.00000000000E+00 -0.00000000000E+00 -0.39849124513E+03  0.39849124513E+03  0.00000000000E+00 0.  1.
          6    1    1    2  501    0  0.17890085766E+03  0.19357849914E+02  0.82090995459E+02  0.26211290460E+03  0.17200000000E+03 0.  1.
         -6    1    1    2    0  503 -0.17890085766E+03 -0.19357849914E+02 -0.25826294676E+03  0.35869763435E+03  0.17200000000E+03 0.  1.
</event>
<event>
 4    1  0.5640532E+000  0.3413092E+03  0.7818608E-02  0.1066240E+00
         21   -1    0    0  503  502  0.00000000000E+00  0.00000000000E+00  0.17952681977E+03  0.17952681977E+03  0.00000000000E+00 0.  1.
         21   -1    0    0  501  503 -0.00000000000E+00 -0.00000000000E+00 -0.68275176708E+03  0.68275176708E+03  0.00000000000E+00 0. -1.
          6    1    1    2  501    0 -0.26889052868E+03  0.12085459371E+03 -0.34763744233E+03  0.48717937204E+03  0.17200000000E+03 0.  1.
         -6    1    1    2    0  502  0.26889052868E+03 -0.12085459371E+03 -0.15558750498E+03  0.37509921480E+03  0.17200000000E+03 0.  1.
</event>
<event>
 4    1  0.5640532E+000  0.1758574E+03  0.7818608E-02  0.1171874E+00
         21   -1    0    0  501  502  0.00000000000E+00  0.00000000000E+00  0.24911423790E+03  0.24911423790E+03  0.00000000000E+00 0. -1.
         21   -1    0    0  502  503 -0.00000000000E+00 -0.00000000000E+00 -0.76229386007E+03  0.76229386007E+03  0.00000000000E+00 0. -1.
          6    1    1    2  501    0  0.27294437102E+02 -0.24429972098E+02  0.20610738827E+03  0.27093553722E+03  0.17200000000E+03 0. -1.
         -6    1    1    2    0  503 -0.27294437102E+02  0.24429972098E+02 -0.71928701044E+03  0.74047256074E+03  0.17200000000E+03 0. -1.
</event>
<event>
 4    1  0.5640532E+000  0.2101045E+03  0.7818608E-02  0.1141483E+00
         21   -1    0    0  503  502  0.00000000000E+00  0.00000000000E+00  0.79833604859E+03  0.79833604859E+03  0.00000000000E+00 0.  1.
         21   -1    0    0  501  503 -0.00000000000E+00 -0.00000000000E+00 -0.97201631156E+02  0.97201631156E+02  0.00000000000E+00 0. -1.
          6    1    1    2  501    0 -0.67497971832E+02 -0.10001964601E+03  0.56559292198E+02  0.21758414309E+03  0.17200000000E+03 0. -1.
         -6    1    1    2    0  502  0.67497971832E+02  0.10001964601E+03  0.64457512524E+03  0.67795353665E+03  0.17200000000E+03 0.  1.
</event>
<event>
 4    1  0.5640532E+000  0.1951933E+03  0.7818608E-02  0.1153859E+00
         21   -1    0    0  501  502  0.00000000000E+00  0.00000000000E+00  0.42978669083E+03  0.42978669083E+03  0.00000000000E+00 0.  1.
         21   -1    0    0  502  503 -0.00000000000E+00 -0.00000000000E+00 -0.88902901021E+02  0.88902901021E+02  0.00000000000E+00 0.  1.
          6    1    1    2  501    0  0.97785524518E+01  0.91764941235E+02  0.18428474364E+03  0.26844234254E+03  0.17200000000E+03 0.  1.
         -6    1    1    2    0  503 -0.97785524518E+01 -0.91764941235E+02  0.15659904617E+03  0.25024724931E+03  0.17200000000E+03 0.  1.
</event>
<event>
 4    1  0.5640532E+000  0.2126787E+03  0.7818608E-02  0.1139462E+00
         21   -1    0    0  503  502  0.00000000000E+00  0.00000000000E+00  0.14571219251E+03  0.14571219251E+03  0.00000000000E+00 0. -1.
         21   -1    0    0  501  503 -0.00000000000E+00 -0.00000000000E+00 -0.47807859020E+03  0.47807859020E+03  0.00000000000E+00 0. -1.
          6    1    1    2  501    0  0.10884295498E+03 -0.61655949408E+02 -0.35088445509E+03  0.41030737962E+03  0.17200000000E+03 0. -1.
         -6    1    1    2    0  502 -0.10884295498E+03  0.61655949408E+02  0.18518057398E+02  0.21348340309E+03  0.17200000000E+03 0. -1.
</event>
<event>
 4    1  0.5640532E+000  0.1852967E+03  0.7818608E-02  0.1162773E+00
         21   -1    0    0  503  502  0.00000000000E+00  0.00000000000E+00  0.20592313820E+03  0.20592313820E+03  0.00000000000E+00 0.  1.
         21   -1    0    0  501  503 -0.00000000000E+00 -0.00000000000E+00 -0.22407094289E+03  0.22407094289E+03  0.00000000000E+00 0. -1.
          6    1    1    2  501    0 -0.64070844276E+02 -0.25412704050E+02 -0.11782858465E+03  0.21958700775E+03  0.17200000000E+03 0. -1.
         -6    1    1    2    0  502  0.64070844276E+02  0.25412704050E+02  0.99680779959E+02  0.21040707333E+03  0.17200000000E+03 0.  1.
</event>
<event>
 4    1  0.5640532E+000  0.1935755E+03  0.7818608E-02  0.1155275E+00
         21   -1    0    0  501  502  0.00000000000E+00  0.00000000000E+00  0.22102146928E+04  0.22102146928E+04  0.00000000000E+00 0.  1.
         21   -1    0    0  502  503 -0.00000000000E+00 -0.00000000000E+00 -0.23318810000E+02  0.23318810000E+02  0.00000000000E+00 0. -1.
          6    1    1    2  501    0  0.28686263117E+02 -0.84051070240E+02  0.16769060215E+04  0.16880418505E+04  0.17200000000E+03 0.  1.
         -6    1    1    2    0  503 -0.28686263117E+02  0.84051070240E+02  0.50998986133E+03  0.54549165233E+03  0.17200000000E+03 0. -1.
</event>
<event>
 4    1  0.5640532E+000  0.1908603E+03  0.7818608E-02  0.1157688E+00
         21   -1    0    0  501  502  0.00000000000E+00  0.00000000000E+00  0.93013093728E+02  0.93013093728E+02  0.00000000000E+00 0. -1.
         21   -1    0    0  502  503 -0.00000000000E+00 -0.00000000000E+00 -0.45450668528E+03  0.45450668528E+03  0.00000000000E+00 0. -1.
          6    1    1    2  501    0  0.79086223525E+02 -0.24269861546E+02 -0.78932296528E+02  0.20653804581E+03  0.17200000000E+03 0. -1.
         -6    1    1    2    0  503 -0.79086223525E+02  0.24269861546E+02 -0.28256129502E+03  0.34098173320E+03  0.17200000000E+03 0. -1.
</event>
<event>
 4    1  0.5640532E+000  0.1849618E+03  0.7818608E-02  0.1163086E+00
         21   -1    0    0  503  502  0.00000000000E+00  0.00000000000E+00  0.11194602110E+04  0.11194602110E+04  0.00000000000E+00 0.  1.
         21   -1    0    0  501  503 -0.00000000000E+00 -0.00000000000E+00 -0.30633553515E+02  0.30633553515E+02  0.00000000000E+00 0.  1.
          6    1    1    2  501    0  0.30826022761E+01 -0.67951271038E+02  0.51626530471E+03  0.54839834292E+03  0.17200000000E+03 0.  1.
         -6    1    1    2    0  502 -0.30826022761E+01  0.67951271038E+02  0.57256135273E+03  0.60169542155E+03  0.17200000000E+03 0.  1.
</event>
<event>
 4    1  0.5640532E+000  0.1857315E+03  0.7818608E-02  0.1162369E+00
         21   -1    0    0  501  502  0.00000000000E+00  0.00000000000E+00  0.68102465981E+02  0.68102465981E+02  0.00000000000E+00 0. -1.
         21   -1    0    0  502  503 -0.00000000000E+00 -0.00000000000E+00 -0.13031789354E+04  0.13031789354E+04  0.00000000000E+00 0. -1.
          6    1    1    2  501    0 -0.49582514266E+02  0.49535346336E+02 -0.81461305494E+02  0.20281055335E+03  0.17200000000E+03 0. -1.
         -6    1    1    2    0  503  0.49582514266E+02 -0.49535346336E+02 -0.11536151639E+04  0.11684708480E+04  0.17200000000E+03 0. -1.
</event>
<event>
 4    1  0.5640532E+000  0.2290588E+03  0.7818608E-02  0.1127304E+00
         21   -1    0    0  501  502  0.00000000000E+00  0.00000000000E+00  0.15879726563E+04  0.15879726563E+04  0.00000000000E+00 0. -1.
         21   -1    0    0  502  503 -0.00000000000E+00 -0.00000000000E+00 -0.59586091982E+02  0.59586091982E+02  0.00000000000E+00 0. -1.
          6    1    1    2  501    0 -0.88976761226E+02 -0.12234000648E+03  0.13140277182E+04  0.13338428639E+04  0.17200000000E+03 0. -1.
         -6    1    1    2    0  503  0.88976761226E+02  0.12234000648E+03  0.21435884603E+03  0.31371588436E+03  0.17200000000E+03 0. -1.
</event>
<event>
 4    1  0.5640532E+000  0.2894853E+03  0.7818608E-02  0.1090618E+00
         21   -1    0    0  501  502  0.00000000000E+00  0.00000000000E+00  0.15078770014E+03  0.15078770014E+03  0.00000000000E+00 0.  1.
         21   -1    0    0  502  503 -0.00000000000E+00 -0.00000000000E+00 -0.62452587701E+03  0.62452587701E+03  0.00000000000E+00 0. -1.
          6    1    1    2  501    0 -0.22802644811E+03  0.47134460696E+02 -0.10823389777E+03  0.30905710645E+03  0.17200000000E+03 0.  1.
         -6    1    1    2    0  503  0.22802644811E+03 -0.47134460696E+02 -0.36550427911E+03  0.46625647070E+03  0.17200000000E+03 0. -1.
</event>
<event>
 4    1  0.5640532E+000  0.1912005E+03  0.7818608E-02  0.1157383E+00
         21   -1    0    0  501  502  0.00000000000E+00  0.00000000000E+00  0.17832223295E+03  0.17832223295E+03  0.00000000000E+00 0.  1.
         21   -1    0    0  502  503 -0.00000000000E+00 -0.00000000000E+00 -0.26916008232E+03  0.26916008232E+03  0.00000000000E+00 0.  1.
          6    1    1    2  501    0 -0.56843887945E+02 -0.61175089385E+02  0.63811437634E+02  0.20156765299E+03  0.17200000000E+03 0.  1.
         -6    1    1    2    0  503  0.56843887945E+02  0.61175089385E+02 -0.15464928701E+03  0.24591466229E+03  0.17200000000E+03 0.  1.
</event>
<event>
 4    1  0.5640532E+000  0.2039333E+03  0.7818608E-02  0.1146462E+00
         21   -1    0    0  503  502  0.00000000000E+00  0.00000000000E+00  0.54800916643E+02  0.54800916643E+02  0.00000000000E+00 0.  1.
         21   -1    0    0  501  503 -0.00000000000E+00 -0.00000000000E+00 -0.84113392576E+03  0.84113392576E+03  0.00000000000E+00 0.  1.
          6    1    1    2  501    0 -0.78382482034E+02 -0.76557091425E+02 -0.53322864614E+03  0.57089542895E+03  0.17200000000E+03 0.  1.
         -6    1    1    2    0  502  0.78382482034E+02  0.76557091425E+02 -0.25310436298E+03  0.32503941345E+03  0.17200000000E+03 0.  1.
</event>
<event>
 4    1  0.5640532E+000  0.1865015E+03  0.7818608E-02  0.1161655E+00
         21   -1    0    0  503  502  0.00000000000E+00  0.00000000000E+00  0.12437879181E+03  0.12437879181E+03  0.00000000000E+00 0.  1.
         21   -1    0    0  501  503 -0.00000000000E+00 -0.00000000000E+00 -0.36116199757E+03  0.36116199757E+03  0.00000000000E+00 0.  1.
          6    1    1    2  501    0 -0.39755418067E+01 -0.71992998714E+02 -0.23372357976E+03  0.29901422798E+03  0.17200000000E+03 0.  1.
         -6    1    1    2    0  502  0.39755418067E+01  0.71992998714E+02 -0.30596260027E+01  0.18652656140E+03  0.17200000000E+03 0.  1.
</event>
<event>
 4    1  0.5640532E+000  0.2566540E+03  0.7818608E-02  0.1109170E+00
         21   -1    0    0  503  502  0.00000000000E+00  0.00000000000E+00  0.51511897016E+03  0.51511897016E+03  0.00000000000E+00 0. -1.
         21   -1    0    0  501  503 -0.00000000000E+00 -0.00000000000E+00 -0.16131745606E+03  0.16131745606E+03  0.00000000000E+00 0.  1.
          6    1    1    2  501    0  0.15132508093E+03 -0.11570645985E+03  0.33089341417E+03  0.41876212402E+03  0.17200000000E+03 0. -1.
         -6    1    1    2    0  502 -0.15132508093E+03  0.11570645985E+03  0.22908099929E+02  0.25767430220E+03  0.17200000000E+03 0. -1.
</event>
<event>
 4    1  0.5640532E+000  0.1950433E+03  0.7818608E-02  0.1153990E+00
         21   -1    0    0  503  502  0.00000000000E+00  0.00000000000E+00  0.90812793520E+02  0.90812793520E+02  0.00000000000E+00 0.  1.
         21   -1    0    0  501  503 -0.00000000000E+00 -0.00000000000E+00 -0.52160911972E+03  0.52160911972E+03  0.00000000000E+00 0. -1.
          6    1    1    2  501    0 -0.69410547531E+02 -0.60332894804E+02 -0.35127432072E+03  0.40179040643E+03  0.17200000000E+03 0.  1.
         -6    1    1    2    0  502  0.69410547531E+02  0.60332894804E+02 -0.79522005480E+02  0.21063150681E+03  0.17200000000E+03 0.  1.
</event>
<event>
 4    1  0.5640532E+000  0.2046092E+03  0.7818608E-02  0.1145907E+00
         21   -1    0    0  501  502  0.00000000000E+00  0.00000000000E+00  0.42279425697E+03  0.42279425697E+03  0.00000000000E+00 0. -1.
         21   -1    0    0  502  503 -0.00000000000E+00 -0.00000000000E+00 -0.10215165551E+03  0.10215165551E+03  0.00000000000E+00 0. -1.
          6    1    1    2  501    0 -0.12157610501E+02 -0.11015040534E+03  0.11436168322E+03  0.23440032824E+03  0.17200000000E+03 0. -1.
         -6    1    1    2    0  503  0.12157610501E+02  0.11015040534E+03  0.20628091825E+03  0.29054558424E+03  0.17200000000E+03 0. -1.
</event>
<event>
 4    1  0.5640532E+000  0.1993483E+03  0.7818608E-02  0.1150290E+00
         21   -1    0    0  503  502  0.00000000000E+00  0.00000000000E+00  0.32623309306E+03  0.32623309306E+03  0.00000000000E+00 0. -1.
         21   -1    0    0  501  503 -0.00000000000E+00 -0.00000000000E+00 -0.13657633571E+03  0.13657633571E+03  0.00000000000E+00 0. -1.
          6    1    1    2  501    0 -0.60764979936E+02  0.80395034028E+02  0.18749757790E+02  0.20022811416E+03  0.17200000000E+03 0. -1.
         -6    1    1    2    0  502  0.60764979936E+02 -0.80395034028E+02  0.17090699956E+03  0.26258131461E+03  0.17200000000E+03 0. -1.
</event>
<event>
 4    1  0.5640532E+000  0.1896701E+03  0.7818608E-02  0.1158759E+00
         21   -1    0    0  501  502  0.00000000000E+00  0.00000000000E+00  0.22752153553E+02  0.22752153553E+02  0.00000000000E+00 0. -1.
         21   -1    0    0  502  503 -0.00000000000E+00 -0.00000000000E+00 -0.17019854562E+04  0.17019854562E+04  0.00000000000E+00 0. -1.
          6    1    1    2  501    0  0.60145213024E+01 -0.79715635382E+02 -0.60984452208E+03  0.63865882762E+03  0.17200000000E+03 0.  1.
         -6    1    1    2    0  503 -0.60145213024E+01  0.79715635382E+02 -0.10693887806E+04  0.10860787822E+04  0.17200000000E+03 0.  1.
</event>
<event>
 4    1  0.5640532E+000  0.2019756E+03  0.7818608E-02  0.1148083E+00
         21   -1    0    0  501  502  0.00000000000E+00  0.00000000000E+00  0.30586201144E+03  0.30586201144E+03  0.00000000000E+00 0. -1.
         21   -1    0    0  502  503 -0.00000000000E+00 -0.00000000000E+00 -0.17525990328E+03  0.17525990328E+03  0.00000000000E+00 0. -1.
          6    1    1    2  501    0 -0.10549970061E+03  0.89408562524E+01  0.18290349819E+03  0.27248452321E+03  0.17200000000E+03 0. -1.
         -6    1    1    2    0  503  0.10549970061E+03 -0.89408562524E+01 -0.52301390028E+02  0.20863739151E+03  0.17200000000E+03 0. -1.
</event>
<event>
 4    1  0.5640532E+000  0.3081366E+03  0.7818608E-02  0.1081242E+00
         21   -1    0    0  503  502  0.00000000000E+00  0.00000000000E+00  0.28747413603E+03  0.28747413603E+03  0.00000000000E+00 0.  1.
         21   -1    0    0  501  503 -0.00000000000E+00 -0.00000000000E+00 -0.59303622132E+03  0.59303622132E+03  0.00000000000E+00 0.  1.
          6    1    1    2  501    0  0.20328490851E+03  0.15504655437E+03 -0.44582773915E+03  0.54195069983E+03  0.17200000000E+03 0.  1.
         -6    1    1    2    0  502 -0.20328490851E+03 -0.15504655437E+03  0.14026565386E+03  0.33855965753E+03  0.17200000000E+03 0.  1.
</event>
<event>
 4    1  0.5640532E+000  0.2949450E+03  0.7818608E-02  0.1087795E+00
         21   -1    0    0  501  502  0.00000000000E+00  0.00000000000E+00  0.29937196037E+03  0.29937196037E+03  0.00000000000E+00 0.  1.
         21   -1    0    0  502  503 -0.00000000000E+00 -0.00000000000E+00 -0.32653594940E+03  0.32653594940E+03  0.00000000000E+00 0.  1.
          6    1    1    2  501    0  0.37950144390E+02  0.23657623450E+03  0.90261589033E+02  0.30844721209E+03  0.17200000000E+03 0. -1.
         -6    1    1    2    0  503 -0.37950144390E+02 -0.23657623450E+03 -0.11742557806E+03  0.31746069768E+03  0.17200000000E+03 0. -1.
</event>
<event>
 4    1  0.5640532E+000  0.2259984E+03  0.7818608E-02  0.1129488E+00
         21   -1    0    0  503  502  0.00000000000E+00  0.00000000000E+00  0.42096100758E+03  0.42096100758E+03  0.00000000000E+00 0.  1.
         21   -1    0    0  501  503 -0.00000000000E+00 -0.00000000000E+00 -0.28011866374E+03  0.28011866374E+03  0.00000000000E+00 0. -1.
          6    1    1    2  501    0 -0.14233974147E+03 -0.35081071486E+02 -0.19350097060E+03  0.29751959465E+03  0.17200000000E+03 0. -1.
         -6    1    1    2    0  502  0.14233974147E+03  0.35081071486E+02  0.33434331444E+03  0.40356007668E+03  0.17200000000E+03 0.  1.
</event>
<event>
 4    1  0.5640532E+000  0.1739816E+03  0.7818608E-02  0.1173758E+00
         21   -1    0    0  501  502  0.00000000000E+00  0.00000000000E+00  0.43822877300E+03  0.43822877300E+03  0.00000000000E+00 0.  1.
         21   -1    0    0  502  503 -0.00000000000E+00 -0.00000000000E+00 -0.10220566307E+03  0.10220566307E+03  0.00000000000E+00 0.  1.
          6    1    1    2  501    0 -0.21485192421E+01 -0.26095931878E+02  0.32186461442E+03  0.36587763503E+03  0.17200000000E+03 0.  1.
         -6    1    1    2    0  503  0.21485192421E+01  0.26095931878E+02  0.14158495509E+02  0.17455680104E+03  0.17200000000E+03 0.  1.
</event>
<event>
 4    1  0.5640532E+000  0.1806270E+03  0.7818608E-02  0.1167198E+00
         21   -1    0    0  503  502  0.00000000000E+00  0.00000000000E+00  0.14742458994E+03  0.14742458994E+03  0.00000000000E+00 0.  1.
         21   -1    0    0  501  503 -0.00000000000E+00 -0.00000000000E+00 -0.22132106681E+03  0.22132106681E+03  0.00000000000E+00 0.  1.
          6    1    1    2  501    0  0.49678227664E+02  0.23962540331E+02 -0.38405339311E+02  0.18466483079E+03  0.17200000000E+03 0.  1.
         -6    1    1    2    0  502 -0.49678227664E+02 -0.23962540331E+02 -0.35491137558E+02  0.18408082597E+03  0.17200000000E+03 0.  1.
</event>
<event>
 4    1  0.5640532E+000  0.2063070E+03  0.7818608E-02  0.1144524E+00
         21   -1    0    0  503  502  0.00000000000E+00  0.00000000000E+00  0.11735789063E+03  0.11735789063E+03  0.00000000000E+00 0. -1.
         21   -1    0    0  501  503 -0.00000000000E+00 -0.00000000000E+00 -0.62932644951E+03  0.62932644951E+03  0.00000000000E+00 0. -1.
          6    1    1    2  501    0 -0.36527503957E+02  0.10790878913E+03 -0.49900453349E+03  0.53997045268E+03  0.17200000000E+03 0. -1.
         -6    1    1    2    0  502  0.36527503957E+02 -0.10790878913E+03 -0.12964025393E+02  0.20671388746E+03  0.17200000000E+03 0. -1.
</event>
<event>
 4    1  0.5640532E+000  0.2705975E+03  0.7818608E-02  0.1100938E+00
         21   -1    0    0  501  502  0.00000000000E+00  0.00000000000E+00  0.62046428985E+03  0.62046428985E+03  0.00000000000E+00 0.  1.
         21   -1    0    0  502  503 -0.00000000000E+00 -0.00000000000E+00 -0.13189063055E+03  0.13189063055E+03  0.00000000000E+00 0. -1.
          6    1    1    2  501    0 -0.20616012020E+03 -0.33719604734E+02  0.12226443097E+03  0.29693702697E+03  0.17200000000E+03 0. -1.
         -6    1    1    2    0  503  0.20616012020E+03  0.33719604734E+02  0.36630922833E+03  0.45541789344E+03  0.17200000000E+03 0.  1.
</event>
<event>
 4    1  0.5640532E+000  0.1833789E+03  0.7818608E-02  0.1164572E+00
         21   -1    0    0  501  502  0.00000000000E+00  0.00000000000E+00  0.54754764567E+03  0.54754764567E+03  0.00000000000E+00 0. -1.
         21   -1    0    0  502  503 -0.00000000000E+00 -0.00000000000E+00 -0.62474144788E+02  0.62474144788E+02  0.00000000000E+00 0. -1.
          6    1    1    2  501    0  0.63310351763E+02  0.59682799914E+01  0.28224443576E+03  0.33658541639E+03  0.17200000000E+03 0. -1.
         -6    1    1    2    0  503 -0.63310351763E+02 -0.59682799914E+01  0.20282906512E+03  0.27343637407E+03  0.17200000000E+03 0. -1.
</event>
<event>
 4    1  0.5640532E+000  0.1858665E+03  0.7818608E-02  0.1162243E+00
         21   -1    0    0  501  502  0.00000000000E+00  0.00000000000E+00  0.11949503397E+03  0.11949503397E+03  0.00000000000E+00 0. -1.
         21   -1    0    0  502  503 -0.00000000000E+00 -0.00000000000E+00 -0.30364395226E+03  0.30364395226E+03  0.00000000000E+00 0.  1.
          6    1    1    2  501    0  0.62514723617E+02 -0.32469244805E+02 -0.45775531120E+02  0.19142032749E+03  0.17200000000E+03 0.  1.
         -6    1    1    2    0  503 -0.62514723617E+02  0.32469244805E+02 -0.13837338717E+03  0.23171865873E+03  0.17200000000E+03 0.  1.
</event>
<event>
 4    1  0.5640532E+000  0.2931160E+03  0.7818608E-02  0.1088733E+00
         21   -1    0    0  503  502  0.00000000000E+00  0.00000000000E+00  0.47835039490E+03  0.47835039490E+03  0.00000000000E+00 0. -1.
         21   -1    0    0  501  503 -0.00000000000E+00 -0.00000000000E+00 -0.18110348490E+03  0.18110348490E+03  0.00000000000E+00 0.  1.
          6    1    1    2  501    0 -0.31326041476E+02  0.23526940241E+03  0.17855574722E+03  0.34321883318E+03  0.17200000000E+03 0.  1.
         -6    1    1    2    0  502  0.31326041476E+02 -0.23526940241E+03  0.11869116278E+03  0.31623504661E+03  0.17200000000E+03 0.  1.
</event>
<event>
 4    1  0.5640532E+000  0.2745131E+03  0.7818608E-02  0.1098724E+00
         21   -1    0    0  503  502  0.00000000000E+00  0.00000000000E+00  0.81043694746E+02  0.81043694746E+02  0.00000000000E+00 0. -1.
         21   -1    0    0  501  503 -0.00000000000E+00 -0.00000000000E+00 -0.93198241450E+03  0.93198241450E+03  0.00000000000E+00 0.  1.
          6    1    1    2  501    0 -0.78288481801E+02 -0.19910885277E+03 -0.40116703447E+03  0.48609917834E+03  0.17200000000E+03 0. -1.
         -6    1    1    2    0  502  0.78288481801E+02  0.19910885277E+03 -0.44977168528E+03  0.52692693091E+03  0.17200000000E+03 0.  1.
</event>
<event>
 4    1  0.5640532E+000  0.1730350E+03  0.7818608E-02  0.1174719E+00
         21   -1    0    0  503  502  0.00000000000E+00  0.00000000000E+00  0.22400076595E+04  0.22400076595E+04  0.00000000000E+00 0. -1.
         21   -1    0    0  501  503 -0.00000000000E+00 -0.00000000000E+00 -0.14575061643E+02  0.14575061643E+02  0.00000000000E+00 0. -1.
          6    1    1    2  501    0 -0.92583175557E+01 -0.16474467213E+02  0.78810741759E+03  0.80687943720E+03  0.17200000000E+03 0.  1.
         -6    1    1    2    0  502  0.92583175557E+01  0.16474467213E+02  0.14373251803E+04  0.14477032839E+04  0.17200000000E+03 0.  1.
</event>
<event>
 4    1  0.5640532E+000  0.2024965E+03  0.7818608E-02  0.1147650E+00
         21   -1    0    0  501  502  0.00000000000E+00  0.00000000000E+00  0.14455432255E+03  0.14455432255E+03  0.00000000000E+00 0. -1.
         21   -1    0    0  502  503 -0.00000000000E+00 -0.00000000000E+00 -0.29080721009E+03  0.29080721009E+03  0.00000000000E+00 0. -1.
          6    1    1    2  501    0  0.10570386417E+03 -0.15733061036E+02 -0.39009615332E+02  0.20621975220E+03  0.17200000000E+03 0.  1.
         -6    1    1    2    0  503 -0.10570386417E+03  0.15733061036E+02 -0.10724327221E+03  0.22914178044E+03  0.17200000000E+03 0.  1.
</event>
<event>
 4    1  0.5640532E+000  0.2020518E+03  0.7818608E-02  0.1148019E+00
         21   -1    0    0  503  502  0.00000000000E+00  0.00000000000E+00  0.67352850594E+02  0.67352850594E+02  0.00000000000E+00 0.  1.
         21   -1    0    0  501  503 -0.00000000000E+00 -0.00000000000E+00 -0.66596477337E+03  0.66596477337E+03  0.00000000000E+00 0.  1.
          6    1    1    2  501    0  0.10562256152E+03 -0.92085697743E+01 -0.40920528170E+03  0.45637033846E+03  0.17200000000E+03 0.  1.
         -6    1    1    2    0  502 -0.10562256152E+03  0.92085697743E+01 -0.18940664108E+03  0.27694728550E+03  0.17200000000E+03 0.  1.
</event>
<event>
 4    1  0.5640532E+000  0.2004098E+03  0.7818608E-02  0.1149394E+00
         21   -1    0    0  501  502  0.00000000000E+00  0.00000000000E+00  0.36437684825E+02  0.36437684825E+02  0.00000000000E+00 0. -1.
         21   -1    0    0  502  503 -0.00000000000E+00 -0.00000000000E+00 -0.11202809164E+04  0.11202809164E+04  0.00000000000E+00 0. -1.
          6    1    1    2  501    0 -0.28654819500E+02 -0.98787657887E+02 -0.46858442534E+03  0.50964248617E+03  0.17200000000E+03 0. -1.
         -6    1    1    2    0  503  0.28654819500E+02  0.98787657887E+02 -0.61525880618E+03  0.64707611501E+03  0.17200000000E+03 0. -1.
</event>
<event>
 4    1  0.5640532E+000  0.2101993E+03  0.7818608E-02  0.1141408E+00
         21   -1    0    0  501  502  0.00000000000E+00  0.00000000000E+00  0.41746156348E+03  0.41746156348E+03  0.00000000000E+00 0.  1.
         21   -1    0    0  502  503 -0.00000000000E+00 -0.00000000000E+00 -0.14813991823E+03  0.14813991823E+03  0.00000000000E+00 0.  1.
          6    1    1    2  501    0  0.27173130473E+02 -0.11773430949E+03  0.28577979565E+03  0.35475884521E+03  0.17200000000E+03 0.  1.
         -6    1    1    2    0  503 -0.27173130473E+02  0.11773430949E+03 -0.16458150408E+02  0.21084263650E+03  0.17200000000E+03 0.  1.
</event>
<event>
 4    1  0.5640532E+000  0.1852855E+03  0.7818608E-02  0.1162784E+00
         21   -1    0    0  503  502  0.00000000000E+00  0.00000000000E+00  0.21869541476E+03  0.21869541476E+03  0.00000000000E+00 0. -1.
         21   -1    0    0  501  503 -0.00000000000E+00 -0.00000000000E+00 -0.36300873101E+03  0.36300873101E+03  0.00000000000E+00 0. -1.
          6    1    1    2  501    0 -0.68396472521E+02  0.82848068602E+01 -0.29127460959E+03  0.34521241819E+03  0.17200000000E+03 0. -1.
         -6    1    1    2    0  502  0.68396472521E+02 -0.82848068602E+01  0.14696129334E+03  0.23649172759E+03  0.17200000000E+03 0. -1.
</event>
<event>
 4    1  0.5640532E+000  0.1802591E+03  0.7818608E-02  0.1167552E+00
         21   -1    0    0  501  502  0.00000000000E+00  0.00000000000E+00  0.22818321128E+04  0.22818321128E+04  0.00000000000E+00 0. -1.
         21   -1    0    0  502  503 -0.00000000000E+00 -0.00000000000E+00 -0.14365892422E+02  0.14365892422E+02  0.00000000000E+00 0. -1.
          6    1    1    2  501    0 -0.27065079307E+02  0.46656639043E+02  0.12411961206E+04  0.12542173537E+04  0.17200000000E+03 0. -1.
         -6    1    1    2    0  503  0.27065079307E+02 -0.46656639043E+02  0.10262700998E+04  0.10419806515E+04  0.17200000000E+03 0. -1.
</event>
<event>
 4    1  0.5640532E+000  0.2306146E+03  0.7818608E-02  0.1126208E+00
         21   -1    0    0  501  502  0.00000000000E+00  0.00000000000E+00  0.31952982724E+02  0.31952982724E+02  0.00000000000E+00 0. -1.
         21   -1    0    0  502  503 -0.00000000000E+00 -0.00000000000E+00 -0.19821532529E+04  0.19821532529E+04  0.00000000000E+00 0.  1.
          6    1    1    2  501    0  0.15118568017E+03  0.27239018450E+02 -0.57190299779E+03  0.61664910030E+03  0.17200000000E+03 0.  1.
         -6    1    1    2    0  503 -0.15118568017E+03 -0.27239018450E+02 -0.13782972723E+04  0.13974571353E+04  0.17200000000E+03 0. -1.
</event>
<event>
 4    1  0.5640532E+000  0.1812104E+03  0.7818608E-02  0.1166637E+00
         21   -1    0    0  501  502  0.00000000000E+00  0.00000000000E+00  0.51944190665E+02  0.51944190665E+02  0.00000000000E+00 0.  1.
         21   -1    0    0  502  503 -0.00000000000E+00 -0.00000000000E+00 -0.93827509936E+03  0.93827509936E+03  0.00000000000E+00 0.  1.
          6    1    1    2  501    0  0.51536343541E+02  0.24438185243E+02 -0.16036753576E+03  0.24198133425E+03  0.17200000000E+03 0.  1.
         -6    1    1    2    0  503 -0.51536343541E+02 -0.24438185243E+02 -0.72596337294E+03  0.74823795577E+03  0.17200000000E+03 0.  1.
</event>
<event>
 4    1  0.5640532E+000  0.2090046E+03  0.7818608E-02  0.1142357E+00
         21   -1    0    0  503  502  0.00000000000E+00  0.00000000000E+00  0.11798728929E+04  0.11798728929E+04  0.00000000000E+00 0. -1.
         21   -1    0    0  501  503 -0.00000000000E+00 -0.00000000000E+00 -0.47898874401E+02  0.47898874401E+02  0.00000000000E+00 0. -1.
          6    1    1    2  501    0 -0.99214159695E+02  0.65233846007E+02  0.27347134298E+03  0.34419395634E+03  0.17200000000E+03 0. -1.
         -6    1    1    2    0  502  0.99214159695E+02 -0.65233846007E+02  0.85850267547E+03  0.88357781092E+03  0.17200000000E+03 0. -1.
</event>
<event>
 4    1  0.5640532E+000  0.1909122E+03  0.7818608E-02  0.1157641E+00
         21   -1    0    0  503  502  0.00000000000E+00  0.00000000000E+00  0.13522656431E+03  0.13522656431E+03  0.00000000000E+00 0.  1.
         21   -1    0    0  501  503 -0.00000000000E+00 -0.00000000000E+00 -0.27126524588E+03  0.27126524588E+03  0.00000000000E+00 0.  1.
          6    1    1    2  501    0 -0.53964638751E+02  0.62859320016E+02 -0.84279856727E+02  0.20868773466E+03  0.17200000000E+03 0.  1.
         -6    1    1    2    0  502  0.53964638751E+02 -0.62859320016E+02 -0.51758824842E+02  0.19780407553E+03  0.17200000000E+03 0.  1.
</event>
<event>
 4    1  0.5640532E+000  0.3569651E+03  0.7818608E-02  0.1059792E+00
         21   -1    0    0  501  502  0.00000000000E+00  0.00000000000E+00  0.39226208456E+03  0.39226208456E+03  0.00000000000E+00 0. -1.
         21   -1    0    0  502  503 -0.00000000000E+00 -0.00000000000E+00 -0.46968155757E+03  0.46968155757E+03  0.00000000000E+00 0.  1.
          6    1    1    2  501    0 -0.28437193772E+03 -0.13027931331E+03  0.20061483074E+03  0.40947577310E+03  0.17200000000E+03 0. -1.
         -6    1    1    2    0  503  0.28437193772E+03  0.13027931331E+03 -0.27803430376E+03  0.45246786903E+03  0.17200000000E+03 0.  1.
</event>
<event>
 4    1  0.5640532E+000  0.2540876E+03  0.7818608E-02  0.1110748E+00
         21   -1    0    0  503  502  0.00000000000E+00  0.00000000000E+00  0.87357504177E+03  0.87357504177E+03  0.00000000000E+00 0. -1.
         21   -1    0    0  501  503 -0.00000000000E+00 -0.00000000000E+00 -0.15842841674E+03  0.15842841674E+03  0.00000000000E+00 0. -1.
          6    1    1    2  501    0 -0.14873440564E+03 -0.11337816574E+03 -0.19326717435E+02  0.25482161191E+03  0.17200000000E+03 0. -1.
         -6    1    1    2    0  502  0.14873440564E+03  0.11337816574E+03  0.73447334246E+03  0.77718184660E+03  0.17200000000E+03 0. -1.
</event>
<event>
 4    1  0.5640532E+000  0.2193677E+03  0.7818608E-02  0.1134355E+00
         21   -1    0    0  503  502  0.00000000000E+00  0.00000000000E+00  0.42527963386E+03  0.42527963386E+03  0.00000000000E+00 0. -1.
         21   -1    0    0  501  503 -0.00000000000E+00 -0.00000000000E+00 -0.16690834387E+03  0.16690834387E+03  0.00000000000E+00 0. -1.
          6    1    1    2  501    0 -0.13494962810E+03  0.18076907038E+02 -0.38848113618E+02  0.22278095212E+03  0.17200000000E+03 0. -1.
         -6    1    1    2    0  502  0.13494962810E+03 -0.18076907038E+02  0.29721940361E+03  0.36940702562E+03  0.17200000000E+03 0. -1.
</event>
<event>
 4    1  0.5640532E+000  0.1838313E+03  0.7818608E-02  0.1164146E+00
         21   -1    0    0  501  502  0.00000000000E+00  0.00000000000E+00  0.21691034868E+03  0.21691034868E+03  0.00000000000E+00 0. -1.
         21   -1    0    0  502  503 -0.00000000000E+00 -0.00000000000E+00 -0.16084994232E+03  0.16084994232E+03  0.00000000000E+00 0. -1.
          6    1    1    2  501    0 -0.40920067714E+02  0.50353663906E+02  0.61507901302E+02  0.19384830495E+03  0.17200000000E+03 0. -1.
         -6    1    1    2    0  503  0.40920067714E+02 -0.50353663906E+02 -0.54474949387E+01  0.18391198605E+03  0.17200000000E+03 0. -1.
</event>
<event>
 4    1  0.5640532E+000  0.1797843E+03  0.7818608E-02  0.1168012E+00
         21   -1    0    0  501  502  0.00000000000E+00  0.00000000000E+00  0.37215135093E+02  0.37215135093E+02  0.00000000000E+00 0. -1.
         21   -1    0    0  502  503 -0.00000000000E+00 -0.00000000000E+00 -0.13540806874E+04  0.13540806874E+04  0.00000000000E+00 0. -1.
          6    1    1    2  501    0 -0.33049452864E+02 -0.40572475615E+02 -0.24186532658E+03  0.30136560572E+03  0.17200000000E+03 0. -1.
         -6    1    1    2    0  503  0.33049452864E+02  0.40572475615E+02 -0.10750002257E+04  0.10899302167E+04  0.17200000000E+03 0. -1.
</event>
<event>
 4    1  0.5640532E+000  0.1940780E+03  0.7818608E-02  0.1154834E+00
         21   -1    0    0  503  502  0.00000000000E+00  0.00000000000E+00  0.16865913628E+03  0.16865913628E+03  0.00000000000E+00 0.  1.
         21   -1    0    0  501  503 -0.00000000000E+00 -0.00000000000E+00 -0.32578441033E+03  0.32578441033E+03  0.00000000000E+00 0.  1.
          6    1    1    2  501    0  0.84396469032E+02 -0.30975648212E+02 -0.21720367456E+03  0.29127940368E+03  0.17200000000E+03 0.  1.
         -6    1    1    2    0  502 -0.84396469032E+02  0.30975648212E+02  0.60078400505E+02  0.20316414293E+03  0.17200000000E+03 0.  1.
</event>
<event>
 4    1  0.5640532E+000  0.2337764E+03  0.7818608E-02  0.1124010E+00
         21   -1    0    0  501  502  0.00000000000E+00  0.00000000000E+00  0.17115309770E+03  0.17115309770E+03  0.00000000000E+00 0.  1.
         21   -1    0    0  502  503 -0.00000000000E+00 -0.00000000000E+00 -0.35902189190E+03  0.35902189190E+03  0.00000000000E+00 0.  1.
          6    1    1    2  501    0 -0.14482705595E+03  0.63972931310E+02 -0.57741976929E+01  0.23384771420E+03  0.17200000000E+03 0.  1.
         -6    1    1    2    0  503  0.14482705595E+03 -0.63972931310E+02 -0.18209459651E+03  0.29632727541E+03  0.17200000000E+03 0.  1.
</event>
<event>
 4    1  0.5640532E+000  0.1855902E+03  0.7818608E-02  0.1162500E+00
         21   -1    0    0  501  502  0.00000000000E+00  0.00000000000E+00  0.46000012077E+03  0.46000012077E+03  0.00000000000E+00 0.  1.
         21   -1    0    0  502  503 -0.00000000000E+00 -0.00000000000E+00 -0.77261436223E+02  0.77261436223E+02  0.00000000000E+00 0.  1.
          6    1    1    2  501    0  0.41616368004E+01  0.69587394250E+02  0.14418382667E+03  0.23501638354E+03  0.17200000000E+03 0.  1.
         -6    1    1    2    0  503 -0.41616368004E+01 -0.69587394250E+02  0.23855485788E+03  0.30224517346E+03  0.17200000000E+03 0.  1.
</event>
<event>
 4    1  0.5640532E+000  0.1893236E+03  0.7818608E-02  0.1159073E+00
         21   -1    0    0  501  502  0.00000000000E+00  0.00000000000E+00  0.75465566229E+02  0.75465566229E+02  0.00000000000E+00 0.  1.
         21   -1    0    0  502  503 -0.00000000000E+00 -0.00000000000E+00 -0.47701385624E+03  0.47701385624E+03  0.00000000000E+00 0.  1.
          6    1    1    2  501    0  0.77992522107E+02 -0.13288518438E+02 -0.18266512664E+03  0.26307787196E+03  0.17200000000E+03 0. -1.
         -6    1    1    2    0  503 -0.77992522107E+02  0.13288518438E+02 -0.21888316337E+03  0.28940155050E+03  0.17200000000E+03 0. -1.
</event>
<event>
 4    1  0.5640532E+000  0.2321769E+03  0.7818608E-02  0.1125117E+00
         21   -1    0    0  501  502  0.00000000000E+00  0.00000000000E+00  0.14468585715E+03  0.14468585715E+03  0.00000000000E+00 0. -1.
         21   -1    0    0  502  503 -0.00000000000E+00 -0.00000000000E+00 -0.59366966751E+03  0.59366966751E+03  0.00000000000E+00 0. -1.
          6    1    1    2  501    0  0.13707405133E+03 -0.74382875252E+02  0.80424376012E+00  0.23217828169E+03  0.17200000000E+03 0. -1.
         -6    1    1    2    0  503 -0.13707405133E+03  0.74382875252E+02 -0.44978805412E+03  0.50617724298E+03  0.17200000000E+03 0. -1.
</event>
<event>
 4    1  0.5640532E+000  0.1852882E+03  0.7818608E-02  0.1162781E+00
         21   -1    0    0  503  502  0.00000000000E+00  0.00000000000E+00  0.23481673071E+02  0.23481673071E+02  0.00000000000E+00 0. -1.
         21   -1    0    0  501  503 -0.00000000000E+00 -0.00000000000E+00 -0.26124909868E+04  0.26124909868E+04  0.00000000000E+00 0. -1.
          6    1    1    2  501    0 -0.39830769894E+02 -0.56224676406E+02 -0.21691119030E+04  0.21770112889E+04  0.17200000000E+03 0. -1.
         -6    1    1    2    0  502  0.39830769894E+02  0.56224676406E+02 -0.41989741078E+03  0.45896137098E+03  0.17200000000E+03 0. -1.
</event>
<event>
 4    1  0.5640532E+000  0.2116793E+03  0.7818608E-02  0.1140243E+00
         21   -1    0    0  503  502  0.00000000000E+00  0.00000000000E+00  0.95928669639E+03  0.95928669639E+03  0.00000000000E+00 0. -1.
         21   -1    0    0  501  503 -0.00000000000E+00 -0.00000000000E+00 -0.98921176581E+02  0.98921176581E+02  0.00000000000E+00 0.  1.
          6    1    1    2  501    0  0.70190885844E+01  0.12318625496E+03  0.45786819660E+02  0.21657459193E+03  0.17200000000E+03 0.  1.
         -6    1    1    2    0  502 -0.70190885844E+01 -0.12318625496E+03  0.81457870014E+03  0.84163328103E+03  0.17200000000E+03 0. -1.
</event>
<event>
 4    1  0.5640532E+000  0.1873830E+03  0.7818608E-02  0.1160843E+00
         21   -1    0    0  503  502  0.00000000000E+00  0.00000000000E+00  0.82261219027E+03  0.82261219027E+03  0.00000000000E+00 0. -1.
         21   -1    0    0  501  503 -0.00000000000E+00 -0.00000000000E+00 -0.44973607199E+02  0.44973607199E+02  0.00000000000E+00 0. -1.
          6    1    1    2  501    0  0.37039022830E+02  0.64471020193E+02  0.29094211683E+03  0.34606316909E+03  0.17200000000E+03 0. -1.
         -6    1    1    2    0  502 -0.37039022830E+02 -0.64471020193E+02  0.48669646623E+03  0.52152262837E+03  0.17200000000E+03 0. -1.
</event>
<event>
 4    1  0.5640532E+000  0.2334107E+03  0.7818608E-02  0.1124262E+00
         21   -1    0    0  501  502  0.00000000000E+00  0.00000000000E+00  0.12920534947E+04  0.12920534947E+04  0.00000000000E+00 0.  1.
         21   -1    0    0  502  503 -0.00000000000E+00 -0.00000000000E+00 -0.53055442112E+02  0.53055442112E+02  0.00000000000E+00 0. -1.
          6    1    1    2  501    0  0.14669657179E+03 -0.58109254891E+02  0.92419572373E+03  0.95321472158E+03  0.17200000000E+03 0.  1.
         -6    1    1    2    0  503 -0.14669657179E+03  0.58109254891E+02  0.31480232887E+03  0.39189421525E+03  0.17200000000E+03 0. -1.
</event>
<event>
 4    1  0.5640532E+000  0.2486697E+03  0.7818608E-02  0.1114148E+00
         21   -1    0    0  501  502  0.00000000000E+00  0.00000000000E+00  0.88944953464E+02  0.88944953464E+02  0.00000000000E+00 0. -1.
         21   -1    0    0  502  503 -0.00000000000E+00 -0.00000000000E+00 -0.10543500368E+04  0.10543500368E+04  0.00000000000E+00 0. -1.
          6    1    1    2  501    0 -0.13733454527E+03  0.11572318081E+03 -0.14907678138E+03  0.28993192071E+03  0.17200000000E+03 0. -1.
         -6    1    1    2    0  503  0.13733454527E+03 -0.11572318081E+03 -0.81632830199E+03  0.85336306958E+03  0.17200000000E+03 0. -1.
</event>
<event>
 4    1  0.5640532E+000  0.2671128E+03  0.7818608E-02  0.1102944E+00
         21   -1    0    0  503  502  0.00000000000E+00  0.00000000000E+00  0.95288786796E+02  0.95288786796E+02  0.00000000000E+00 0.  1.
         21   -1    0    0  501  503 -0.00000000000E+00 -0.00000000000E+00 -0.77554703833E+03  0.77554703833E+03  0.00000000000E+00 0.  1.
          6    1    1    2  501    0 -0.18311664894E+03 -0.90738750199E+02 -0.42103812865E+03  0.49862043048E+03  0.17200000000E+03 0.  1.
         -6    1    1    2    0  502  0.18311664894E+03  0.90738750199E+02 -0.25922012288E+03  0.37221539465E+03  0.17200000000E+03 0.  1.
</event>
<event>
 4    1  0.5640532E+000  0.1903732E+03  0.7818608E-02  0.1158125E+00
         21   -1    0    0  503  502  0.00000000000E+00  0.00000000000E+00  0.30920757142E+03  0.30920757142E+03  0.00000000000E+00 0.  1.
         21   -1    0    0  501  503 -0.00000000000E+00 -0.00000000000E+00 -0.43225170378E+03  0.43225170378E+03  0.00000000000E+00 0.  1.
          6    1    1    2  501    0 -0.46836389844E+02  0.66815558617E+02 -0.37802193753E+03  0.42325234972E+03  0.17200000000E+03 0.  1.
         -6    1    1    2    0  502  0.46836389844E+02 -0.66815558617E+02  0.25497780518E+03  0.31820692548E+03  0.17200000000E+03 0.  1.
</event>
<event>
 4    1  0.5640532E+000  0.1990179E+03  0.7818608E-02  0.1150570E+00
         21   -1    0    0  503  502  0.00000000000E+00  0.00000000000E+00  0.33537052998E+03  0.33537052998E+03  0.00000000000E+00 0.  1.
         21   -1    0    0  501  503 -0.00000000000E+00 -0.00000000000E+00 -0.14617177206E+03  0.14617177206E+03  0.00000000000E+00 0.  1.
          6    1    1    2  501    0 -0.65219156347E+01  0.99907928810E+02 -0.10909142914E+02  0.19931668024E+03  0.17200000000E+03 0.  1.
         -6    1    1    2    0  502  0.65219156347E+01 -0.99907928810E+02  0.20010790083E+03  0.28222562180E+03  0.17200000000E+03 0.  1.
</event>
<event>
 4    1  0.5640532E+000  0.1787785E+03  0.7818608E-02  0.1168990E+00
         21   -1    0    0  503  502  0.00000000000E+00  0.00000000000E+00  0.11380499534E+03  0.11380499534E+03  0.00000000000E+00 0.  1.
         21   -1    0    0  501  503 -0.00000000000E+00 -0.00000000000E+00 -0.30114044574E+03  0.30114044574E+03  0.00000000000E+00 0.  1.
          6    1    1    2  501    0 -0.14335697839E+02 -0.46607459949E+02 -0.39808933190E+02  0.18315708754E+03  0.17200000000E+03 0.  1.
         -6    1    1    2    0  502  0.14335697839E+02  0.46607459949E+02 -0.14752651720E+03  0.23178835353E+03  0.17200000000E+03 0.  1.
</event>
<event>
 4    1  0.5640532E+000  0.2003826E+03  0.7818608E-02  0.1149417E+00
         21   -1    0    0  501  502  0.00000000000E+00  0.00000000000E+00  0.45064330382E+03  0.45064330382E+03  0.00000000000E+00 0.  1.
         21   -1    0    0  502  503 -0.00000000000E+00 -0.00000000000E+00 -0.14088793158E+03  0.14088793158E+03  0.00000000000E+00 0.  1.
          6    1    1    2  501    0 -0.28494829248E+02 -0.98778598690E+02  0.33419291624E+03  0.38966405033E+03  0.17200000000E+03 0.  1.
         -6    1    1    2    0  503  0.28494829248E+02  0.98778598690E+02 -0.24437543999E+02  0.20186718507E+03  0.17200000000E+03 0.  1.
</event>
<event>
 4    1  0.5640532E+000  0.2146803E+03  0.7818608E-02  0.1137912E+00
         21   -1    0    0  503  502  0.00000000000E+00  0.00000000000E+00  0.15333497344E+03  0.15333497344E+03  0.00000000000E+00 0. -1.
         21   -1    0    0  501  503 -0.00000000000E+00 -0.00000000000E+00 -0.40871246671E+03  0.40871246671E+03  0.00000000000E+00 0. -1.
          6    1    1    2  501    0  0.80141982891E+02 -0.10040363451E+03 -0.27224458991E+03  0.34670555804E+03  0.17200000000E+03 0. -1.
         -6    1    1    2    0  502 -0.80141982891E+02  0.10040363451E+03  0.16867096638E+02  0.21534188211E+03  0.17200000000E+03 0. -1.
</event>
<event>
 4    1  0.5640532E+000  0.1826528E+03  0.7818608E-02  0.1165260E+00
         21   -1    0    0  503  502  0.00000000000E+00  0.00000000000E+00  0.16650378327E+04  0.16650378327E+04  0.00000000000E+00 0. -1.
         21   -1    0    0  501  503 -0.00000000000E+00 -0.00000000000E+00 -0.15019682060E+03  0.15019682060E+03  0.00000000000E+00 0. -1.
          6    1    1    2  501    0  0.21247059687E+02 -0.57676863758E+02 -0.87490922356E+02  0.20252584935E+03  0.17200000000E+03 0. -1.
         -6    1    1    2    0  502 -0.21247059687E+02  0.57676863758E+02  0.16023319345E+04  0.16127088040E+04  0.17200000000E+03 0. -1.
</event>
<event>
 4    1  0.5640532E+000  0.2369407E+03  0.7818608E-02  0.1121848E+00
         21   -1    0    0  503  502  0.00000000000E+00  0.00000000000E+00  0.57057099756E+03  0.57057099756E+03  0.00000000000E+00 0. -1.
         21   -1    0    0  501  503 -0.00000000000E+00 -0.00000000000E+00 -0.11315202598E+03  0.11315202598E+03  0.00000000000E+00 0. -1.
          6    1    1    2  501    0 -0.11650877824E+03 -0.11394131350E+03  0.10524866373E+03  0.25926472869E+03  0.17200000000E+03 0. -1.
         -6    1    1    2    0  502  0.11650877824E+03  0.11394131350E+03  0.35217030785E+03  0.42445829484E+03  0.17200000000E+03 0. -1.
</event>
<event>
 4    1  0.5640532E+000  0.2546748E+03  0.7818608E-02  0.1110386E+00
         21   -1    0    0  501  502  0.00000000000E+00  0.00000000000E+00  0.85341841714E+02  0.85341841714E+02  0.00000000000E+00 0.  1.
         21   -1    0    0  502  503 -0.00000000000E+00 -0.00000000000E+00 -0.11062663842E+04  0.11062663842E+04  0.00000000000E+00 0.  1.
          6    1    1    2  501    0 -0.15097883532E+03  0.11171691924E+03 -0.17712595399E+03  0.31021425231E+03  0.17200000000E+03 0.  1.
         -6    1    1    2    0  503  0.15097883532E+03 -0.11171691924E+03 -0.84379858854E+03  0.88139397365E+03  0.17200000000E+03 0.  1.
</event>
<event>
 4    1  0.5640532E+000  0.1934166E+03  0.7818608E-02  0.1155415E+00
         21   -1    0    0  501  502  0.00000000000E+00  0.00000000000E+00  0.15728385927E+03  0.15728385927E+03  0.00000000000E+00 0. -1.
         21   -1    0    0  502  503 -0.00000000000E+00 -0.00000000000E+00 -0.28189402413E+03  0.28189402413E+03  0.00000000000E+00 0.  1.
          6    1    1    2  501    0 -0.40895990354E+02 -0.78444138736E+02  0.24493185371E+02  0.19496122963E+03  0.17200000000E+03 0. -1.
         -6    1    1    2    0  503  0.40895990354E+02  0.78444138736E+02 -0.14910335022E+03  0.24421665377E+03  0.17200000000E+03 0. -1.
</event>
<event>
 4    1  0.5640532E+000  0.2290087E+03  0.7818608E-02  0.1127339E+00
         21   -1    0    0  503  502  0.00000000000E+00  0.00000000000E+00  0.82736923128E+03  0.82736923128E+03  0.00000000000E+00 0.  1.
         21   -1    0    0  501  503 -0.00000000000E+00 -0.00000000000E+00 -0.63605305541E+02  0.63605305541E+02  0.00000000000E+00 0. -1.
          6    1    1    2  501    0  0.13628544997E+03 -0.65477046952E+02  0.40794362238E+03  0.46782792413E+03  0.17200000000E+03 0.  1.
         -6    1    1    2    0  502 -0.13628544997E+03  0.65477046952E+02  0.35582030336E+03  0.42314661270E+03  0.17200000000E+03 0. -1.
</event>
<event>
 4    1  0.5640532E+000  0.1958822E+03  0.7818608E-02  0.1153260E+00
         21   -1    0    0  503  502  0.00000000000E+00  0.00000000000E+00  0.48777107479E+02  0.48777107479E+02  0.00000000000E+00 0.  1.
         21   -1    0    0  501  503 -0.00000000000E+00 -0.00000000000E+00 -0.22735527124E+04  0.22735527124E+04  0.00000000000E+00 0.  1.
          6    1    1    2  501    0  0.46907973377E+02  0.81151066438E+02 -0.20514289789E+04  0.20607597407E+04  0.17200000000E+03 0.  1.
         -6    1    1    2    0  502 -0.46907973377E+02 -0.81151066438E+02 -0.17334662601E+03  0.26157007914E+03  0.17200000000E+03 0.  1.
</event>
<event>
 4    1  0.5640532E+000  0.2012076E+03  0.7818608E-02  0.1148724E+00
         21   -1    0    0  503  502  0.00000000000E+00  0.00000000000E+00  0.91800697644E+03  0.91800697644E+03  0.00000000000E+00 0.  1.
         21   -1    0    0  501  503 -0.00000000000E+00 -0.00000000000E+00 -0.44142982875E+02  0.44142982875E+02  0.00000000000E+00 0. -1.
          6    1    1    2  501    0  0.55011477805E+02  0.88736806681E+02  0.45187201621E+03  0.49464411710E+03  0.17200000000E+03 0.  1.
         -6    1    1    2    0  502 -0.55011477805E+02 -0.88736806681E+02  0.42199197736E+03  0.46750584221E+03  0.17200000000E+03 0. -1.
</event>
<event>
 4    1  0.5640532E+000  0.1943988E+03  0.7818608E-02  0.1154553E+00
         21   -1    0    0  503  502  0.00000000000E+00  0.00000000000E+00  0.13271909619E+03  0.13271909619E+03  0.00000000000E+00 0.  1.
         21   -1    0    0  501  503 -0.00000000000E+00 -0.00000000000E+00 -0.59111338389E+03  0.59111338389E+03  0.00000000000E+00 0.  1.
          6    1    1    2  501    0  0.34358638794E+02 -0.83823561617E+02 -0.48974990583E+03  0.52692112863E+03  0.17200000000E+03 0.  1.
         -6    1    1    2    0  502 -0.34358638794E+02  0.83823561617E+02  0.31355618131E+02  0.19691135145E+03  0.17200000000E+03 0.  1.
</event>
<event>
 4    1  0.5640532E+000  0.2350536E+03  0.7818608E-02  0.1123133E+00
         21   -1    0    0  501  502  0.00000000000E+00  0.00000000000E+00  0.65192856006E+03  0.65192856006E+03  0.00000000000E+00 0.  1.
         21   -1    0    0  502  503 -0.00000000000E+00 -0.00000000000E+00 -0.14958113173E+03  0.14958113173E+03  0.00000000000E+00 0. -1.
          6    1    1    2  501    0 -0.14543682610E+03 -0.67188730919E+02  0.51501091298E+03  0.56611521480E+03  0.17200000000E+03 0.  1.
         -6    1    1    2    0  503  0.14543682610E+03  0.67188730919E+02 -0.12663484649E+02  0.23539447698E+03  0.17200000000E+03 0. -1.
</event>
<event>
 4    1  0.5640532E+000  0.2049980E+03  0.7818608E-02  0.1145589E+00
         21   -1    0    0  501  502  0.00000000000E+00  0.00000000000E+00  0.15417473161E+03  0.15417473161E+03  0.00000000000E+00 0. -1.
         21   -1    0    0  502  503 -0.00000000000E+00 -0.00000000000E+00 -0.80865330741E+03  0.80865330741E+03  0.00000000000E+00 0. -1.
          6    1    1    2  501    0  0.65809925478E+02 -0.90051213461E+02  0.64729687175E+02  0.21497464906E+03  0.17200000000E+03 0. -1.
         -6    1    1    2    0  503 -0.65809925478E+02  0.90051213461E+02 -0.71920826297E+03  0.74785338996E+03  0.17200000000E+03 0. -1.
</event>
<event>
 4    1  0.5640532E+000  0.1769397E+03  0.7818608E-02  0.1170798E+00
         21   -1    0    0  503  502  0.00000000000E+00  0.00000000000E+00  0.46843054927E+02  0.46843054927E+02  0.00000000000E+00 0. -1.
         21   -1    0    0  501  503 -0.00000000000E+00 -0.00000000000E+00 -0.12719603796E+04  0.12719603796E+04  0.00000000000E+00 0. -1.
          6    1    1    2  501    0  0.28328010399E+02  0.30350884430E+02 -0.10668044302E+04  0.10813784466E+04  0.17200000000E+03 0.  1.
         -6    1    1    2    0  502 -0.28328010399E+02 -0.30350884430E+02 -0.15831289445E+03  0.23742498796E+03  0.17200000000E+03 0.  1.
</event>
<event>
 4    1  0.5640532E+000  0.2647216E+03  0.7818608E-02  0.1104339E+00
         21   -1    0    0  503  502  0.00000000000E+00  0.00000000000E+00  0.58516227471E+03  0.58516227471E+03  0.00000000000E+00 0. -1.
         21   -1    0    0  501  503 -0.00000000000E+00 -0.00000000000E+00 -0.27439001222E+03  0.27439001222E+03  0.00000000000E+00 0. -1.
          6    1    1    2  501    0  0.20014286725E+03  0.20889379937E+02 -0.16724676818E+03  0.31312779335E+03  0.17200000000E+03 0. -1.
         -6    1    1    2    0  502 -0.20014286725E+03 -0.20889379937E+02  0.47801903066E+03  0.54642449358E+03  0.17200000000E+03 0. -1.
</event>
<event>
 4    1  0.5640532E+000  0.1880230E+03  0.7818608E-02  0.1160257E+00
         21   -1    0    0  501  502  0.00000000000E+00  0.00000000000E+00  0.11048656736E+03  0.11048656736E+03  0.00000000000E+00 0. -1.
         21   -1    0    0  502  503 -0.00000000000E+00 -0.00000000000E+00 -0.81581408330E+03  0.81581408330E+03  0.00000000000E+00 0. -1.
          6    1    1    2  501    0 -0.75789121916E+02  0.49664183401E+01  0.84116198589E+01  0.18821108273E+03  0.17200000000E+03 0. -1.
         -6    1    1    2    0  503  0.75789121916E+02 -0.49664183401E+01 -0.71373913580E+03  0.73808956793E+03  0.17200000000E+03 0. -1.
</event>
<event>
 4    1  0.5640532E+000  0.2140949E+03  0.7818608E-02  0.1138364E+00
         21   -1    0    0  501  502  0.00000000000E+00  0.00000000000E+00  0.49787487137E+03  0.49787487137E+03  0.00000000000E+00 0. -1.
         21   -1    0    0  502  503 -0.00000000000E+00 -0.00000000000E+00 -0.98793335561E+02  0.98793335561E+02  0.00000000000E+00 0.  1.
          6    1    1    2  501    0  0.63306865238E+02  0.11065654644E+03  0.27739946499E+03  0.35040989374E+03  0.17200000000E+03 0.  1.
         -6    1    1    2    0  503 -0.63306865238E+02 -0.11065654644E+03  0.12168207082E+03  0.24625831319E+03  0.17200000000E+03 0.  1.
</event>
<event>
 4    1  0.5640532E+000  0.1830569E+03  0.7818608E-02  0.1164877E+00
         21   -1    0    0  503  502  0.00000000000E+00  0.00000000000E+00  0.12343183216E+03  0.12343183216E+03  0.00000000000E+00 0.  1.
         21   -1    0    0  501  503 -0.00000000000E+00 -0.00000000000E+00 -0.32049615103E+03  0.32049615103E+03  0.00000000000E+00 0.  1.
          6    1    1    2  501    0  0.26603425426E+02  0.56728057212E+02 -0.18533247508E+03  0.26049556817E+03  0.17200000000E+03 0.  1.
         -6    1    1    2    0  502 -0.26603425426E+02 -0.56728057212E+02 -0.11731843796E+02  0.18343241502E+03  0.17200000000E+03 0.  1.
</event>
<event>
 4    1  0.5640532E+000  0.1759713E+03  0.7818608E-02  0.1171760E+00
         21   -1    0    0  501  502  0.00000000000E+00  0.00000000000E+00  0.12902621782E+03  0.12902621782E+03  0.00000000000E+00 0. -1.
         21   -1    0    0  502  503 -0.00000000000E+00 -0.00000000000E+00 -0.30632615320E+03  0.30632615320E+03  0.00000000000E+00 0. -1.
          6    1    1    2  501    0 -0.17137902015E+02 -0.32987737456E+02  0.12641129631E+02  0.17642476206E+03  0.17200000000E+03 0. -1.
         -6    1    1    2    0  503  0.17137902015E+02  0.32987737456E+02 -0.18994106501E+03  0.25892760897E+03  0.17200000000E+03 0. -1.
</event>
<event>
 4    1  0.5640532E+000  0.1811408E+03  0.7818608E-02  0.1166704E+00
         21   -1    0    0  501  502  0.00000000000E+00  0.00000000000E+00  0.32852643825E+03  0.32852643825E+03  0.00000000000E+00 0. -1.
         21   -1    0    0  502  503 -0.00000000000E+00 -0.00000000000E+00 -0.10013186874E+03  0.10013186874E+03  0.00000000000E+00 0. -1.
          6    1    1    2  501    0 -0.17699935641E+02  0.53987814208E+02  0.12502744939E+03  0.22009960224E+03  0.17200000000E+03 0. -1.
         -6    1    1    2    0  503  0.17699935641E+02 -0.53987814208E+02  0.10336712011E+03  0.20855870475E+03  0.17200000000E+03 0. -1.
</event>
<event>
 4    1  0.5640532E+000  0.2464442E+03  0.7818608E-02  0.1115573E+00
         21   -1    0    0  501  502  0.00000000000E+00  0.00000000000E+00  0.52866353367E+02  0.52866353367E+02  0.00000000000E+00 0.  1.
         21   -1    0    0  502  503 -0.00000000000E+00 -0.00000000000E+00 -0.24895413950E+04  0.24895413950E+04  0.00000000000E+00 0. -1.
          6    1    1    2  501    0  0.88857920048E+02  0.15249596540E+03 -0.28546505861E+03  0.37712736456E+03  0.17200000000E+03 0.  1.
         -6    1    1    2    0  503 -0.88857920048E+02 -0.15249596540E+03 -0.21512099830E+04  0.21652803838E+04  0.17200000000E+03 0. -1.
</event>
<event>
 4    1  0.5640532E+000  0.4767080E+03  0.7818608E-02  0.1020044E+00
         21   -1    0    0  503  502  0.00000000000E+00  0.00000000000E+00  0.14286886665E+04  0.14286886665E+04  0.00000000000E+00 0.  1.
         21   -1    0    0  501  503 -0.00000000000E+00 -0.00000000000E+00 -0.15934188023E+03  0.15934188023E+03  0.00000000000E+00 0. -1.
          6    1    1    2  501    0 -0.54495663765E+02  0.44124450516E+03  0.66793360706E+03  0.82060087384E+03  0.17200000000E+03 0. -1.
         -6    1    1    2    0  502  0.54495663765E+02 -0.44124450516E+03  0.60141317918E+03  0.76742967287E+03  0.17200000000E+03 0.  1.
</event>
<event>
 4    1  0.5640532E+000  0.1994400E+03  0.7818608E-02  0.1150212E+00
         21   -1    0    0  503  502  0.00000000000E+00  0.00000000000E+00  0.11431111959E+03  0.11431111959E+03  0.00000000000E+00 0.  1.
         21   -1    0    0  501  503 -0.00000000000E+00 -0.00000000000E+00 -0.35989908325E+03  0.35989908325E+03  0.00000000000E+00 0.  1.
          6    1    1    2  501    0 -0.96930388240E+02  0.28227554865E+02 -0.79618133991E+02  0.21474483062E+03  0.17200000000E+03 0.  1.
         -6    1    1    2    0  502  0.96930388240E+02 -0.28227554865E+02 -0.16596982967E+03  0.25946537222E+03  0.17200000000E+03 0.  1.
</event>
<event>
 4    1  0.5640532E+000  0.2160861E+03  0.7818608E-02  0.1136835E+00
         21   -1    0    0  501  502  0.00000000000E+00  0.00000000000E+00  0.41883838263E+03  0.41883838263E+03  0.00000000000E+00 0.  1.
         21   -1    0    0  502  503 -0.00000000000E+00 -0.00000000000E+00 -0.11471487754E+03  0.11471487754E+03  0.00000000000E+00 0.  1.
          6    1    1    2  501    0  0.45320988188E+01 -0.13072353062E+03  0.10728073939E+03  0.24125160812E+03  0.17200000000E+03 0.  1.
         -6    1    1    2    0  503 -0.45320988188E+01  0.13072353062E+03  0.19684276571E+03  0.29230165205E+03  0.17200000000E+03 0.  1.
</event>
<event>
 4    1  0.5640532E+000  0.2006899E+03  0.7818608E-02  0.1149158E+00
         21   -1    0    0  503  502  0.00000000000E+00  0.00000000000E+00  0.90079556233E+03  0.90079556233E+03  0.00000000000E+00 0.  1.
         21   -1    0    0  501  503 -0.00000000000E+00 -0.00000000000E+00 -0.45110373921E+02  0.45110373921E+02  0.00000000000E+00 0.  1.
          6    1    1    2  501    0  0.23894953146E+02  0.10060550163E+03  0.38340135893E+03  0.43275054913E+03  0.17200000000E+03 0.  1.
         -6    1    1    2    0  502 -0.23894953146E+02 -0.10060550163E+03  0.47228382948E+03  0.51315538712E+03  0.17200000000E+03 0.  1.
</event>
<event>
 4    1  0.5640532E+000  0.1733706E+03  0.7818608E-02  0.1174378E+00
         21   -1    0    0  503  502  0.00000000000E+00  0.00000000000E+00  0.86565880029E+02  0.86565880029E+02  0.00000000000E+00 0.  1.
         21   -1    0    0  501  503 -0.00000000000E+00 -0.00000000000E+00 -0.70828483316E+03  0.70828483316E+03  0.00000000000E+00 0.  1.
          6    1    1    2  501    0  0.78315420201E+01 -0.20298922317E+02 -0.59461503315E+03  0.61937421398E+03  0.17200000000E+03 0.  1.
         -6    1    1    2    0  502 -0.78315420201E+01  0.20298922317E+02 -0.27103919987E+02  0.17547649921E+03  0.17200000000E+03 0.  1.
</event>
<event>
 4    1  0.5640532E+000  0.1773575E+03  0.7818608E-02  0.1170385E+00
         21   -1    0    0  503  502  0.00000000000E+00  0.00000000000E+00  0.53462026894E+02  0.53462026894E+02  0.00000000000E+00 0.  1.
         21   -1    0    0  501  503 -0.00000000000E+00 -0.00000000000E+00 -0.97509492515E+03  0.97509492515E+03  0.00000000000E+00 0.  1.
          6    1    1    2  501    0 -0.16894428655E+02  0.39827936213E+02 -0.78468854387E+03  0.80448231622E+03  0.17200000000E+03 0.  1.
         -6    1    1    2    0  502  0.16894428655E+02 -0.39827936213E+02 -0.13694435438E+03  0.22407463582E+03  0.17200000000E+03 0.  1.
</event>
<event>
 4    1  0.5640532E+000  0.2159793E+03  0.7818608E-02  0.1136917E+00
         21   -1    0    0  503  502  0.00000000000E+00  0.00000000000E+00  0.62722138705E+02  0.62722138705E+02  0.00000000000E+00 0.  1.
         21   -1    0    0  501  503 -0.00000000000E+00 -0.00000000000E+00 -0.10927254423E+04  0.10927254423E+04  0.00000000000E+00 0. -1.
          6    1    1    2  501    0 -0.11091577929E+03 -0.68998047060E+02 -0.18849844248E+03  0.28666828113E+03  0.17200000000E+03 0.  1.
         -6    1    1    2    0  502  0.11091577929E+03  0.68998047060E+02 -0.84150486108E+03  0.86877929983E+03  0.17200000000E+03 0. -1.
</event>
<event>
 4    1  0.5640532E+000  0.2080824E+03  0.7818608E-02  0.1143094E+00
         21   -1    0    0  503  502  0.00000000000E+00  0.00000000000E+00  0.17065182754E+04  0.17065182754E+04  0.00000000000E+00 0. -1.
         21   -1    0    0  501  503 -0.00000000000E+00 -0.00000000000E+00 -0.34665646535E+02  0.34665646535E+02  0.00000000000E+00 0. -1.
          6    1    1    2  501    0  0.41687204911E+02  0.10943706292E+03  0.12866922241E+04  0.13034090584E+04  0.17200000000E+03 0. -1.
         -6    1    1    2    0  502 -0.41687204911E+02 -0.10943706292E+03  0.38516040471E+03  0.43777486355E+03  0.17200000000E+03 0. -1.
</event>
<event>
 4    1  0.5640532E+000  0.2211608E+03  0.7818608E-02  0.1133021E+00
         21   -1    0    0  503  502  0.00000000000E+00  0.00000000000E+00  0.86271595016E+02  0.86271595016E+02  0.00000000000E+00 0. -1.
         21   -1    0    0  501  503 -0.00000000000E+00 -0.00000000000E+00 -0.56756278566E+03  0.56756278566E+03  0.00000000000E+00 0. -1.
          6    1    1    2  501    0  0.44174924146E+02 -0.13182061949E+03 -0.25134495575E+03  0.33479305015E+03  0.17200000000E+03 0.  1.
         -6    1    1    2    0  502 -0.44174924146E+02  0.13182061949E+03 -0.22994623490E+03  0.31904133053E+03  0.17200000000E+03 0.  1.
</event>
<event>
 4    1  0.5640532E+000  0.1871805E+03  0.7818608E-02  0.1161029E+00
         21   -1    0    0  501  502  0.00000000000E+00  0.00000000000E+00  0.99950412824E+02  0.99950412824E+02  0.00000000000E+00 0. -1.
         21   -1    0    0  502  503 -0.00000000000E+00 -0.00000000000E+00 -0.50769821292E+03  0.50769821292E+03  0.00000000000E+00 0. -1.
          6    1    1    2  501    0  0.70361100121E+02 -0.22402364114E+02 -0.34834018632E+02  0.19039422045E+03  0.17200000000E+03 0. -1.
         -6    1    1    2    0  503 -0.70361100121E+02  0.22402364114E+02 -0.37291378147E+03  0.41725440529E+03  0.17200000000E+03 0. -1.
</event>
<event>
 4    1  0.5640532E+000  0.1833172E+03  0.7818608E-02  0.1164631E+00
         21   -1    0    0  503  502  0.00000000000E+00  0.00000000000E+00  0.30638055285E+03  0.30638055285E+03  0.00000000000E+00 0. -1.
         21   -1    0    0  501  503 -0.00000000000E+00 -0.00000000000E+00 -0.14528016926E+03  0.14528016926E+03  0.00000000000E+00 0. -1.
          6    1    1    2  501    0  0.31599921742E+02 -0.54978460717E+02 -0.31233377242E+02  0.18595889344E+03  0.17200000000E+03 0. -1.
         -6    1    1    2    0  502 -0.31599921742E+02  0.54978460717E+02  0.19233376083E+03  0.26570182866E+03  0.17200000000E+03 0. -1.
</event>
<event>
 4    1  0.5640532E+000  0.4204627E+03  0.7818608E-02  0.1036916E+00
         21   -1    0    0  503  502  0.00000000000E+00  0.00000000000E+00  0.60515464768E+03  0.60515464768E+03  0.00000000000E+00 0. -1.
         21   -1    0    0  501  503 -0.00000000000E+00 -0.00000000000E+00 -0.50041212826E+03  0.50041212826E+03  0.00000000000E+00 0.  1.
          6    1    1    2  501    0 -0.34438538024E+03  0.16912602234E+03  0.40899342367E+03  0.58657013405E+03  0.17200000000E+03 0. -1.
         -6    1    1    2    0  502  0.34438538024E+03 -0.16912602234E+03 -0.30425090425E+03  0.51899664189E+03  0.17200000000E+03 0.  1.
</event>
<event>
 4    1  0.5640532E+000  0.1853297E+03  0.7818608E-02  0.1162742E+00
         21   -1    0    0  503  502  0.00000000000E+00  0.00000000000E+00  0.11748885775E+04  0.11748885775E+04  0.00000000000E+00 0. -1.
         21   -1    0    0  501  503 -0.00000000000E+00 -0.00000000000E+00 -0.29758706598E+02  0.29758706598E+02  0.00000000000E+00 0.  1.
          6    1    1    2  501    0  0.64608826930E+02  0.24265253503E+02  0.49261160670E+03  0.52632052791E+03  0.17200000000E+03 0.  1.
         -6    1    1    2    0  502 -0.64608826930E+02 -0.24265253503E+02  0.65251826424E+03  0.67832675622E+03  0.17200000000E+03 0.  1.
</event>
<event>
 4    1  0.5640532E+000  0.2118084E+03  0.7818608E-02  0.1140142E+00
         21   -1    0    0  501  502  0.00000000000E+00  0.00000000000E+00  0.48848061746E+02  0.48848061746E+02  0.00000000000E+00 0. -1.
         21   -1    0    0  502  503 -0.00000000000E+00 -0.00000000000E+00 -0.12603989767E+04  0.12603989767E+04  0.00000000000E+00 0. -1.
          6    1    1    2  501    0  0.12322035702E+03  0.97755813472E+01 -0.26478664695E+03  0.33907932225E+03  0.17200000000E+03 0. -1.
         -6    1    1    2    0  503 -0.12322035702E+03 -0.97755813472E+01 -0.94676426799E+03  0.97016771618E+03  0.17200000000E+03 0. -1.
</event>
<event>
 4    1  0.5640532E+000  0.2124992E+03  0.7818608E-02  0.1139602E+00
         21   -1    0    0  503  502  0.00000000000E+00  0.00000000000E+00  0.84500720903E+02  0.84500720903E+02  0.00000000000E+00 0.  1.
         21   -1    0    0  501  503 -0.00000000000E+00 -0.00000000000E+00 -0.10524019298E+04  0.10524019298E+04  0.00000000000E+00 0.  1.
          6    1    1    2  501    0 -0.12469980807E+03 -0.46751715245E+01 -0.88276840447E+03  0.90798455675E+03  0.17200000000E+03 0.  1.
         -6    1    1    2    0  502  0.12469980807E+03  0.46751715245E+01 -0.85132804460E+02  0.22891809399E+03  0.17200000000E+03 0.  1.
</event>
<event>
 4    1  0.5640532E+000  0.2257615E+03  0.7818608E-02  0.1129659E+00
         21   -1    0    0  503  502  0.00000000000E+00  0.00000000000E+00  0.10869233311E+03  0.10869233311E+03  0.00000000000E+00 0. -1.
         21   -1    0    0  501  503 -0.00000000000E+00 -0.00000000000E+00 -0.59681088604E+03  0.59681088604E+03  0.00000000000E+00 0.  1.
          6    1    1    2  501    0  0.14528036434E+03 -0.16669548041E+02 -0.40735189013E+03  0.46572934252E+03  0.17200000000E+03 0.  1.
         -6    1    1    2    0  502 -0.14528036434E+03  0.16669548041E+02 -0.80766662808E+02  0.23977387663E+03  0.17200000000E+03 0. -1.
</event>
<event>
 4    1  0.5640532E+000  0.2238345E+03  0.7818608E-02  0.1131056E+00
         21   -1    0    0  503  502  0.00000000000E+00  0.00000000000E+00  0.11122921868E+04  0.11122921868E+04  0.00000000000E+00 0. -1.
         21   -1    0    0  501  503 -0.00000000000E+00 -0.00000000000E+00 -0.45529818260E+02  0.45529818260E+02  0.00000000000E+00 0.  1.
          6    1    1    2  501    0 -0.10407487147E+01  0.14323683881E+03  0.47356939633E+03  0.52380325342E+03  0.17200000000E+03 0. -1.
         -6    1    1    2    0  502  0.10407487147E+01 -0.14323683881E+03  0.59319297217E+03  0.63401875160E+03  0.17200000000E+03 0. -1.
</event>
<event>
 4    1  0.5640532E+000  0.1933729E+03  0.7818608E-02  0.1155454E+00
         21   -1    0    0  501  502  0.00000000000E+00  0.00000000000E+00  0.55143791552E+03  0.55143791552E+03  0.00000000000E+00 0.  1.
         21   -1    0    0  502  503 -0.00000000000E+00 -0.00000000000E+00 -0.51399546439E+03  0.51399546439E+03  0.00000000000E+00 0.  1.
          6    1    1    2  501    0 -0.88347493205E+02  0.19533220247E+01  0.51505552642E+03  0.55015933175E+03  0.17200000000E+03 0.  1.
         -6    1    1    2    0  503  0.88347493205E+02 -0.19533220247E+01 -0.47761307528E+03  0.51527404816E+03  0.17200000000E+03 0.  1.
</event>
<event>
 4    1  0.5640532E+000  0.1776232E+03  0.7818608E-02  0.1170123E+00
         21   -1    0    0  501  502  0.00000000000E+00  0.00000000000E+00  0.38825417080E+03  0.38825417080E+03  0.00000000000E+00 0. -1.
         21   -1    0    0  502  503 -0.00000000000E+00 -0.00000000000E+00 -0.15259874807E+03  0.15259874807E+03  0.00000000000E+00 0. -1.
          6    1    1    2  501    0 -0.64249114518E+01 -0.43871566233E+02  0.30272597515E+03  0.35098861782E+03  0.17200000000E+03 0. -1.
         -6    1    1    2    0  503  0.64249114518E+01  0.43871566233E+02 -0.67070552413E+02  0.18986430105E+03  0.17200000000E+03 0. -1.
</event>
<event>
 4    1  0.5640532E+000  0.2451706E+03  0.7818608E-02  0.1116395E+00
         21   -1    0    0  501  502  0.00000000000E+00  0.00000000000E+00  0.16856747050E+04  0.16856747050E+04  0.00000000000E+00 0.  1.
         21   -1    0    0  502  503 -0.00000000000E+00 -0.00000000000E+00 -0.61891815141E+02  0.61891815141E+02  0.00000000000E+00 0. -1.
          6    1    1    2  501    0 -0.17305471149E+03  0.24014233029E+02  0.13807624149E+04  0.14023599620E+04  0.17200000000E+03 0.  1.
         -6    1    1    2    0  503  0.17305471149E+03 -0.24014233029E+02  0.24302047499E+03  0.34520655820E+03  0.17200000000E+03 0. -1.
</event>
<event>
 4    1  0.5640532E+000  0.1756871E+03  0.7818608E-02  0.1172044E+00
         21   -1    0    0  501  502  0.00000000000E+00  0.00000000000E+00  0.65524174421E+02  0.65524174421E+02  0.00000000000E+00 0. -1.
         21   -1    0    0  502  503 -0.00000000000E+00 -0.00000000000E+00 -0.52089741186E+03  0.52089741186E+03  0.00000000000E+00 0. -1.
          6    1    1    2  501    0 -0.11074884904E+02  0.34048743785E+02 -0.13699410127E+03  0.22278544345E+03  0.17200000000E+03 0. -1.
         -6    1    1    2    0  503  0.11074884904E+02 -0.34048743785E+02 -0.31837913617E+03  0.36363614283E+03  0.17200000000E+03 0. -1.
</event>
<event>
 4    1  0.5640532E+000  0.1876029E+03  0.7818608E-02  0.1160641E+00
         21   -1    0    0  503  502  0.00000000000E+00  0.00000000000E+00  0.42709005320E+03  0.42709005320E+03  0.00000000000E+00 0.  1.
         21   -1    0    0  501  503 -0.00000000000E+00 -0.00000000000E+00 -0.86547081908E+02  0.86547081908E+02  0.00000000000E+00 0.  1.
          6    1    1    2  501    0 -0.58022840223E+02  0.47372848661E+02  0.11409552566E+03  0.21957373649E+03  0.17200000000E+03 0. -1.
         -6    1    1    2    0  502  0.58022840223E+02 -0.47372848661E+02  0.22644744563E+03  0.29406339862E+03  0.17200000000E+03 0. -1.
</event>
<event>
 4    1  0.5640532E+000  0.2535296E+03  0.7818608E-02  0.1111094E+00
         21   -1    0    0  503  502  0.00000000000E+00  0.00000000000E+00  0.42753833552E+03  0.42753833552E+03  0.00000000000E+00 0.  1.
         21   -1    0    0  501  503 -0.00000000000E+00 -0.00000000000E+00 -0.18631419849E+03  0.18631419849E+03  0.00000000000E+00 0.  1.
          6    1    1    2  501    0 -0.14083873887E+03  0.12189217261E+03 -0.14250232817E+02  0.25392975652E+03  0.17200000000E+03 0.  1.
         -6    1    1    2    0  502  0.14083873887E+03 -0.12189217261E+03  0.25547436984E+03  0.35992277749E+03  0.17200000000E+03 0.  1.
</event>
<event>
 4    1  0.5640532E+000  0.2635211E+03  0.7818608E-02  0.1105046E+00
         21   -1    0    0  501  502  0.00000000000E+00  0.00000000000E+00  0.42338949941E+03  0.42338949941E+03  0.00000000000E+00 0.  1.
         21   -1    0    0  502  503 -0.00000000000E+00 -0.00000000000E+00 -0.17674706605E+03  0.17674706605E+03  0.00000000000E+00 0.  1.
          6    1    1    2  501    0  0.15292352680E+03 -0.12835014362E+03  0.20384935802E+03  0.33316351117E+03  0.17200000000E+03 0.  1.
         -6    1    1    2    0  503 -0.15292352680E+03  0.12835014362E+03  0.42793075348E+02  0.26697305428E+03  0.17200000000E+03 0.  1.
</event>
<event>
 4    1  0.5640532E+000  0.2125063E+03  0.7818608E-02  0.1139596E+00
         21   -1    0    0  501  502  0.00000000000E+00  0.00000000000E+00  0.30261106778E+04  0.30261106778E+04  0.00000000000E+00 0.  1.
         21   -1    0    0  502  503 -0.00000000000E+00 -0.00000000000E+00 -0.16570460614E+02  0.16570460614E+02  0.00000000000E+00 0. -1.
          6    1    1    2  501    0 -0.11014081072E+03  0.58685075710E+02  0.10250872596E+04  0.10468824319E+04  0.17200000000E+03 0. -1.
         -6    1    1    2    0  503  0.11014081072E+03 -0.58685075710E+02  0.19844529576E+04  0.19957987066E+04  0.17200000000E+03 0.  1.
</event>
<event>
 4    1  0.5640532E+000  0.2172167E+03  0.7818608E-02  0.1135975E+00
         21   -1    0    0  501  502  0.00000000000E+00  0.00000000000E+00  0.47711931314E+03  0.47711931314E+03  0.00000000000E+00 0. -1.
         21   -1    0    0  502  503 -0.00000000000E+00 -0.00000000000E+00 -0.45085505514E+03  0.45085505514E+03  0.00000000000E+00 0. -1.
          6    1    1    2  501    0 -0.74309748522E+02  0.10989613865E+03  0.42308722511E+03  0.47559005463E+03  0.17200000000E+03 0. -1.
         -6    1    1    2    0  503  0.74309748522E+02 -0.10989613865E+03 -0.39682296711E+03  0.45238431366E+03  0.17200000000E+03 0. -1.
</event>
<event>
 4    1  0.5640532E+000  0.2979372E+03  0.7818608E-02  0.1086276E+00
         21   -1    0    0  501  502  0.00000000000E+00  0.00000000000E+00  0.36798443049E+03  0.36798443049E+03  0.00000000000E+00 0. -1.
         21   -1    0    0  502  503 -0.00000000000E+00 -0.00000000000E+00 -0.62892923274E+03  0.62892923274E+03  0.00000000000E+00 0.  1.
          6    1    1    2  501    0 -0.39283404696E+02  0.24008210045E+03 -0.52183345790E+03  0.60089662890E+03  0.17200000000E+03 0.  1.
         -6    1    1    2    0  503  0.39283404696E+02 -0.24008210045E+03  0.26088865565E+03  0.39601703434E+03  0.17200000000E+03 0. -1.
</event>
<event>
 4    1  0.5640532E+000  0.1912742E+03  0.7818608E-02  0.1157317E+00
         21   -1    0    0  503  502  0.00000000000E+00  0.00000000000E+00  0.94557401367E+02  0.94557401367E+02  0.00000000000E+00 0. -1.
         21   -1    0    0  501  503 -0.00000000000E+00 -0.00000000000E+00 -0.41791886859E+03  0.41791886859E+03  0.00000000000E+00 0. -1.
          6    1    1    2  501    0  0.80833679903E+02 -0.21627589178E+02 -0.23147084739E+03  0.30027419072E+03  0.17200000000E+03 0. -1.
         -6    1    1    2    0  502 -0.80833679903E+02  0.21627589178E+02 -0.91890619836E+02  0.21220207924E+03  0.17200000000E+03 0. -1.
</event>
<event>
 4    1  0.5640532E+000  0.1726627E+03  0.7818608E-02  0.1175099E+00
         21   -1    0    0  503  502  0.00000000000E+00  0.00000000000E+00  0.13301761452E+03  0.13301761452E+03  0.00000000000E+00 0. -1.
         21   -1    0    0  501  503 -0.00000000000E+00 -0.00000000000E+00 -0.72111788621E+03  0.72111788621E+03  0.00000000000E+00 0. -1.
          6    1    1    2  501    0 -0.13964187020E+02  0.57801410609E+01 -0.64859342497E+03  0.67118241892E+03  0.17200000000E+03 0. -1.
         -6    1    1    2    0  502  0.13964187020E+02 -0.57801410609E+01  0.60493153281E+02  0.18295308181E+03  0.17200000000E+03 0. -1.
</event>
<event>
 4    1  0.5640532E+000  0.2543557E+03  0.7818608E-02  0.1110583E+00
         21   -1    0    0  503  502  0.00000000000E+00  0.00000000000E+00  0.34945453545E+03  0.34945453545E+03  0.00000000000E+00 0. -1.
         21   -1    0    0  501  503 -0.00000000000E+00 -0.00000000000E+00 -0.20016646430E+03  0.20016646430E+03  0.00000000000E+00 0. -1.
          6    1    1    2  501    0 -0.18288900094E+03  0.40797645182E+02 -0.65939828752E+00  0.25435657908E+03  0.17200000000E+03 0. -1.
         -6    1    1    2    0  502  0.18288900094E+03 -0.40797645182E+02  0.14994746944E+03  0.29526442066E+03  0.17200000000E+03 0. -1.
</event>
<event>
 4    1  0.5640532E+000  0.1829304E+03  0.7818608E-02  0.1164997E+00
         21   -1    0    0  501  502  0.00000000000E+00  0.00000000000E+00  0.17624512238E+03  0.17624512238E+03  0.00000000000E+00 0.  1.
         21   -1    0    0  502  503 -0.00000000000E+00 -0.00000000000E+00 -0.19020577322E+03  0.19020577322E+03  0.00000000000E+00 0.  1.
          6    1    1    2  501    0  0.55650387384E+02 -0.27974394301E+02  0.72640079538E+00  0.18293184526E+03  0.17200000000E+03 0.  1.
         -6    1    1    2    0  503 -0.55650387384E+02  0.27974394301E+02 -0.14687051634E+02  0.18351905034E+03  0.17200000000E+03 0.  1.
</event>
<event>
 4    1  0.5640532E+000  0.3021321E+03  0.7818608E-02  0.1084180E+00
         21   -1    0    0  501  502  0.00000000000E+00  0.00000000000E+00  0.44654717714E+03  0.44654717714E+03  0.00000000000E+00 0. -1.
         21   -1    0    0  502  503 -0.00000000000E+00 -0.00000000000E+00 -0.20933401775E+03  0.20933401775E+03  0.00000000000E+00 0.  1.
          6    1    1    2  501    0 -0.70984621979E+02  0.23803564512E+03  0.68368483598E+02  0.30977093869E+03  0.17200000000E+03 0. -1.
         -6    1    1    2    0  503  0.70984621979E+02 -0.23803564512E+03  0.16884467580E+03  0.34611025620E+03  0.17200000000E+03 0.  1.
</event>
<event>
 4    1  0.5640532E+000  0.2154540E+03  0.7818608E-02  0.1137318E+00
         21   -1    0    0  501  502  0.00000000000E+00  0.00000000000E+00  0.11838422247E+04  0.11838422247E+04  0.00000000000E+00 0. -1.
         21   -1    0    0  502  503 -0.00000000000E+00 -0.00000000000E+00 -0.39698005113E+02  0.39698005113E+02  0.00000000000E+00 0.  1.
          6    1    1    2  501    0 -0.44569258991E+02 -0.12186057080E+03  0.50435839119E+03  0.54845036633E+03  0.17200000000E+03 0. -1.
         -6    1    1    2    0  503  0.44569258991E+02  0.12186057080E+03  0.63978582840E+03  0.67508986349E+03  0.17200000000E+03 0.  1.
</event>
<event>
 4    1  0.5640532E+000  0.2172568E+03  0.7818608E-02  0.1135945E+00
         21   -1    0    0  501  502  0.00000000000E+00  0.00000000000E+00  0.22217073518E+03  0.22217073518E+03  0.00000000000E+00 0.  1.
         21   -1    0    0  502  503 -0.00000000000E+00 -0.00000000000E+00 -0.44775792026E+03  0.44775792026E+03  0.00000000000E+00 0.  1.
          6    1    1    2  501    0  0.11505999002E+03 -0.66164376667E+02  0.13003159097E+03  0.25319703927E+03  0.17200000000E+03 0.  1.
         -6    1    1    2    0  503 -0.11505999002E+03  0.66164376667E+02 -0.35561877605E+03  0.41673161617E+03  0.17200000000E+03 0.  1.
</event>
<event>
 4    1  0.5640532E+000  0.1797044E+03  0.7818608E-02  0.1168089E+00
         21   -1    0    0  501  502  0.00000000000E+00  0.00000000000E+00  0.64847940957E+02  0.64847940957E+02  0.00000000000E+00 0. -1.
         21   -1    0    0  502  503 -0.00000000000E+00 -0.00000000000E+00 -0.59197351696E+03  0.59197351696E+03  0.00000000000E+00 0. -1.
          6    1    1    2  501    0  0.21796507072E-01  0.52054502813E+02 -0.39441781717E+03  0.43342714064E+03  0.17200000000E+03 0. -1.
         -6    1    1    2    0  503 -0.21796507072E-01 -0.52054502813E+02 -0.13270775883E+03  0.22339431728E+03  0.17200000000E+03 0. -1.
</event>
<event>
 4    1  0.5640532E+000  0.3059417E+03  0.7818608E-02  0.1082308E+00
         21   -1    0    0  503  502  0.00000000000E+00  0.00000000000E+00  0.19399281741E+03  0.19399281741E+03  0.00000000000E+00 0. -1.
         21   -1    0    0  501  503 -0.00000000000E+00 -0.00000000000E+00 -0.89506954618E+03  0.89506954618E+03  0.00000000000E+00 0.  1.
          6    1    1    2  501    0  0.15465798939E+03  0.20024287997E+03 -0.72023566854E+03  0.78252138814E+03  0.17200000000E+03 0.  1.
         -6    1    1    2    0  502 -0.15465798939E+03 -0.20024287997E+03  0.19158939762E+02  0.30654097545E+03  0.17200000000E+03 0. -1.
</event>
<event>
 4    1  0.5640532E+000  0.3395669E+03  0.7818608E-02  0.1066981E+00
         21   -1    0    0  503  502  0.00000000000E+00  0.00000000000E+00  0.86633681193E+02  0.86633681193E+02  0.00000000000E+00 0.  1.
         21   -1    0    0  501  503 -0.00000000000E+00 -0.00000000000E+00 -0.15303119684E+04  0.15303119684E+04  0.00000000000E+00 0.  1.
          6    1    1    2  501    0  0.16911025506E+03 -0.23900495497E+03 -0.10136421047E+04  0.10690069987E+04  0.17200000000E+03 0.  1.
         -6    1    1    2    0  502 -0.16911025506E+03  0.23900495497E+03 -0.43003618248E+03  0.54793865086E+03  0.17200000000E+03 0.  1.
</event>
<event>
 4    1  0.5640532E+000  0.2393604E+03  0.7818608E-02  0.1120220E+00
         21   -1    0    0  501  502  0.00000000000E+00  0.00000000000E+00  0.88995271358E+02  0.88995271358E+02  0.00000000000E+00 0.  1.
         21   -1    0    0  502  503 -0.00000000000E+00 -0.00000000000E+00 -0.68372482762E+03  0.68372482762E+03  0.00000000000E+00 0.  1.
          6    1    1    2  501    0 -0.68714622008E+02  0.15161702372E+03 -0.20397936541E+03  0.31448529802E+03  0.17200000000E+03 0.  1.
         -6    1    1    2    0  503  0.68714622008E+02 -0.15161702372E+03 -0.39075019085E+03  0.45823480096E+03  0.17200000000E+03 0.  1.
</event>
<event>
 4    1  0.5640532E+000  0.2080317E+03  0.7818608E-02  0.1143134E+00
         21   -1    0    0  501  502  0.00000000000E+00  0.00000000000E+00  0.50418612179E+03  0.50418612179E+03  0.00000000000E+00 0.  1.
         21   -1    0    0  502  503 -0.00000000000E+00 -0.00000000000E+00 -0.86890344424E+02  0.86890344424E+02  0.00000000000E+00 0. -1.
          6    1    1    2  501    0  0.22733218060E+02  0.11478847138E+03  0.24120690510E+03  0.31852466691E+03  0.17200000000E+03 0.  1.
         -6    1    1    2    0  503 -0.22733218060E+02 -0.11478847138E+03  0.17608887226E+03  0.27255179930E+03  0.17200000000E+03 0.  1.
</event>
<event>
 4    1  0.5640532E+000  0.1787938E+03  0.7818608E-02  0.1168976E+00
         21   -1    0    0  503  502  0.00000000000E+00  0.00000000000E+00  0.84381905756E+02  0.84381905756E+02  0.00000000000E+00 0.  1.
         21   -1    0    0  501  503 -0.00000000000E+00 -0.00000000000E+00 -0.40633170953E+03  0.40633170953E+03  0.00000000000E+00 0.  1.
          6    1    1    2  501    0 -0.12384651257E+02  0.47221311022E+02 -0.22479529949E+03  0.28722840820E+03  0.17200000000E+03 0.  1.
         -6    1    1    2    0  502  0.12384651257E+02 -0.47221311022E+02 -0.97154504279E+02  0.20348520709E+03  0.17200000000E+03 0.  1.
</event>
<event>
 4    1  0.5640532E+000  0.2071368E+03  0.7818608E-02  0.1143854E+00
         21   -1    0    0  501  502  0.00000000000E+00  0.00000000000E+00  0.37588658818E+03  0.37588658818E+03  0.00000000000E+00 0.  1.
         21   -1    0    0  502  503 -0.00000000000E+00 -0.00000000000E+00 -0.19890920166E+03  0.19890920166E+03  0.00000000000E+00 0.  1.
          6    1    1    2  501    0  0.42393894845E+02  0.10735188574E+03  0.27610117813E+03  0.34516304880E+03  0.17200000000E+03 0.  1.
         -6    1    1    2    0  503 -0.42393894845E+02 -0.10735188574E+03 -0.99123791611E+02  0.22963274103E+03  0.17200000000E+03 0.  1.
</event>
<event>
 4    1  0.5640532E+000  0.2485776E+03  0.7818608E-02  0.1114207E+00
         21   -1    0    0  503  502  0.00000000000E+00  0.00000000000E+00  0.38587106353E+03  0.38587106353E+03  0.00000000000E+00 0.  1.
         21   -1    0    0  501  503 -0.00000000000E+00 -0.00000000000E+00 -0.18459804701E+03  0.18459804701E+03  0.00000000000E+00 0. -1.
          6    1    1    2  501    0  0.16217261016E+02 -0.17872835529E+03 -0.32020244655E+01  0.24859822505E+03  0.17200000000E+03 0.  1.
         -6    1    1    2    0  502 -0.16217261016E+02  0.17872835529E+03  0.20447504099E+03  0.32187088549E+03  0.17200000000E+03 0.  1.
</event>
<event>
 4    1  0.5640532E+000  0.1952833E+03  0.7818608E-02  0.1153781E+00
         21   -1    0    0  503  502  0.00000000000E+00  0.00000000000E+00  0.53544489676E+03  0.53544489676E+03  0.00000000000E+00 0.  1.
         21   -1    0    0  501  503 -0.00000000000E+00 -0.00000000000E+00 -0.10610105985E+03  0.10610105985E+03  0.00000000000E+00 0.  1.
          6    1    1    2  501    0  0.72693678287E+02 -0.57159273357E+02  0.30756062312E+02  0.19769038612E+03  0.17200000000E+03 0.  1.
         -6    1    1    2    0  502 -0.72693678287E+02  0.57159273357E+02  0.39858777460E+03  0.44385557049E+03  0.17200000000E+03 0.  1.
</event>
<event>
 4    1  0.5640532E+000  0.2754250E+03  0.7818608E-02  0.1098214E+00
         21   -1    0    0  503  502  0.00000000000E+00  0.00000000000E+00  0.66231189034E+03  0.66231189034E+03  0.00000000000E+00 0.  1.
         21   -1    0    0  501  503 -0.00000000000E+00 -0.00000000000E+00 -0.18969136318E+03  0.18969136318E+03  0.00000000000E+00 0. -1.
          6    1    1    2  501    0 -0.17967008687E+01  0.21510859931E+03 -0.31832324623E+02  0.27725842552E+03  0.17200000000E+03 0.  1.
         -6    1    1    2    0  502  0.17967008687E+01 -0.21510859931E+03  0.50445285178E+03  0.57474482799E+03  0.17200000000E+03 0.  1.
</event>
<event>
 4    1  0.5640532E+000  0.4017261E+03  0.7818608E-02  0.1043184E+00
         21   -1    0    0  503  502  0.00000000000E+00  0.00000000000E+00  0.14122372524E+04  0.14122372524E+04  0.00000000000E+00 0. -1.
         21   -1    0    0  501  503 -0.00000000000E+00 -0.00000000000E+00 -0.11506096842E+03  0.11506096842E+03  0.00000000000E+00 0. -1.
          6    1    1    2  501    0  0.18452762862E+03 -0.31264904991E+03  0.58548631088E+03  0.71005499390E+03  0.17200000000E+03 0. -1.
         -6    1    1    2    0  502 -0.18452762862E+03  0.31264904991E+03  0.71168997308E+03  0.81724322691E+03  0.17200000000E+03 0. -1.
</event>
<event>
 4    1  0.5640532E+000  0.1763266E+03  0.7818608E-02  0.1171406E+00
         21   -1    0    0  501  502  0.00000000000E+00  0.00000000000E+00  0.14916141714E+03  0.14916141714E+03  0.00000000000E+00 0. -1.
         21   -1    0    0  502  503 -0.00000000000E+00 -0.00000000000E+00 -0.27130272236E+03  0.27130272236E+03  0.00000000000E+00 0. -1.
          6    1    1    2  501    0  0.27422424945E+02 -0.27478429194E+02  0.40127366189E+02  0.18083489425E+03  0.17200000000E+03 0. -1.
         -6    1    1    2    0  503 -0.27422424945E+02  0.27478429194E+02 -0.16226867141E+03  0.23962924526E+03  0.17200000000E+03 0. -1.
</event>
<event>
 4    1  0.5640532E+000  0.1799419E+03  0.7818608E-02  0.1167859E+00
         21   -1    0    0  501  502  0.00000000000E+00  0.00000000000E+00  0.32807511762E+03  0.32807511762E+03  0.00000000000E+00 0. -1.
         21   -1    0    0  502  503 -0.00000000000E+00 -0.00000000000E+00 -0.17864438680E+03  0.17864438680E+03  0.00000000000E+00 0. -1.
          6    1    1    2  501    0  0.50219495491E+02  0.16525867059E+02  0.24420875164E+03  0.30334306715E+03  0.17200000000E+03 0. -1.
         -6    1    1    2    0  503 -0.50219495491E+02 -0.16525867059E+02 -0.94778020810E+02  0.20337643727E+03  0.17200000000E+03 0. -1.
</event>
<event>
 4    1  0.5640532E+000  0.1828301E+03  0.7818608E-02  0.1165092E+00
         21   -1    0    0  503  502  0.00000000000E+00  0.00000000000E+00  0.27229482521E+03  0.27229482521E+03  0.00000000000E+00 0. -1.
         21   -1    0    0  501  503 -0.00000000000E+00 -0.00000000000E+00 -0.13055467129E+03  0.13055467129E+03  0.00000000000E+00 0. -1.
          6    1    1    2  501    0 -0.52870556872E+02  0.32365869926E+02  0.21652251473E+02  0.18410775463E+03  0.17200000000E+03 0. -1.
         -6    1    1    2    0  502  0.52870556872E+02 -0.32365869926E+02  0.12008790245E+03  0.21874174187E+03  0.17200000000E+03 0. -1.
</event>
<event>
 4    1  0.5640532E+000  0.2019978E+03  0.7818608E-02  0.1148064E+00
         21   -1    0    0  503  502  0.00000000000E+00  0.00000000000E+00  0.36018702467E+02  0.36018702467E+02  0.00000000000E+00 0.  1.
         21   -1    0    0  501  503 -0.00000000000E+00 -0.00000000000E+00 -0.11820117696E+04  0.11820117696E+04  0.00000000000E+00 0.  1.
          6    1    1    2  501    0 -0.34682075209E+01 -0.10586346566E+03 -0.69722325655E+03  0.72589487620E+03  0.17200000000E+03 0. -1.
         -6    1    1    2    0  502  0.34682075209E+01  0.10586346566E+03 -0.44876981059E+03  0.49213559587E+03  0.17200000000E+03 0. -1.
</event>
<event>
 4    1  0.5640532E+000  0.1777439E+03  0.7818608E-02  0.1170005E+00
         21   -1    0    0  503  502  0.00000000000E+00  0.00000000000E+00  0.31978949084E+02  0.31978949084E+02  0.00000000000E+00 0.  1.
         21   -1    0    0  501  503 -0.00000000000E+00 -0.00000000000E+00 -0.10195507001E+04  0.10195507001E+04  0.00000000000E+00 0.  1.
          6    1    1    2  501    0 -0.42136774226E+02  0.15276875477E+02 -0.58638106465E+03  0.61272803399E+03  0.17200000000E+03 0.  1.
         -6    1    1    2    0  502  0.42136774226E+02 -0.15276875477E+02 -0.40119068642E+03  0.43880161524E+03  0.17200000000E+03 0.  1.
</event>
<event>
 4    1  0.5640532E+000  0.1826630E+03  0.7818608E-02  0.1165250E+00
         21   -1    0    0  501  502  0.00000000000E+00  0.00000000000E+00  0.11730130049E+03  0.11730130049E+03  0.00000000000E+00 0.  1.
         21   -1    0    0  502  503 -0.00000000000E+00 -0.00000000000E+00 -0.55281003955E+03  0.55281003955E+03  0.00000000000E+00 0.  1.
          6    1    1    2  501    0 -0.58391497495E+02 -0.19292661612E+02  0.15694590398E+02  0.18333601375E+03  0.17200000000E+03 0.  1.
         -6    1    1    2    0  503  0.58391497495E+02  0.19292661612E+02 -0.45120332946E+03  0.48677532629E+03  0.17200000000E+03 0.  1.
</event>
<event>
 4    1  0.5640532E+000  0.1739645E+03  0.7818608E-02  0.1173775E+00
         21   -1    0    0  501  502  0.00000000000E+00  0.00000000000E+00  0.40606478281E+03  0.40606478281E+03  0.00000000000E+00 0.  1.
         21   -1    0    0  502  503 -0.00000000000E+00 -0.00000000000E+00 -0.90726627691E+02  0.90726627691E+02  0.00000000000E+00 0.  1.
          6    1    1    2  501    0 -0.40884464625E+00 -0.26066545935E+02  0.52714491138E+02  0.18177582223E+03  0.17200000000E+03 0. -1.
         -6    1    1    2    0  503  0.40884464625E+00  0.26066545935E+02  0.26262366398E+03  0.31501558827E+03  0.17200000000E+03 0. -1.
</event>
<event>
 4    1  0.5640532E+000  0.1909818E+03  0.7818608E-02  0.1157579E+00
         21   -1    0    0  503  502  0.00000000000E+00  0.00000000000E+00  0.12421053866E+03  0.12421053866E+03  0.00000000000E+00 0. -1.
         21   -1    0    0  501  503 -0.00000000000E+00 -0.00000000000E+00 -0.29901745157E+03  0.29901745157E+03  0.00000000000E+00 0. -1.
          6    1    1    2  501    0  0.44758343321E+02 -0.69905297234E+02 -0.59043930228E+02  0.19990058923E+03  0.17200000000E+03 0. -1.
         -6    1    1    2    0  502 -0.44758343321E+02  0.69905297234E+02 -0.11576298268E+03  0.22332740100E+03  0.17200000000E+03 0. -1.
</event>
<event>
 4    1  0.5640532E+000  0.4165526E+03  0.7818608E-02  0.1038194E+00
         21   -1    0    0  501  502  0.00000000000E+00  0.00000000000E+00  0.32276875038E+03  0.32276875038E+03  0.00000000000E+00 0. -1.
         21   -1    0    0  502  503 -0.00000000000E+00 -0.00000000000E+00 -0.56571955081E+03  0.56571955081E+03  0.00000000000E+00 0.  1.
          6    1    1    2  501    0  0.24408089114E+03  0.29044204191E+03 -0.22407943256E+02  0.41715485979E+03  0.17200000000E+03 0. -1.
         -6    1    1    2    0  503 -0.24408089114E+03 -0.29044204191E+03 -0.22054285717E+03  0.47133344140E+03  0.17200000000E+03 0.  1.
</event>
