<event>
 4    1  0.4451819E+000  0.1859657E+03  0.7546771E-02  0.1162151E+00
         21   -1    0    0  501  502  0.00000000000E+00  0.00000000000E+00  0.25746494094E+04  0.25746494094E+04  0.00000000000E+00 0. -1.
         21   -1    0    0  502  503 -0.00000000000E+00 -0.00000000000E+00 -0.29009424755E+02  0.29009424755E+02  0.00000000000E+00 0. -1.
          6    1    1    2  501    0  0.12538424058E+02 -0.67060005362E+02  0.22267780740E+04  0.22345298940E+04  0.17300000000E+03 0. -1.
         -6    1    1    2    0  503 -0.12538424058E+02  0.67060005362E+02  0.31886191073E+03  0.36912894023E+03  0.17300000000E+03 0. -1.
<mgrwt>
<rscale>  2 0.18596574E+03</rscale>
<asrwt>0</asrwt>
<pdfrwt beam="1">  1       21 0.39609973E+00 0.18596574E+03</pdfrwt>
<pdfrwt beam="2">  1       21 0.44629904E-02 0.18596574E+03</pdfrwt>
<totfact> 0.30319432E+03</totfact>
</mgrwt>
</event>
<event>
 4    1  0.4451819E+000  0.2206117E+03  0.7546771E-02  0.1133428E+00
         21   -1    0    0  503  502  0.00000000000E+00  0.00000000000E+00  0.12723295240E+04  0.12723295240E+04  0.00000000000E+00 0.  1.
         21   -1    0    0  501  503 -0.00000000000E+00 -0.00000000000E+00 -0.38278694147E+02  0.38278694147E+02  0.00000000000E+00 0. -1.
          6    1    1    2  501    0  0.61438336103E+01 -0.13675807171E+03  0.63423646035E+03  0.67150979479E+03  0.17300000000E+03 0.  1.
         -6    1    1    2    0  502 -0.61438336103E+01  0.13675807171E+03  0.59981436949E+03  0.63909842334E+03  0.17300000000E+03 0. -1.
<mgrwt>
<rscale>  2 0.22061169E+03</rscale>
<asrwt>0</asrwt>
<pdfrwt beam="1">  1       21 0.19574297E+00 0.22061169E+03</pdfrwt>
<pdfrwt beam="2">  1       21 0.58890308E-02 0.22061169E+03</pdfrwt>
<totfact> 0.28566882E+04</totfact>
</mgrwt>
</event>
<event>
 4    1  0.4451819E+000  0.2002881E+03  0.7546771E-02  0.1149496E+00
         21   -1    0    0  501  502  0.00000000000E+00  0.00000000000E+00  0.43203437894E+03  0.43203437894E+03  0.00000000000E+00 0.  1.
         21   -1    0    0  502  503 -0.00000000000E+00 -0.00000000000E+00 -0.12746003763E+03  0.12746003763E+03  0.00000000000E+00 0.  1.
          6    1    1    2  501    0 -0.69356026493E+02  0.73321751718E+02  0.29805646221E+03  0.35910025390E+03  0.17300000000E+03 0.  1.
         -6    1    1    2    0  503  0.69356026493E+02 -0.73321751718E+02  0.65178791039E+01  0.20039416267E+03  0.17300000000E+03 0.  1.
<mgrwt>
<rscale>  2 0.20028814E+03</rscale>
<asrwt>0</asrwt>
<pdfrwt beam="1">  1       21 0.66466827E-01 0.20028814E+03</pdfrwt>
<pdfrwt beam="2">  1       21 0.19609237E-01 0.20028814E+03</pdfrwt>
<totfact> 0.49529686E+04</totfact>
</mgrwt>
</event>
<event>
 4    1  0.4451819E+000  0.2562216E+03  0.7546771E-02  0.1109435E+00
         21   -1    0    0  503  502  0.00000000000E+00  0.00000000000E+00  0.57962037362E+03  0.57962037362E+03  0.00000000000E+00 0. -1.
         21   -1    0    0  501  503 -0.00000000000E+00 -0.00000000000E+00 -0.13506906835E+03  0.13506906835E+03  0.00000000000E+00 0. -1.
          6    1    1    2  501    0 -0.16653602888E+03  0.89365916390E+02  0.78694129019E+02  0.26803410579E+03  0.17300000000E+03 0. -1.
         -6    1    1    2    0  502  0.16653602888E+03 -0.89365916390E+02  0.36585717625E+03  0.44665533618E+03  0.17300000000E+03 0. -1.
<mgrwt>
<rscale>  2 0.25622161E+03</rscale>
<asrwt>0</asrwt>
<pdfrwt beam="1">  1       21 0.89172364E-01 0.25622161E+03</pdfrwt>
<pdfrwt beam="2">  1       21 0.20779857E-01 0.25622161E+03</pdfrwt>
<totfact> 0.22287007E+04</totfact>
</mgrwt>
</event>
<event>
 4    1  0.4451819E+000  0.1899076E+03  0.7546771E-02  0.1158545E+00
         21   -1    0    0  503  502  0.00000000000E+00  0.00000000000E+00  0.75764771192E+02  0.75764771192E+02  0.00000000000E+00 0.  1.
         21   -1    0    0  501  503 -0.00000000000E+00 -0.00000000000E+00 -0.48476759375E+03  0.48476759375E+03  0.00000000000E+00 0.  1.
          6    1    1    2  501    0  0.56768185507E+02 -0.53974650418E+02 -0.24216860248E+03  0.30775074622E+03  0.17300000000E+03 0.  1.
         -6    1    1    2    0  502 -0.56768185507E+02  0.53974650418E+02 -0.16683422008E+03  0.25278161872E+03  0.17300000000E+03 0.  1.
<mgrwt>
<rscale>  2 0.18990758E+03</rscale>
<asrwt>0</asrwt>
<pdfrwt beam="1">  1       21 0.11656118E-01 0.18990758E+03</pdfrwt>
<pdfrwt beam="2">  1       21 0.74579631E-01 0.18990758E+03</pdfrwt>
<totfact> 0.99625458E+04</totfact>
</mgrwt>
</event>
<event>
 4    1  0.4451819E+000  0.1988650E+03  0.7546771E-02  0.1150700E+00
         21   -1    0    0  503  502  0.00000000000E+00  0.00000000000E+00  0.66269874790E+02  0.66269874790E+02  0.00000000000E+00 0. -1.
         21   -1    0    0  501  503 -0.00000000000E+00 -0.00000000000E+00 -0.61744514568E+03  0.61744514568E+03  0.00000000000E+00 0.  1.
          6    1    1    2  501    0  0.38586014392E+02  0.90163208683E+02 -0.33815724838E+03  0.39229785793E+03  0.17300000000E+03 0. -1.
         -6    1    1    2    0  502 -0.38586014392E+02 -0.90163208683E+02 -0.21301802251E+03  0.29141716254E+03  0.17300000000E+03 0.  1.
<mgrwt>
<rscale>  2 0.19886499E+03</rscale>
<asrwt>0</asrwt>
<pdfrwt beam="1">  1       21 0.10195366E-01 0.19886499E+03</pdfrwt>
<pdfrwt beam="2">  1       21 0.94991559E-01 0.19886499E+03</pdfrwt>
<totfact> 0.72446109E+04</totfact>
</mgrwt>
</event>
<event>
 4    1  0.4451819E+000  0.1927685E+03  0.7546771E-02  0.1155988E+00
         21   -1    0    0  503  502  0.00000000000E+00  0.00000000000E+00  0.72284713995E+03  0.72284713995E+03  0.00000000000E+00 0.  1.
         21   -1    0    0  501  503 -0.00000000000E+00 -0.00000000000E+00 -0.11919928151E+03  0.11919928151E+03  0.00000000000E+00 0.  1.
          6    1    1    2  501    0  0.85032283910E+02 -0.46219506130E+00 -0.15686515057E+02  0.19340571265E+03  0.17300000000E+03 0.  1.
         -6    1    1    2    0  502 -0.85032283910E+02  0.46219506130E+00  0.61933437350E+03  0.64864070881E+03  0.17300000000E+03 0.  1.
<mgrwt>
<rscale>  2 0.19276852E+03</rscale>
<asrwt>0</asrwt>
<pdfrwt beam="1">  1       21 0.11120725E+00 0.19276852E+03</pdfrwt>
<pdfrwt beam="2">  1       21 0.18338351E-01 0.19276852E+03</pdfrwt>
<totfact> 0.17252764E+04</totfact>
</mgrwt>
</event>
<event>
 4    1  0.4451819E+000  0.2453391E+03  0.7546771E-02  0.1116286E+00
         21   -1    0    0  503  502  0.00000000000E+00  0.00000000000E+00  0.91994135980E+02  0.91994135980E+02  0.00000000000E+00 0.  1.
         21   -1    0    0  501  503 -0.00000000000E+00 -0.00000000000E+00 -0.85159933506E+03  0.85159933506E+03  0.00000000000E+00 0. -1.
          6    1    1    2  501    0 -0.16493677579E+02  0.17317685587E+03 -0.60689680232E+03  0.65461056627E+03  0.17300000000E+03 0. -1.
         -6    1    1    2    0  502  0.16493677579E+02 -0.17317685587E+03 -0.15270839676E+03  0.28898290477E+03  0.17300000000E+03 0.  1.
<mgrwt>
<rscale>  2 0.24533908E+03</rscale>
<asrwt>0</asrwt>
<pdfrwt beam="1">  1       21 0.14152945E-01 0.24533908E+03</pdfrwt>
<pdfrwt beam="2">  1       21 0.13101527E+00 0.24533908E+03</pdfrwt>
<totfact> 0.17896353E+04</totfact>
</mgrwt>
</event>
<event>
 4    1  0.4451819E+000  0.1857784E+03  0.7546771E-02  0.1162325E+00
         21   -1    0    0  501  502  0.00000000000E+00  0.00000000000E+00  0.96406941712E+02  0.96406941712E+02  0.00000000000E+00 0. -1.
         21   -1    0    0  502  503 -0.00000000000E+00 -0.00000000000E+00 -0.66018927674E+03  0.66018927674E+03  0.00000000000E+00 0. -1.
          6    1    1    2  501    0 -0.59662807924E+01  0.67446411171E+02 -0.25950094780E+02  0.18758204153E+03  0.17300000000E+03 0. -1.
         -6    1    1    2    0  503  0.59662807924E+01 -0.67446411171E+02 -0.53783224025E+03  0.56901417692E+03  0.17300000000E+03 0. -1.
<mgrwt>
<rscale>  2 0.18577840E+03</rscale>
<asrwt>0</asrwt>
<pdfrwt beam="1">  1       21 0.14831838E-01 0.18577840E+03</pdfrwt>
<pdfrwt beam="2">  1       21 0.10156758E+00 0.18577840E+03</pdfrwt>
<totfact> 0.31798462E+04</totfact>
</mgrwt>
</event>
<event>
 4    1  0.4451819E+000  0.1788175E+03  0.7546771E-02  0.1168952E+00
         21   -1    0    0  503  502  0.00000000000E+00  0.00000000000E+00  0.11473169276E+03  0.11473169276E+03  0.00000000000E+00 0.  1.
         21   -1    0    0  501  503 -0.00000000000E+00 -0.00000000000E+00 -0.29021746801E+03  0.29021746801E+03  0.00000000000E+00 0.  1.
          6    1    1    2  501    0  0.14342955119E+01  0.45217530381E+02 -0.47406788257E+02  0.18499482650E+03  0.17300000000E+03 0.  1.
         -6    1    1    2    0  502 -0.14342955119E+01 -0.45217530381E+02 -0.12807898699E+03  0.21995433428E+03  0.17300000000E+03 0.  1.
<mgrwt>
<rscale>  2 0.17881746E+03</rscale>
<asrwt>0</asrwt>
<pdfrwt beam="1">  1       21 0.17651030E-01 0.17881746E+03</pdfrwt>
<pdfrwt beam="2">  1       21 0.44648841E-01 0.17881746E+03</pdfrwt>
<totfact> 0.14082301E+05</totfact>
</mgrwt>
</event>
<event>
 4    1  0.4451819E+000  0.2237310E+03  0.7546771E-02  0.1131132E+00
         21   -1    0    0  503  502  0.00000000000E+00  0.00000000000E+00  0.16231075585E+03  0.16231075585E+03  0.00000000000E+00 0. -1.
         21   -1    0    0  501  503 -0.00000000000E+00 -0.00000000000E+00 -0.32376049104E+03  0.32376049104E+03  0.00000000000E+00 0. -1.
          6    1    1    2  501    0  0.11130449273E+03  0.87965197984E+02 -0.27776348696E+02  0.22544864538E+03  0.17300000000E+03 0. -1.
         -6    1    1    2    0  502 -0.11130449273E+03 -0.87965197984E+02 -0.13367338650E+03  0.26062260151E+03  0.17300000000E+03 0. -1.
<mgrwt>
<rscale>  2 0.22373101E+03</rscale>
<asrwt>0</asrwt>
<pdfrwt beam="1">  1       21 0.24970885E-01 0.22373101E+03</pdfrwt>
<pdfrwt beam="2">  1       21 0.49809307E-01 0.22373101E+03</pdfrwt>
<totfact> 0.57488518E+04</totfact>
</mgrwt>
</event>
<event>
 4    1  0.4451819E+000  0.2052982E+03  0.7546771E-02  0.1145344E+00
         21   -1    0    0  503  502  0.00000000000E+00  0.00000000000E+00  0.95133068276E+03  0.95133068276E+03  0.00000000000E+00 0. -1.
         21   -1    0    0  501  503 -0.00000000000E+00 -0.00000000000E+00 -0.47782010389E+02  0.47782010389E+02  0.00000000000E+00 0.  1.
          6    1    1    2  501    0 -0.16817032389E+02  0.10924990369E+03  0.31698858172E+03  0.37766270001E+03  0.17300000000E+03 0.  1.
         -6    1    1    2    0  502  0.16817032389E+02 -0.10924990369E+03  0.58656009065E+03  0.62144999314E+03  0.17300000000E+03 0. -1.
<mgrwt>
<rscale>  2 0.20529821E+03</rscale>
<asrwt>0</asrwt>
<pdfrwt beam="1">  1       21 0.14635855E+00 0.20529821E+03</pdfrwt>
<pdfrwt beam="2">  1       21 0.73510792E-02 0.20529821E+03</pdfrwt>
<totfact> 0.43989172E+04</totfact>
</mgrwt>
</event>
<event>
 4    1  0.4451819E+000  0.2124717E+03  0.7546771E-02  0.1139623E+00
         21   -1    0    0  501  502  0.00000000000E+00  0.00000000000E+00  0.13812569617E+03  0.13812569617E+03  0.00000000000E+00 0.  1.
         21   -1    0    0  502  503 -0.00000000000E+00 -0.00000000000E+00 -0.68607917605E+03  0.68607917605E+03  0.00000000000E+00 0.  1.
          6    1    1    2  501    0 -0.54052029670E+02 -0.11087659429E+03  0.24227106525E+02  0.21384852996E+03  0.17300000000E+03 0.  1.
         -6    1    1    2    0  503  0.54052029670E+02  0.11087659429E+03 -0.57218058641E+03  0.61035634226E+03  0.17300000000E+03 0.  1.
<mgrwt>
<rscale>  2 0.21247174E+03</rscale>
<asrwt>0</asrwt>
<pdfrwt beam="1">  1       21 0.21250107E-01 0.21247174E+03</pdfrwt>
<pdfrwt beam="2">  1       21 0.10555064E+00 0.21247174E+03</pdfrwt>
<totfact> 0.14675329E+04</totfact>
</mgrwt>
</event>
<event>
 4    1  0.4451819E+000  0.2043361E+03  0.7546771E-02  0.1146131E+00
         21   -1    0    0  503  502  0.00000000000E+00  0.00000000000E+00  0.13100146847E+03  0.13100146847E+03  0.00000000000E+00 0. -1.
         21   -1    0    0  501  503 -0.00000000000E+00 -0.00000000000E+00 -0.77861667801E+03  0.77861667801E+03  0.00000000000E+00 0. -1.
          6    1    1    2  501    0  0.87407770267E+01 -0.10838737494E+03 -0.67334676066E+03  0.70366830561E+03  0.17300000000E+03 0. -1.
         -6    1    1    2    0  502 -0.87407770267E+01  0.10838737494E+03  0.25731551122E+02  0.20594984087E+03  0.17300000000E+03 0. -1.
<mgrwt>
<rscale>  2 0.20433606E+03</rscale>
<asrwt>0</asrwt>
<pdfrwt beam="1">  1       21 0.20154072E-01 0.20433606E+03</pdfrwt>
<pdfrwt beam="2">  1       21 0.11978718E+00 0.20433606E+03</pdfrwt>
<totfact> 0.11971630E+04</totfact>
</mgrwt>
</event>
<event>
 4    1  0.4451819E+000  0.1809924E+03  0.7546771E-02  0.1166846E+00
         21   -1    0    0  501  502  0.00000000000E+00  0.00000000000E+00  0.30484801887E+03  0.30484801887E+03  0.00000000000E+00 0.  1.
         21   -1    0    0  502  503 -0.00000000000E+00 -0.00000000000E+00 -0.11047633613E+03  0.11047633613E+03  0.00000000000E+00 0.  1.
          6    1    1    2  501    0  0.30268816203E+01 -0.53104425462E+02  0.13151269834E+03  0.22372713702E+03  0.17300000000E+03 0.  1.
         -6    1    1    2    0  503 -0.30268816203E+01  0.53104425462E+02  0.62858984406E+02  0.19159721798E+03  0.17300000000E+03 0.  1.
<mgrwt>
<rscale>  2 0.18099238E+03</rscale>
<asrwt>0</asrwt>
<pdfrwt beam="1">  1       21 0.46899695E-01 0.18099238E+03</pdfrwt>
<pdfrwt beam="2">  1       21 0.16996360E-01 0.18099238E+03</pdfrwt>
<totfact> 0.13635043E+05</totfact>
</mgrwt>
</event>
<event>
 4    1  0.4451819E+000  0.1763000E+03  0.7546771E-02  0.1171433E+00
         21   -1    0    0  503  502  0.00000000000E+00  0.00000000000E+00  0.40940932651E+02  0.40940932651E+02  0.00000000000E+00 0.  1.
         21   -1    0    0  501  503 -0.00000000000E+00 -0.00000000000E+00 -0.80237004632E+03  0.80237004632E+03  0.00000000000E+00 0.  1.
          6    1    1    2  501    0 -0.33773058555E+02 -0.34765729217E+01 -0.47853767687E+03  0.50998040573E+03  0.17300000000E+03 0.  1.
         -6    1    1    2    0  502  0.33773058555E+02  0.34765729217E+01 -0.28289143679E+03  0.33333057324E+03  0.17300000000E+03 0.  1.
<mgrwt>
<rscale>  2 0.17630005E+03</rscale>
<asrwt>0</asrwt>
<pdfrwt beam="1">  1       21 0.62986056E-02 0.17630005E+03</pdfrwt>
<pdfrwt beam="2">  1       21 0.12344153E+00 0.17630005E+03</pdfrwt>
<totfact> 0.89966710E+04</totfact>
</mgrwt>
</event>
<event>
 4    1  0.4451819E+000  0.2460511E+03  0.7546771E-02  0.1115826E+00
         21   -1    0    0  503  502  0.00000000000E+00  0.00000000000E+00  0.65435777379E+03  0.65435777379E+03  0.00000000000E+00 0. -1.
         21   -1    0    0  501  503 -0.00000000000E+00 -0.00000000000E+00 -0.93697809718E+02  0.93697809718E+02  0.00000000000E+00 0. -1.
          6    1    1    2  501    0  0.56502936618E+02 -0.16558859143E+03  0.23839449143E+03  0.34259757296E+03  0.17300000000E+03 0. -1.
         -6    1    1    2    0  502 -0.56502936618E+02  0.16558859143E+03  0.32226547264E+03  0.40545801054E+03  0.17300000000E+03 0. -1.
<mgrwt>
<rscale>  2 0.24605114E+03</rscale>
<asrwt>0</asrwt>
<pdfrwt beam="1">  1       21 0.10067042E+00 0.24605114E+03</pdfrwt>
<pdfrwt beam="2">  1       21 0.14415048E-01 0.24605114E+03</pdfrwt>
<totfact> 0.33149317E+04</totfact>
</mgrwt>
</event>
<event>
 4    1  0.4451819E+000  0.2415147E+03  0.7546771E-02  0.1118788E+00
         21   -1    0    0  501  502  0.00000000000E+00  0.00000000000E+00  0.13444236493E+03  0.13444236493E+03  0.00000000000E+00 0.  1.
         21   -1    0    0  502  503 -0.00000000000E+00 -0.00000000000E+00 -0.12727273588E+04  0.12727273588E+04  0.00000000000E+00 0.  1.
          6    1    1    2  501    0  0.13544256372E+03  0.10027791408E+03  0.20665681497E+01  0.24152353679E+03  0.17300000000E+03 0.  1.
         -6    1    1    2    0  503 -0.13544256372E+03 -0.10027791408E+03 -0.11403515620E+04  0.11656461870E+04  0.17300000000E+03 0.  1.
<mgrwt>
<rscale>  2 0.24151470E+03</rscale>
<asrwt>0</asrwt>
<pdfrwt beam="1">  1       21 0.20683440E-01 0.24151470E+03</pdfrwt>
<pdfrwt beam="2">  1       21 0.19580422E+00 0.24151470E+03</pdfrwt>
<totfact> 0.29652856E+03</totfact>
</mgrwt>
</event>
<event>
 4    1  0.4451819E+000  0.2114162E+03  0.7546771E-02  0.1140449E+00
         21   -1    0    0  501  502  0.00000000000E+00  0.00000000000E+00  0.15303395198E+03  0.15303395198E+03  0.00000000000E+00 0. -1.
         21   -1    0    0  502  503 -0.00000000000E+00 -0.00000000000E+00 -0.35311557251E+03  0.35311557251E+03  0.00000000000E+00 0. -1.
          6    1    1    2  501    0 -0.10119930818E+03  0.67279252636E+02  0.51828736279E+01  0.21147969167E+03  0.17300000000E+03 0. -1.
         -6    1    1    2    0  503  0.10119930818E+03 -0.67279252636E+02 -0.20526449416E+03  0.29466983282E+03  0.17300000000E+03 0. -1.
<mgrwt>
<rscale>  2 0.21141617E+03</rscale>
<asrwt>0</asrwt>
<pdfrwt beam="1">  1       21 0.23543685E-01 0.21141617E+03</pdfrwt>
<pdfrwt beam="2">  1       21 0.54325472E-01 0.21141617E+03</pdfrwt>
<totfact> 0.53880042E+04</totfact>
</mgrwt>
</event>
<event>
 4    1  0.4451819E+000  0.2156206E+03  0.7546771E-02  0.1137191E+00
         21   -1    0    0  503  502  0.00000000000E+00  0.00000000000E+00  0.36470796969E+02  0.36470796969E+02  0.00000000000E+00 0. -1.
         21   -1    0    0  501  503 -0.00000000000E+00 -0.00000000000E+00 -0.13371878508E+04  0.13371878508E+04  0.00000000000E+00 0. -1.
          6    1    1    2  501    0  0.70310331691E+00 -0.12869638943E+03 -0.79873704988E+03  0.82732891274E+03  0.17300000000E+03 0. -1.
         -6    1    1    2    0  502 -0.70310331691E+00  0.12869638943E+03 -0.50198000392E+03  0.54632973500E+03  0.17300000000E+03 0. -1.
<mgrwt>
<rscale>  2 0.21562063E+03</rscale>
<asrwt>0</asrwt>
<pdfrwt beam="1">  1       21 0.56108907E-02 0.21562063E+03</pdfrwt>
<pdfrwt beam="2">  1       21 0.20572125E+00 0.21562063E+03</pdfrwt>
<totfact> 0.26851963E+04</totfact>
</mgrwt>
</event>
<event>
 4    1  0.4451819E+000  0.4268198E+03  0.7546771E-02  0.1034869E+00
         21   -1    0    0  503  502  0.00000000000E+00  0.00000000000E+00  0.55691955707E+03  0.55691955707E+03  0.00000000000E+00 0.  1.
         21   -1    0    0  501  503 -0.00000000000E+00 -0.00000000000E+00 -0.91697072628E+03  0.91697072628E+03  0.00000000000E+00 0. -1.
          6    1    1    2  501    0  0.14852102142E+03 -0.36081522595E+03 -0.77108534736E+03  0.88133293028E+03  0.17300000000E+03 0. -1.
         -6    1    1    2    0  502 -0.14852102142E+03  0.36081522595E+03  0.41103417815E+03  0.59255735308E+03  0.17300000000E+03 0.  1.
<mgrwt>
<rscale>  2 0.42681978E+03</rscale>
<asrwt>0</asrwt>
<pdfrwt beam="1">  1       21 0.85679932E-01 0.42681978E+03</pdfrwt>
<pdfrwt beam="2">  1       21 0.14107242E+00 0.42681978E+03</pdfrwt>
<totfact> 0.34542555E+02</totfact>
</mgrwt>
</event>
<event>
 4    1  0.4451819E+000  0.2004049E+03  0.7546771E-02  0.1149398E+00
         21   -1    0    0  503  502  0.00000000000E+00  0.00000000000E+00  0.75680020645E+03  0.75680020645E+03  0.00000000000E+00 0. -1.
         21   -1    0    0  501  503 -0.00000000000E+00 -0.00000000000E+00 -0.60309341281E+02  0.60309341281E+02  0.00000000000E+00 0. -1.
          6    1    1    2  501    0 -0.46893597901E+02 -0.89633167266E+02  0.48981110685E+03  0.52922304805E+03  0.17300000000E+03 0. -1.
         -6    1    1    2    0  502  0.46893597901E+02  0.89633167266E+02  0.20667975832E+03  0.28788649968E+03  0.17300000000E+03 0. -1.
<mgrwt>
<rscale>  2 0.20040488E+03</rscale>
<asrwt>0</asrwt>
<pdfrwt beam="1">  1       21 0.11643079E+00 0.20040488E+03</pdfrwt>
<pdfrwt beam="2">  1       21 0.92783607E-02 0.20040488E+03</pdfrwt>
<totfact> 0.52457449E+04</totfact>
</mgrwt>
</event>
<event>
 4    1  0.4451819E+000  0.2158602E+03  0.7546771E-02  0.1137008E+00
         21   -1    0    0  501  502  0.00000000000E+00  0.00000000000E+00  0.11563297296E+03  0.11563297296E+03  0.00000000000E+00 0. -1.
         21   -1    0    0  502  503 -0.00000000000E+00 -0.00000000000E+00 -0.47551180927E+03  0.47551180927E+03  0.00000000000E+00 0. -1.
          6    1    1    2  501    0 -0.12691756157E+03 -0.23633857902E+02 -0.64486984236E+02  0.22528692330E+03  0.17300000000E+03 0. -1.
         -6    1    1    2    0  503  0.12691756157E+03  0.23633857902E+02 -0.29539185207E+03  0.36585785894E+03  0.17300000000E+03 0. -1.
<mgrwt>
<rscale>  2 0.21586020E+03</rscale>
<asrwt>0</asrwt>
<pdfrwt beam="1">  1       21 0.17789688E-01 0.21586020E+03</pdfrwt>
<pdfrwt beam="2">  1       21 0.73155664E-01 0.21586020E+03</pdfrwt>
<totfact> 0.47673018E+04</totfact>
</mgrwt>
</event>
<event>
 4    1  0.4451819E+000  0.2069334E+03  0.7546771E-02  0.1144018E+00
         21   -1    0    0  501  502  0.00000000000E+00  0.00000000000E+00  0.14348305207E+04  0.14348305207E+04  0.00000000000E+00 0. -1.
         21   -1    0    0  502  503 -0.00000000000E+00 -0.00000000000E+00 -0.49329853147E+02  0.49329853147E+02  0.00000000000E+00 0.  1.
          6    1    1    2  501    0 -0.11080037050E+03  0.24813631783E+02  0.11591442427E+04  0.11774705150E+04  0.17300000000E+03 0. -1.
         -6    1    1    2    0  503  0.11080037050E+03 -0.24813631783E+02  0.22635642490E+03  0.30668985885E+03  0.17300000000E+03 0.  1.
<mgrwt>
<rscale>  2 0.20693342E+03</rscale>
<asrwt>0</asrwt>
<pdfrwt beam="1">  1       21 0.22074313E+00 0.20693342E+03</pdfrwt>
<pdfrwt beam="2">  1       21 0.75892093E-02 0.20693342E+03</pdfrwt>
<totfact> 0.12935612E+04</totfact>
</mgrwt>
</event>
<event>
 4    1  0.4451819E+000  0.2082055E+03  0.7546771E-02  0.1142995E+00
         21   -1    0    0  501  502  0.00000000000E+00  0.00000000000E+00  0.17461031172E+03  0.17461031172E+03  0.00000000000E+00 0. -1.
         21   -1    0    0  502  503 -0.00000000000E+00 -0.00000000000E+00 -0.29827725125E+03  0.29827725125E+03  0.00000000000E+00 0. -1.
          6    1    1    2  501    0 -0.10510903294E+03 -0.48709406003E+02  0.34985145582E+02  0.21112431279E+03  0.17300000000E+03 0.  1.
         -6    1    1    2    0  503  0.10510903294E+03  0.48709406003E+02 -0.15865208511E+03  0.26176325018E+03  0.17300000000E+03 0.  1.
<mgrwt>
<rscale>  2 0.20820546E+03</rscale>
<asrwt>0</asrwt>
<pdfrwt beam="1">  1       21 0.26863125E-01 0.20820546E+03</pdfrwt>
<pdfrwt beam="2">  1       21 0.45888808E-01 0.20820546E+03</pdfrwt>
<totfact> 0.59642230E+04</totfact>
</mgrwt>
</event>
<event>
 4    1  0.4451819E+000  0.2431822E+03  0.7546771E-02  0.1117691E+00
         21   -1    0    0  501  502  0.00000000000E+00  0.00000000000E+00  0.11815629596E+03  0.11815629596E+03  0.00000000000E+00 0. -1.
         21   -1    0    0  502  503 -0.00000000000E+00 -0.00000000000E+00 -0.57989885396E+03  0.57989885396E+03  0.00000000000E+00 0.  1.
          6    1    1    2  501    0 -0.66854026048E+02  0.15728668674E+03 -0.10172468927E+03  0.26360097692E+03  0.17300000000E+03 0. -1.
         -6    1    1    2    0  503  0.66854026048E+02 -0.15728668674E+03 -0.36001786874E+03  0.43445417300E+03  0.17300000000E+03 0.  1.
<mgrwt>
<rscale>  2 0.24318216E+03</rscale>
<asrwt>0</asrwt>
<pdfrwt beam="1">  1       21 0.18177892E-01 0.24318216E+03</pdfrwt>
<pdfrwt beam="2">  1       21 0.89215208E-01 0.24318216E+03</pdfrwt>
<totfact> 0.28781112E+04</totfact>
</mgrwt>
</event>
<event>
 4    1  0.4451819E+000  0.1867350E+03  0.7546771E-02  0.1161439E+00
         21   -1    0    0  501  502  0.00000000000E+00  0.00000000000E+00  0.36734705265E+02  0.36734705265E+02  0.00000000000E+00 0. -1.
         21   -1    0    0  502  503 -0.00000000000E+00 -0.00000000000E+00 -0.97789921118E+03  0.97789921118E+03  0.00000000000E+00 0. -1.
          6    1    1    2  501    0 -0.24305090524E+02  0.65956356213E+02 -0.55743420051E+03  0.58787997606E+03  0.17300000000E+03 0. -1.
         -6    1    1    2    0  503  0.24305090524E+02 -0.65956356213E+02 -0.38373030540E+03  0.42675394038E+03  0.17300000000E+03 0. -1.
<mgrwt>
<rscale>  2 0.18673505E+03</rscale>
<asrwt>0</asrwt>
<pdfrwt beam="1">  1       21 0.56514933E-02 0.18673505E+03</pdfrwt>
<pdfrwt beam="2">  1       21 0.15044603E+00 0.18673505E+03</pdfrwt>
<totfact> 0.64976261E+04</totfact>
</mgrwt>
</event>
<event>
 4    1  0.4451819E+000  0.2303168E+03  0.7546771E-02  0.1126417E+00
         21   -1    0    0  503  502  0.00000000000E+00  0.00000000000E+00  0.70762032289E+02  0.70762032289E+02  0.00000000000E+00 0.  1.
         21   -1    0    0  501  503 -0.00000000000E+00 -0.00000000000E+00 -0.79117020633E+03  0.79117020633E+03  0.00000000000E+00 0.  1.
          6    1    1    2  501    0 -0.11104381020E+03 -0.10385605555E+03 -0.45894748757E+03  0.51349645023E+03  0.17300000000E+03 0.  1.
         -6    1    1    2    0  502  0.11104381020E+03  0.10385605555E+03 -0.26146068647E+03  0.34843578839E+03  0.17300000000E+03 0.  1.
<mgrwt>
<rscale>  2 0.23031676E+03</rscale>
<asrwt>0</asrwt>
<pdfrwt beam="1">  1       21 0.10886466E-01 0.23031676E+03</pdfrwt>
<pdfrwt beam="2">  1       21 0.12171849E+00 0.23031676E+03</pdfrwt>
<totfact> 0.34861210E+04</totfact>
</mgrwt>
</event>
<event>
 4    1  0.4451819E+000  0.2653036E+03  0.7546771E-02  0.1103998E+00
         21   -1    0    0  503  502  0.00000000000E+00  0.00000000000E+00  0.74609011166E+03  0.74609011166E+03  0.00000000000E+00 0.  1.
         21   -1    0    0  501  503 -0.00000000000E+00 -0.00000000000E+00 -0.98222889137E+02  0.98222889137E+02  0.00000000000E+00 0.  1.
          6    1    1    2  501    0 -0.19585006776E+03 -0.45822823107E+02  0.23999598369E+03  0.35774858818E+03  0.17300000000E+03 0.  1.
         -6    1    1    2    0  502  0.19585006776E+03  0.45822823107E+02  0.40787123883E+03  0.48656441262E+03  0.17300000000E+03 0.  1.
<mgrwt>
<rscale>  2 0.26530356E+03</rscale>
<asrwt>0</asrwt>
<pdfrwt beam="1">  1       21 0.11478309E+00 0.26530356E+03</pdfrwt>
<pdfrwt beam="2">  1       21 0.15111214E-01 0.26530356E+03</pdfrwt>
<totfact> 0.21906440E+04</totfact>
</mgrwt>
</event>
<event>
 4    1  0.4451819E+000  0.2581548E+03  0.7546771E-02  0.1108257E+00
         21   -1    0    0  503  502  0.00000000000E+00  0.00000000000E+00  0.22277090603E+03  0.22277090603E+03  0.00000000000E+00 0.  1.
         21   -1    0    0  501  503 -0.00000000000E+00 -0.00000000000E+00 -0.30129426377E+03  0.30129426377E+03  0.00000000000E+00 0. -1.
          6    1    1    2  501    0 -0.16513319292E+03  0.97190098178E+02 -0.17201879340E+02  0.25872725260E+03  0.17300000000E+03 0. -1.
         -6    1    1    2    0  502  0.16513319292E+03 -0.97190098178E+02 -0.61321478409E+02  0.26533791720E+03  0.17300000000E+03 0.  1.
<mgrwt>
<rscale>  2 0.25815477E+03</rscale>
<asrwt>0</asrwt>
<pdfrwt beam="1">  1       21 0.34272447E-01 0.25815477E+03</pdfrwt>
<pdfrwt beam="2">  1       21 0.46352963E-01 0.25815477E+03</pdfrwt>
<totfact> 0.35459664E+04</totfact>
</mgrwt>
</event>
<event>
 4    1  0.4451819E+000  0.1892581E+03  0.7546771E-02  0.1159132E+00
         21   -1    0    0  503  502  0.00000000000E+00  0.00000000000E+00  0.70141128986E+02  0.70141128986E+02  0.00000000000E+00 0. -1.
         21   -1    0    0  501  503 -0.00000000000E+00 -0.00000000000E+00 -0.61955537015E+03  0.61955537015E+03  0.00000000000E+00 0. -1.
          6    1    1    2  501    0  0.54170554853E+01 -0.76552417602E+02 -0.41927864861E+03  0.46001435011E+03  0.17300000000E+03 0. -1.
         -6    1    1    2    0  502 -0.54170554853E+01  0.76552417602E+02 -0.13013559256E+03  0.22968214903E+03  0.17300000000E+03 0. -1.
<mgrwt>
<rscale>  2 0.18925807E+03</rscale>
<asrwt>0</asrwt>
<pdfrwt beam="1">  1       21 0.10790943E-01 0.18925807E+03</pdfrwt>
<pdfrwt beam="2">  1       21 0.95316210E-01 0.18925807E+03</pdfrwt>
<totfact> 0.65280777E+04</totfact>
</mgrwt>
</event>
<event>
 4    1  0.4451819E+000  0.1780294E+03  0.7546771E-02  0.1169724E+00
         21   -1    0    0  503  502  0.00000000000E+00  0.00000000000E+00  0.97159236049E+02  0.97159236049E+02  0.00000000000E+00 0.  1.
         21   -1    0    0  501  503 -0.00000000000E+00 -0.00000000000E+00 -0.44139279751E+03  0.44139279751E+03  0.00000000000E+00 0.  1.
          6    1    1    2  501    0  0.38678694026E+02 -0.16413871834E+02 -0.30967169352E+03  0.35719884424E+03  0.17300000000E+03 0.  1.
         -6    1    1    2    0  502 -0.38678694026E+02  0.16413871834E+02 -0.34561867942E+02  0.18135318932E+03  0.17300000000E+03 0.  1.
<mgrwt>
<rscale>  2 0.17802937E+03</rscale>
<asrwt>0</asrwt>
<pdfrwt beam="1">  1       21 0.14947575E-01 0.17802937E+03</pdfrwt>
<pdfrwt beam="2">  1       21 0.67906583E-01 0.17802937E+03</pdfrwt>
<totfact> 0.78683194E+04</totfact>
</mgrwt>
</event>
<event>
 4    1  0.4451819E+000  0.1971895E+03  0.7546771E-02  0.1152132E+00
         21   -1    0    0  503  502  0.00000000000E+00  0.00000000000E+00  0.91894993130E+03  0.91894993130E+03  0.00000000000E+00 0. -1.
         21   -1    0    0  501  503 -0.00000000000E+00 -0.00000000000E+00 -0.72872841445E+02  0.72872841445E+02  0.00000000000E+00 0. -1.
          6    1    1    2  501    0  0.51348421477E+02 -0.79486056168E+02  0.10189773373E+03  0.22196135171E+03  0.17300000000E+03 0. -1.
         -6    1    1    2    0  502 -0.51348421477E+02  0.79486056168E+02  0.74417935613E+03  0.76986142103E+03  0.17300000000E+03 0. -1.
<mgrwt>
<rscale>  2 0.19718949E+03</rscale>
<asrwt>0</asrwt>
<pdfrwt beam="1">  1       21 0.14137690E+00 0.19718949E+03</pdfrwt>
<pdfrwt beam="2">  1       21 0.11211207E-01 0.19718949E+03</pdfrwt>
<totfact> 0.23046704E+04</totfact>
</mgrwt>
</event>
<event>
 4    1  0.4451819E+000  0.1902261E+03  0.7546771E-02  0.1158258E+00
         21   -1    0    0  501  502  0.00000000000E+00  0.00000000000E+00  0.90428200211E+03  0.90428200211E+03  0.00000000000E+00 0.  1.
         21   -1    0    0  502  503 -0.00000000000E+00 -0.00000000000E+00 -0.40020979252E+02  0.40020979252E+02  0.00000000000E+00 0.  1.
          6    1    1    2  501    0  0.78351697428E+02  0.10861846218E+02  0.43726695093E+03  0.47685255013E+03  0.17300000000E+03 0. -1.
         -6    1    1    2    0  503 -0.78351697428E+02 -0.10861846218E+02  0.42699407193E+03  0.46745043123E+03  0.17300000000E+03 0. -1.
<mgrwt>
<rscale>  2 0.19022610E+03</rscale>
<asrwt>0</asrwt>
<pdfrwt beam="1">  1       21 0.13912029E+00 0.19022610E+03</pdfrwt>
<pdfrwt beam="2">  1       21 0.61570744E-02 0.19022610E+03</pdfrwt>
<totfact> 0.68693968E+04</totfact>
</mgrwt>
</event>
<event>
 4    1  0.4451819E+000  0.2149370E+03  0.7546771E-02  0.1137715E+00
         21   -1    0    0  501  502  0.00000000000E+00  0.00000000000E+00  0.62560494403E+03  0.62560494403E+03  0.00000000000E+00 0. -1.
         21   -1    0    0  502  503 -0.00000000000E+00 -0.00000000000E+00 -0.89519837759E+02  0.89519837759E+02  0.00000000000E+00 0.  1.
          6    1    1    2  501    0 -0.88608046440E+02  0.91747142087E+02  0.41766298601E+03  0.46972363562E+03  0.17300000000E+03 0. -1.
         -6    1    1    2    0  503  0.88608046440E+02 -0.91747142087E+02  0.11842212026E+03  0.24540114617E+03  0.17300000000E+03 0.  1.
<mgrwt>
<rscale>  2 0.21493702E+03</rscale>
<asrwt>0</asrwt>
<pdfrwt beam="1">  1       21 0.96246912E-01 0.21493702E+03</pdfrwt>
<pdfrwt beam="2">  1       21 0.13772283E-01 0.21493702E+03</pdfrwt>
<totfact> 0.40674600E+04</totfact>
</mgrwt>
</event>
<event>
 4    1  0.4451819E+000  0.2862582E+03  0.7546771E-02  0.1092319E+00
         21   -1    0    0  503  502  0.00000000000E+00  0.00000000000E+00  0.17163718541E+04  0.17163718541E+04  0.00000000000E+00 0.  1.
         21   -1    0    0  501  503 -0.00000000000E+00 -0.00000000000E+00 -0.69805428348E+02  0.69805428348E+02  0.00000000000E+00 0. -1.
          6    1    1    2  501    0  0.12847532984E+03  0.18843791307E+03  0.32119241002E+03  0.43024216636E+03  0.17300000000E+03 0. -1.
         -6    1    1    2    0  502 -0.12847532984E+03 -0.18843791307E+03  0.13253740157E+04  0.13559351161E+04  0.17300000000E+03 0.  1.
<mgrwt>
<rscale>  2 0.28625820E+03</rscale>
<asrwt>0</asrwt>
<pdfrwt beam="1">  1       21 0.26405718E+00 0.28625820E+03</pdfrwt>
<pdfrwt beam="2">  1       21 0.10739298E-01 0.28625820E+03</pdfrwt>
<totfact> 0.36141573E+03</totfact>
</mgrwt>
</event>
<event>
 4    1  0.4451819E+000  0.1852507E+03  0.7546771E-02  0.1162816E+00
         21   -1    0    0  503  502  0.00000000000E+00  0.00000000000E+00  0.42081108264E+03  0.42081108264E+03  0.00000000000E+00 0.  1.
         21   -1    0    0  501  503 -0.00000000000E+00 -0.00000000000E+00 -0.19222750964E+03  0.19222750964E+03  0.00000000000E+00 0.  1.
          6    1    1    2  501    0 -0.65137061870E+02 -0.12082589436E+02 -0.11829045906E+03  0.21979640239E+03  0.17300000000E+03 0.  1.
         -6    1    1    2    0  502  0.65137061870E+02  0.12082589436E+02  0.34687403207E+03  0.39324218990E+03  0.17300000000E+03 0.  1.
<mgrwt>
<rscale>  2 0.18525071E+03</rscale>
<asrwt>0</asrwt>
<pdfrwt beam="1">  1       21 0.64740166E-01 0.18525071E+03</pdfrwt>
<pdfrwt beam="2">  1       21 0.29573463E-01 0.18525071E+03</pdfrwt>
<totfact> 0.24192618E+04</totfact>
</mgrwt>
</event>
<event>
 4    1  0.4451819E+000  0.3861867E+03  0.7546771E-02  0.1048671E+00
         21   -1    0    0  501  502  0.00000000000E+00  0.00000000000E+00  0.62429920377E+03  0.62429920377E+03  0.00000000000E+00 0. -1.
         21   -1    0    0  502  503 -0.00000000000E+00 -0.00000000000E+00 -0.25546076834E+03  0.25546076834E+03  0.00000000000E+00 0.  1.
          6    1    1    2  501    0  0.31277032149E+03  0.14623921328E+03  0.29644427913E+03  0.48684637426E+03  0.17300000000E+03 0. -1.
         -6    1    1    2    0  503 -0.31277032149E+03 -0.14623921328E+03  0.72394156304E+02  0.39291359784E+03  0.17300000000E+03 0.  1.
<mgrwt>
<rscale>  2 0.38618672E+03</rscale>
<asrwt>0</asrwt>
<pdfrwt beam="1">  1       21 0.96046031E-01 0.38618672E+03</pdfrwt>
<pdfrwt beam="2">  1       21 0.39301657E-01 0.38618672E+03</pdfrwt>
<totfact> 0.50650586E+03</totfact>
</mgrwt>
</event>
<event>
 4    1  0.4451819E+000  0.1776701E+03  0.7546771E-02  0.1170077E+00
         21   -1    0    0  501  502  0.00000000000E+00  0.00000000000E+00  0.58546166466E+03  0.58546166466E+03  0.00000000000E+00 0. -1.
         21   -1    0    0  502  503 -0.00000000000E+00 -0.00000000000E+00 -0.54030398475E+02  0.54030398475E+02  0.00000000000E+00 0. -1.
          6    1    1    2  501    0  0.13807946074E+02 -0.38039323386E+02  0.25110181277E+03  0.30760164154E+03  0.17300000000E+03 0.  1.
         -6    1    1    2    0  503 -0.13807946074E+02  0.38039323386E+02  0.28032945341E+03  0.33189042160E+03  0.17300000000E+03 0.  1.
<mgrwt>
<rscale>  2 0.17767006E+03</rscale>
<asrwt>0</asrwt>
<pdfrwt beam="1">  1       21 0.90071021E-01 0.17767006E+03</pdfrwt>
<pdfrwt beam="2">  1       21 0.83123694E-02 0.17767006E+03</pdfrwt>
<totfact> 0.11839229E+05</totfact>
</mgrwt>
</event>
<event>
 4    1  0.4451819E+000  0.1757049E+03  0.7546771E-02  0.1172026E+00
         21   -1    0    0  501  502  0.00000000000E+00  0.00000000000E+00  0.12112325789E+04  0.12112325789E+04  0.00000000000E+00 0. -1.
         21   -1    0    0  502  503 -0.00000000000E+00 -0.00000000000E+00 -0.58230328161E+02  0.58230328161E+02  0.00000000000E+00 0. -1.
          6    1    1    2  501    0 -0.18054254154E+02  0.24844352727E+02  0.10524590104E+04  0.10670249137E+04  0.17300000000E+03 0. -1.
         -6    1    1    2    0  503  0.18054254154E+02 -0.24844352727E+02  0.10054324029E+03  0.20243799328E+03  0.17300000000E+03 0. -1.
<mgrwt>
<rscale>  2 0.17570486E+03</rscale>
<asrwt>0</asrwt>
<pdfrwt beam="1">  1       21 0.18634346E+00 0.17570486E+03</pdfrwt>
<pdfrwt beam="2">  1       21 0.89585129E-02 0.17570486E+03</pdfrwt>
<totfact> 0.16455368E+04</totfact>
</mgrwt>
</event>
<event>
 4    1  0.4451819E+000  0.2004608E+03  0.7546771E-02  0.1149351E+00
         21   -1    0    0  501  502  0.00000000000E+00  0.00000000000E+00  0.21343874174E+03  0.21343874174E+03  0.00000000000E+00 0. -1.
         21   -1    0    0  502  503 -0.00000000000E+00 -0.00000000000E+00 -0.57888920217E+03  0.57888920217E+03  0.00000000000E+00 0. -1.
          6    1    1    2  501    0  0.61888562498E+02 -0.80158320946E+02  0.14270126175E+03  0.24606543986E+03  0.17300000000E+03 0. -1.
         -6    1    1    2    0  503 -0.61888562498E+02  0.80158320946E+02 -0.50815172218E+03  0.54626250405E+03  0.17300000000E+03 0. -1.
<mgrwt>
<rscale>  2 0.20046085E+03</rscale>
<asrwt>0</asrwt>
<pdfrwt beam="1">  1       21 0.32836730E-01 0.20046085E+03</pdfrwt>
<pdfrwt beam="2">  1       21 0.89059875E-01 0.20046085E+03</pdfrwt>
<totfact> 0.95566802E+03</totfact>
</mgrwt>
</event>
<event>
 4    1  0.4451819E+000  0.2325195E+03  0.7546771E-02  0.1124879E+00
         21   -1    0    0  501  502  0.00000000000E+00  0.00000000000E+00  0.30789703808E+03  0.30789703808E+03  0.00000000000E+00 0. -1.
         21   -1    0    0  502  503 -0.00000000000E+00 -0.00000000000E+00 -0.19092812141E+03  0.19092812141E+03  0.00000000000E+00 0. -1.
          6    1    1    2  501    0 -0.13450153367E+03 -0.77753827451E+02  0.12916376160E+03  0.26598608526E+03  0.17300000000E+03 0. -1.
         -6    1    1    2    0  503  0.13450153367E+03  0.77753827451E+02 -0.12194844923E+02  0.23283907423E+03  0.17300000000E+03 0. -1.
<mgrwt>
<rscale>  2 0.23251951E+03</rscale>
<asrwt>0</asrwt>
<pdfrwt beam="1">  1       21 0.47368775E-01 0.23251951E+03</pdfrwt>
<pdfrwt beam="2">  1       21 0.29373557E-01 0.23251951E+03</pdfrwt>
<totfact> 0.46455586E+04</totfact>
</mgrwt>
</event>
<event>
 4    1  0.4451819E+000  0.2137580E+03  0.7546771E-02  0.1138624E+00
         21   -1    0    0  503  502  0.00000000000E+00  0.00000000000E+00  0.66983686824E+03  0.66983686824E+03  0.00000000000E+00 0. -1.
         21   -1    0    0  501  503 -0.00000000000E+00 -0.00000000000E+00 -0.73799701337E+02  0.73799701337E+02  0.00000000000E+00 0.  1.
          6    1    1    2  501    0  0.11843887872E+03 -0.41661796144E+02  0.19572945868E+03  0.28983183787E+03  0.17300000000E+03 0.  1.
         -6    1    1    2    0  502 -0.11843887872E+03  0.41661796144E+02  0.40030770822E+03  0.45380473170E+03  0.17300000000E+03 0. -1.
<mgrwt>
<rscale>  2 0.21375798E+03</rscale>
<asrwt>0</asrwt>
<pdfrwt beam="1">  1       21 0.10305182E+00 0.21375798E+03</pdfrwt>
<pdfrwt beam="2">  1       21 0.11353801E-01 0.21375798E+03</pdfrwt>
<totfact> 0.48971166E+04</totfact>
</mgrwt>
</event>
<event>
 4    1  0.4451819E+000  0.1984917E+03  0.7546771E-02  0.1151018E+00
         21   -1    0    0  501  502  0.00000000000E+00  0.00000000000E+00  0.13341936019E+03  0.13341936019E+03  0.00000000000E+00 0. -1.
         21   -1    0    0  502  503 -0.00000000000E+00 -0.00000000000E+00 -0.38532489158E+03  0.38532489158E+03  0.00000000000E+00 0. -1.
          6    1    1    2  501    0  0.41484791605E+02  0.88028132566E+02 -0.58456214322E+00  0.19849252321E+03  0.17300000000E+03 0. -1.
         -6    1    1    2    0  503 -0.41484791605E+02 -0.88028132566E+02 -0.25132096925E+03  0.32025172855E+03  0.17300000000E+03 0. -1.
<mgrwt>
<rscale>  2 0.19849166E+03</rscale>
<asrwt>0</asrwt>
<pdfrwt beam="1">  1       21 0.20526056E-01 0.19849166E+03</pdfrwt>
<pdfrwt beam="2">  1       21 0.59280752E-01 0.19849166E+03</pdfrwt>
<totfact> 0.58310563E+04</totfact>
</mgrwt>
</event>
<event>
 4    1  0.4451819E+000  0.2012313E+03  0.7546771E-02  0.1148704E+00
         21   -1    0    0  503  502  0.00000000000E+00  0.00000000000E+00  0.14173167772E+03  0.14173167772E+03  0.00000000000E+00 0. -1.
         21   -1    0    0  501  503 -0.00000000000E+00 -0.00000000000E+00 -0.32804122725E+03  0.32804122725E+03  0.00000000000E+00 0.  1.
          6    1    1    2  501    0 -0.14502868375E+02  0.10175812084E+03 -0.17753256359E+03  0.26835025523E+03  0.17300000000E+03 0.  1.
         -6    1    1    2    0  502  0.14502868375E+02 -0.10175812084E+03 -0.87769859454E+01  0.20142264975E+03  0.17300000000E+03 0. -1.
<mgrwt>
<rscale>  2 0.20123133E+03</rscale>
<asrwt>0</asrwt>
<pdfrwt beam="1">  1       21 0.21804873E-01 0.20123133E+03</pdfrwt>
<pdfrwt beam="2">  1       21 0.50467881E-01 0.20123133E+03</pdfrwt>
<totfact> 0.73079941E+04</totfact>
</mgrwt>
</event>
<event>
 4    1  0.4451819E+000  0.2258073E+03  0.7546771E-02  0.1129626E+00
         21   -1    0    0  503  502  0.00000000000E+00  0.00000000000E+00  0.87389176036E+03  0.87389176036E+03  0.00000000000E+00 0. -1.
         21   -1    0    0  501  503 -0.00000000000E+00 -0.00000000000E+00 -0.60161064628E+02  0.60161064628E+02  0.00000000000E+00 0. -1.
          6    1    1    2  501    0  0.10911209294E+03  0.95678993684E+02  0.48796445535E+03  0.53767855485E+03  0.17300000000E+03 0. -1.
         -6    1    1    2    0  502 -0.10911209294E+03 -0.95678993684E+02  0.32576624038E+03  0.39637427014E+03  0.17300000000E+03 0. -1.
<mgrwt>
<rscale>  2 0.22580726E+03</rscale>
<asrwt>0</asrwt>
<pdfrwt beam="1">  1       21 0.13444488E+00 0.22580726E+03</pdfrwt>
<pdfrwt beam="2">  1       21 0.92555490E-02 0.22580726E+03</pdfrwt>
<totfact> 0.36236782E+04</totfact>
</mgrwt>
</event>
<event>
 4    1  0.4451819E+000  0.2028299E+03  0.7546771E-02  0.1147373E+00
         21   -1    0    0  503  502  0.00000000000E+00  0.00000000000E+00  0.40882355449E+03  0.40882355449E+03  0.00000000000E+00 0.  1.
         21   -1    0    0  501  503 -0.00000000000E+00 -0.00000000000E+00 -0.37317402734E+03  0.37317402734E+03  0.00000000000E+00 0.  1.
          6    1    1    2  501    0  0.10254982050E+03 -0.26353214633E+02 -0.31632253916E+03  0.37576576000E+03  0.17300000000E+03 0.  1.
         -6    1    1    2    0  502 -0.10254982050E+03  0.26353214633E+02  0.35197206631E+03  0.40623182183E+03  0.17300000000E+03 0.  1.
<mgrwt>
<rscale>  2 0.20282987E+03</rscale>
<asrwt>0</asrwt>
<pdfrwt beam="1">  1       21 0.62895932E-01 0.20282987E+03</pdfrwt>
<pdfrwt beam="2">  1       21 0.57411389E-01 0.20282987E+03</pdfrwt>
<totfact> 0.66156583E+03</totfact>
</mgrwt>
</event>
<event>
 4    1  0.4451819E+000  0.2564493E+03  0.7546771E-02  0.1109295E+00
         21   -1    0    0  503  502  0.00000000000E+00  0.00000000000E+00  0.22169254948E+03  0.22169254948E+03  0.00000000000E+00 0. -1.
         21   -1    0    0  501  503 -0.00000000000E+00 -0.00000000000E+00 -0.33494092994E+03  0.33494092994E+03  0.00000000000E+00 0.  1.
          6    1    1    2  501    0  0.54874623471E+01  0.18922778638E+03 -0.15072062685E+03  0.29746087935E+03  0.17300000000E+03 0.  1.
         -6    1    1    2    0  502 -0.54874623471E+01 -0.18922778638E+03  0.37472246393E+02  0.25917260008E+03  0.17300000000E+03 0. -1.
<mgrwt>
<rscale>  2 0.25644935E+03</rscale>
<asrwt>0</asrwt>
<pdfrwt beam="1">  1       21 0.34106546E-01 0.25644935E+03</pdfrwt>
<pdfrwt beam="2">  1       21 0.51529373E-01 0.25644935E+03</pdfrwt>
<totfact> 0.28708657E+04</totfact>
</mgrwt>
</event>
<event>
 4    1  0.4451819E+000  0.1743165E+03  0.7546771E-02  0.1173420E+00
         21   -1    0    0  503  502  0.00000000000E+00  0.00000000000E+00  0.29543531284E+03  0.29543531284E+03  0.00000000000E+00 0.  1.
         21   -1    0    0  501  503 -0.00000000000E+00 -0.00000000000E+00 -0.22939155803E+03  0.22939155803E+03  0.00000000000E+00 0.  1.
          6    1    1    2  501    0  0.21347540523E+02 -0.12303121634E+01 -0.16187721669E+03  0.23788750374E+03  0.17300000000E+03 0.  1.
         -6    1    1    2    0  502 -0.21347540523E+02  0.12303121634E+01  0.22792097150E+03  0.28693936713E+03  0.17300000000E+03 0.  1.
<mgrwt>
<rscale>  2 0.17431647E+03</rscale>
<asrwt>0</asrwt>
<pdfrwt beam="1">  1       21 0.45451586E-01 0.17431647E+03</pdfrwt>
<pdfrwt beam="2">  1       21 0.35291009E-01 0.17431647E+03</pdfrwt>
<totfact> 0.36281691E+04</totfact>
</mgrwt>
</event>
<event>
 4    1  0.4451819E+000  0.1896818E+03  0.7546771E-02  0.1158749E+00
         21   -1    0    0  501  502  0.00000000000E+00  0.00000000000E+00  0.43360342200E+03  0.43360342200E+03  0.00000000000E+00 0. -1.
         21   -1    0    0  502  503 -0.00000000000E+00 -0.00000000000E+00 -0.32823817320E+03  0.32823817320E+03  0.00000000000E+00 0. -1.
          6    1    1    2  501    0 -0.31279243619E+01 -0.77720016967E+02  0.38195431352E+03  0.42646017700E+03  0.17300000000E+03 0. -1.
         -6    1    1    2    0  503  0.31279243619E+01  0.77720016967E+02 -0.27658906472E+03  0.33538141820E+03  0.17300000000E+03 0. -1.
<mgrwt>
<rscale>  2 0.18968180E+03</rscale>
<asrwt>0</asrwt>
<pdfrwt beam="1">  1       21 0.66708219E-01 0.18968180E+03</pdfrwt>
<pdfrwt beam="2">  1       21 0.50498180E-01 0.18968180E+03</pdfrwt>
<totfact> 0.77039058E+03</totfact>
</mgrwt>
</event>
<event>
 4    1  0.4451819E+000  0.1776063E+03  0.7546771E-02  0.1170140E+00
         21   -1    0    0  501  502  0.00000000000E+00  0.00000000000E+00  0.17822306783E+03  0.17822306783E+03  0.00000000000E+00 0.  1.
         21   -1    0    0  502  503 -0.00000000000E+00 -0.00000000000E+00 -0.18631851618E+03  0.18631851618E+03  0.00000000000E+00 0.  1.
          6    1    1    2  501    0 -0.39225497691E+02 -0.87385688926E+01  0.36733097955E+02  0.18136516408E+03  0.17300000000E+03 0.  1.
         -6    1    1    2    0  503  0.39225497691E+02  0.87385688926E+01 -0.44828546298E+02  0.18317641993E+03  0.17300000000E+03 0.  1.
<mgrwt>
<rscale>  2 0.17760631E+03</rscale>
<asrwt>0</asrwt>
<pdfrwt beam="1">  1       21 0.27418934E-01 0.17760631E+03</pdfrwt>
<pdfrwt beam="2">  1       21 0.28664387E-01 0.17760631E+03</pdfrwt>
<totfact> 0.14843201E+05</totfact>
</mgrwt>
</event>
<event>
 4    1  0.4451819E+000  0.2213153E+03  0.7546771E-02  0.1132906E+00
         21   -1    0    0  503  502  0.00000000000E+00  0.00000000000E+00  0.28582232466E+03  0.28582232466E+03  0.00000000000E+00 0. -1.
         21   -1    0    0  501  503 -0.00000000000E+00 -0.00000000000E+00 -0.20042012505E+03  0.20042012505E+03  0.00000000000E+00 0. -1.
          6    1    1    2  501    0  0.66967428407E+02 -0.12069319053E+03 -0.49864466782E+02  0.22686327987E+03  0.17300000000E+03 0. -1.
         -6    1    1    2    0  502 -0.66967428407E+02  0.12069319053E+03  0.13526666639E+03  0.25937916984E+03  0.17300000000E+03 0. -1.
<mgrwt>
<rscale>  2 0.22131535E+03</rscale>
<asrwt>0</asrwt>
<pdfrwt beam="1">  1       21 0.43972665E-01 0.22131535E+03</pdfrwt>
<pdfrwt beam="2">  1       21 0.30833865E-01 0.22131535E+03</pdfrwt>
<totfact> 0.49509262E+04</totfact>
</mgrwt>
</event>
<event>
 4    1  0.4451819E+000  0.1891038E+03  0.7546771E-02  0.1159272E+00
         21   -1    0    0  501  502  0.00000000000E+00  0.00000000000E+00  0.22035675571E+04  0.22035675571E+04  0.00000000000E+00 0.  1.
         21   -1    0    0  502  503 -0.00000000000E+00 -0.00000000000E+00 -0.16687046688E+02  0.16687046688E+02  0.00000000000E+00 0.  1.
          6    1    1    2  501    0 -0.22824304734E+02 -0.72871887965E+02  0.12774949240E+04  0.12914153250E+04  0.17300000000E+03 0.  1.
         -6    1    1    2    0  503  0.22824304734E+02  0.72871887965E+02  0.90938558642E+03  0.92883927874E+03  0.17300000000E+03 0.  1.
<mgrwt>
<rscale>  2 0.18910384E+03</rscale>
<asrwt>0</asrwt>
<pdfrwt beam="1">  1       21 0.33901016E+00 0.18910384E+03</pdfrwt>
<pdfrwt beam="2">  1       21 0.25672397E-02 0.18910384E+03</pdfrwt>
<totfact> 0.16666233E+04</totfact>
</mgrwt>
</event>
<event>
 4    1  0.4451819E+000  0.1781802E+03  0.7546771E-02  0.1169576E+00
         21   -1    0    0  503  502  0.00000000000E+00  0.00000000000E+00  0.20410445041E+03  0.20410445041E+03  0.00000000000E+00 0. -1.
         21   -1    0    0  501  503 -0.00000000000E+00 -0.00000000000E+00 -0.17985837372E+03  0.17985837372E+03  0.00000000000E+00 0. -1.
          6    1    1    2  501    0 -0.21457034526E+02 -0.36861517621E+02  0.82703368097E+02  0.19643834378E+03  0.17300000000E+03 0. -1.
         -6    1    1    2    0  502  0.21457034526E+02  0.36861517621E+02 -0.58457291406E+02  0.18752448035E+03  0.17300000000E+03 0. -1.
<mgrwt>
<rscale>  2 0.17818018E+03</rscale>
<asrwt>0</asrwt>
<pdfrwt beam="1">  1       21 0.31400685E-01 0.17818018E+03</pdfrwt>
<pdfrwt beam="2">  1       21 0.27670519E-01 0.17818018E+03</pdfrwt>
<totfact> 0.12211798E+05</totfact>
</mgrwt>
</event>
<event>
 4    1  0.4451819E+000  0.1841395E+03  0.7546771E-02  0.1163856E+00
         21   -1    0    0  501  502  0.00000000000E+00  0.00000000000E+00  0.16796082890E+03  0.16796082890E+03  0.00000000000E+00 0.  1.
         21   -1    0    0  502  503 -0.00000000000E+00 -0.00000000000E+00 -0.61862582495E+03  0.61862582495E+03  0.00000000000E+00 0.  1.
          6    1    1    2  501    0 -0.27426744122E+02 -0.56798878588E+02  0.97472331713E+02  0.20834633271E+03  0.17300000000E+03 0.  1.
         -6    1    1    2    0  503  0.27426744122E+02  0.56798878588E+02 -0.54813732777E+03  0.57824032114E+03  0.17300000000E+03 0.  1.
<mgrwt>
<rscale>  2 0.18413946E+03</rscale>
<asrwt>0</asrwt>
<pdfrwt beam="1">  1       21 0.25840127E-01 0.18413946E+03</pdfrwt>
<pdfrwt beam="2">  1       21 0.95173205E-01 0.18413946E+03</pdfrwt>
<totfact> 0.13190228E+04</totfact>
</mgrwt>
</event>
<event>
 4    1  0.4451819E+000  0.3884085E+03  0.7546771E-02  0.1047869E+00
         21   -1    0    0  503  502  0.00000000000E+00  0.00000000000E+00  0.25214241936E+03  0.25214241936E+03  0.00000000000E+00 0. -1.
         21   -1    0    0  501  503 -0.00000000000E+00 -0.00000000000E+00 -0.67548071183E+03  0.67548071183E+03  0.00000000000E+00 0.  1.
          6    1    1    2  501    0 -0.34552869507E+03 -0.39269734532E+02 -0.54907220459E+02  0.39227030735E+03  0.17300000000E+03 0. -1.
         -6    1    1    2    0  502  0.34552869507E+03  0.39269734532E+02 -0.36843107202E+03  0.53535282384E+03  0.17300000000E+03 0.  1.
<mgrwt>
<rscale>  2 0.38840854E+03</rscale>
<asrwt>0</asrwt>
<pdfrwt beam="1">  1       21 0.38791141E-01 0.38840854E+03</pdfrwt>
<pdfrwt beam="2">  1       21 0.10392011E+00 0.38840854E+03</pdfrwt>
<totfact> 0.42953437E+03</totfact>
</mgrwt>
</event>
<event>
 4    1  0.4451819E+000  0.1778930E+03  0.7546771E-02  0.1169858E+00
         21   -1    0    0  503  502  0.00000000000E+00  0.00000000000E+00  0.54498025946E+03  0.54498025946E+03  0.00000000000E+00 0. -1.
         21   -1    0    0  501  503 -0.00000000000E+00 -0.00000000000E+00 -0.60462109974E+02  0.60462109974E+02  0.00000000000E+00 0. -1.
          6    1    1    2  501    0  0.27876817760E+02 -0.30656150968E+02  0.18202077048E+03  0.25451419891E+03  0.17300000000E+03 0. -1.
         -6    1    1    2    0  502 -0.27876817760E+02  0.30656150968E+02  0.30249737901E+03  0.35092817052E+03  0.17300000000E+03 0. -1.
<mgrwt>
<rscale>  2 0.17789299E+03</rscale>
<asrwt>0</asrwt>
<pdfrwt beam="1">  1       21 0.83843114E-01 0.17789299E+03</pdfrwt>
<pdfrwt beam="2">  1       21 0.93018634E-02 0.17789299E+03</pdfrwt>
<totfact> 0.11461497E+05</totfact>
</mgrwt>
</event>
<event>
 4    1  0.4451819E+000  0.1929230E+03  0.7546771E-02  0.1155851E+00
         21   -1    0    0  501  502  0.00000000000E+00  0.00000000000E+00  0.88629253517E+02  0.88629253517E+02  0.00000000000E+00 0. -1.
         21   -1    0    0  502  503 -0.00000000000E+00 -0.00000000000E+00 -0.52035698864E+03  0.52035698864E+03  0.00000000000E+00 0. -1.
          6    1    1    2  501    0  0.20760983455E+02 -0.82820732579E+02 -0.82105027350E+02  0.20966766011E+03  0.17300000000E+03 0. -1.
         -6    1    1    2    0  503 -0.20760983455E+02  0.82820732579E+02 -0.34962270778E+03  0.39931858205E+03  0.17300000000E+03 0. -1.
<mgrwt>
<rscale>  2 0.19292302E+03</rscale>
<asrwt>0</asrwt>
<pdfrwt beam="1">  1       21 0.13635270E-01 0.19292302E+03</pdfrwt>
<pdfrwt beam="2">  1       21 0.80054921E-01 0.19292302E+03</pdfrwt>
<totfact> 0.64042187E+04</totfact>
</mgrwt>
</event>
<event>
 4    1  0.4451819E+000  0.3554761E+03  0.7546771E-02  0.1060390E+00
         21   -1    0    0  503  502  0.00000000000E+00  0.00000000000E+00  0.18204482028E+03  0.18204482028E+03  0.00000000000E+00 0. -1.
         21   -1    0    0  501  503 -0.00000000000E+00 -0.00000000000E+00 -0.78744803782E+03  0.78744803782E+03  0.00000000000E+00 0. -1.
          6    1    1    2  501    0  0.30044521066E+03 -0.78529840907E+02 -0.46957235538E+03  0.58894945238E+03  0.17300000000E+03 0. -1.
         -6    1    1    2    0  502 -0.30044521066E+03  0.78529840907E+02 -0.13583086216E+03  0.38054340572E+03  0.17300000000E+03 0. -1.
<mgrwt>
<rscale>  2 0.35547610E+03</rscale>
<asrwt>0</asrwt>
<pdfrwt beam="1">  1       21 0.28006896E-01 0.35547610E+03</pdfrwt>
<pdfrwt beam="2">  1       21 0.12114585E+00 0.35547610E+03</pdfrwt>
<totfact> 0.57123895E+03</totfact>
</mgrwt>
</event>
<event>
 4    1  0.4451819E+000  0.1966774E+03  0.7546771E-02  0.1152573E+00
         21   -1    0    0  503  502  0.00000000000E+00  0.00000000000E+00  0.11572484867E+04  0.11572484867E+04  0.00000000000E+00 0.  1.
         21   -1    0    0  501  503 -0.00000000000E+00 -0.00000000000E+00 -0.39082573303E+02  0.39082573303E+02  0.00000000000E+00 0. -1.
          6    1    1    2  501    0 -0.13358829592E+02 -0.92598893342E+02  0.33151437299E+03  0.38546568313E+03  0.17300000000E+03 0. -1.
         -6    1    1    2    0  502  0.13358829592E+02  0.92598893342E+02  0.78665154040E+03  0.81086537686E+03  0.17300000000E+03 0. -1.
<mgrwt>
<rscale>  2 0.19667743E+03</rscale>
<asrwt>0</asrwt>
<pdfrwt beam="1">  1       21 0.17803820E+00 0.19667743E+03</pdfrwt>
<pdfrwt beam="2">  1       21 0.60127045E-02 0.19667743E+03</pdfrwt>
<totfact> 0.36772701E+04</totfact>
</mgrwt>
</event>
<event>
 4    1  0.4451819E+000  0.1768009E+03  0.7546771E-02  0.1170936E+00
         21   -1    0    0  501  502  0.00000000000E+00  0.00000000000E+00  0.77791630881E+02  0.77791630881E+02  0.00000000000E+00 0. -1.
         21   -1    0    0  502  503 -0.00000000000E+00 -0.00000000000E+00 -0.40252711239E+03  0.40252711239E+03  0.00000000000E+00 0. -1.
          6    1    1    2  501    0  0.28630163043E+02 -0.22580646879E+02 -0.15233302920E+03  0.23337507072E+03  0.17300000000E+03 0.  1.
         -6    1    1    2    0  503 -0.28630163043E+02  0.22580646879E+02 -0.17240245231E+03  0.24694367255E+03  0.17300000000E+03 0.  1.
<mgrwt>
<rscale>  2 0.17680094E+03</rscale>
<asrwt>0</asrwt>
<pdfrwt beam="1">  1       21 0.11967943E-01 0.17680094E+03</pdfrwt>
<pdfrwt beam="2">  1       21 0.61927248E-01 0.17680094E+03</pdfrwt>
<totfact> 0.14350120E+05</totfact>
</mgrwt>
</event>
<event>
 4    1  0.4451819E+000  0.1921399E+03  0.7546771E-02  0.1156545E+00
         21   -1    0    0  501  502  0.00000000000E+00  0.00000000000E+00  0.10954766923E+03  0.10954766923E+03  0.00000000000E+00 0. -1.
         21   -1    0    0  502  503 -0.00000000000E+00 -0.00000000000E+00 -0.39015352269E+03  0.39015352269E+03  0.00000000000E+00 0. -1.
          6    1    1    2  501    0  0.77605763503E+01 -0.83237610132E+02 -0.48083457726E+02  0.19806500244E+03  0.17300000000E+03 0. -1.
         -6    1    1    2    0  503 -0.77605763503E+01  0.83237610132E+02 -0.23252239573E+03  0.30163618947E+03  0.17300000000E+03 0. -1.
<mgrwt>
<rscale>  2 0.19213986E+03</rscale>
<asrwt>0</asrwt>
<pdfrwt beam="1">  1       21 0.16853487E-01 0.19213986E+03</pdfrwt>
<pdfrwt beam="2">  1       21 0.60023619E-01 0.19213986E+03</pdfrwt>
<totfact> 0.82087042E+04</totfact>
</mgrwt>
</event>
<event>
 4    1  0.4451819E+000  0.1932119E+03  0.7546771E-02  0.1155596E+00
         21   -1    0    0  503  502  0.00000000000E+00  0.00000000000E+00  0.47813539946E+03  0.47813539946E+03  0.00000000000E+00 0.  1.
         21   -1    0    0  501  503 -0.00000000000E+00 -0.00000000000E+00 -0.16357564646E+03  0.16357564646E+03  0.00000000000E+00 0. -1.
          6    1    1    2  501    0  0.70218604586E+02  0.49711106889E+02 -0.74690558519E+02  0.20714614674E+03  0.17300000000E+03 0. -1.
         -6    1    1    2    0  502 -0.70218604586E+02 -0.49711106889E+02  0.38925031152E+03  0.43456489918E+03  0.17300000000E+03 0.  1.
<mgrwt>
<rscale>  2 0.19321192E+03</rscale>
<asrwt>0</asrwt>
<pdfrwt beam="1">  1       21 0.73559292E-01 0.19321192E+03</pdfrwt>
<pdfrwt beam="2">  1       21 0.25165484E-01 0.19321192E+03</pdfrwt>
<totfact> 0.24824962E+04</totfact>
</mgrwt>
</event>
<event>
 4    1  0.4451819E+000  0.2262657E+03  0.7546771E-02  0.1129296E+00
         21   -1    0    0  503  502  0.00000000000E+00  0.00000000000E+00  0.78178454303E+03  0.78178454303E+03  0.00000000000E+00 0. -1.
         21   -1    0    0  501  503 -0.00000000000E+00 -0.00000000000E+00 -0.81675075044E+02  0.81675075044E+02  0.00000000000E+00 0.  1.
          6    1    1    2  501    0 -0.89922581164E+02 -0.11480886185E+03  0.15784525401E+03  0.27588270982E+03  0.17300000000E+03 0.  1.
         -6    1    1    2    0  502  0.89922581164E+02  0.11480886185E+03  0.54226421397E+03  0.58757690826E+03  0.17300000000E+03 0. -1.
<mgrwt>
<rscale>  2 0.22626565E+03</rscale>
<asrwt>0</asrwt>
<pdfrwt beam="1">  1       21 0.12027454E+00 0.22626565E+03</pdfrwt>
<pdfrwt beam="2">  1       21 0.12565397E-01 0.22626565E+03</pdfrwt>
<totfact> 0.27831854E+04</totfact>
</mgrwt>
</event>
<event>
 4    1  0.4451819E+000  0.2074344E+03  0.7546771E-02  0.1143614E+00
         21   -1    0    0  503  502  0.00000000000E+00  0.00000000000E+00  0.76135244164E+03  0.76135244164E+03  0.00000000000E+00 0. -1.
         21   -1    0    0  501  503 -0.00000000000E+00 -0.00000000000E+00 -0.28031084659E+03  0.28031084659E+03  0.00000000000E+00 0.  1.
          6    1    1    2  501    0  0.98758316470E+02  0.57851871508E+02 -0.22485294867E+03  0.30592138309E+03  0.17300000000E+03 0.  1.
         -6    1    1    2    0  502 -0.98758316470E+02 -0.57851871508E+02  0.70589454372E+03  0.73574190513E+03  0.17300000000E+03 0. -1.
<mgrwt>
<rscale>  2 0.20743443E+03</rscale>
<asrwt>0</asrwt>
<pdfrwt beam="1">  1       21 0.11713114E+00 0.20743443E+03</pdfrwt>
<pdfrwt beam="2">  1       21 0.43124746E-01 0.20743443E+03</pdfrwt>
<totfact> 0.28613595E+03</totfact>
</mgrwt>
</event>
<event>
 4    1  0.4451819E+000  0.2028820E+03  0.7546771E-02  0.1147330E+00
         21   -1    0    0  501  502  0.00000000000E+00  0.00000000000E+00  0.79517618881E+03  0.79517618881E+03  0.00000000000E+00 0.  1.
         21   -1    0    0  502  503 -0.00000000000E+00 -0.00000000000E+00 -0.51911488744E+02  0.51911488744E+02  0.00000000000E+00 0.  1.
          6    1    1    2  501    0  0.80620103071E+02 -0.68793217640E+02  0.39424604039E+03  0.44338589081E+03  0.17300000000E+03 0.  1.
         -6    1    1    2    0  503 -0.80620103071E+02  0.68793217640E+02  0.34901865968E+03  0.40370178674E+03  0.17300000000E+03 0.  1.
<mgrwt>
<rscale>  2 0.20288200E+03</rscale>
<asrwt>0</asrwt>
<pdfrwt beam="1">  1       21 0.12233479E+00 0.20288200E+03</pdfrwt>
<pdfrwt beam="2">  1       21 0.79863835E-02 0.20288200E+03</pdfrwt>
<totfact> 0.60271544E+04</totfact>
</mgrwt>
</event>
<event>
 4    1  0.4451819E+000  0.1889201E+03  0.7546771E-02  0.1159439E+00
         21   -1    0    0  503  502  0.00000000000E+00  0.00000000000E+00  0.56604012188E+02  0.56604012188E+02  0.00000000000E+00 0.  1.
         21   -1    0    0  501  503 -0.00000000000E+00 -0.00000000000E+00 -0.68864439608E+03  0.68864439608E+03  0.00000000000E+00 0.  1.
          6    1    1    2  501    0 -0.97789093916E+00 -0.75900373701E+02 -0.42426222229E+03  0.46442357419E+03  0.17300000000E+03 0.  1.
         -6    1    1    2    0  502  0.97789093916E+00  0.75900373701E+02 -0.20777816161E+03  0.28082483409E+03  0.17300000000E+03 0.  1.
<mgrwt>
<rscale>  2 0.18892015E+03</rscale>
<asrwt>0</asrwt>
<pdfrwt beam="1">  1       21 0.87083098E-02 0.18892015E+03</pdfrwt>
<pdfrwt beam="2">  1       21 0.10594529E+00 0.18892015E+03</pdfrwt>
<totfact> 0.74123867E+04</totfact>
</mgrwt>
</event>
<event>
 4    1  0.4451819E+000  0.3231498E+03  0.7546771E-02  0.1074209E+00
         21   -1    0    0  501  502  0.00000000000E+00  0.00000000000E+00  0.29502860443E+03  0.29502860443E+03  0.00000000000E+00 0.  1.
         21   -1    0    0  502  503 -0.00000000000E+00 -0.00000000000E+00 -0.35894274488E+03  0.35894274488E+03  0.00000000000E+00 0. -1.
          6    1    1    2  501    0  0.12655636102E+03 -0.24182691702E+03  0.66020816481E+01  0.32321719909E+03  0.17300000000E+03 0. -1.
         -6    1    1    2    0  503 -0.12655636102E+03  0.24182691702E+03 -0.70516222096E+02  0.33075415022E+03  0.17300000000E+03 0. -1.
<mgrwt>
<rscale>  2 0.32314976E+03</rscale>
<asrwt>0</asrwt>
<pdfrwt beam="1">  1       21 0.45389016E-01 0.32314976E+03</pdfrwt>
<pdfrwt beam="2">  1       21 0.55221961E-01 0.32314976E+03</pdfrwt>
<totfact> 0.13471444E+04</totfact>
</mgrwt>
</event>
<event>
 4    1  0.4451819E+000  0.4165188E+03  0.7546771E-02  0.1038205E+00
         21   -1    0    0  501  502  0.00000000000E+00  0.00000000000E+00  0.19082541546E+03  0.19082541546E+03  0.00000000000E+00 0. -1.
         21   -1    0    0  502  503 -0.00000000000E+00 -0.00000000000E+00 -0.11027651539E+04  0.11027651539E+04  0.00000000000E+00 0. -1.
          6    1    1    2  501    0  0.37868899934E+03  0.12390920242E+02 -0.18495003586E+03  0.45573502048E+03  0.17300000000E+03 0. -1.
         -6    1    1    2    0  503 -0.37868899934E+03 -0.12390920242E+02 -0.72698970263E+03  0.83785554892E+03  0.17300000000E+03 0. -1.
<mgrwt>
<rscale>  2 0.41651878E+03</rscale>
<asrwt>0</asrwt>
<pdfrwt beam="1">  1       21 0.29357756E-01 0.41651878E+03</pdfrwt>
<pdfrwt beam="2">  1       21 0.16965618E+00 0.41651878E+03</pdfrwt>
<totfact> 0.20623852E+03</totfact>
</mgrwt>
</event>
<event>
 4    1  0.4451819E+000  0.1930284E+03  0.7546771E-02  0.1155758E+00
         21   -1    0    0  501  502  0.00000000000E+00  0.00000000000E+00  0.73127759039E+02  0.73127759039E+02  0.00000000000E+00 0. -1.
         21   -1    0    0  502  503 -0.00000000000E+00 -0.00000000000E+00 -0.10779527732E+04  0.10779527732E+04  0.00000000000E+00 0. -1.
          6    1    1    2  501    0 -0.20710114459E+02  0.83078567481E+02 -0.84470604116E+02  0.21070178019E+03  0.17300000000E+03 0. -1.
         -6    1    1    2    0  503  0.20710114459E+02 -0.83078567481E+02 -0.92035441000E+03  0.94037875201E+03  0.17300000000E+03 0. -1.
<mgrwt>
<rscale>  2 0.19302838E+03</rscale>
<asrwt>0</asrwt>
<pdfrwt beam="1">  1       21 0.11250425E-01 0.19302838E+03</pdfrwt>
<pdfrwt beam="2">  1       21 0.16583888E+00 0.19302838E+03</pdfrwt>
<totfact> 0.15033164E+04</totfact>
</mgrwt>
</event>
<event>
 4    1  0.4451819E+000  0.2052681E+03  0.7546771E-02  0.1145369E+00
         21   -1    0    0  503  502  0.00000000000E+00  0.00000000000E+00  0.48363659453E+03  0.48363659453E+03  0.00000000000E+00 0.  1.
         21   -1    0    0  501  503 -0.00000000000E+00 -0.00000000000E+00 -0.99719594145E+02  0.99719594145E+02  0.00000000000E+00 0.  1.
          6    1    1    2  501    0  0.58959705115E+02  0.93433026988E+02  0.88283992360E+02  0.22344807152E+03  0.17300000000E+03 0.  1.
         -6    1    1    2    0  502 -0.58959705115E+02 -0.93433026988E+02  0.29563300802E+03  0.35990811715E+03  0.17300000000E+03 0.  1.
<mgrwt>
<rscale>  2 0.20526806E+03</rscale>
<asrwt>0</asrwt>
<pdfrwt beam="1">  1       21 0.74405629E-01 0.20526806E+03</pdfrwt>
<pdfrwt beam="2">  1       21 0.15341476E-01 0.20526806E+03</pdfrwt>
<totfact> 0.60572485E+04</totfact>
</mgrwt>
</event>
<event>
 4    1  0.4451819E+000  0.2236117E+03  0.7546771E-02  0.1131219E+00
         21   -1    0    0  501  502  0.00000000000E+00  0.00000000000E+00  0.11466986330E+03  0.11466986330E+03  0.00000000000E+00 0. -1.
         21   -1    0    0  502  503 -0.00000000000E+00 -0.00000000000E+00 -0.55721072960E+03  0.55721072960E+03  0.00000000000E+00 0.  1.
          6    1    1    2  501    0  0.10067002998E+02 -0.14132184806E+03 -0.64621726607E+02  0.23276206056E+03  0.17300000000E+03 0. -1.
         -6    1    1    2    0  503 -0.10067002998E+02  0.14132184806E+03 -0.37791913969E+03  0.43911853233E+03  0.17300000000E+03 0.  1.
<mgrwt>
<rscale>  2 0.22361174E+03</rscale>
<asrwt>0</asrwt>
<pdfrwt beam="1">  1       21 0.17641517E-01 0.22361174E+03</pdfrwt>
<pdfrwt beam="2">  1       21 0.85724729E-01 0.22361174E+03</pdfrwt>
<totfact> 0.33686602E+04</totfact>
</mgrwt>
</event>
<event>
 4    1  0.4451819E+000  0.2488499E+03  0.7546771E-02  0.1114034E+00
         21   -1    0    0  503  502  0.00000000000E+00  0.00000000000E+00  0.72048313457E+03  0.72048313457E+03  0.00000000000E+00 0. -1.
         21   -1    0    0  501  503 -0.00000000000E+00 -0.00000000000E+00 -0.31836423601E+03  0.31836423601E+03  0.00000000000E+00 0. -1.
          6    1    1    2  501    0 -0.10645954565E+03  0.14374852412E+03 -0.24274331763E+03  0.34763571638E+03  0.17300000000E+03 0. -1.
         -6    1    1    2    0  502  0.10645954565E+03 -0.14374852412E+03  0.64486221619E+03  0.69121165421E+03  0.17300000000E+03 0. -1.
<mgrwt>
<rscale>  2 0.24884990E+03</rscale>
<asrwt>0</asrwt>
<pdfrwt beam="1">  1       21 0.11084356E+00 0.24884990E+03</pdfrwt>
<pdfrwt beam="2">  1       21 0.48979113E-01 0.24884990E+03</pdfrwt>
<totfact> 0.24378335E+03</totfact>
</mgrwt>
</event>
<event>
 4    1  0.4451819E+000  0.1966066E+03  0.7546771E-02  0.1152634E+00
         21   -1    0    0  503  502  0.00000000000E+00  0.00000000000E+00  0.85571058014E+02  0.85571058014E+02  0.00000000000E+00 0.  1.
         21   -1    0    0  501  503 -0.00000000000E+00 -0.00000000000E+00 -0.56203106595E+03  0.56203106595E+03  0.00000000000E+00 0. -1.
          6    1    1    2  501    0  0.33762918538E+02 -0.87093215379E+02 -0.38168231360E+03  0.42934316269E+03  0.17300000000E+03 0. -1.
         -6    1    1    2    0  502 -0.33762918538E+02  0.87093215379E+02 -0.94777694337E+02  0.21825896128E+03  0.17300000000E+03 0.  1.
<mgrwt>
<rscale>  2 0.19660662E+03</rscale>
<asrwt>0</asrwt>
<pdfrwt beam="1">  1       21 0.13164778E-01 0.19660662E+03</pdfrwt>
<pdfrwt beam="2">  1       21 0.86466319E-01 0.19660662E+03</pdfrwt>
<totfact> 0.57144150E+04</totfact>
</mgrwt>
</event>
<event>
 4    1  0.4451819E+000  0.1989819E+03  0.7546771E-02  0.1150601E+00
         21   -1    0    0  503  502  0.00000000000E+00  0.00000000000E+00  0.10179037783E+03  0.10179037783E+03  0.00000000000E+00 0.  1.
         21   -1    0    0  501  503 -0.00000000000E+00 -0.00000000000E+00 -0.49713781107E+03  0.49713781107E+03  0.00000000000E+00 0. -1.
          6    1    1    2  501    0 -0.21545950716E+02  0.95919602953E+02 -0.33735801525E+03  0.39166851888E+03  0.17300000000E+03 0. -1.
         -6    1    1    2    0  502  0.21545950716E+02 -0.95919602953E+02 -0.57989417983E+02  0.20725967003E+03  0.17300000000E+03 0.  1.
<mgrwt>
<rscale>  2 0.19898190E+03</rscale>
<asrwt>0</asrwt>
<pdfrwt beam="1">  1       21 0.15660058E-01 0.19898190E+03</pdfrwt>
<pdfrwt beam="2">  1       21 0.76482741E-01 0.19898190E+03</pdfrwt>
<totfact> 0.55018344E+04</totfact>
</mgrwt>
</event>
<event>
 4    1  0.4451819E+000  0.2428352E+03  0.7546771E-02  0.1117918E+00
         21   -1    0    0  503  502  0.00000000000E+00  0.00000000000E+00  0.13469878872E+03  0.13469878872E+03  0.00000000000E+00 0. -1.
         21   -1    0    0  501  503 -0.00000000000E+00 -0.00000000000E+00 -0.12593167909E+04  0.12593167909E+04  0.00000000000E+00 0.  1.
          6    1    1    2  501    0 -0.16929139460E+03 -0.19502553166E+02 -0.11252756686E+04  0.11511795065E+04  0.17300000000E+03 0.  1.
         -6    1    1    2    0  502  0.16929139460E+03  0.19502553166E+02  0.65766643279E+00  0.24283607309E+03  0.17300000000E+03 0. -1.
<mgrwt>
<rscale>  2 0.24283518E+03</rscale>
<asrwt>0</asrwt>
<pdfrwt beam="1">  1       21 0.20722890E-01 0.24283518E+03</pdfrwt>
<pdfrwt beam="2">  1       21 0.19374105E+00 0.24283518E+03</pdfrwt>
<totfact> 0.30453765E+03</totfact>
</mgrwt>
</event>
<event>
 4    1  0.4451819E+000  0.1747421E+03  0.7546771E-02  0.1172991E+00
         21   -1    0    0  503  502  0.00000000000E+00  0.00000000000E+00  0.17538633551E+04  0.17538633551E+04  0.00000000000E+00 0.  1.
         21   -1    0    0  501  503 -0.00000000000E+00 -0.00000000000E+00 -0.30119970737E+02  0.30119970737E+02  0.00000000000E+00 0.  1.
          6    1    1    2  501    0 -0.24390096645E+02 -0.33052838967E+01  0.28243578946E+03  0.33212162965E+03  0.17300000000E+03 0.  1.
         -6    1    1    2    0  502  0.24390096645E+02  0.33052838967E+01  0.14413075949E+04  0.14518616962E+04  0.17300000000E+03 0.  1.
<mgrwt>
<rscale>  2 0.17474210E+03</rscale>
<asrwt>0</asrwt>
<pdfrwt beam="1">  1       21 0.26982505E+00 0.17474210E+03</pdfrwt>
<pdfrwt beam="2">  1       21 0.46338430E-02 0.17474210E+03</pdfrwt>
<totfact> 0.15866222E+04</totfact>
</mgrwt>
</event>
<event>
 4    1  0.4451819E+000  0.4140507E+03  0.7546771E-02  0.1039020E+00
         21   -1    0    0  503  502  0.00000000000E+00  0.00000000000E+00  0.28701768210E+03  0.28701768210E+03  0.00000000000E+00 0. -1.
         21   -1    0    0  501  503 -0.00000000000E+00 -0.00000000000E+00 -0.64509243288E+03  0.64509243288E+03  0.00000000000E+00 0. -1.
          6    1    1    2  501    0  0.36541545802E+03  0.89333598122E+02 -0.52193468231E+02  0.41732733776E+03  0.17300000000E+03 0. -1.
         -6    1    1    2    0  502 -0.36541545802E+03 -0.89333598122E+02 -0.30588128254E+03  0.51478277722E+03  0.17300000000E+03 0. -1.
<mgrwt>
<rscale>  2 0.41405066E+03</rscale>
<asrwt>0</asrwt>
<pdfrwt beam="1">  1       21 0.44156566E-01 0.41405066E+03</pdfrwt>
<pdfrwt beam="2">  1       21 0.99244990E-01 0.41405066E+03</pdfrwt>
<totfact> 0.36401097E+03</totfact>
</mgrwt>
</event>
<event>
 4    1  0.4451819E+000  0.1982465E+03  0.7546771E-02  0.1151227E+00
         21   -1    0    0  503  502  0.00000000000E+00  0.00000000000E+00  0.82245175546E+03  0.82245175546E+03  0.00000000000E+00 0.  1.
         21   -1    0    0  501  503 -0.00000000000E+00 -0.00000000000E+00 -0.47836214681E+02  0.47836214681E+02  0.00000000000E+00 0.  1.
          6    1    1    2  501    0 -0.96064816741E+02  0.12008636124E+02  0.40141013832E+03  0.44769605259E+03  0.17300000000E+03 0.  1.
         -6    1    1    2    0  502  0.96064816741E+02 -0.12008636124E+02  0.37320540246E+03  0.42259191755E+03  0.17300000000E+03 0.  1.
<mgrwt>
<rscale>  2 0.19824645E+03</rscale>
<asrwt>0</asrwt>
<pdfrwt beam="1">  1       21 0.12653103E+00 0.19824645E+03</pdfrwt>
<pdfrwt beam="2">  1       21 0.73594182E-02 0.19824645E+03</pdfrwt>
<totfact> 0.64000352E+04</totfact>
</mgrwt>
</event>
<event>
 4    1  0.4451819E+000  0.2583482E+03  0.7546771E-02  0.1108140E+00
         21   -1    0    0  503  502  0.00000000000E+00  0.00000000000E+00  0.13920980298E+04  0.13920980298E+04  0.00000000000E+00 0. -1.
         21   -1    0    0  501  503 -0.00000000000E+00 -0.00000000000E+00 -0.62948536554E+02  0.62948536554E+02  0.00000000000E+00 0.  1.
          6    1    1    2  501    0  0.13400995607E+03  0.13731755965E+03  0.30938973081E+03  0.40307044800E+03  0.17300000000E+03 0.  1.
         -6    1    1    2    0  502 -0.13400995607E+03 -0.13731755965E+03  0.10197597624E+04  0.10519761183E+04  0.17300000000E+03 0. -1.
<mgrwt>
<rscale>  2 0.25834818E+03</rscale>
<asrwt>0</asrwt>
<pdfrwt beam="1">  1       21 0.21416890E+00 0.25834818E+03</pdfrwt>
<pdfrwt beam="2">  1       21 0.96843913E-02 0.25834818E+03</pdfrwt>
<totfact> 0.89168906E+03</totfact>
</mgrwt>
</event>
<event>
 4    1  0.4451819E+000  0.1932086E+03  0.7546771E-02  0.1155599E+00
         21   -1    0    0  501  502  0.00000000000E+00  0.00000000000E+00  0.45961104514E+03  0.45961104514E+03  0.00000000000E+00 0.  1.
         21   -1    0    0  502  503 -0.00000000000E+00 -0.00000000000E+00 -0.13470385896E+03  0.13470385896E+03  0.00000000000E+00 0.  1.
          6    1    1    2  501    0  0.21948961928E+02 -0.83179277570E+02  0.34969784915E+03  0.39952238341E+03  0.17300000000E+03 0.  1.
         -6    1    1    2    0  503 -0.21948961928E+02  0.83179277570E+02 -0.24790662975E+02  0.19479252069E+03  0.17300000000E+03 0.  1.
<mgrwt>
<rscale>  2 0.19320856E+03</rscale>
<asrwt>0</asrwt>
<pdfrwt beam="1">  1       21 0.70709391E-01 0.19320856E+03</pdfrwt>
<pdfrwt beam="2">  1       21 0.20723671E-01 0.19320856E+03</pdfrwt>
<totfact> 0.39129816E+04</totfact>
</mgrwt>
</event>
<event>
 4    1  0.4451819E+000  0.2440017E+03  0.7546771E-02  0.1117155E+00
         21   -1    0    0  501  502  0.00000000000E+00  0.00000000000E+00  0.33159483012E+04  0.33159483012E+04  0.00000000000E+00 0.  1.
         21   -1    0    0  502  503 -0.00000000000E+00 -0.00000000000E+00 -0.18761211857E+02  0.18761211857E+02  0.00000000000E+00 0. -1.
          6    1    1    2  501    0 -0.12179902743E+03  0.12154356311E+03  0.19942974284E+04  0.20091687520E+04  0.17300000000E+03 0.  1.
         -6    1    1    2    0  503  0.12179902743E+03 -0.12154356311E+03  0.13028896609E+04  0.13255407611E+04  0.17300000000E+03 0.  1.
<mgrwt>
<rscale>  2 0.24400172E+03</rscale>
<asrwt>0</asrwt>
<pdfrwt beam="1">  1       21 0.51014543E+00 0.24400172E+03</pdfrwt>
<pdfrwt beam="2">  1       21 0.28863429E-02 0.24400172E+03</pdfrwt>
<totfact> 0.10065166E+03</totfact>
</mgrwt>
</event>
<event>
 4    1  0.4451819E+000  0.2357128E+03  0.7546771E-02  0.1122682E+00
         21   -1    0    0  503  502  0.00000000000E+00  0.00000000000E+00  0.93133821851E+03  0.93133821851E+03  0.00000000000E+00 0. -1.
         21   -1    0    0  501  503 -0.00000000000E+00 -0.00000000000E+00 -0.66919267180E+02  0.66919267180E+02  0.00000000000E+00 0. -1.
          6    1    1    2  501    0 -0.63220141299E+02  0.14708755735E+03  0.26777873955E+03  0.35674359020E+03  0.17300000000E+03 0. -1.
         -6    1    1    2    0  502  0.63220141299E+02 -0.14708755735E+03  0.59664021178E+03  0.64151389549E+03  0.17300000000E+03 0. -1.
<mgrwt>
<rscale>  2 0.23571282E+03</rscale>
<asrwt>0</asrwt>
<pdfrwt beam="1">  1       21 0.14328279E+00 0.23571282E+03</pdfrwt>
<pdfrwt beam="2">  1       21 0.10295273E-01 0.23571282E+03</pdfrwt>
<totfact> 0.25310783E+04</totfact>
</mgrwt>
</event>
<event>
 4    1  0.4451819E+000  0.1890543E+03  0.7546771E-02  0.1159317E+00
         21   -1    0    0  501  502  0.00000000000E+00  0.00000000000E+00  0.33230277288E+03  0.33230277288E+03  0.00000000000E+00 0. -1.
         21   -1    0    0  502  503 -0.00000000000E+00 -0.00000000000E+00 -0.10802940054E+03  0.10802940054E+03  0.00000000000E+00 0. -1.
          6    1    1    2  501    0 -0.55516498887E+02 -0.52253661611E+02  0.12669405249E+03  0.22758055659E+03  0.17300000000E+03 0. -1.
         -6    1    1    2    0  503  0.55516498887E+02  0.52253661611E+02  0.97579319861E+02  0.21275161683E+03  0.17300000000E+03 0. -1.
<mgrwt>
<rscale>  2 0.18905430E+03</rscale>
<asrwt>0</asrwt>
<pdfrwt beam="1">  1       21 0.51123503E-01 0.18905430E+03</pdfrwt>
<pdfrwt beam="2">  1       21 0.16619908E-01 0.18905430E+03</pdfrwt>
<totfact> 0.11845248E+05</totfact>
</mgrwt>
</event>
<event>
 4    1  0.4451819E+000  0.1864489E+03  0.7546771E-02  0.1161704E+00
         21   -1    0    0  501  502  0.00000000000E+00  0.00000000000E+00  0.52698347827E+02  0.52698347827E+02  0.00000000000E+00 0. -1.
         21   -1    0    0  502  503 -0.00000000000E+00 -0.00000000000E+00 -0.67576622846E+03  0.67576622846E+03  0.00000000000E+00 0. -1.
          6    1    1    2  501    0  0.40469437733E+02 -0.56536699301E+02 -0.36775909448E+03  0.41232259861E+03  0.17300000000E+03 0. -1.
         -6    1    1    2    0  503 -0.40469437733E+02  0.56536699301E+02 -0.25530878616E+03  0.31614197768E+03  0.17300000000E+03 0. -1.
<mgrwt>
<rscale>  2 0.18644885E+03</rscale>
<asrwt>0</asrwt>
<pdfrwt beam="1">  1       21 0.81074389E-02 0.18644885E+03</pdfrwt>
<pdfrwt beam="2">  1       21 0.10396403E+00 0.18644885E+03</pdfrwt>
<totfact> 0.87957546E+04</totfact>
</mgrwt>
</event>
<event>
 4    1  0.4451819E+000  0.2475967E+03  0.7546771E-02  0.1114833E+00
         21   -1    0    0  503  502  0.00000000000E+00  0.00000000000E+00  0.27506656732E+03  0.27506656732E+03  0.00000000000E+00 0. -1.
         21   -1    0    0  501  503 -0.00000000000E+00 -0.00000000000E+00 -0.26624567755E+03  0.26624567755E+03  0.00000000000E+00 0.  1.
          6    1    1    2  501    0 -0.41846933575E+02  0.17211608373E+03 -0.10483396686E+03  0.26887594302E+03  0.17300000000E+03 0. -1.
         -6    1    1    2    0  502  0.41846933575E+02 -0.17211608373E+03  0.11365485663E+03  0.27243630185E+03  0.17300000000E+03 0.  1.
<mgrwt>
<rscale>  2 0.24759667E+03</rscale>
<asrwt>0</asrwt>
<pdfrwt beam="1">  1       21 0.42317934E-01 0.24759667E+03</pdfrwt>
<pdfrwt beam="2">  1       21 0.40960873E-01 0.24759667E+03</pdfrwt>
<totfact> 0.30007436E+04</totfact>
</mgrwt>
</event>
<event>
 4    1  0.4451819E+000  0.1733292E+03  0.7546771E-02  0.1174420E+00
         21   -1    0    0  501  502  0.00000000000E+00  0.00000000000E+00  0.82407852432E+02  0.82407852432E+02  0.00000000000E+00 0.  1.
         21   -1    0    0  502  503 -0.00000000000E+00 -0.00000000000E+00 -0.36911855848E+03  0.36911855848E+03  0.00000000000E+00 0.  1.
          6    1    1    2  501    0  0.63990641729E+01 -0.85477215148E+01 -0.11827984025E+03  0.20984073049E+03  0.17300000000E+03 0.  1.
         -6    1    1    2    0  503 -0.63990641729E+01  0.85477215148E+01 -0.16843086581E+03  0.24168568042E+03  0.17300000000E+03 0.  1.
<mgrwt>
<rscale>  2 0.17332920E+03</rscale>
<asrwt>0</asrwt>
<pdfrwt beam="1">  1       21 0.12678131E-01 0.17332920E+03</pdfrwt>
<pdfrwt beam="2">  1       21 0.56787470E-01 0.17332920E+03</pdfrwt>
<totfact> 0.15596865E+05</totfact>
</mgrwt>
</event>
<event>
 4    1  0.4451819E+000  0.2147836E+03  0.7546771E-02  0.1137833E+00
         21   -1    0    0  503  502  0.00000000000E+00  0.00000000000E+00  0.42185819534E+03  0.42185819534E+03  0.00000000000E+00 0. -1.
         21   -1    0    0  501  503 -0.00000000000E+00 -0.00000000000E+00 -0.12745201473E+03  0.12745201473E+03  0.00000000000E+00 0.  1.
          6    1    1    2  501    0 -0.28845922371E+02  0.12397938511E+03  0.43706244075E+02  0.21918533468E+03  0.17300000000E+03 0.  1.
         -6    1    1    2    0  502  0.28845922371E+02 -0.12397938511E+03  0.25069993654E+03  0.33012487539E+03  0.17300000000E+03 0. -1.
<mgrwt>
<rscale>  2 0.21478355E+03</rscale>
<asrwt>0</asrwt>
<pdfrwt beam="1">  1       21 0.64901260E-01 0.21478355E+03</pdfrwt>
<pdfrwt beam="2">  1       21 0.19608002E-01 0.21478355E+03</pdfrwt>
<totfact> 0.51822680E+04</totfact>
</mgrwt>
</event>
<event>
 4    1  0.4451819E+000  0.2492258E+03  0.7546771E-02  0.1113795E+00
         21   -1    0    0  501  502  0.00000000000E+00  0.00000000000E+00  0.55938563474E+03  0.55938563474E+03  0.00000000000E+00 0.  1.
         21   -1    0    0  502  503 -0.00000000000E+00 -0.00000000000E+00 -0.14493226364E+03  0.14493226364E+03  0.00000000000E+00 0. -1.
          6    1    1    2  501    0 -0.14926520543E+03  0.99520860201E+02  0.37752652627E+03  0.45237128689E+03  0.17300000000E+03 0.  1.
         -6    1    1    2    0  503  0.14926520543E+03 -0.99520860201E+02  0.36926844832E+02  0.25194661148E+03  0.17300000000E+03 0. -1.
<mgrwt>
<rscale>  2 0.24922581E+03</rscale>
<asrwt>0</asrwt>
<pdfrwt beam="1">  1       21 0.86059327E-01 0.24922581E+03</pdfrwt>
<pdfrwt beam="2">  1       21 0.22297272E-01 0.24922581E+03</pdfrwt>
<totfact> 0.21249585E+04</totfact>
</mgrwt>
</event>
<event>
 4    1  0.4451819E+000  0.1797313E+03  0.7546771E-02  0.1168063E+00
         21   -1    0    0  503  502  0.00000000000E+00  0.00000000000E+00  0.21254627303E+03  0.21254627303E+03  0.00000000000E+00 0.  1.
         21   -1    0    0  501  503 -0.00000000000E+00 -0.00000000000E+00 -0.25070151974E+03  0.25070151974E+03  0.00000000000E+00 0. -1.
          6    1    1    2  501    0 -0.23349821124E+02  0.42768182177E+02 -0.16442430286E+03  0.24359532615E+03  0.17300000000E+03 0. -1.
         -6    1    1    2    0  502  0.23349821124E+02 -0.42768182177E+02  0.12626905615E+03  0.21965246662E+03  0.17300000000E+03 0. -1.
<mgrwt>
<rscale>  2 0.17973128E+03</rscale>
<asrwt>0</asrwt>
<pdfrwt beam="1">  1       21 0.32699427E-01 0.17973128E+03</pdfrwt>
<pdfrwt beam="2">  1       21 0.38569464E-01 0.17973128E+03</pdfrwt>
<totfact> 0.58686780E+04</totfact>
</mgrwt>
</event>
<event>
 4    1  0.4451819E+000  0.1880777E+03  0.7546771E-02  0.1160207E+00
         21   -1    0    0  503  502  0.00000000000E+00  0.00000000000E+00  0.27500296039E+03  0.27500296039E+03  0.00000000000E+00 0. -1.
         21   -1    0    0  501  503 -0.00000000000E+00 -0.00000000000E+00 -0.46099862819E+03  0.46099862819E+03  0.00000000000E+00 0. -1.
          6    1    1    2  501    0  0.12332950880E+02 -0.72746884971E+02 -0.40546900080E+03  0.44696568276E+03  0.17300000000E+03 0. -1.
         -6    1    1    2    0  502 -0.12332950880E+02  0.72746884971E+02  0.21947333301E+03  0.28903590582E+03  0.17300000000E+03 0. -1.
<mgrwt>
<rscale>  2 0.18807767E+03</rscale>
<asrwt>0</asrwt>
<pdfrwt beam="1">  1       21 0.42308148E-01 0.18807767E+03</pdfrwt>
<pdfrwt beam="2">  1       21 0.70922866E-01 0.18807767E+03</pdfrwt>
<totfact> 0.97075513E+03</totfact>
</mgrwt>
</event>
<event>
 4    1  0.4451819E+000  0.1744797E+03  0.7546771E-02  0.1173255E+00
         21   -1    0    0  501  502  0.00000000000E+00  0.00000000000E+00  0.14638959503E+03  0.14638959503E+03  0.00000000000E+00 0.  1.
         21   -1    0    0  502  503 -0.00000000000E+00 -0.00000000000E+00 -0.66059598611E+03  0.66059598611E+03  0.00000000000E+00 0.  1.
          6    1    1    2  501    0  0.61635964927E+01  0.21821326622E+02  0.76893691419E+02  0.19067196962E+03  0.17300000000E+03 0.  1.
         -6    1    1    2    0  503 -0.61635964927E+01 -0.21821326622E+02 -0.59110008250E+03  0.61631361152E+03  0.17300000000E+03 0.  1.
<mgrwt>
<rscale>  2 0.17447968E+03</rscale>
<asrwt>0</asrwt>
<pdfrwt beam="1">  1       21 0.22521476E-01 0.17447968E+03</pdfrwt>
<pdfrwt beam="2">  1       21 0.10163015E+00 0.17447968E+03</pdfrwt>
<totfact> 0.14767593E+04</totfact>
</mgrwt>
</event>
<event>
 4    1  0.4451819E+000  0.1904572E+03  0.7546771E-02  0.1158050E+00
         21   -1    0    0  501  502  0.00000000000E+00  0.00000000000E+00  0.52339067138E+02  0.52339067138E+02  0.00000000000E+00 0. -1.
         21   -1    0    0  502  503 -0.00000000000E+00 -0.00000000000E+00 -0.31746642925E+04  0.31746642925E+04  0.00000000000E+00 0. -1.
          6    1    1    2  501    0 -0.11437812962E+02 -0.78829710261E+02 -0.13461239803E+03  0.23322616596E+03  0.17300000000E+03 0. -1.
         -6    1    1    2    0  503  0.11437812962E+02  0.78829710261E+02 -0.29877128274E+04  0.29937771937E+04  0.17300000000E+03 0. -1.
<mgrwt>
<rscale>  2 0.19045720E+03</rscale>
<asrwt>0</asrwt>
<pdfrwt beam="1">  1       21 0.80521602E-02 0.19045720E+03</pdfrwt>
<pdfrwt beam="2">  1       21 0.48841013E+00 0.19045720E+03</pdfrwt>
<totfact> 0.27182881E+02</totfact>
</mgrwt>
</event>
<event>
 4    1  0.4451819E+000  0.1973969E+03  0.7546771E-02  0.1151954E+00
         21   -1    0    0  501  502  0.00000000000E+00  0.00000000000E+00  0.24964755946E+03  0.24964755946E+03  0.00000000000E+00 0.  1.
         21   -1    0    0  502  503 -0.00000000000E+00 -0.00000000000E+00 -0.15718213972E+03  0.15718213972E+03  0.00000000000E+00 0.  1.
          6    1    1    2  501    0  0.65200183741E+02 -0.69177055721E+02  0.63249374547E+02  0.20728244590E+03  0.17300000000E+03 0.  1.
         -6    1    1    2    0  503 -0.65200183741E+02  0.69177055721E+02  0.29216045193E+02  0.19954725329E+03  0.17300000000E+03 0.  1.
<mgrwt>
<rscale>  2 0.19739688E+03</rscale>
<asrwt>0</asrwt>
<pdfrwt beam="1">  1       21 0.38407317E-01 0.19739688E+03</pdfrwt>
<pdfrwt beam="2">  1       21 0.24181868E-01 0.19739688E+03</pdfrwt>
<totfact> 0.10530396E+05</totfact>
</mgrwt>
</event>
<event>
 4    1  0.4451819E+000  0.1818027E+03  0.7546771E-02  0.1166070E+00
         21   -1    0    0  501  502  0.00000000000E+00  0.00000000000E+00  0.34091344358E+03  0.34091344358E+03  0.00000000000E+00 0. -1.
         21   -1    0    0  502  503 -0.00000000000E+00 -0.00000000000E+00 -0.11419933872E+03  0.11419933872E+03  0.00000000000E+00 0. -1.
          6    1    1    2  501    0  0.33086888628E+01  0.55787771999E+02  0.20179098265E+03  0.27160968982E+03  0.17300000000E+03 0. -1.
         -6    1    1    2    0  503 -0.33086888628E+01 -0.55787771999E+02  0.24923122208E+02  0.18350309247E+03  0.17300000000E+03 0. -1.
<mgrwt>
<rscale>  2 0.18180270E+03</rscale>
<asrwt>0</asrwt>
<pdfrwt beam="1">  1       21 0.52448222E-01 0.18180270E+03</pdfrwt>
<pdfrwt beam="2">  1       21 0.17569129E-01 0.18180270E+03</pdfrwt>
<totfact> 0.10164084E+05</totfact>
</mgrwt>
</event>
<event>
 4    1  0.4451819E+000  0.2985506E+03  0.7546771E-02  0.1085967E+00
         21   -1    0    0  501  502  0.00000000000E+00  0.00000000000E+00  0.17595181381E+04  0.17595181381E+04  0.00000000000E+00 0.  1.
         21   -1    0    0  502  503 -0.00000000000E+00 -0.00000000000E+00 -0.67701105669E+02  0.67701105669E+02  0.00000000000E+00 0. -1.
          6    1    1    2  501    0  0.19086746494E+03 -0.15090746068E+03  0.13043099624E+04  0.13380421999E+04  0.17300000000E+03 0.  1.
         -6    1    1    2    0  503 -0.19086746494E+03  0.15090746068E+03  0.38750707001E+03  0.48917704379E+03  0.17300000000E+03 0. -1.
<mgrwt>
<rscale>  2 0.29855058E+03</rscale>
<asrwt>0</asrwt>
<pdfrwt beam="1">  1       21 0.27069506E+00 0.29855058E+03</pdfrwt>
<pdfrwt beam="2">  1       21 0.10415556E-01 0.29855058E+03</pdfrwt>
<totfact> 0.34558870E+03</totfact>
</mgrwt>
</event>
<event>
 4    1  0.4451819E+000  0.3633819E+03  0.7546771E-02  0.1057253E+00
         21   -1    0    0  503  502  0.00000000000E+00  0.00000000000E+00  0.29009833699E+03  0.29009833699E+03  0.00000000000E+00 0. -1.
         21   -1    0    0  501  503 -0.00000000000E+00 -0.00000000000E+00 -0.70739899273E+03  0.70739899273E+03  0.00000000000E+00 0. -1.
          6    1    1    2  501    0  0.31000225821E+03  0.77562681196E+02 -0.50646094478E+03  0.62333703419E+03  0.17300000000E+03 0. -1.
         -6    1    1    2    0  502 -0.31000225821E+03 -0.77562681196E+02  0.89160289039E+02  0.37416029553E+03  0.17300000000E+03 0. -1.
<mgrwt>
<rscale>  2 0.36338185E+03</rscale>
<asrwt>0</asrwt>
<pdfrwt beam="1">  1       21 0.44630514E-01 0.36338185E+03</pdfrwt>
<pdfrwt beam="2">  1       21 0.10883061E+00 0.36338185E+03</pdfrwt>
<totfact> 0.29024058E+03</totfact>
</mgrwt>
</event>
<event>
 4    1  0.4451819E+000  0.2009280E+03  0.7546771E-02  0.1148958E+00
         21   -1    0    0  501  502  0.00000000000E+00  0.00000000000E+00  0.27331886394E+03  0.27331886394E+03  0.00000000000E+00 0. -1.
         21   -1    0    0  502  503 -0.00000000000E+00 -0.00000000000E+00 -0.22327036187E+03  0.22327036187E+03  0.00000000000E+00 0. -1.
          6    1    1    2  501    0 -0.24026595521E+02  0.99326573351E+02  0.16946760129E+03  0.26285226526E+03  0.17300000000E+03 0. -1.
         -6    1    1    2    0  503  0.24026595521E+02 -0.99326573351E+02 -0.11941909922E+03  0.23373696054E+03  0.17300000000E+03 0. -1.
<mgrwt>
<rscale>  2 0.20092796E+03</rscale>
<asrwt>0</asrwt>
<pdfrwt beam="1">  1       21 0.42049056E-01 0.20092796E+03</pdfrwt>
<pdfrwt beam="2">  1       21 0.34349286E-01 0.20092796E+03</pdfrwt>
<totfact> 0.44274515E+04</totfact>
</mgrwt>
</event>
<event>
 4    1  0.4451819E+000  0.2838461E+03  0.7546771E-02  0.1093607E+00
         21   -1    0    0  501  502  0.00000000000E+00  0.00000000000E+00  0.42647735670E+03  0.42647735670E+03  0.00000000000E+00 0.  1.
         21   -1    0    0  502  503 -0.00000000000E+00 -0.00000000000E+00 -0.19314977563E+03  0.19314977563E+03  0.00000000000E+00 0. -1.
          6    1    1    2  501    0  0.18655704389E+03  0.12584154634E+03  0.16252966662E+03  0.32708487880E+03  0.17300000000E+03 0.  1.
         -6    1    1    2    0  503 -0.18655704389E+03 -0.12584154634E+03  0.70797914455E+02  0.29254225353E+03  0.17300000000E+03 0. -1.
<mgrwt>
<rscale>  2 0.28384613E+03</rscale>
<asrwt>0</asrwt>
<pdfrwt beam="1">  1       21 0.65611901E-01 0.28384613E+03</pdfrwt>
<pdfrwt beam="2">  1       21 0.29715350E-01 0.28384613E+03</pdfrwt>
<totfact> 0.22147390E+04</totfact>
</mgrwt>
</event>
<event>
 4    1  0.4451819E+000  0.2377429E+03  0.7546771E-02  0.1121306E+00
         21   -1    0    0  501  502  0.00000000000E+00  0.00000000000E+00  0.64313784825E+03  0.64313784825E+03  0.00000000000E+00 0. -1.
         21   -1    0    0  502  503 -0.00000000000E+00 -0.00000000000E+00 -0.87999284377E+02  0.87999284377E+02  0.00000000000E+00 0.  1.
          6    1    1    2  501    0 -0.11267838754E+03  0.11788235693E+03  0.26435033261E+03  0.35553166870E+03  0.17300000000E+03 0.  1.
         -6    1    1    2    0  503  0.11267838754E+03 -0.11788235693E+03  0.29078823127E+03  0.37560546393E+03  0.17300000000E+03 0. -1.
<mgrwt>
<rscale>  2 0.23774286E+03</rscale>
<asrwt>0</asrwt>
<pdfrwt beam="1">  1       21 0.98944281E-01 0.23774286E+03</pdfrwt>
<pdfrwt beam="2">  1       21 0.13538352E-01 0.23774286E+03</pdfrwt>
<totfact> 0.38873506E+04</totfact>
</mgrwt>
</event>
<event>
 4    1  0.4451819E+000  0.1866630E+03  0.7546771E-02  0.1161506E+00
         21   -1    0    0  501  502  0.00000000000E+00  0.00000000000E+00  0.22230917814E+03  0.22230917814E+03  0.00000000000E+00 0.  1.
         21   -1    0    0  502  503 -0.00000000000E+00 -0.00000000000E+00 -0.21112278580E+03  0.21112278580E+03  0.00000000000E+00 0.  1.
          6    1    1    2  501    0  0.61106783258E+02 -0.34351819082E+02 -0.10440455846E+03  0.21387706343E+03  0.17300000000E+03 0.  1.
         -6    1    1    2    0  503 -0.61106783258E+02  0.34351819082E+02  0.11559095079E+03  0.21955490051E+03  0.17300000000E+03 0.  1.
<mgrwt>
<rscale>  2 0.18666303E+03</rscale>
<asrwt>0</asrwt>
<pdfrwt beam="1">  1       21 0.34201412E-01 0.18666303E+03</pdfrwt>
<pdfrwt beam="2">  1       21 0.32480429E-01 0.18666303E+03</pdfrwt>
<totfact> 0.75323950E+04</totfact>
</mgrwt>
</event>
<event>
 4    1  0.4451819E+000  0.1821417E+03  0.7546771E-02  0.1165746E+00
         21   -1    0    0  503  502  0.00000000000E+00  0.00000000000E+00  0.55925319174E+02  0.55925319174E+02  0.00000000000E+00 0. -1.
         21   -1    0    0  501  503 -0.00000000000E+00 -0.00000000000E+00 -0.62259548271E+03  0.62259548271E+03  0.00000000000E+00 0. -1.
          6    1    1    2  501    0 -0.56929897087E+02 -0.23619905086E+01 -0.20963313661E+03  0.27770783955E+03  0.17300000000E+03 0. -1.
         -6    1    1    2    0  502  0.56929897087E+02  0.23619905086E+01 -0.35703702693E+03  0.40081296234E+03  0.17300000000E+03 0. -1.
<mgrwt>
<rscale>  2 0.18214168E+03</rscale>
<asrwt>0</asrwt>
<pdfrwt beam="1">  1       21 0.86038958E-02 0.18214168E+03</pdfrwt>
<pdfrwt beam="2">  1       21 0.95783914E-01 0.18214168E+03</pdfrwt>
<totfact> 0.96457130E+04</totfact>
</mgrwt>
</event>
<event>
 4    1  0.4451819E+000  0.2126369E+03  0.7546771E-02  0.1139495E+00
         21   -1    0    0  501  502  0.00000000000E+00  0.00000000000E+00  0.19027171653E+03  0.19027171653E+03  0.00000000000E+00 0.  1.
         21   -1    0    0  502  503 -0.00000000000E+00 -0.00000000000E+00 -0.33684818975E+03  0.33684818975E+03  0.00000000000E+00 0.  1.
          6    1    1    2  501    0  0.12348270226E+03 -0.61218698054E+01  0.69751206543E+02  0.22378490982E+03  0.17300000000E+03 0.  1.
         -6    1    1    2    0  503 -0.12348270226E+03  0.61218698054E+01 -0.21632767976E+03  0.30333499646E+03  0.17300000000E+03 0.  1.
<mgrwt>
<rscale>  2 0.21263691E+03</rscale>
<asrwt>0</asrwt>
<pdfrwt beam="1">  1       21 0.29272572E-01 0.21263691E+03</pdfrwt>
<pdfrwt beam="2">  1       21 0.51822799E-01 0.21263691E+03</pdfrwt>
<totfact> 0.39117944E+04</totfact>
</mgrwt>
</event>
<event>
 4    1  0.4451819E+000  0.2012174E+03  0.7546771E-02  0.1148716E+00
         21   -1    0    0  501  502  0.00000000000E+00  0.00000000000E+00  0.17900468974E+03  0.17900468974E+03  0.00000000000E+00 0.  1.
         21   -1    0    0  502  503 -0.00000000000E+00 -0.00000000000E+00 -0.23536062957E+03  0.23536062957E+03  0.00000000000E+00 0. -1.
          6    1    1    2  501    0  0.92198847126E+02  0.45374312180E+02  0.12726185313E+02  0.20161947180E+03  0.17300000000E+03 0.  1.
         -6    1    1    2    0  503 -0.92198847126E+02 -0.45374312180E+02 -0.69082125144E+02  0.21274584751E+03  0.17300000000E+03 0. -1.
<mgrwt>
<rscale>  2 0.20121743E+03</rscale>
<asrwt>0</asrwt>
<pdfrwt beam="1">  1       21 0.27539183E-01 0.20121743E+03</pdfrwt>
<pdfrwt beam="2">  1       21 0.36209327E-01 0.20121743E+03</pdfrwt>
<totfact> 0.92206287E+04</totfact>
</mgrwt>
</event>
<event>
 4    1  0.4451819E+000  0.1738372E+03  0.7546771E-02  0.1173904E+00
         21   -1    0    0  501  502  0.00000000000E+00  0.00000000000E+00  0.26467651655E+03  0.26467651655E+03  0.00000000000E+00 0.  1.
         21   -1    0    0  502  503 -0.00000000000E+00 -0.00000000000E+00 -0.28510780764E+03  0.28510780764E+03  0.00000000000E+00 0.  1.
          6    1    1    2  501    0  0.47516698022E+01  0.16364718426E+02  0.20263295429E+03  0.26698220267E+03  0.17300000000E+03 0.  1.
         -6    1    1    2    0  503 -0.47516698022E+01 -0.16364718426E+02 -0.22306424538E+03  0.28280212153E+03  0.17300000000E+03 0.  1.
<mgrwt>
<rscale>  2 0.17383723E+03</rscale>
<asrwt>0</asrwt>
<pdfrwt beam="1">  1       21 0.40719464E-01 0.17383723E+03</pdfrwt>
<pdfrwt beam="2">  1       21 0.43862740E-01 0.17383723E+03</pdfrwt>
<totfact> 0.29317737E+04</totfact>
</mgrwt>
</event>
<event>
 4    1  0.4451819E+000  0.2339993E+03  0.7546771E-02  0.1123856E+00
         21   -1    0    0  503  502  0.00000000000E+00  0.00000000000E+00  0.89930380356E+03  0.89930380356E+03  0.00000000000E+00 0. -1.
         21   -1    0    0  501  503 -0.00000000000E+00 -0.00000000000E+00 -0.69934043708E+02  0.69934043708E+02  0.00000000000E+00 0. -1.
          6    1    1    2  501    0  0.37628773462E+02  0.15300565831E+03  0.24037733413E+03  0.33546522745E+03  0.17300000000E+03 0. -1.
         -6    1    1    2    0  502 -0.37628773462E+02 -0.15300565831E+03  0.58899242572E+03  0.63377261981E+03  0.17300000000E+03 0. -1.
<mgrwt>
<rscale>  2 0.23399927E+03</rscale>
<asrwt>0</asrwt>
<pdfrwt beam="1">  1       21 0.13835442E+00 0.23399927E+03</pdfrwt>
<pdfrwt beam="2">  1       21 0.10759084E-01 0.23399927E+03</pdfrwt>
<totfact> 0.25660256E+04</totfact>
</mgrwt>
</event>
<event>
 4    1  0.4451819E+000  0.2354236E+03  0.7546771E-02  0.1122880E+00
         21   -1    0    0  501  502  0.00000000000E+00  0.00000000000E+00  0.43929429109E+03  0.43929429109E+03  0.00000000000E+00 0. -1.
         21   -1    0    0  502  503 -0.00000000000E+00 -0.00000000000E+00 -0.13341967493E+03  0.13341967493E+03  0.00000000000E+00 0. -1.
          6    1    1    2  501    0  0.80138411031E+02  0.13810541139E+03  0.86170786218E+02  0.25069837250E+03  0.17300000000E+03 0. -1.
         -6    1    1    2    0  503 -0.80138411031E+02 -0.13810541139E+03  0.21970382994E+03  0.32201559352E+03  0.17300000000E+03 0. -1.
<mgrwt>
<rscale>  2 0.23542360E+03</rscale>
<asrwt>0</asrwt>
<pdfrwt beam="1">  1       21 0.67583736E-01 0.23542360E+03</pdfrwt>
<pdfrwt beam="2">  1       21 0.20526104E-01 0.23542360E+03</pdfrwt>
<totfact> 0.43118232E+04</totfact>
</mgrwt>
</event>
<event>
 4    1  0.4451819E+000  0.2651891E+03  0.7546771E-02  0.1104065E+00
         21   -1    0    0  503  502  0.00000000000E+00  0.00000000000E+00  0.82140989119E+03  0.82140989119E+03  0.00000000000E+00 0.  1.
         21   -1    0    0  501  503 -0.00000000000E+00 -0.00000000000E+00 -0.10146109121E+03  0.10146109121E+03  0.00000000000E+00 0.  1.
          6    1    1    2  501    0  0.16052711418E+03  0.12094337957E+03  0.17761919018E+03  0.31917680393E+03  0.17300000000E+03 0.  1.
         -6    1    1    2    0  502 -0.16052711418E+03 -0.12094337957E+03  0.54232960980E+03  0.60369417847E+03  0.17300000000E+03 0.  1.
<mgrwt>
<rscale>  2 0.26518909E+03</rscale>
<asrwt>0</asrwt>
<pdfrwt beam="1">  1       21 0.12637075E+00 0.26518909E+03</pdfrwt>
<pdfrwt beam="2">  1       21 0.15609399E-01 0.26518909E+03</pdfrwt>
<totfact> 0.16225942E+04</totfact>
</mgrwt>
</event>
<event>
 4    1  0.4451819E+000  0.2130465E+03  0.7546771E-02  0.1139176E+00
         21   -1    0    0  503  502  0.00000000000E+00  0.00000000000E+00  0.15163629942E+03  0.15163629942E+03  0.00000000000E+00 0.  1.
         21   -1    0    0  501  503 -0.00000000000E+00 -0.00000000000E+00 -0.31850370128E+03  0.31850370128E+03  0.00000000000E+00 0.  1.
          6    1    1    2  501    0 -0.67954567184E+02  0.10412476991E+03 -0.14111439518E+03  0.25554268418E+03  0.17300000000E+03 0.  1.
         -6    1    1    2    0  502  0.67954567184E+02 -0.10412476991E+03 -0.25753006677E+02  0.21459731653E+03  0.17300000000E+03 0.  1.
<mgrwt>
<rscale>  2 0.21304645E+03</rscale>
<asrwt>0</asrwt>
<pdfrwt beam="1">  1       21 0.23328662E-01 0.21304645E+03</pdfrwt>
<pdfrwt beam="2">  1       21 0.49000569E-01 0.21304645E+03</pdfrwt>
<totfact> 0.68042246E+04</totfact>
</mgrwt>
</event>
<event>
 4    1  0.4451819E+000  0.2325290E+03  0.7546771E-02  0.1124872E+00
         21   -1    0    0  503  502  0.00000000000E+00  0.00000000000E+00  0.55658241672E+03  0.55658241672E+03  0.00000000000E+00 0.  1.
         21   -1    0    0  501  503 -0.00000000000E+00 -0.00000000000E+00 -0.14398189354E+03  0.14398189354E+03  0.00000000000E+00 0. -1.
          6    1    1    2  501    0  0.73391586508E+02 -0.13694681677E+03  0.65195863800E+01  0.23262042172E+03  0.17300000000E+03 0. -1.
         -6    1    1    2    0  502 -0.73391586508E+02  0.13694681677E+03  0.40608093680E+03  0.46794388854E+03  0.17300000000E+03 0.  1.
<mgrwt>
<rscale>  2 0.23252904E+03</rscale>
<asrwt>0</asrwt>
<pdfrwt beam="1">  1       21 0.85628063E-01 0.23252904E+03</pdfrwt>
<pdfrwt beam="2">  1       21 0.22151061E-01 0.23252904E+03</pdfrwt>
<totfact> 0.21949467E+04</totfact>
</mgrwt>
</event>
<event>
 4    1  0.4451819E+000  0.1874036E+03  0.7546771E-02  0.1160824E+00
         21   -1    0    0  501  502  0.00000000000E+00  0.00000000000E+00  0.38854425144E+02  0.38854425144E+02  0.00000000000E+00 0.  1.
         21   -1    0    0  502  503 -0.00000000000E+00 -0.00000000000E+00 -0.95892934557E+03  0.95892934557E+03  0.00000000000E+00 0. -1.
          6    1    1    2  501    0  0.68276198103E+02  0.23010524524E+02 -0.34051485296E+03  0.38867787247E+03  0.17300000000E+03 0.  1.
         -6    1    1    2    0  503 -0.68276198103E+02 -0.23010524524E+02 -0.57956006747E+03  0.60910589824E+03  0.17300000000E+03 0.  1.
<mgrwt>
<rscale>  2 0.18740364E+03</rscale>
<asrwt>0</asrwt>
<pdfrwt beam="1">  1       21 0.59776042E-02 0.18740364E+03</pdfrwt>
<pdfrwt beam="2">  1       21 0.14752758E+00 0.18740364E+03</pdfrwt>
<totfact> 0.62133454E+04</totfact>
</mgrwt>
</event>
<event>
 4    1  0.4451819E+000  0.1846674E+03  0.7546771E-02  0.1163361E+00
         21   -1    0    0  503  502  0.00000000000E+00  0.00000000000E+00  0.56140238332E+02  0.56140238332E+02  0.00000000000E+00 0.  1.
         21   -1    0    0  501  503 -0.00000000000E+00 -0.00000000000E+00 -0.64693699512E+03  0.64693699512E+03  0.00000000000E+00 0.  1.
          6    1    1    2  501    0  0.28468700012E+02  0.57987726015E+02 -0.38225498029E+03  0.42452433759E+03  0.17300000000E+03 0.  1.
         -6    1    1    2    0  502 -0.28468700012E+02 -0.57987726015E+02 -0.20854177650E+03  0.27855289586E+03  0.17300000000E+03 0.  1.
<mgrwt>
<rscale>  2 0.18466739E+03</rscale>
<asrwt>0</asrwt>
<pdfrwt beam="1">  1       21 0.86369603E-02 0.18466739E+03</pdfrwt>
<pdfrwt beam="2">  1       21 0.99528762E-01 0.18466739E+03</pdfrwt>
<totfact> 0.87456991E+04</totfact>
</mgrwt>
</event>
<event>
 4    1  0.4451819E+000  0.2629688E+03  0.7546771E-02  0.1105373E+00
         21   -1    0    0  503  502  0.00000000000E+00  0.00000000000E+00  0.82934199047E+03  0.82934199047E+03  0.00000000000E+00 0.  1.
         21   -1    0    0  501  503 -0.00000000000E+00 -0.00000000000E+00 -0.93758600708E+02  0.93758600708E+02  0.00000000000E+00 0. -1.
          6    1    1    2  501    0  0.15712370186E+02 -0.19742526669E+03  0.52133483317E+03  0.58390292240E+03  0.17300000000E+03 0.  1.
         -6    1    1    2    0  502 -0.15712370186E+02  0.19742526669E+03  0.21424855660E+03  0.33919766878E+03  0.17300000000E+03 0. -1.
<mgrwt>
<rscale>  2 0.26296885E+03</rscale>
<asrwt>0</asrwt>
<pdfrwt beam="1">  1       21 0.12759107E+00 0.26296885E+03</pdfrwt>
<pdfrwt beam="2">  1       21 0.14424401E-01 0.26296885E+03</pdfrwt>
<totfact> 0.18322980E+04</totfact>
</mgrwt>
</event>
<event>
 4    1  0.4451819E+000  0.1927812E+03  0.7546771E-02  0.1155976E+00
         21   -1    0    0  503  502  0.00000000000E+00  0.00000000000E+00  0.43926151323E+02  0.43926151323E+02  0.00000000000E+00 0.  1.
         21   -1    0    0  501  503 -0.00000000000E+00 -0.00000000000E+00 -0.17392952029E+04  0.17392952029E+04  0.00000000000E+00 0.  1.
          6    1    1    2  501    0 -0.77350980900E+02  0.35389713500E+02 -0.14866377342E+04  0.14990851740E+04  0.17300000000E+03 0.  1.
         -6    1    1    2    0  502  0.77350980900E+02 -0.35389713500E+02 -0.20873131733E+03  0.28413618020E+03  0.17300000000E+03 0.  1.
<mgrwt>
<rscale>  2 0.19278124E+03</rscale>
<asrwt>0</asrwt>
<pdfrwt beam="1">  1       21 0.67578707E-02 0.19278124E+03</pdfrwt>
<pdfrwt beam="2">  1       21 0.26758383E+00 0.19278124E+03</pdfrwt>
<totfact> 0.84376970E+03</totfact>
</mgrwt>
</event>
<event>
 4    1  0.4451819E+000  0.1947332E+03  0.7546771E-02  0.1154260E+00
         21   -1    0    0  503  502  0.00000000000E+00  0.00000000000E+00  0.13954701583E+04  0.13954701583E+04  0.00000000000E+00 0.  1.
         21   -1    0    0  501  503 -0.00000000000E+00 -0.00000000000E+00 -0.47694235242E+02  0.47694235242E+02  0.00000000000E+00 0.  1.
          6    1    1    2  501    0  0.88289360718E+02  0.14035641703E+02  0.20058392575E+03  0.27956201767E+03  0.17300000000E+03 0.  1.
         -6    1    1    2    0  502 -0.88289360718E+02 -0.14035641703E+02  0.11471919973E+04  0.11636023759E+04  0.17300000000E+03 0.  1.
<mgrwt>
<rscale>  2 0.19473318E+03</rscale>
<asrwt>0</asrwt>
<pdfrwt beam="1">  1       21 0.21468769E+00 0.19473318E+03</pdfrwt>
<pdfrwt beam="2">  1       21 0.73375757E-02 0.19473318E+03</pdfrwt>
<totfact> 0.15100610E+04</totfact>
</mgrwt>
</event>
<event>
 4    1  0.4451819E+000  0.2369901E+03  0.7546771E-02  0.1121814E+00
         21   -1    0    0  501  502  0.00000000000E+00  0.00000000000E+00  0.12554346451E+04  0.12554346451E+04  0.00000000000E+00 0. -1.
         21   -1    0    0  502  503 -0.00000000000E+00 -0.00000000000E+00 -0.46188977464E+02  0.46188977464E+02  0.00000000000E+00 0.  1.
          6    1    1    2  501    0 -0.46058177074E+02  0.15528669110E+03  0.72001444672E+03  0.75801392836E+03  0.17300000000E+03 0.  1.
         -6    1    1    2    0  503  0.46058177074E+02 -0.15528669110E+03  0.48923122088E+03  0.54360969417E+03  0.17300000000E+03 0.  1.
<mgrwt>
<rscale>  2 0.23699011E+03</rscale>
<asrwt>0</asrwt>
<pdfrwt beam="1">  1       21 0.19314377E+00 0.23699011E+03</pdfrwt>
<pdfrwt beam="2">  1       21 0.71059975E-02 0.23699011E+03</pdfrwt>
<totfact> 0.21261586E+04</totfact>
</mgrwt>
</event>
<event>
 4    1  0.4451819E+000  0.3188926E+03  0.7546771E-02  0.1076160E+00
         21   -1    0    0  501  502  0.00000000000E+00  0.00000000000E+00  0.12488778599E+03  0.12488778599E+03  0.00000000000E+00 0.  1.
         21   -1    0    0  502  503 -0.00000000000E+00 -0.00000000000E+00 -0.88861286364E+03  0.88861286364E+03  0.00000000000E+00 0.  1.
          6    1    1    2  501    0  0.25274404752E+03  0.88791518005E+02 -0.23528925622E+03  0.39629978718E+03  0.17300000000E+03 0.  1.
         -6    1    1    2    0  503 -0.25274404752E+03 -0.88791518005E+02 -0.52843582144E+03  0.61720086245E+03  0.17300000000E+03 0.  1.
<mgrwt>
<rscale>  2 0.31889260E+03</rscale>
<asrwt>0</asrwt>
<pdfrwt beam="1">  1       21 0.19213505E-01 0.31889260E+03</pdfrwt>
<pdfrwt beam="2">  1       21 0.13670967E+00 0.31889260E+03</pdfrwt>
<totfact> 0.87795299E+03</totfact>
</mgrwt>
</event>
<event>
 4    1  0.4451819E+000  0.2131333E+03  0.7546771E-02  0.1139108E+00
         21   -1    0    0  503  502  0.00000000000E+00  0.00000000000E+00  0.22303914047E+03  0.22303914047E+03  0.00000000000E+00 0.  1.
         21   -1    0    0  501  503 -0.00000000000E+00 -0.00000000000E+00 -0.27758189132E+03  0.27758189132E+03  0.00000000000E+00 0.  1.
          6    1    1    2  501    0  0.12132813825E+03  0.27862233247E+02 -0.15643733408E+03  0.26438317017E+03  0.17300000000E+03 0.  1.
         -6    1    1    2    0  502 -0.12132813825E+03 -0.27862233247E+02  0.10189458323E+03  0.23623786162E+03  0.17300000000E+03 0.  1.
<mgrwt>
<rscale>  2 0.21313334E+03</rscale>
<asrwt>0</asrwt>
<pdfrwt beam="1">  1       21 0.34313714E-01 0.21313334E+03</pdfrwt>
<pdfrwt beam="2">  1       21 0.42704906E-01 0.21313334E+03</pdfrwt>
<totfact> 0.42729511E+04</totfact>
</mgrwt>
</event>
<event>
 4    1  0.4451819E+000  0.2074602E+03  0.7546771E-02  0.1143593E+00
         21   -1    0    0  503  502  0.00000000000E+00  0.00000000000E+00  0.23340621921E+03  0.23340621921E+03  0.00000000000E+00 0.  1.
         21   -1    0    0  501  503 -0.00000000000E+00 -0.00000000000E+00 -0.19747732991E+03  0.19747732991E+03  0.00000000000E+00 0.  1.
          6    1    1    2  501    0 -0.71118632275E+02 -0.89737823372E+02  0.73408776822E+02  0.22006495703E+03  0.17300000000E+03 0.  1.
         -6    1    1    2    0  502  0.71118632275E+02  0.89737823372E+02 -0.37479887528E+02  0.21081859209E+03  0.17300000000E+03 0.  1.
<mgrwt>
<rscale>  2 0.20746021E+03</rscale>
<asrwt>0</asrwt>
<pdfrwt beam="1">  1       21 0.35908649E-01 0.20746021E+03</pdfrwt>
<pdfrwt beam="2">  1       21 0.30381128E-01 0.20746021E+03</pdfrwt>
<totfact> 0.77258101E+04</totfact>
</mgrwt>
</event>
<event>
 4    1  0.4451819E+000  0.2044277E+03  0.7546771E-02  0.1146056E+00
         21   -1    0    0  503  502  0.00000000000E+00  0.00000000000E+00  0.99876755582E+02  0.99876755582E+02  0.00000000000E+00 0.  1.
         21   -1    0    0  501  503 -0.00000000000E+00 -0.00000000000E+00 -0.53129112709E+03  0.53129112709E+03  0.00000000000E+00 0. -1.
          6    1    1    2  501    0  0.10133685246E+03  0.39906651698E+02 -0.70250089755E+02  0.21616145268E+03  0.17300000000E+03 0.  1.
         -6    1    1    2    0  502 -0.10133685246E+03 -0.39906651698E+02 -0.36116428175E+03  0.41500642998E+03  0.17300000000E+03 0. -1.
<mgrwt>
<rscale>  2 0.20442773E+03</rscale>
<asrwt>0</asrwt>
<pdfrwt beam="1">  1       21 0.15365655E-01 0.20442773E+03</pdfrwt>
<pdfrwt beam="2">  1       21 0.81737097E-01 0.20442773E+03</pdfrwt>
<totfact> 0.48893322E+04</totfact>
</mgrwt>
</event>
<event>
 4    1  0.4451819E+000  0.1906559E+03  0.7546771E-02  0.1157871E+00
         21   -1    0    0  501  502  0.00000000000E+00  0.00000000000E+00  0.84380719705E+03  0.84380719705E+03  0.00000000000E+00 0. -1.
         21   -1    0    0  502  503 -0.00000000000E+00 -0.00000000000E+00 -0.84016910922E+02  0.84016910922E+02  0.00000000000E+00 0. -1.
          6    1    1    2  501    0 -0.79880065816E+02  0.63121514468E+01  0.70372698783E+03  0.72909624986E+03  0.17300000000E+03 0. -1.
         -6    1    1    2    0  503  0.79880065816E+02 -0.63121514468E+01  0.56063298298E+02  0.19872785810E+03  0.17300000000E+03 0. -1.
<mgrwt>
<rscale>  2 0.19065589E+03</rscale>
<asrwt>0</asrwt>
<pdfrwt beam="1">  1       21 0.12981649E+00 0.19065589E+03</pdfrwt>
<pdfrwt beam="2">  1       21 0.12925679E-01 0.19065589E+03</pdfrwt>
<totfact> 0.22307560E+04</totfact>
</mgrwt>
</event>
<event>
 4    1  0.4451819E+000  0.1747914E+03  0.7546771E-02  0.1172941E+00
         21   -1    0    0  501  502  0.00000000000E+00  0.00000000000E+00  0.57747949403E+03  0.57747949403E+03  0.00000000000E+00 0. -1.
         21   -1    0    0  502  503 -0.00000000000E+00 -0.00000000000E+00 -0.98136812739E+02  0.98136812739E+02  0.00000000000E+00 0. -1.
          6    1    1    2  501    0  0.20059383097E+02  0.14854093179E+02  0.46900734404E+03  0.50051964167E+03  0.17300000000E+03 0. -1.
         -6    1    1    2    0  503 -0.20059383097E+02 -0.14854093179E+02  0.10335337256E+02  0.17509666510E+03  0.17300000000E+03 0. -1.
<mgrwt>
<rscale>  2 0.17479137E+03</rscale>
<asrwt>0</asrwt>
<pdfrwt beam="1">  1       21 0.88842997E-01 0.17479137E+03</pdfrwt>
<pdfrwt beam="2">  1       21 0.15097972E-01 0.17479137E+03</pdfrwt>
<totfact> 0.42352964E+04</totfact>
</mgrwt>
</event>
<event>
 4    1  0.4451819E+000  0.2261790E+03  0.7546771E-02  0.1129358E+00
         21   -1    0    0  503  502  0.00000000000E+00  0.00000000000E+00  0.24343486947E+03  0.24343486947E+03  0.00000000000E+00 0.  1.
         21   -1    0    0  501  503 -0.00000000000E+00 -0.00000000000E+00 -0.36698011962E+03  0.36698011962E+03  0.00000000000E+00 0.  1.
          6    1    1    2  501    0  0.30670292982E+01  0.14566580091E+03 -0.26129601387E+03  0.34559013164E+03  0.17300000000E+03 0.  1.
         -6    1    1    2    0  502 -0.30670292982E+01 -0.14566580091E+03  0.13775076372E+03  0.26482485746E+03  0.17300000000E+03 0.  1.
<mgrwt>
<rscale>  2 0.22617898E+03</rscale>
<asrwt>0</asrwt>
<pdfrwt beam="1">  1       21 0.37451518E-01 0.22617898E+03</pdfrwt>
<pdfrwt beam="2">  1       21 0.56458480E-01 0.22617898E+03</pdfrwt>
<totfact> 0.19901841E+04</totfact>
</mgrwt>
</event>
<event>
 4    1  0.4451819E+000  0.2160192E+03  0.7546771E-02  0.1136886E+00
         21   -1    0    0  501  502  0.00000000000E+00  0.00000000000E+00  0.36101186165E+03  0.36101186165E+03  0.00000000000E+00 0.  1.
         21   -1    0    0  502  503 -0.00000000000E+00 -0.00000000000E+00 -0.13575920333E+03  0.13575920333E+03  0.00000000000E+00 0. -1.
          6    1    1    2  501    0 -0.12867041257E+03 -0.13387553845E+02  0.16697390687E+03  0.27302854657E+03  0.17300000000E+03 0. -1.
         -6    1    1    2    0  503  0.12867041257E+03  0.13387553845E+02  0.58278751452E+02  0.22374251840E+03  0.17300000000E+03 0.  1.
<mgrwt>
<rscale>  2 0.21601922E+03</rscale>
<asrwt>0</asrwt>
<pdfrwt beam="1">  1       21 0.55540286E-01 0.21601922E+03</pdfrwt>
<pdfrwt beam="2">  1       21 0.20886032E-01 0.21601922E+03</pdfrwt>
<totfact> 0.64348807E+04</totfact>
</mgrwt>
</event>
<event>
 4    1  0.4451819E+000  0.1800686E+03  0.7546771E-02  0.1167737E+00
         21   -1    0    0  503  502  0.00000000000E+00  0.00000000000E+00  0.83193596516E+03  0.83193596516E+03  0.00000000000E+00 0. -1.
         21   -1    0    0  501  503 -0.00000000000E+00 -0.00000000000E+00 -0.57631357257E+02  0.57631357257E+02  0.00000000000E+00 0. -1.
          6    1    1    2  501    0  0.34972525554E+02  0.35673892881E+02  0.13408687111E+03  0.22450833655E+03  0.17300000000E+03 0. -1.
         -6    1    1    2    0  502 -0.34972525554E+02 -0.35673892881E+02  0.64021773680E+03  0.66505898587E+03  0.17300000000E+03 0. -1.
<mgrwt>
<rscale>  2 0.18006861E+03</rscale>
<asrwt>0</asrwt>
<pdfrwt beam="1">  1       21 0.12799014E+00 0.18006861E+03</pdfrwt>
<pdfrwt beam="2">  1       21 0.88663633E-02 0.18006861E+03</pdfrwt>
<totfact> 0.45389433E+04</totfact>
</mgrwt>
</event>
<event>
 4    1  0.4451819E+000  0.2186337E+03  0.7546771E-02  0.1134906E+00
         21   -1    0    0  503  502  0.00000000000E+00  0.00000000000E+00  0.56953174036E+02  0.56953174036E+02  0.00000000000E+00 0. -1.
         21   -1    0    0  501  503 -0.00000000000E+00 -0.00000000000E+00 -0.99318806258E+03  0.99318806258E+03  0.00000000000E+00 0.  1.
          6    1    1    2  501    0  0.29273941028E+02 -0.13044050913E+03 -0.67480157663E+03  0.70933620933E+03  0.17300000000E+03 0. -1.
         -6    1    1    2    0  502 -0.29273941028E+02  0.13044050913E+03 -0.26143331192E+03  0.34080502729E+03  0.17300000000E+03 0.  1.
<mgrwt>
<rscale>  2 0.21863369E+03</rscale>
<asrwt>0</asrwt>
<pdfrwt beam="1">  1       21 0.87620273E-02 0.21863369E+03</pdfrwt>
<pdfrwt beam="2">  1       21 0.15279816E+00 0.21863369E+03</pdfrwt>
<totfact> 0.28680049E+04</totfact>
</mgrwt>
</event>
<event>
 4    1  0.4451819E+000  0.1761197E+03  0.7546771E-02  0.1171612E+00
         21   -1    0    0  501  502  0.00000000000E+00  0.00000000000E+00  0.37780645892E+03  0.37780645892E+03  0.00000000000E+00 0.  1.
         21   -1    0    0  502  503 -0.00000000000E+00 -0.00000000000E+00 -0.32499042068E+03  0.32499042068E+03  0.00000000000E+00 0.  1.
          6    1    1    2  501    0  0.12147401027E+02  0.30685254170E+02  0.33019502181E+03  0.37422840166E+03  0.17300000000E+03 0.  1.
         -6    1    1    2    0  503 -0.12147401027E+02 -0.30685254170E+02 -0.27737898357E+03  0.32856847795E+03  0.17300000000E+03 0.  1.
<mgrwt>
<rscale>  2 0.17611969E+03</rscale>
<asrwt>0</asrwt>
<pdfrwt beam="1">  1       21 0.58124070E-01 0.17611969E+03</pdfrwt>
<pdfrwt beam="2">  1       21 0.49998527E-01 0.17611969E+03</pdfrwt>
<totfact> 0.10690562E+04</totfact>
</mgrwt>
</event>
<event>
 4    1  0.4451819E+000  0.2022646E+03  0.7546771E-02  0.1147842E+00
         21   -1    0    0  503  502  0.00000000000E+00  0.00000000000E+00  0.30568927169E+03  0.30568927169E+03  0.00000000000E+00 0.  1.
         21   -1    0    0  501  503 -0.00000000000E+00 -0.00000000000E+00 -0.21600159570E+03  0.21600159570E+03  0.00000000000E+00 0.  1.
          6    1    1    2  501    0  0.86264701679E+02  0.59500994980E+02 -0.11603935420E+03  0.23318683257E+03  0.17300000000E+03 0.  1.
         -6    1    1    2    0  502 -0.86264701679E+02 -0.59500994980E+02  0.20572703019E+03  0.28850403482E+03  0.17300000000E+03 0.  1.
<mgrwt>
<rscale>  2 0.20226460E+03</rscale>
<asrwt>0</asrwt>
<pdfrwt beam="1">  1       21 0.47029118E-01 0.20226460E+03</pdfrwt>
<pdfrwt beam="2">  1       21 0.33231015E-01 0.20226460E+03</pdfrwt>
<totfact> 0.37542068E+04</totfact>
</mgrwt>
</event>
<event>
 4    1  0.4451819E+000  0.3137068E+03  0.7546771E-02  0.1078583E+00
         21   -1    0    0  503  502  0.00000000000E+00  0.00000000000E+00  0.83829509639E+03  0.83829509639E+03  0.00000000000E+00 0.  1.
         21   -1    0    0  501  503 -0.00000000000E+00 -0.00000000000E+00 -0.12743762353E+03  0.12743762353E+03  0.00000000000E+00 0.  1.
          6    1    1    2  501    0  0.11826095366E+03  0.23344655643E+03  0.21988042885E+03  0.38309183085E+03  0.17300000000E+03 0.  1.
         -6    1    1    2    0  502 -0.11826095366E+03 -0.23344655643E+03  0.49097704400E+03  0.58264088907E+03  0.17300000000E+03 0.  1.
<mgrwt>
<rscale>  2 0.31370679E+03</rscale>
<asrwt>0</asrwt>
<pdfrwt beam="1">  1       21 0.12896847E+00 0.31370679E+03</pdfrwt>
<pdfrwt beam="2">  1       21 0.19605789E-01 0.31370679E+03</pdfrwt>
<totfact> 0.98456835E+03</totfact>
</mgrwt>
</event>
<event>
 4    1  0.4451819E+000  0.2557191E+03  0.7546771E-02  0.1109743E+00
         21   -1    0    0  503  502  0.00000000000E+00  0.00000000000E+00  0.17338389515E+04  0.17338389515E+04  0.00000000000E+00 0. -1.
         21   -1    0    0  501  503 -0.00000000000E+00 -0.00000000000E+00 -0.42063782631E+02  0.42063782631E+02  0.00000000000E+00 0. -1.
          6    1    1    2  501    0 -0.39235452049E+02  0.18418430380E+03  0.56038946840E+03  0.61597778755E+03  0.17300000000E+03 0. -1.
         -6    1    1    2    0  502  0.39235452049E+02 -0.18418430380E+03  0.11313857005E+04  0.11599249466E+04  0.17300000000E+03 0. -1.
<mgrwt>
<rscale>  2 0.25571914E+03</rscale>
<asrwt>0</asrwt>
<pdfrwt beam="1">  1       21 0.26674440E+00 0.25571914E+03</pdfrwt>
<pdfrwt beam="2">  1       21 0.64713525E-02 0.25571914E+03</pdfrwt>
<totfact> 0.86943947E+03</totfact>
</mgrwt>
</event>
<event>
 4    1  0.4451819E+000  0.2250966E+03  0.7546771E-02  0.1130139E+00
         21   -1    0    0  501  502  0.00000000000E+00  0.00000000000E+00  0.12304421505E+03  0.12304421505E+03  0.00000000000E+00 0.  1.
         21   -1    0    0  502  503 -0.00000000000E+00 -0.00000000000E+00 -0.46795869322E+03  0.46795869322E+03  0.00000000000E+00 0. -1.
          6    1    1    2  501    0 -0.60408772515E+02  0.13072966741E+03 -0.70080747018E+02  0.23575363590E+03  0.17300000000E+03 0.  1.
         -6    1    1    2    0  503  0.60408772515E+02 -0.13072966741E+03 -0.27483373115E+03  0.35524927237E+03  0.17300000000E+03 0. -1.
<mgrwt>
<rscale>  2 0.22509657E+03</rscale>
<asrwt>0</asrwt>
<pdfrwt beam="1">  1       21 0.18929879E-01 0.22509657E+03</pdfrwt>
<pdfrwt beam="2">  1       21 0.71993645E-01 0.22509657E+03</pdfrwt>
<totfact> 0.43829134E+04</totfact>
</mgrwt>
</event>
<event>
 4    1  0.4451819E+000  0.1985258E+03  0.7546771E-02  0.1150989E+00
         21   -1    0    0  503  502  0.00000000000E+00  0.00000000000E+00  0.81530233788E+03  0.81530233788E+03  0.00000000000E+00 0. -1.
         21   -1    0    0  501  503 -0.00000000000E+00 -0.00000000000E+00 -0.57708664483E+02  0.57708664483E+02  0.00000000000E+00 0. -1.
          6    1    1    2  501    0 -0.93055204676E+02  0.28709351229E+02  0.20292925452E+03  0.28388867590E+03  0.17300000000E+03 0. -1.
         -6    1    1    2    0  502  0.93055204676E+02 -0.28709351229E+02  0.55466441888E+03  0.58912232647E+03  0.17300000000E+03 0. -1.
<mgrwt>
<rscale>  2 0.19852581E+03</rscale>
<asrwt>0</asrwt>
<pdfrwt beam="1">  1       21 0.12543112E+00 0.19852581E+03</pdfrwt>
<pdfrwt beam="2">  1       21 0.88782567E-02 0.19852581E+03</pdfrwt>
<totfact> 0.47162547E+04</totfact>
</mgrwt>
</event>
<event>
 4    1  0.4451819E+000  0.2211984E+03  0.7546771E-02  0.1132993E+00
         21   -1    0    0  503  502  0.00000000000E+00  0.00000000000E+00  0.20824739286E+04  0.20824739286E+04  0.00000000000E+00 0. -1.
         21   -1    0    0  501  503 -0.00000000000E+00 -0.00000000000E+00 -0.36177963358E+02  0.36177963358E+02  0.00000000000E+00 0. -1.
          6    1    1    2  501    0 -0.12156273196E+03 -0.64978696724E+02  0.39594275774E+03  0.45354095321E+03  0.17300000000E+03 0. -1.
         -6    1    1    2    0  502  0.12156273196E+03  0.64978696724E+02  0.16503532075E+04  0.16651109388E+04  0.17300000000E+03 0. -1.
<mgrwt>
<rscale>  2 0.22119839E+03</rscale>
<asrwt>0</asrwt>
<pdfrwt beam="1">  1       21 0.32038051E+00 0.22119839E+03</pdfrwt>
<pdfrwt beam="2">  1       21 0.55658421E-02 0.22119839E+03</pdfrwt>
<totfact> 0.56533283E+03</totfact>
</mgrwt>
</event>
<event>
 4    1  0.4451819E+000  0.1906258E+03  0.7546771E-02  0.1157898E+00
         21   -1    0    0  501  502  0.00000000000E+00  0.00000000000E+00  0.44635935427E+03  0.44635935427E+03  0.00000000000E+00 0.  1.
         21   -1    0    0  502  503 -0.00000000000E+00 -0.00000000000E+00 -0.15751308482E+03  0.15751308482E+03  0.00000000000E+00 0.  1.
          6    1    1    2  501    0  0.62777039341E+02 -0.49681270680E+02  0.35429662052E+03  0.40232360189E+03  0.17300000000E+03 0.  1.
         -6    1    1    2    0  503 -0.62777039341E+02  0.49681270680E+02 -0.65450351067E+02  0.20154883721E+03  0.17300000000E+03 0.  1.
<mgrwt>
<rscale>  2 0.19062577E+03</rscale>
<asrwt>0</asrwt>
<pdfrwt beam="1">  1       21 0.68670669E-01 0.19062577E+03</pdfrwt>
<pdfrwt beam="2">  1       21 0.24232782E-01 0.19062577E+03</pdfrwt>
<totfact> 0.31102157E+04</totfact>
</mgrwt>
</event>
<event>
 4    1  0.4451819E+000  0.1885182E+03  0.7546771E-02  0.1159805E+00
         21   -1    0    0  501  502  0.00000000000E+00  0.00000000000E+00  0.44988302968E+03  0.44988302968E+03  0.00000000000E+00 0.  1.
         21   -1    0    0  502  503 -0.00000000000E+00 -0.00000000000E+00 -0.83146669834E+02  0.83146669834E+02  0.00000000000E+00 0.  1.
          6    1    1    2  501    0 -0.62577943270E+02 -0.41159390036E+02  0.24291278626E+03  0.30748287123E+03  0.17300000000E+03 0.  1.
         -6    1    1    2    0  503  0.62577943270E+02  0.41159390036E+02  0.12382357358E+03  0.22554682828E+03  0.17300000000E+03 0.  1.
<mgrwt>
<rscale>  2 0.18851815E+03</rscale>
<asrwt>0</asrwt>
<pdfrwt beam="1">  1       21 0.69212773E-01 0.18851815E+03</pdfrwt>
<pdfrwt beam="2">  1       21 0.12791796E-01 0.18851815E+03</pdfrwt>
<totfact> 0.99566888E+04</totfact>
</mgrwt>
</event>
<event>
 4    1  0.4451819E+000  0.2016532E+03  0.7546771E-02  0.1148352E+00
         21   -1    0    0  501  502  0.00000000000E+00  0.00000000000E+00  0.59020175097E+02  0.59020175097E+02  0.00000000000E+00 0. -1.
         21   -1    0    0  502  503 -0.00000000000E+00 -0.00000000000E+00 -0.84808182917E+03  0.84808182917E+03  0.00000000000E+00 0. -1.
          6    1    1    2  501    0  0.10277983626E+03 -0.13088866410E+02 -0.19808714572E+03  0.28267035654E+03  0.17300000000E+03 0. -1.
         -6    1    1    2    0  503 -0.10277983626E+03  0.13088866410E+02 -0.59097450835E+03  0.62443164773E+03  0.17300000000E+03 0. -1.
<mgrwt>
<rscale>  2 0.20165320E+03</rscale>
<asrwt>0</asrwt>
<pdfrwt beam="1">  1       21 0.90800272E-02 0.20165320E+03</pdfrwt>
<pdfrwt beam="2">  1       21 0.13047412E+00 0.20165320E+03</pdfrwt>
<totfact> 0.40982809E+04</totfact>
</mgrwt>
</event>
<event>
 4    1  0.4451819E+000  0.1880536E+03  0.7546771E-02  0.1160229E+00
         21   -1    0    0  503  502  0.00000000000E+00  0.00000000000E+00  0.19330556195E+03  0.19330556195E+03  0.00000000000E+00 0.  1.
         21   -1    0    0  501  503 -0.00000000000E+00 -0.00000000000E+00 -0.20085522221E+03  0.20085522221E+03  0.00000000000E+00 0.  1.
          6    1    1    2  501    0  0.33343063807E+02  0.65752525888E+02 -0.62626743397E+02  0.19820762738E+03  0.17300000000E+03 0.  1.
         -6    1    1    2    0  502 -0.33343063807E+02 -0.65752525888E+02  0.55077083140E+02  0.19595315678E+03  0.17300000000E+03 0.  1.
<mgrwt>
<rscale>  2 0.18805359E+03</rscale>
<asrwt>0</asrwt>
<pdfrwt beam="1">  1       21 0.29739317E-01 0.18805359E+03</pdfrwt>
<pdfrwt beam="2">  1       21 0.30900804E-01 0.18805359E+03</pdfrwt>
<totfact> 0.10920239E+05</totfact>
</mgrwt>
</event>
<event>
 4    1  0.4451819E+000  0.1926789E+03  0.7546771E-02  0.1156067E+00
         21   -1    0    0  503  502  0.00000000000E+00  0.00000000000E+00  0.66484433641E+03  0.66484433641E+03  0.00000000000E+00 0.  1.
         21   -1    0    0  501  503 -0.00000000000E+00 -0.00000000000E+00 -0.56906616282E+02  0.56906616282E+02  0.00000000000E+00 0.  1.
          6    1    1    2  501    0 -0.83592357019E+02  0.14438055137E+02  0.25457089166E+03  0.31926709582E+03  0.17300000000E+03 0.  1.
         -6    1    1    2    0  502  0.83592357019E+02 -0.14438055137E+02  0.35336682846E+03  0.40248385688E+03  0.17300000000E+03 0.  1.
<mgrwt>
<rscale>  2 0.19267885E+03</rscale>
<asrwt>0</asrwt>
<pdfrwt beam="1">  1       21 0.10228374E+00 0.19267885E+03</pdfrwt>
<pdfrwt beam="2">  1       21 0.87548645E-02 0.19267885E+03</pdfrwt>
<totfact> 0.79763292E+04</totfact>
</mgrwt>
</event>
<event>
 4    1  0.4451819E+000  0.2325249E+03  0.7546771E-02  0.1124875E+00
         21   -1    0    0  503  502  0.00000000000E+00  0.00000000000E+00  0.14384416805E+04  0.14384416805E+04  0.00000000000E+00 0. -1.
         21   -1    0    0  501  503 -0.00000000000E+00 -0.00000000000E+00 -0.38114463751E+02  0.38114463751E+02  0.00000000000E+00 0. -1.
          6    1    1    2  501    0 -0.43542726187E+02 -0.14914035906E+03  0.61337675225E+03  0.65597168834E+03  0.17300000000E+03 0. -1.
         -6    1    1    2    0  502  0.43542726187E+02  0.14914035906E+03  0.78695046450E+03  0.82058445591E+03  0.17300000000E+03 0. -1.
<mgrwt>
<rscale>  2 0.23252487E+03</rscale>
<asrwt>0</asrwt>
<pdfrwt beam="1">  1       21 0.22129868E+00 0.23252487E+03</pdfrwt>
<pdfrwt beam="2">  1       21 0.58637648E-02 0.23252487E+03</pdfrwt>
<totfact> 0.19651715E+04</totfact>
</mgrwt>
</event>
<event>
 4    1  0.4451819E+000  0.2230106E+03  0.7546771E-02  0.1131658E+00
         21   -1    0    0  501  502  0.00000000000E+00  0.00000000000E+00  0.13933127972E+03  0.13933127972E+03  0.00000000000E+00 0.  1.
         21   -1    0    0  502  503 -0.00000000000E+00 -0.00000000000E+00 -0.36138660594E+03  0.36138660594E+03  0.00000000000E+00 0.  1.
          6    1    1    2  501    0 -0.19493359539E+02  0.13937259249E+03 -0.83274687117E+02  0.23805122163E+03  0.17300000000E+03 0.  1.
         -6    1    1    2    0  503  0.19493359539E+02 -0.13937259249E+03 -0.13878063910E+03  0.26266666403E+03  0.17300000000E+03 0.  1.
<mgrwt>
<rscale>  2 0.22301056E+03</rscale>
<asrwt>0</asrwt>
<pdfrwt beam="1">  1       21 0.21435581E-01 0.22301056E+03</pdfrwt>
<pdfrwt beam="2">  1       21 0.55597939E-01 0.22301056E+03</pdfrwt>
<totfact> 0.60959313E+04</totfact>
</mgrwt>
</event>
<event>
 4    1  0.4451819E+000  0.1777142E+03  0.7546771E-02  0.1170034E+00
         21   -1    0    0  503  502  0.00000000000E+00  0.00000000000E+00  0.10105768942E+04  0.10105768942E+04  0.00000000000E+00 0. -1.
         21   -1    0    0  501  503 -0.00000000000E+00 -0.00000000000E+00 -0.57622711379E+03  0.57622711379E+03  0.00000000000E+00 0. -1.
          6    1    1    2  501    0  0.38995680487E+02 -0.11518180857E+02 -0.55441205203E+03  0.58219846704E+03  0.17300000000E+03 0. -1.
         -6    1    1    2    0  502 -0.38995680487E+02  0.11518180857E+02  0.98876183247E+03  0.10046055410E+04  0.17300000000E+03 0. -1.
<mgrwt>
<rscale>  2 0.17771419E+03</rscale>
<asrwt>0</asrwt>
<pdfrwt beam="1">  1       21 0.15547337E+00 0.17771419E+03</pdfrwt>
<pdfrwt beam="2">  1       21 0.88650325E-01 0.17771419E+03</pdfrwt>
<totfact> 0.30142811E+02</totfact>
</mgrwt>
</event>
<event>
 4    1  0.4451819E+000  0.1809408E+03  0.7546771E-02  0.1166896E+00
         21   -1    0    0  501  502  0.00000000000E+00  0.00000000000E+00  0.11455362627E+03  0.11455362627E+03  0.00000000000E+00 0. -1.
         21   -1    0    0  502  503 -0.00000000000E+00 -0.00000000000E+00 -0.35812336630E+03  0.35812336630E+03  0.00000000000E+00 0. -1.
          6    1    1    2  501    0  0.28540304922E+02 -0.44676704718E+02 -0.15577652043E+02  0.18161007734E+03  0.17300000000E+03 0. -1.
         -6    1    1    2    0  503 -0.28540304922E+02  0.44676704718E+02 -0.22799208799E+03  0.29106691522E+03  0.17300000000E+03 0. -1.
<mgrwt>
<rscale>  2 0.18094076E+03</rscale>
<asrwt>0</asrwt>
<pdfrwt beam="1">  1       21 0.17623635E-01 0.18094076E+03</pdfrwt>
<pdfrwt beam="2">  1       21 0.55095903E-01 0.18094076E+03</pdfrwt>
<totfact> 0.91141714E+04</totfact>
</mgrwt>
</event>
<event>
 4    1  0.4451819E+000  0.1905475E+03  0.7546771E-02  0.1157968E+00
         21   -1    0    0  503  502  0.00000000000E+00  0.00000000000E+00  0.68012013781E+02  0.68012013781E+02  0.00000000000E+00 0.  1.
         21   -1    0    0  501  503 -0.00000000000E+00 -0.00000000000E+00 -0.95733335316E+03  0.95733335316E+03  0.00000000000E+00 0. -1.
          6    1    1    2  501    0  0.66401835569E+02  0.44386292797E+02 -0.78563819160E+03  0.80841555827E+03  0.17300000000E+03 0. -1.
         -6    1    1    2    0  502 -0.66401835569E+02 -0.44386292797E+02 -0.10368314777E+03  0.21692980867E+03  0.17300000000E+03 0.  1.
<mgrwt>
<rscale>  2 0.19054749E+03</rscale>
<asrwt>0</asrwt>
<pdfrwt beam="1">  1       21 0.10463387E-01 0.19054749E+03</pdfrwt>
<pdfrwt beam="2">  1       21 0.14728205E+00 0.19054749E+03</pdfrwt>
<totfact> 0.23519826E+04</totfact>
</mgrwt>
</event>
<event>
 4    1  0.4451819E+000  0.1768968E+03  0.7546771E-02  0.1170841E+00
         21   -1    0    0  503  502  0.00000000000E+00  0.00000000000E+00  0.56594824743E+03  0.56594824743E+03  0.00000000000E+00 0. -1.
         21   -1    0    0  501  503 -0.00000000000E+00 -0.00000000000E+00 -0.15002351372E+03  0.15002351372E+03  0.00000000000E+00 0. -1.
          6    1    1    2  501    0 -0.11345058851E+01  0.36908107588E+02 -0.76505440673E+02  0.19273188102E+03  0.17300000000E+03 0. -1.
         -6    1    1    2    0  502  0.11345058851E+01 -0.36908107588E+02  0.49243017438E+03  0.52323988012E+03  0.17300000000E+03 0. -1.
<mgrwt>
<rscale>  2 0.17689685E+03</rscale>
<asrwt>0</asrwt>
<pdfrwt beam="1">  1       21 0.87068960E-01 0.17689685E+03</pdfrwt>
<pdfrwt beam="2">  1       21 0.23080541E-01 0.17689685E+03</pdfrwt>
<totfact> 0.20187184E+04</totfact>
</mgrwt>
</event>
<event>
 4    1  0.4451819E+000  0.1906185E+03  0.7546771E-02  0.1157905E+00
         21   -1    0    0  503  502  0.00000000000E+00  0.00000000000E+00  0.80660045709E+02  0.80660045709E+02  0.00000000000E+00 0.  1.
         21   -1    0    0  501  503 -0.00000000000E+00 -0.00000000000E+00 -0.62562921922E+03  0.62562921922E+03  0.00000000000E+00 0.  1.
          6    1    1    2  501    0  0.33132636288E+02 -0.72860427644E+02 -0.45933892220E+03  0.49732047912E+03  0.17300000000E+03 0. -1.
         -6    1    1    2    0  502 -0.33132636288E+02  0.72860427644E+02 -0.85630251314E+02  0.20896878581E+03  0.17300000000E+03 0. -1.
<mgrwt>
<rscale>  2 0.19061850E+03</rscale>
<asrwt>0</asrwt>
<pdfrwt beam="1">  1       21 0.12409238E-01 0.19061850E+03</pdfrwt>
<pdfrwt beam="2">  1       21 0.96250648E-01 0.19061850E+03</pdfrwt>
<totfact> 0.49696224E+04</totfact>
</mgrwt>
</event>
<event>
 4    1  0.4451819E+000  0.1772291E+03  0.7546771E-02  0.1170512E+00
         21   -1    0    0  501  502  0.00000000000E+00  0.00000000000E+00  0.86666043176E+02  0.86666043176E+02  0.00000000000E+00 0. -1.
         21   -1    0    0  502  503 -0.00000000000E+00 -0.00000000000E+00 -0.45617874293E+03  0.45617874293E+03  0.00000000000E+00 0. -1.
          6    1    1    2  501    0 -0.38307850510E+01  0.38294447516E+02 -0.61710450686E+02  0.18766544527E+03  0.17300000000E+03 0. -1.
         -6    1    1    2    0  503  0.38307850510E+01 -0.38294447516E+02 -0.30780224907E+03  0.35517934084E+03  0.17300000000E+03 0. -1.
<mgrwt>
<rscale>  2 0.17722906E+03</rscale>
<asrwt>0</asrwt>
<pdfrwt beam="1">  1       21 0.13333237E-01 0.17722906E+03</pdfrwt>
<pdfrwt beam="2">  1       21 0.70181345E-01 0.17722906E+03</pdfrwt>
<totfact> 0.90031946E+04</totfact>
</mgrwt>
</event>
<event>
 4    1  0.4451819E+000  0.2455407E+03  0.7546771E-02  0.1116156E+00
         21   -1    0    0  501  502  0.00000000000E+00  0.00000000000E+00  0.10072652158E+03  0.10072652158E+03  0.00000000000E+00 0. -1.
         21   -1    0    0  502  503 -0.00000000000E+00 -0.00000000000E+00 -0.73759314916E+03  0.73759314916E+03  0.00000000000E+00 0.  1.
          6    1    1    2  501    0 -0.52834040999E+02  0.16604150750E+03 -0.13644627370E+03  0.28090532872E+03  0.17300000000E+03 0. -1.
         -6    1    1    2    0  503  0.52834040999E+02 -0.16604150750E+03 -0.50042035388E+03  0.55741434201E+03  0.17300000000E+03 0.  1.
<mgrwt>
<rscale>  2 0.24554066E+03</rscale>
<asrwt>0</asrwt>
<pdfrwt beam="1">  1       21 0.15496388E-01 0.24554066E+03</pdfrwt>
<pdfrwt beam="2">  1       21 0.11347587E+00 0.24554066E+03</pdfrwt>
<totfact> 0.21722651E+04</totfact>
</mgrwt>
</event>
<event>
 4    1  0.4451819E+000  0.2154404E+03  0.7546771E-02  0.1137329E+00
         21   -1    0    0  503  502  0.00000000000E+00  0.00000000000E+00  0.19593038124E+04  0.19593038124E+04  0.00000000000E+00 0.  1.
         21   -1    0    0  501  503 -0.00000000000E+00 -0.00000000000E+00 -0.29150053384E+02  0.29150053384E+02  0.00000000000E+00 0. -1.
          6    1    1    2  501    0  0.12793365643E+03  0.10888299300E+02  0.53475708650E+03  0.57652382177E+03  0.17300000000E+03 0. -1.
         -6    1    1    2    0  502 -0.12793365643E+03 -0.10888299300E+02  0.13953966725E+04  0.14119300440E+04  0.17300000000E+03 0.  1.
<mgrwt>
<rscale>  2 0.21544042E+03</rscale>
<asrwt>0</asrwt>
<pdfrwt beam="1">  1       21 0.30143125E+00 0.21544042E+03</pdfrwt>
<pdfrwt beam="2">  1       21 0.44846251E-02 0.21544042E+03</pdfrwt>
<totfact> 0.10578653E+04</totfact>
</mgrwt>
</event>
<event>
 4    1  0.4451819E+000  0.1751897E+03  0.7546771E-02  0.1172541E+00
         21   -1    0    0  503  502  0.00000000000E+00  0.00000000000E+00  0.97944661265E+03  0.97944661265E+03  0.00000000000E+00 0. -1.
         21   -1    0    0  501  503 -0.00000000000E+00 -0.00000000000E+00 -0.10976838466E+03  0.10976838466E+03  0.00000000000E+00 0. -1.
          6    1    1    2  501    0  0.12600599378E+02  0.24569531853E+02 -0.25517205336E+02  0.17703831441E+03  0.17300000000E+03 0. -1.
         -6    1    1    2    0  502 -0.12600599378E+02 -0.24569531853E+02  0.89519543332E+03  0.91217668291E+03  0.17300000000E+03 0. -1.
<mgrwt>
<rscale>  2 0.17518972E+03</rscale>
<asrwt>0</asrwt>
<pdfrwt beam="1">  1       21 0.15068409E+00 0.17518972E+03</pdfrwt>
<pdfrwt beam="2">  1       21 0.16887444E-01 0.17518972E+03</pdfrwt>
<totfact> 0.94557460E+03</totfact>
</mgrwt>
</event>
<event>
 4    1  0.4451819E+000  0.2129790E+03  0.7546771E-02  0.1139228E+00
         21   -1    0    0  501  502  0.00000000000E+00  0.00000000000E+00  0.15445883738E+03  0.15445883738E+03  0.00000000000E+00 0. -1.
         21   -1    0    0  502  503 -0.00000000000E+00 -0.00000000000E+00 -0.51874649228E+03  0.51874649228E+03  0.00000000000E+00 0.  1.
          6    1    1    2  501    0 -0.52628717915E+02 -0.11252223328E+03  0.39575910645E+02  0.21662476228E+03  0.17300000000E+03 0. -1.
         -6    1    1    2    0  503  0.52628717915E+02  0.11252223328E+03 -0.40386356554E+03  0.45658056737E+03  0.17300000000E+03 0.  1.
<mgrwt>
<rscale>  2 0.21297895E+03</rscale>
<asrwt>0</asrwt>
<pdfrwt beam="1">  1       21 0.23762898E-01 0.21297895E+03</pdfrwt>
<pdfrwt beam="2">  1       21 0.79807153E-01 0.21297895E+03</pdfrwt>
<totfact> 0.22799282E+04</totfact>
</mgrwt>
</event>
<event>
 4    1  0.4451819E+000  0.2186635E+03  0.7546771E-02  0.1134883E+00
         21   -1    0    0  503  502  0.00000000000E+00  0.00000000000E+00  0.45728265669E+03  0.45728265669E+03  0.00000000000E+00 0. -1.
         21   -1    0    0  501  503 -0.00000000000E+00 -0.00000000000E+00 -0.28480121138E+03  0.28480121138E+03  0.00000000000E+00 0. -1.
          6    1    1    2  501    0  0.13183264138E+03 -0.22469567546E+02 -0.20893352381E+03  0.30243502471E+03  0.17300000000E+03 0. -1.
         -6    1    1    2    0  502 -0.13183264138E+03  0.22469567546E+02  0.38141496912E+03  0.43964884336E+03  0.17300000000E+03 0. -1.
<mgrwt>
<rscale>  2 0.21866350E+03</rscale>
<asrwt>0</asrwt>
<pdfrwt beam="1">  1       21 0.70351178E-01 0.21866350E+03</pdfrwt>
<pdfrwt beam="2">  1       21 0.43815571E-01 0.21866350E+03</pdfrwt>
<totfact> 0.90104604E+03</totfact>
</mgrwt>
</event>
<event>
 4    1  0.4451819E+000  0.1773279E+03  0.7546771E-02  0.1170414E+00
         21   -1    0    0  503  502  0.00000000000E+00  0.00000000000E+00  0.65933196352E+02  0.65933196352E+02  0.00000000000E+00 0. -1.
         21   -1    0    0  501  503 -0.00000000000E+00 -0.00000000000E+00 -0.49385010975E+03  0.49385010975E+03  0.00000000000E+00 0.  1.
          6    1    1    2  501    0 -0.16896884167E+02 -0.35080891551E+02 -0.26577414060E+03  0.31950127927E+03  0.17300000000E+03 0.  1.
         -6    1    1    2    0  502  0.16896884167E+02  0.35080891551E+02 -0.16214277280E+03  0.24028202683E+03  0.17300000000E+03 0. -1.
<mgrwt>
<rscale>  2 0.17732787E+03</rscale>
<asrwt>0</asrwt>
<pdfrwt beam="1">  1       21 0.10143569E-01 0.17732787E+03</pdfrwt>
<pdfrwt beam="2">  1       21 0.75976940E-01 0.17732787E+03</pdfrwt>
<totfact> 0.12290609E+05</totfact>
</mgrwt>
</event>
<event>
 4    1  0.4451819E+000  0.2207909E+03  0.7546771E-02  0.1133295E+00
         21   -1    0    0  503  502  0.00000000000E+00  0.00000000000E+00  0.21105685743E+03  0.21105685743E+03  0.00000000000E+00 0. -1.
         21   -1    0    0  501  503 -0.00000000000E+00 -0.00000000000E+00 -0.25060928340E+03  0.25060928340E+03  0.00000000000E+00 0.  1.
          6    1    1    2  501    0  0.43944901363E+02  0.12995561579E+03 -0.84389170172E+02  0.23636867067E+03  0.17300000000E+03 0.  1.
         -6    1    1    2    0  502 -0.43944901363E+02 -0.12995561579E+03  0.44836744202E+02  0.22529747016E+03  0.17300000000E+03 0. -1.
<mgrwt>
<rscale>  2 0.22079089E+03</rscale>
<asrwt>0</asrwt>
<pdfrwt beam="1">  1       21 0.32470286E-01 0.22079089E+03</pdfrwt>
<pdfrwt beam="2">  1       21 0.38555274E-01 0.22079089E+03</pdfrwt>
<totfact> 0.58453536E+04</totfact>
</mgrwt>
</event>
<event>
 4    1  0.4451819E+000  0.1924635E+03  0.7546771E-02  0.1156258E+00
         21   -1    0    0  501  502  0.00000000000E+00  0.00000000000E+00  0.11441841920E+03  0.11441841920E+03  0.00000000000E+00 0. -1.
         21   -1    0    0  502  503 -0.00000000000E+00 -0.00000000000E+00 -0.41214038322E+03  0.41214038322E+03  0.00000000000E+00 0. -1.
          6    1    1    2  501    0  0.84337436646E+02  0.64249133074E+00 -0.26930343733E+02  0.19433851761E+03  0.17300000000E+03 0. -1.
         -6    1    1    2    0  503 -0.84337436646E+02 -0.64249133074E+00 -0.27079162029E+03  0.33222028480E+03  0.17300000000E+03 0. -1.
<mgrwt>
<rscale>  2 0.19246354E+03</rscale>
<asrwt>0</asrwt>
<pdfrwt beam="1">  1       21 0.17602834E-01 0.19246354E+03</pdfrwt>
<pdfrwt beam="2">  1       21 0.63406213E-01 0.19246354E+03</pdfrwt>
<totfact> 0.67307130E+04</totfact>
</mgrwt>
</event>
<event>
 4    1  0.4451819E+000  0.1792595E+03  0.7546771E-02  0.1168522E+00
         21   -1    0    0  503  502  0.00000000000E+00  0.00000000000E+00  0.87338986323E+02  0.87338986323E+02  0.00000000000E+00 0.  1.
         21   -1    0    0  501  503 -0.00000000000E+00 -0.00000000000E+00 -0.39971749934E+03  0.39971749934E+03  0.00000000000E+00 0.  1.
          6    1    1    2  501    0  0.20574892121E+02 -0.42209623934E+02 -0.87505800855E+02  0.19947742660E+03  0.17300000000E+03 0.  1.
         -6    1    1    2    0  502 -0.20574892121E+02  0.42209623934E+02 -0.22487271216E+03  0.28757905907E+03  0.17300000000E+03 0.  1.
<mgrwt>
<rscale>  2 0.17925953E+03</rscale>
<asrwt>0</asrwt>
<pdfrwt beam="1">  1       21 0.13436768E-01 0.17925953E+03</pdfrwt>
<pdfrwt beam="2">  1       21 0.61494998E-01 0.17925953E+03</pdfrwt>
<totfact> 0.11826682E+05</totfact>
</mgrwt>
</event>
<event>
 4    1  0.4451819E+000  0.2070821E+03  0.7546771E-02  0.1143898E+00
         21   -1    0    0  501  502  0.00000000000E+00  0.00000000000E+00  0.98282346667E+03  0.98282346667E+03  0.00000000000E+00 0.  1.
         21   -1    0    0  502  503 -0.00000000000E+00 -0.00000000000E+00 -0.86087413118E+02  0.86087413118E+02  0.00000000000E+00 0.  1.
          6    1    1    2  501    0 -0.90675706176E+02 -0.68788910369E+02  0.82369164637E+03  0.84932380526E+03  0.17300000000E+03 0.  1.
         -6    1    1    2    0  503  0.90675706176E+02  0.68788910369E+02  0.73044407185E+02  0.21958707453E+03  0.17300000000E+03 0.  1.
<mgrwt>
<rscale>  2 0.20708210E+03</rscale>
<asrwt>0</asrwt>
<pdfrwt beam="1">  1       21 0.15120360E+00 0.20708210E+03</pdfrwt>
<pdfrwt beam="2">  1       21 0.13244218E-01 0.20708210E+03</pdfrwt>
<totfact> 0.14239508E+04</totfact>
</mgrwt>
</event>
<event>
 4    1  0.4451819E+000  0.2085344E+03  0.7546771E-02  0.1142732E+00
         21   -1    0    0  501  502  0.00000000000E+00  0.00000000000E+00  0.59454278767E+02  0.59454278767E+02  0.00000000000E+00 0.  1.
         21   -1    0    0  502  503 -0.00000000000E+00 -0.00000000000E+00 -0.90432624941E+03  0.90432624941E+03  0.00000000000E+00 0.  1.
          6    1    1    2  501    0  0.11111067721E+03  0.34813899943E+02 -0.21172873136E+03  0.29717948432E+03  0.17300000000E+03 0.  1.
         -6    1    1    2    0  503 -0.11111067721E+03 -0.34813899943E+02 -0.63314323928E+03  0.66660104385E+03  0.17300000000E+03 0.  1.
<mgrwt>
<rscale>  2 0.20853439E+03</rscale>
<asrwt>0</asrwt>
<pdfrwt beam="1">  1       21 0.91468130E-02 0.20853439E+03</pdfrwt>
<pdfrwt beam="2">  1       21 0.13912710E+00 0.20853439E+03</pdfrwt>
<totfact> 0.34204967E+04</totfact>
</mgrwt>
</event>
<event>
 4    1  0.4451819E+000  0.2044223E+03  0.7546771E-02  0.1146061E+00
         21   -1    0    0  501  502  0.00000000000E+00  0.00000000000E+00  0.52214119296E+02  0.52214119296E+02  0.00000000000E+00 0.  1.
         21   -1    0    0  502  503 -0.00000000000E+00 -0.00000000000E+00 -0.91463662136E+03  0.91463662136E+03  0.00000000000E+00 0. -1.
          6    1    1    2  501    0 -0.10689649444E+03 -0.20799289509E+02 -0.26031094308E+03  0.33098377310E+03  0.17300000000E+03 0.  1.
         -6    1    1    2    0  503  0.10689649444E+03  0.20799289509E+02 -0.60211155898E+03  0.63586696755E+03  0.17300000000E+03 0. -1.
<mgrwt>
<rscale>  2 0.20442229E+03</rscale>
<asrwt>0</asrwt>
<pdfrwt beam="1">  1       21 0.80329418E-02 0.20442229E+03</pdfrwt>
<pdfrwt beam="2">  1       21 0.14071332E+00 0.20442229E+03</pdfrwt>
<totfact> 0.41793661E+04</totfact>
</mgrwt>
</event>
<event>
 4    1  0.4451819E+000  0.2088528E+03  0.7546771E-02  0.1142478E+00
         21   -1    0    0  501  502  0.00000000000E+00  0.00000000000E+00  0.15679909250E+03  0.15679909250E+03  0.00000000000E+00 0. -1.
         21   -1    0    0  502  503 -0.00000000000E+00 -0.00000000000E+00 -0.34949207421E+03  0.34949207421E+03  0.00000000000E+00 0.  1.
          6    1    1    2  501    0  0.11666371238E+03  0.89486225684E+01  0.17996965277E+02  0.20962678834E+03  0.17300000000E+03 0. -1.
         -6    1    1    2    0  503 -0.11666371238E+03 -0.89486225684E+01 -0.21068994698E+03  0.29666437836E+03  0.17300000000E+03 0. -1.
<mgrwt>
<rscale>  2 0.20885282E+03</rscale>
<asrwt>0</asrwt>
<pdfrwt beam="1">  1       21 0.24122938E-01 0.20885282E+03</pdfrwt>
<pdfrwt beam="2">  1       21 0.53768011E-01 0.20885282E+03</pdfrwt>
<totfact> 0.52640455E+04</totfact>
</mgrwt>
</event>
<event>
 4    1  0.4451819E+000  0.1740383E+03  0.7546771E-02  0.1173701E+00
         21   -1    0    0  503  502  0.00000000000E+00  0.00000000000E+00  0.20932514390E+04  0.20932514390E+04  0.00000000000E+00 0.  1.
         21   -1    0    0  501  503 -0.00000000000E+00 -0.00000000000E+00 -0.14469991186E+02  0.14469991186E+02  0.00000000000E+00 0.  1.
          6    1    1    2  501    0 -0.73471728110E+01 -0.17502522908E+02  0.10400146371E+04  0.10544760616E+04  0.17300000000E+03 0. -1.
         -6    1    1    2    0  502  0.73471728110E+01  0.17502522908E+02  0.10387668107E+04  0.10532453685E+04  0.17300000000E+03 0. -1.
<mgrwt>
<rscale>  2 0.17403827E+03</rscale>
<asrwt>0</asrwt>
<pdfrwt beam="1">  1       21 0.32203844E+00 0.17403827E+03</pdfrwt>
<pdfrwt beam="2">  1       21 0.22261541E-02 0.17403827E+03</pdfrwt>
<totfact> 0.26852371E+04</totfact>
</mgrwt>
</event>
<event>
 4    1  0.4451819E+000  0.1903057E+03  0.7546771E-02  0.1158186E+00
         21   -1    0    0  503  502  0.00000000000E+00  0.00000000000E+00  0.45022206387E+02  0.45022206387E+02  0.00000000000E+00 0.  1.
         21   -1    0    0  501  503 -0.00000000000E+00 -0.00000000000E+00 -0.81175710178E+03  0.81175710178E+03  0.00000000000E+00 0.  1.
          6    1    1    2  501    0  0.32183462798E+02  0.72467087560E+02 -0.42412636788E+03  0.46486495887E+03  0.17300000000E+03 0. -1.
         -6    1    1    2    0  502 -0.32183462798E+02 -0.72467087560E+02 -0.34260852751E+03  0.39191434929E+03  0.17300000000E+03 0. -1.
<mgrwt>
<rscale>  2 0.19030569E+03</rscale>
<asrwt>0</asrwt>
<pdfrwt beam="1">  1       21 0.69264941E-02 0.19030569E+03</pdfrwt>
<pdfrwt beam="2">  1       21 0.12488569E+00 0.19030569E+03</pdfrwt>
<totfact> 0.73736886E+04</totfact>
</mgrwt>
</event>
<event>
 4    1  0.4451819E+000  0.1884857E+03  0.7546771E-02  0.1159834E+00
         21   -1    0    0  501  502  0.00000000000E+00  0.00000000000E+00  0.34151998767E+03  0.34151998767E+03  0.00000000000E+00 0.  1.
         21   -1    0    0  502  503 -0.00000000000E+00 -0.00000000000E+00 -0.11350115420E+03  0.11350115420E+03  0.00000000000E+00 0. -1.
          6    1    1    2  501    0 -0.36444320752E+02  0.65342650061E+02  0.17974519645E+03  0.26045188823E+03  0.17300000000E+03 0.  1.
         -6    1    1    2    0  503  0.36444320752E+02 -0.65342650061E+02  0.48273637018E+02  0.19456925364E+03  0.17300000000E+03 0. -1.
<mgrwt>
<rscale>  2 0.18848568E+03</rscale>
<asrwt>0</asrwt>
<pdfrwt beam="1">  1       21 0.52541536E-01 0.18848568E+03</pdfrwt>
<pdfrwt beam="2">  1       21 0.17461716E-01 0.18848568E+03</pdfrwt>
<totfact> 0.10215745E+05</totfact>
</mgrwt>
</event>
<event>
 4    1  0.4451819E+000  0.1800092E+03  0.7546771E-02  0.1167794E+00
         21   -1    0    0  503  502  0.00000000000E+00  0.00000000000E+00  0.40090524762E+03  0.40090524762E+03  0.00000000000E+00 0. -1.
         21   -1    0    0  501  503 -0.00000000000E+00 -0.00000000000E+00 -0.11601181216E+03  0.11601181216E+03  0.00000000000E+00 0. -1.
          6    1    1    2  501    0  0.33830353980E+02 -0.36466690451E+02  0.10654698849E+00  0.18000923231E+03  0.17300000000E+03 0. -1.
         -6    1    1    2    0  502 -0.33830353980E+02  0.36466690451E+02  0.28478688847E+03  0.33690782747E+03  0.17300000000E+03 0. -1.
<mgrwt>
<rscale>  2 0.18000920E+03</rscale>
<asrwt>0</asrwt>
<pdfrwt beam="1">  1       21 0.61677730E-01 0.18000920E+03</pdfrwt>
<pdfrwt beam="2">  1       21 0.17847971E-01 0.18000920E+03</pdfrwt>
<totfact> 0.70020584E+04</totfact>
</mgrwt>
</event>
<event>
 4    1  0.4451819E+000  0.1764489E+03  0.7546771E-02  0.1171285E+00
         21   -1    0    0  503  502  0.00000000000E+00  0.00000000000E+00  0.66053567764E+02  0.66053567764E+02  0.00000000000E+00 0.  1.
         21   -1    0    0  501  503 -0.00000000000E+00 -0.00000000000E+00 -0.47136045664E+03  0.47136045664E+03  0.00000000000E+00 0.  1.
          6    1    1    2  501    0 -0.15667915755E+02 -0.30979357198E+02 -0.20404557946E+03  0.26975693254E+03  0.17300000000E+03 0.  1.
         -6    1    1    2    0  502  0.15667915755E+02  0.30979357198E+02 -0.20126130942E+03  0.26765709186E+03  0.17300000000E+03 0.  1.
<mgrwt>
<rscale>  2 0.17644887E+03</rscale>
<asrwt>0</asrwt>
<pdfrwt beam="1">  1       21 0.10162088E-01 0.17644887E+03</pdfrwt>
<pdfrwt beam="2">  1       21 0.72516990E-01 0.17644887E+03</pdfrwt>
<totfact> 0.13593094E+05</totfact>
</mgrwt>
</event>
<event>
 4    1  0.4451819E+000  0.1966533E+03  0.7546771E-02  0.1152594E+00
         21   -1    0    0  501  502  0.00000000000E+00  0.00000000000E+00  0.64265154395E+02  0.64265154395E+02  0.00000000000E+00 0.  1.
         21   -1    0    0  502  503 -0.00000000000E+00 -0.00000000000E+00 -0.69210893662E+03  0.69210893662E+03  0.00000000000E+00 0.  1.
          6    1    1    2  501    0 -0.66863593404E+02 -0.65366404730E+02 -0.17728453959E+03  0.26476841762E+03  0.17300000000E+03 0.  1.
         -6    1    1    2    0  503  0.66863593404E+02  0.65366404730E+02 -0.45055924264E+03  0.49160567340E+03  0.17300000000E+03 0.  1.
<mgrwt>
<rscale>  2 0.19665327E+03</rscale>
<asrwt>0</asrwt>
<pdfrwt beam="1">  1       21 0.98869472E-02 0.19665327E+03</pdfrwt>
<pdfrwt beam="2">  1       21 0.10647829E+00 0.19665327E+03</pdfrwt>
<totfact> 0.58372582E+04</totfact>
</mgrwt>
</event>
<event>
 4    1  0.4451819E+000  0.2390120E+03  0.7546771E-02  0.1120453E+00
         21   -1    0    0  501  502  0.00000000000E+00  0.00000000000E+00  0.18944435509E+03  0.18944435509E+03  0.00000000000E+00 0.  1.
         21   -1    0    0  502  503 -0.00000000000E+00 -0.00000000000E+00 -0.34903430793E+03  0.34903430793E+03  0.00000000000E+00 0.  1.
          6    1    1    2  501    0  0.89775817138E+02 -0.13834022358E+03  0.19513213131E+02  0.23980717314E+03  0.17300000000E+03 0.  1.
         -6    1    1    2    0  503 -0.89775817138E+02  0.13834022358E+03 -0.17910316598E+03  0.29867148988E+03  0.17300000000E+03 0.  1.
<mgrwt>
<rscale>  2 0.23901196E+03</rscale>
<asrwt>0</asrwt>
<pdfrwt beam="1">  1       21 0.29145285E-01 0.23901196E+03</pdfrwt>
<pdfrwt beam="2">  1       21 0.53697586E-01 0.23901196E+03</pdfrwt>
<totfact> 0.36152080E+04</totfact>
</mgrwt>
</event>
<event>
 4    1  0.4451819E+000  0.3132844E+03  0.7546771E-02  0.1078782E+00
         21   -1    0    0  501  502  0.00000000000E+00  0.00000000000E+00  0.11098495255E+04  0.11098495255E+04  0.00000000000E+00 0. -1.
         21   -1    0    0  502  503 -0.00000000000E+00 -0.00000000000E+00 -0.88577393113E+02  0.88577393113E+02  0.00000000000E+00 0. -1.
          6    1    1    2  501    0  0.23442087011E+03 -0.11517376172E+03  0.53484310441E+03  0.61984214609E+03  0.17300000000E+03 0. -1.
         -6    1    1    2    0  503 -0.23442087011E+03  0.11517376172E+03  0.48642902794E+03  0.57858477248E+03  0.17300000000E+03 0. -1.
<mgrwt>
<rscale>  2 0.31328444E+03</rscale>
<asrwt>0</asrwt>
<pdfrwt beam="1">  1       21 0.17074607E+00 0.31328444E+03</pdfrwt>
<pdfrwt beam="2">  1       21 0.13627292E-01 0.31328444E+03</pdfrwt>
<totfact> 0.91179212E+03</totfact>
</mgrwt>
</event>
<event>
 4    1  0.4451819E+000  0.1838958E+03  0.7546771E-02  0.1164085E+00
         21   -1    0    0  503  502  0.00000000000E+00  0.00000000000E+00  0.24064959552E+02  0.24064959552E+02  0.00000000000E+00 0.  1.
         21   -1    0    0  501  503 -0.00000000000E+00 -0.00000000000E+00 -0.18756484721E+04  0.18756484721E+04  0.00000000000E+00 0. -1.
          6    1    1    2  501    0  0.23743197076E+02 -0.57662107999E+02 -0.14014643792E+04  0.14134780027E+04  0.17300000000E+03 0. -1.
         -6    1    1    2    0  502 -0.23743197076E+02  0.57662107999E+02 -0.45011913333E+03  0.48623542888E+03  0.17300000000E+03 0.  1.
<mgrwt>
<rscale>  2 0.18389578E+03</rscale>
<asrwt>0</asrwt>
<pdfrwt beam="1">  1       21 0.37023007E-02 0.18389578E+03</pdfrwt>
<pdfrwt beam="2">  1       21 0.28856136E+00 0.18389578E+03</pdfrwt>
<totfact> 0.17872836E+04</totfact>
</mgrwt>
</event>
<event>
 4    1  0.4451819E+000  0.3191415E+03  0.7546771E-02  0.1076045E+00
         21   -1    0    0  501  502  0.00000000000E+00  0.00000000000E+00  0.43343572454E+03  0.43343572454E+03  0.00000000000E+00 0.  1.
         21   -1    0    0  502  503 -0.00000000000E+00 -0.00000000000E+00 -0.15429727681E+04  0.15429727681E+04  0.00000000000E+00 0.  1.
          6    1    1    2  501    0 -0.48379616358E+02  0.26378346884E+03  0.35508036614E+03  0.47742368200E+03  0.17300000000E+03 0.  1.
         -6    1    1    2    0  503  0.48379616358E+02 -0.26378346884E+03 -0.14646174097E+04  0.14989848106E+04  0.17300000000E+03 0.  1.
<mgrwt>
<rscale>  2 0.31914151E+03</rscale>
<asrwt>0</asrwt>
<pdfrwt beam="1">  1       21 0.66682418E-01 0.31914151E+03</pdfrwt>
<pdfrwt beam="2">  1       21 0.23738043E+00 0.31914151E+03</pdfrwt>
<totfact> 0.14145306E+02</totfact>
</mgrwt>
</event>
<event>
 4    1  0.4451819E+000  0.2017604E+03  0.7546771E-02  0.1148262E+00
         21   -1    0    0  503  502  0.00000000000E+00  0.00000000000E+00  0.46679944828E+03  0.46679944828E+03  0.00000000000E+00 0. -1.
         21   -1    0    0  501  503 -0.00000000000E+00 -0.00000000000E+00 -0.11751096954E+03  0.11751096954E+03  0.00000000000E+00 0. -1.
          6    1    1    2  501    0 -0.97109102317E+02 -0.36716213510E+02  0.26276891668E+02  0.20346432887E+03  0.17300000000E+03 0. -1.
         -6    1    1    2    0  502  0.97109102317E+02  0.36716213510E+02  0.32301158707E+03  0.38084608895E+03  0.17300000000E+03 0. -1.
<mgrwt>
<rscale>  2 0.20176040E+03</rscale>
<asrwt>0</asrwt>
<pdfrwt beam="1">  1       21 0.71815299E-01 0.20176040E+03</pdfrwt>
<pdfrwt beam="2">  1       21 0.18078611E-01 0.20176040E+03</pdfrwt>
<totfact> 0.48544099E+04</totfact>
</mgrwt>
</event>
<event>
 4    1  0.4451819E+000  0.1936838E+03  0.7546771E-02  0.1155180E+00
         21   -1    0    0  503  502  0.00000000000E+00  0.00000000000E+00  0.52793141146E+02  0.52793141146E+02  0.00000000000E+00 0.  1.
         21   -1    0    0  501  503 -0.00000000000E+00 -0.00000000000E+00 -0.77175966055E+03  0.77175966055E+03  0.00000000000E+00 0.  1.
          6    1    1    2  501    0 -0.26653949337E+02  0.82909535183E+02 -0.47556740274E+03  0.51349564613E+03  0.17300000000E+03 0.  1.
         -6    1    1    2    0  502  0.26653949337E+02 -0.82909535183E+02 -0.24339911666E+03  0.31105715557E+03  0.17300000000E+03 0.  1.
<mgrwt>
<rscale>  2 0.19368382E+03</rscale>
<asrwt>0</asrwt>
<pdfrwt beam="1">  1       21 0.81220213E-02 0.19368382E+03</pdfrwt>
<pdfrwt beam="2">  1       21 0.11873226E+00 0.19368382E+03</pdfrwt>
<totfact> 0.63340471E+04</totfact>
</mgrwt>
</event>
<event>
 4    1  0.4451819E+000  0.2209661E+03  0.7546771E-02  0.1133165E+00
         21   -1    0    0  503  502  0.00000000000E+00  0.00000000000E+00  0.33488235852E+03  0.33488235852E+03  0.00000000000E+00 0. -1.
         21   -1    0    0  501  503 -0.00000000000E+00 -0.00000000000E+00 -0.28472629976E+03  0.28472629976E+03  0.00000000000E+00 0. -1.
          6    1    1    2  501    0 -0.13638086731E+03 -0.17241185150E+02 -0.19132593726E+03  0.29228686885E+03  0.17300000000E+03 0. -1.
         -6    1    1    2    0  502  0.13638086731E+03  0.17241185150E+02  0.24148199602E+03  0.32732178943E+03  0.17300000000E+03 0. -1.
<mgrwt>
<rscale>  2 0.22096606E+03</rscale>
<asrwt>0</asrwt>
<pdfrwt beam="1">  1       21 0.51520363E-01 0.22096606E+03</pdfrwt>
<pdfrwt beam="2">  1       21 0.43804046E-01 0.22096606E+03</pdfrwt>
<totfact> 0.17623313E+04</totfact>
</mgrwt>
</event>
<event>
 4    1  0.4451819E+000  0.1732349E+03  0.7546771E-02  0.1174516E+00
         21   -1    0    0  501  502  0.00000000000E+00  0.00000000000E+00  0.27802999253E+03  0.27802999253E+03  0.00000000000E+00 0. -1.
         21   -1    0    0  502  503 -0.00000000000E+00 -0.00000000000E+00 -0.15663320836E+03  0.15663320836E+03  0.00000000000E+00 0. -1.
          6    1    1    2  501    0 -0.17675666958E+01  0.88442727422E+01  0.18187493303E+03  0.25117491259E+03  0.17300000000E+03 0. -1.
         -6    1    1    2    0  503  0.17675666958E+01 -0.88442727422E+01 -0.60478148852E+02  0.18348828829E+03  0.17300000000E+03 0. -1.
<mgrwt>
<rscale>  2 0.17323494E+03</rscale>
<asrwt>0</asrwt>
<pdfrwt beam="1">  1       21 0.42773845E-01 0.17323494E+03</pdfrwt>
<pdfrwt beam="2">  1       21 0.24097417E-01 0.17323494E+03</pdfrwt>
<totfact> 0.86077438E+04</totfact>
</mgrwt>
</event>
<event>
 4    1  0.4451819E+000  0.1911721E+03  0.7546771E-02  0.1157408E+00
         21   -1    0    0  503  502  0.00000000000E+00  0.00000000000E+00  0.37927228180E+03  0.37927228180E+03  0.00000000000E+00 0.  1.
         21   -1    0    0  501  503 -0.00000000000E+00 -0.00000000000E+00 -0.10992434426E+03  0.10992434426E+03  0.00000000000E+00 0. -1.
          6    1    1    2  501    0  0.17616977366E+02  0.79419285738E+02  0.48752530638E+02  0.19729062340E+03  0.17300000000E+03 0. -1.
         -6    1    1    2    0  502 -0.17616977366E+02 -0.79419285738E+02  0.22059540690E+03  0.29190600265E+03  0.17300000000E+03 0.  1.
<mgrwt>
<rscale>  2 0.19117212E+03</rscale>
<asrwt>0</asrwt>
<pdfrwt beam="1">  1       21 0.58349581E-01 0.19117212E+03</pdfrwt>
<pdfrwt beam="2">  1       21 0.16911438E-01 0.19117212E+03</pdfrwt>
<totfact> 0.86698520E+04</totfact>
</mgrwt>
</event>
<event>
 4    1  0.4451819E+000  0.1909193E+03  0.7546771E-02  0.1157635E+00
         21   -1    0    0  503  502  0.00000000000E+00  0.00000000000E+00  0.32840583390E+03  0.32840583390E+03  0.00000000000E+00 0. -1.
         21   -1    0    0  501  503 -0.00000000000E+00 -0.00000000000E+00 -0.15291600296E+03  0.15291600296E+03  0.00000000000E+00 0. -1.
          6    1    1    2  501    0 -0.16006146930E+02 -0.79151541202E+02 -0.38267845570E+02  0.19471669476E+03  0.17300000000E+03 0. -1.
         -6    1    1    2    0  502  0.16006146930E+02  0.79151541202E+02  0.21375767651E+03  0.28660514210E+03  0.17300000000E+03 0. -1.
<mgrwt>
<rscale>  2 0.19091926E+03</rscale>
<asrwt>0</asrwt>
<pdfrwt beam="1">  1       21 0.50523974E-01 0.19091926E+03</pdfrwt>
<pdfrwt beam="2">  1       21 0.23525539E-01 0.19091926E+03</pdfrwt>
<totfact> 0.63450669E+04</totfact>
</mgrwt>
</event>
<event>
 4    1  0.4451819E+000  0.1998605E+03  0.7546771E-02  0.1149857E+00
         21   -1    0    0  501  502  0.00000000000E+00  0.00000000000E+00  0.23169696617E+04  0.23169696617E+04  0.00000000000E+00 0. -1.
         21   -1    0    0  502  503 -0.00000000000E+00 -0.00000000000E+00 -0.17270172580E+02  0.17270172580E+02  0.00000000000E+00 0. -1.
          6    1    1    2  501    0 -0.86731083875E+02  0.49929531414E+02  0.11987441001E+04  0.12152907704E+04  0.17300000000E+03 0. -1.
         -6    1    1    2    0  503  0.86731083875E+02 -0.49929531414E+02  0.11009553890E+04  0.11189490639E+04  0.17300000000E+03 0. -1.
<mgrwt>
<rscale>  2 0.19986055E+03</rscale>
<asrwt>0</asrwt>
<pdfrwt beam="1">  1       21 0.35645663E+00 0.19986055E+03</pdfrwt>
<pdfrwt beam="2">  1       21 0.26569515E-02 0.19986055E+03</pdfrwt>
<totfact> 0.12278269E+04</totfact>
</mgrwt>
</event>
<event>
 4    1  0.4451819E+000  0.2194525E+03  0.7546771E-02  0.1134292E+00
         21   -1    0    0  501  502  0.00000000000E+00  0.00000000000E+00  0.27379418214E+02  0.27379418214E+02  0.00000000000E+00 0. -1.
         21   -1    0    0  502  503 -0.00000000000E+00 -0.00000000000E+00 -0.18291177093E+04  0.18291177093E+04  0.00000000000E+00 0. -1.
          6    1    1    2  501    0 -0.69216607852E+02  0.11592873349E+03 -0.71907960884E+03  0.75182105178E+03  0.17300000000E+03 0. -1.
         -6    1    1    2    0  503  0.69216607852E+02 -0.11592873349E+03 -0.10826586822E+04  0.11046760757E+04  0.17300000000E+03 0. -1.
<mgrwt>
<rscale>  2 0.21945252E+03</rscale>
<asrwt>0</asrwt>
<pdfrwt beam="1">  1       21 0.42122189E-02 0.21945252E+03</pdfrwt>
<pdfrwt beam="2">  1       21 0.28140268E+00 0.21945252E+03</pdfrwt>
<totfact> 0.15305056E+04</totfact>
</mgrwt>
</event>
<event>
 4    1  0.4451819E+000  0.2258191E+03  0.7546771E-02  0.1129618E+00
         21   -1    0    0  501  502  0.00000000000E+00  0.00000000000E+00  0.87923315025E+02  0.87923315025E+02  0.00000000000E+00 0.  1.
         21   -1    0    0  502  503 -0.00000000000E+00 -0.00000000000E+00 -0.78753189552E+03  0.78753189552E+03  0.00000000000E+00 0.  1.
          6    1    1    2  501    0 -0.14513847888E+03  0.28338977779E+00 -0.12509173793E+03  0.25815150834E+03  0.17300000000E+03 0.  1.
         -6    1    1    2    0  503  0.14513847888E+03 -0.28338977779E+00 -0.57451684256E+03  0.61730370220E+03  0.17300000000E+03 0.  1.
<mgrwt>
<rscale>  2 0.22581908E+03</rscale>
<asrwt>0</asrwt>
<pdfrwt beam="1">  1       21 0.13526664E-01 0.22581908E+03</pdfrwt>
<pdfrwt beam="2">  1       21 0.12115875E+00 0.22581908E+03</pdfrwt>
<totfact> 0.23924466E+04</totfact>
</mgrwt>
</event>
<event>
 4    1  0.4451819E+000  0.1735067E+03  0.7546771E-02  0.1174239E+00
         21   -1    0    0  503  502  0.00000000000E+00  0.00000000000E+00  0.34026767478E+02  0.34026767478E+02  0.00000000000E+00 0.  1.
         21   -1    0    0  501  503 -0.00000000000E+00 -0.00000000000E+00 -0.92729785469E+03  0.92729785469E+03  0.00000000000E+00 0.  1.
          6    1    1    2  501    0 -0.96774771797E+01 -0.90519878693E+01 -0.34365437336E+03  0.38497132410E+03  0.17300000000E+03 0.  1.
         -6    1    1    2    0  502  0.96774771797E+01  0.90519878693E+01 -0.54961671385E+03  0.57635329807E+03  0.17300000000E+03 0.  1.
<mgrwt>
<rscale>  2 0.17350675E+03</rscale>
<asrwt>0</asrwt>
<pdfrwt beam="1">  1       21 0.52348876E-02 0.17350675E+03</pdfrwt>
<pdfrwt beam="2">  1       21 0.14266120E+00 0.17350675E+03</pdfrwt>
<totfact> 0.85596825E+04</totfact>
</mgrwt>
</event>
<event>
 4    1  0.4451819E+000  0.2062373E+03  0.7546771E-02  0.1144581E+00
         21   -1    0    0  503  502  0.00000000000E+00  0.00000000000E+00  0.72364557441E+02  0.72364557441E+02  0.00000000000E+00 0. -1.
         21   -1    0    0  501  503 -0.00000000000E+00 -0.00000000000E+00 -0.58788462165E+03  0.58788462165E+03  0.00000000000E+00 0. -1.
          6    1    1    2  501    0 -0.96641577552E+02  0.57142355016E+02 -0.25318592761E+03  0.32655314604E+03  0.17300000000E+03 0. -1.
         -6    1    1    2    0  502  0.96641577552E+02 -0.57142355016E+02 -0.26233413660E+03  0.33369603305E+03  0.17300000000E+03 0. -1.
<mgrwt>
<rscale>  2 0.20623735E+03</rscale>
<asrwt>0</asrwt>
<pdfrwt beam="1">  1       21 0.11133009E-01 0.20623735E+03</pdfrwt>
<pdfrwt beam="2">  1       21 0.90443786E-01 0.20623735E+03</pdfrwt>
<totfact> 0.69238470E+04</totfact>
</mgrwt>
</event>
<event>
 4    1  0.4451819E+000  0.1748198E+03  0.7546771E-02  0.1172913E+00
         21   -1    0    0  503  502  0.00000000000E+00  0.00000000000E+00  0.24080031027E+03  0.24080031027E+03  0.00000000000E+00 0. -1.
         21   -1    0    0  501  503 -0.00000000000E+00 -0.00000000000E+00 -0.13610948969E+03  0.13610948969E+03  0.00000000000E+00 0. -1.
          6    1    1    2  501    0  0.24933048723E+02 -0.33634836984E+01  0.33733121719E+01  0.17485236394E+03  0.17300000000E+03 0. -1.
         -6    1    1    2    0  502 -0.24933048723E+02  0.33634836984E+01  0.10131750841E+03  0.20205743602E+03  0.17300000000E+03 0. -1.
<mgrwt>
<rscale>  2 0.17481982E+03</rscale>
<asrwt>0</asrwt>
<pdfrwt beam="1">  1       21 0.37046202E-01 0.17481982E+03</pdfrwt>
<pdfrwt beam="2">  1       21 0.20939921E-01 0.17481982E+03</pdfrwt>
<totfact> 0.14971477E+05</totfact>
</mgrwt>
</event>
<event>
 4    1  0.4451819E+000  0.1739132E+03  0.7546771E-02  0.1173827E+00
         21   -1    0    0  501  502  0.00000000000E+00  0.00000000000E+00  0.34969943708E+03  0.34969943708E+03  0.00000000000E+00 0. -1.
         21   -1    0    0  502  503 -0.00000000000E+00 -0.00000000000E+00 -0.10694157718E+03  0.10694157718E+03  0.00000000000E+00 0. -1.
          6    1    1    2  501    0 -0.17656952972E+02 -0.22464864714E+01  0.22122376568E+03  0.28139966096E+03  0.17300000000E+03 0. -1.
         -6    1    1    2    0  503  0.17656952972E+02  0.22464864714E+01  0.21534094218E+02  0.17524135329E+03  0.17300000000E+03 0. -1.
<mgrwt>
<rscale>  2 0.17391324E+03</rscale>
<asrwt>0</asrwt>
<pdfrwt beam="1">  1       21 0.53799913E-01 0.17391324E+03</pdfrwt>
<pdfrwt beam="2">  1       21 0.16452551E-01 0.17391324E+03</pdfrwt>
<totfact> 0.10902979E+05</totfact>
</mgrwt>
</event>
<event>
 4    1  0.4451819E+000  0.2062812E+03  0.7546771E-02  0.1144545E+00
         21   -1    0    0  501  502  0.00000000000E+00  0.00000000000E+00  0.38700648592E+03  0.38700648592E+03  0.00000000000E+00 0.  1.
         21   -1    0    0  502  503 -0.00000000000E+00 -0.00000000000E+00 -0.11287714360E+03  0.11287714360E+03  0.00000000000E+00 0.  1.
          6    1    1    2  501    0  0.92491548375E+02  0.63782740246E+02  0.17730396015E+03  0.27200849023E+03  0.17300000000E+03 0.  1.
         -6    1    1    2    0  503 -0.92491548375E+02 -0.63782740246E+02  0.96825382167E+02  0.22787513929E+03  0.17300000000E+03 0.  1.
<mgrwt>
<rscale>  2 0.20628118E+03</rscale>
<asrwt>0</asrwt>
<pdfrwt beam="1">  1       21 0.59539459E-01 0.20628118E+03</pdfrwt>
<pdfrwt beam="2">  1       21 0.17365715E-01 0.20628118E+03</pdfrwt>
<totfact> 0.78558609E+04</totfact>
</mgrwt>
</event>
<event>
 4    1  0.4451819E+000  0.1866770E+03  0.7546771E-02  0.1161493E+00
         21   -1    0    0  503  502  0.00000000000E+00  0.00000000000E+00  0.28857360064E+04  0.28857360064E+04  0.00000000000E+00 0.  1.
         21   -1    0    0  501  503 -0.00000000000E+00 -0.00000000000E+00 -0.14796942654E+02  0.14796942654E+02  0.00000000000E+00 0.  1.
          6    1    1    2  501    0  0.20106784818E+02  0.67193805465E+02  0.81357380611E+03  0.83471589675E+03  0.17300000000E+03 0.  1.
         -6    1    1    2    0  502 -0.20106784818E+02 -0.67193805465E+02  0.20573652576E+04  0.20658170523E+04  0.17300000000E+03 0.  1.
<mgrwt>
<rscale>  2 0.18667697E+03</rscale>
<asrwt>0</asrwt>
<pdfrwt beam="1">  1       21 0.44395894E+00 0.18667697E+03</pdfrwt>
<pdfrwt beam="2">  1       21 0.22764550E-02 0.18667697E+03</pdfrwt>
<totfact> 0.45844332E+03</totfact>
</mgrwt>
</event>
<event>
 4    1  0.4451819E+000  0.2082328E+03  0.7546771E-02  0.1142973E+00
         21   -1    0    0  503  502  0.00000000000E+00  0.00000000000E+00  0.93593294084E+03  0.93593294084E+03  0.00000000000E+00 0. -1.
         21   -1    0    0  501  503 -0.00000000000E+00 -0.00000000000E+00 -0.56707904690E+02  0.56707904690E+02  0.00000000000E+00 0.  1.
          6    1    1    2  501    0  0.30487115931E+02  0.11181436655E+03  0.22728106665E+03  0.30824924990E+03  0.17300000000E+03 0.  1.
         -6    1    1    2    0  502 -0.30487115931E+02 -0.11181436655E+03  0.65194396950E+03  0.68439159563E+03  0.17300000000E+03 0. -1.
<mgrwt>
<rscale>  2 0.20823284E+03</rscale>
<asrwt>0</asrwt>
<pdfrwt beam="1">  1       21 0.14398967E+00 0.20823284E+03</pdfrwt>
<pdfrwt beam="2">  1       21 0.87242937E-02 0.20823284E+03</pdfrwt>
<totfact> 0.33998209E+04</totfact>
</mgrwt>
</event>
<event>
 4    1  0.4451819E+000  0.2056859E+03  0.7546771E-02  0.1145029E+00
         21   -1    0    0  501  502  0.00000000000E+00  0.00000000000E+00  0.76892314273E+03  0.76892314273E+03  0.00000000000E+00 0.  1.
         21   -1    0    0  502  503 -0.00000000000E+00 -0.00000000000E+00 -0.14183526241E+03  0.14183526241E+03  0.00000000000E+00 0.  1.
          6    1    1    2  501    0 -0.94334554636E+01 -0.11085445455E+03  0.66981236999E+03  0.70068203286E+03  0.17300000000E+03 0.  1.
         -6    1    1    2    0  503  0.94334554636E+01  0.11085445455E+03 -0.42724489675E+02  0.21007637229E+03  0.17300000000E+03 0.  1.
<mgrwt>
<rscale>  2 0.20568593E+03</rscale>
<asrwt>0</asrwt>
<pdfrwt beam="1">  1       21 0.11829587E+00 0.20568593E+03</pdfrwt>
<pdfrwt beam="2">  1       21 0.21820810E-01 0.20568593E+03</pdfrwt>
<totfact> 0.10626721E+04</totfact>
</mgrwt>
</event>
<event>
 4    1  0.4451819E+000  0.1813457E+03  0.7546771E-02  0.1166507E+00
         21   -1    0    0  503  502  0.00000000000E+00  0.00000000000E+00  0.15016712274E+03  0.15016712274E+03  0.00000000000E+00 0. -1.
         21   -1    0    0  501  503 -0.00000000000E+00 -0.00000000000E+00 -0.30763679400E+03  0.30763679400E+03  0.00000000000E+00 0. -1.
          6    1    1    2  501    0 -0.48149197670E+02  0.25277029472E+02 -0.20160394628E+03  0.27116493987E+03  0.17300000000E+03 0. -1.
         -6    1    1    2    0  502  0.48149197670E+02 -0.25277029472E+02  0.44134275026E+02  0.18663897687E+03  0.17300000000E+03 0. -1.
<mgrwt>
<rscale>  2 0.18134573E+03</rscale>
<asrwt>0</asrwt>
<pdfrwt beam="1">  1       21 0.23102635E-01 0.18134573E+03</pdfrwt>
<pdfrwt beam="2">  1       21 0.47328737E-01 0.18134573E+03</pdfrwt>
<totfact> 0.75514106E+04</totfact>
</mgrwt>
</event>
<event>
 4    1  0.4451819E+000  0.2041999E+03  0.7546771E-02  0.1146243E+00
         21   -1    0    0  501  502  0.00000000000E+00  0.00000000000E+00  0.67317948290E+03  0.67317948290E+03  0.00000000000E+00 0. -1.
         21   -1    0    0  502  503 -0.00000000000E+00 -0.00000000000E+00 -0.64881940316E+02  0.64881940316E+02  0.00000000000E+00 0.  1.
          6    1    1    2  501    0 -0.74907108807E+02 -0.78469979571E+02  0.38271239601E+03  0.43378150111E+03  0.17300000000E+03 0.  1.
         -6    1    1    2    0  503  0.74907108807E+02  0.78469979571E+02  0.22558514658E+03  0.30427992211E+03  0.17300000000E+03 0. -1.
<mgrwt>
<rscale>  2 0.20419993E+03</rscale>
<asrwt>0</asrwt>
<pdfrwt beam="1">  1       21 0.10356607E+00 0.20419993E+03</pdfrwt>
<pdfrwt beam="2">  1       21 0.99818374E-02 0.20419993E+03</pdfrwt>
<totfact> 0.61121514E+04</totfact>
</mgrwt>
</event>
<event>
 4    1  0.4451819E+000  0.2641903E+03  0.7546771E-02  0.1104651E+00
         21   -1    0    0  501  502  0.00000000000E+00  0.00000000000E+00  0.18161961070E+04  0.18161961070E+04  0.00000000000E+00 0. -1.
         21   -1    0    0  502  503 -0.00000000000E+00 -0.00000000000E+00 -0.72255418928E+02  0.72255418928E+02  0.00000000000E+00 0. -1.
          6    1    1    2  501    0 -0.43690942679E+00  0.19966804897E+03  0.15180139873E+04  0.15408319137E+04  0.17300000000E+03 0. -1.
         -6    1    1    2    0  503  0.43690942679E+00 -0.19966804897E+03  0.22592670073E+03  0.34761961218E+03  0.17300000000E+03 0. -1.
<mgrwt>
<rscale>  2 0.26419031E+03</rscale>
<asrwt>0</asrwt>
<pdfrwt beam="1">  1       21 0.27941475E+00 0.26419031E+03</pdfrwt>
<pdfrwt beam="2">  1       21 0.11116220E-01 0.26419031E+03</pdfrwt>
<totfact> 0.28068723E+03</totfact>
</mgrwt>
</event>
<event>
 4    1  0.4451819E+000  0.2365023E+03  0.7546771E-02  0.1122145E+00
         21   -1    0    0  503  502  0.00000000000E+00  0.00000000000E+00  0.25289862658E+03  0.25289862658E+03  0.00000000000E+00 0.  1.
         21   -1    0    0  501  503 -0.00000000000E+00 -0.00000000000E+00 -0.51160526331E+03  0.51160526331E+03  0.00000000000E+00 0.  1.
          6    1    1    2  501    0 -0.15369473378E+03  0.48808495480E+02 -0.41736334688E+03  0.47971398118E+03  0.17300000000E+03 0.  1.
         -6    1    1    2    0  502  0.15369473378E+03 -0.48808495480E+02  0.15865671015E+03  0.28478990870E+03  0.17300000000E+03 0.  1.
<mgrwt>
<rscale>  2 0.23650231E+03</rscale>
<asrwt>0</asrwt>
<pdfrwt beam="1">  1       21 0.38907482E-01 0.23650231E+03</pdfrwt>
<pdfrwt beam="2">  1       21 0.78708501E-01 0.23650231E+03</pdfrwt>
<totfact> 0.88281275E+03</totfact>
</mgrwt>
</event>
<event>
 4    1  0.4451819E+000  0.2737527E+03  0.7546771E-02  0.1099151E+00
         21   -1    0    0  501  502  0.00000000000E+00  0.00000000000E+00  0.18155516558E+03  0.18155516558E+03  0.00000000000E+00 0.  1.
         21   -1    0    0  502  503 -0.00000000000E+00 -0.00000000000E+00 -0.41321092689E+03  0.41321092689E+03  0.00000000000E+00 0.  1.
          6    1    1    2  501    0 -0.20257271732E+03  0.63054189927E+02 -0.12554156165E+03  0.30116643301E+03  0.17300000000E+03 0.  1.
         -6    1    1    2    0  503  0.20257271732E+03 -0.63054189927E+02 -0.10611419965E+03  0.29359965946E+03  0.17300000000E+03 0.  1.
<mgrwt>
<rscale>  2 0.27375269E+03</rscale>
<asrwt>0</asrwt>
<pdfrwt beam="1">  1       21 0.27931564E-01 0.27375269E+03</pdfrwt>
<pdfrwt beam="2">  1       21 0.63570911E-01 0.27375269E+03</pdfrwt>
<totfact> 0.26908177E+04</totfact>
</mgrwt>
</event>
<event>
 4    1  0.4451819E+000  0.1867342E+03  0.7546771E-02  0.1161440E+00
         21   -1    0    0  501  502  0.00000000000E+00  0.00000000000E+00  0.31263520628E+03  0.31263520628E+03  0.00000000000E+00 0. -1.
         21   -1    0    0  502  503 -0.00000000000E+00 -0.00000000000E+00 -0.24250849539E+03  0.24250849539E+03  0.00000000000E+00 0. -1.
          6    1    1    2  501    0 -0.12394658867E+02  0.69188297481E+02  0.23905119872E+03  0.30333994740E+03  0.17300000000E+03 0. -1.
         -6    1    1    2    0  503  0.12394658867E+02 -0.69188297481E+02 -0.16892448783E+03  0.25180375427E+03  0.17300000000E+03 0. -1.
<mgrwt>
<rscale>  2 0.18673416E+03</rscale>
<asrwt>0</asrwt>
<pdfrwt beam="1">  1       21 0.48097724E-01 0.18673416E+03</pdfrwt>
<pdfrwt beam="2">  1       21 0.37308999E-01 0.18673416E+03</pdfrwt>
<totfact> 0.28710621E+04</totfact>
</mgrwt>
</event>
<event>
 4    1  0.4451819E+000  0.2095007E+03  0.7546771E-02  0.1141962E+00
         21   -1    0    0  503  502  0.00000000000E+00  0.00000000000E+00  0.10878861110E+04  0.10878861110E+04  0.00000000000E+00 0.  1.
         21   -1    0    0  501  503 -0.00000000000E+00 -0.00000000000E+00 -0.46618828165E+02  0.46618828165E+02  0.00000000000E+00 0.  1.
          6    1    1    2  501    0 -0.19746533927E+02 -0.11649722102E+03  0.31253484415E+03  0.37625597260E+03  0.17300000000E+03 0.  1.
         -6    1    1    2    0  502  0.19746533927E+02  0.11649722102E+03  0.72873243866E+03  0.75824896655E+03  0.17300000000E+03 0.  1.
<mgrwt>
<rscale>  2 0.20950066E+03</rscale>
<asrwt>0</asrwt>
<pdfrwt beam="1">  1       21 0.16736707E+00 0.20950066E+03</pdfrwt>
<pdfrwt beam="2">  1       21 0.71721282E-02 0.20950066E+03</pdfrwt>
<totfact> 0.31958708E+04</totfact>
</mgrwt>
</event>
<event>
 4    1  0.4451819E+000  0.2300304E+03  0.7546771E-02  0.1126618E+00
         21   -1    0    0  501  502  0.00000000000E+00  0.00000000000E+00  0.10399001130E+04  0.10399001130E+04  0.00000000000E+00 0.  1.
         21   -1    0    0  502  503 -0.00000000000E+00 -0.00000000000E+00 -0.74977116388E+02  0.74977116388E+02  0.00000000000E+00 0. -1.
          6    1    1    2  501    0  0.31935743290E+01 -0.15157432036E+03  0.79845765876E+03  0.83093237170E+03  0.17300000000E+03 0.  1.
         -6    1    1    2    0  503 -0.31935743290E+01  0.15157432036E+03  0.16646533790E+03  0.28394485773E+03  0.17300000000E+03 0. -1.
<mgrwt>
<rscale>  2 0.23003038E+03</rscale>
<asrwt>0</asrwt>
<pdfrwt beam="1">  1       21 0.15998462E+00 0.23003038E+03</pdfrwt>
<pdfrwt beam="2">  1       21 0.11534942E-01 0.23003038E+03</pdfrwt>
<totfact> 0.15455673E+04</totfact>
</mgrwt>
</event>
<event>
 4    1  0.4451819E+000  0.3635562E+03  0.7546771E-02  0.1057185E+00
         21   -1    0    0  501  502  0.00000000000E+00  0.00000000000E+00  0.12071190472E+04  0.12071190472E+04  0.00000000000E+00 0.  1.
         21   -1    0    0  502  503 -0.00000000000E+00 -0.00000000000E+00 -0.13490323646E+03  0.13490323646E+03  0.00000000000E+00 0.  1.
          6    1    1    2  501    0  0.10349657160E+03 -0.30254345359E+03  0.82731957255E+03  0.90367624555E+03  0.17300000000E+03 0.  1.
         -6    1    1    2    0  503 -0.10349657160E+03  0.30254345359E+03  0.24489623815E+03  0.43834603808E+03  0.17300000000E+03 0.  1.
<mgrwt>
<rscale>  2 0.36355616E+03</rscale>
<asrwt>0</asrwt>
<pdfrwt beam="1">  1       21 0.18571062E+00 0.36355616E+03</pdfrwt>
<pdfrwt beam="2">  1       21 0.20754345E-01 0.36355616E+03</pdfrwt>
<totfact> 0.31898172E+03</totfact>
</mgrwt>
</event>
<event>
 4    1  0.4451819E+000  0.2927131E+03  0.7546771E-02  0.1088941E+00
         21   -1    0    0  503  502  0.00000000000E+00  0.00000000000E+00  0.14423467283E+03  0.14423467283E+03  0.00000000000E+00 0. -1.
         21   -1    0    0  501  503 -0.00000000000E+00 -0.00000000000E+00 -0.94563392793E+03  0.94563392793E+03  0.00000000000E+00 0.  1.
          6    1    1    2  501    0  0.19654379836E+03 -0.13085304938E+03 -0.73297953080E+03  0.78926546724E+03  0.17300000000E+03 0. -1.
         -6    1    1    2    0  502 -0.19654379836E+03  0.13085304938E+03 -0.68419724294E+02  0.30060313351E+03  0.17300000000E+03 0.  1.
<mgrwt>
<rscale>  2 0.29271314E+03</rscale>
<asrwt>0</asrwt>
<pdfrwt beam="1">  1       21 0.22189949E-01 0.29271314E+03</pdfrwt>
<pdfrwt beam="2">  1       21 0.14548214E+00 0.29271314E+03</pdfrwt>
<totfact> 0.57493878E+03</totfact>
</mgrwt>
</event>
<event>
 4    1  0.4451819E+000  0.2082211E+03  0.7546771E-02  0.1142982E+00
         21   -1    0    0  503  502  0.00000000000E+00  0.00000000000E+00  0.43623405484E+03  0.43623405484E+03  0.00000000000E+00 0.  1.
         21   -1    0    0  501  503 -0.00000000000E+00 -0.00000000000E+00 -0.19115633319E+03  0.19115633319E+03  0.00000000000E+00 0.  1.
          6    1    1    2  501    0  0.90809330706E+02 -0.71976987712E+02 -0.94812397836E+02  0.22879119757E+03  0.17300000000E+03 0.  1.
         -6    1    1    2    0  502 -0.90809330706E+02  0.71976987712E+02  0.33989011949E+03  0.39859919046E+03  0.17300000000E+03 0.  1.
<mgrwt>
<rscale>  2 0.20822109E+03</rscale>
<asrwt>0</asrwt>
<pdfrwt beam="1">  1       21 0.67112931E-01 0.20822109E+03</pdfrwt>
<pdfrwt beam="2">  1       21 0.29408667E-01 0.20822109E+03</pdfrwt>
<totfact> 0.22310218E+04</totfact>
</mgrwt>
</event>
<event>
 4    1  0.4451819E+000  0.1945086E+03  0.7546771E-02  0.1154457E+00
         21   -1    0    0  501  502  0.00000000000E+00  0.00000000000E+00  0.13974753074E+03  0.13974753074E+03  0.00000000000E+00 0. -1.
         21   -1    0    0  502  503 -0.00000000000E+00 -0.00000000000E+00 -0.35449183888E+03  0.35449183888E+03  0.00000000000E+00 0. -1.
          6    1    1    2  501    0 -0.63077309942E+02  0.62656668160E+02  0.12752416139E+02  0.19492621479E+03  0.17300000000E+03 0. -1.
         -6    1    1    2    0  503  0.63077309942E+02 -0.62656668160E+02 -0.22749672428E+03  0.29931315483E+03  0.17300000000E+03 0. -1.
<mgrwt>
<rscale>  2 0.19450862E+03</rscale>
<asrwt>0</asrwt>
<pdfrwt beam="1">  1       21 0.21499620E-01 0.19450862E+03</pdfrwt>
<pdfrwt beam="2">  1       21 0.54537206E-01 0.19450862E+03</pdfrwt>
<totfact> 0.63957614E+04</totfact>
</mgrwt>
</event>
<event>
 4    1  0.4451819E+000  0.2460683E+03  0.7546771E-02  0.1115815E+00
         21   -1    0    0  501  502  0.00000000000E+00  0.00000000000E+00  0.66681194193E+03  0.66681194193E+03  0.00000000000E+00 0.  1.
         21   -1    0    0  502  503 -0.00000000000E+00 -0.00000000000E+00 -0.90859797293E+02  0.90859797293E+02  0.00000000000E+00 0. -1.
          6    1    1    2  501    0  0.17293032448E+03 -0.26752898100E+02  0.27864163268E+03  0.37174019710E+03  0.17300000000E+03 0.  1.
         -6    1    1    2    0  503 -0.17293032448E+03  0.26752898100E+02  0.29731051196E+03  0.38593154212E+03  0.17300000000E+03 0. -1.
<mgrwt>
<rscale>  2 0.24606831E+03</rscale>
<asrwt>0</asrwt>
<pdfrwt beam="1">  1       21 0.10258645E+00 0.24606831E+03</pdfrwt>
<pdfrwt beam="2">  1       21 0.13978431E-01 0.24606831E+03</pdfrwt>
<totfact> 0.33507539E+04</totfact>
</mgrwt>
</event>
<event>
 4    1  0.4451819E+000  0.1992087E+03  0.7546771E-02  0.1150408E+00
         21   -1    0    0  501  502  0.00000000000E+00  0.00000000000E+00  0.31074823354E+03  0.31074823354E+03  0.00000000000E+00 0.  1.
         21   -1    0    0  502  503 -0.00000000000E+00 -0.00000000000E+00 -0.15155838303E+03  0.15155838303E+03  0.00000000000E+00 0.  1.
          6    1    1    2  501    0  0.84288389889E+00  0.98764318309E+02  0.17129827198E+03  0.26273027806E+03  0.17300000000E+03 0.  1.
         -6    1    1    2    0  503 -0.84288389889E+00 -0.98764318309E+02 -0.12108421466E+02  0.19957633851E+03  0.17300000000E+03 0.  1.
<mgrwt>
<rscale>  2 0.19920869E+03</rscale>
<asrwt>0</asrwt>
<pdfrwt beam="1">  1       21 0.47807420E-01 0.19920869E+03</pdfrwt>
<pdfrwt beam="2">  1       21 0.23316674E-01 0.19920869E+03</pdfrwt>
<totfact> 0.72126433E+04</totfact>
</mgrwt>
</event>
<event>
 4    1  0.4451819E+000  0.2498782E+03  0.7546771E-02  0.1113382E+00
         21   -1    0    0  503  502  0.00000000000E+00  0.00000000000E+00  0.13091119190E+04  0.13091119190E+04  0.00000000000E+00 0. -1.
         21   -1    0    0  501  503 -0.00000000000E+00 -0.00000000000E+00 -0.11053053428E+03  0.11053053428E+03  0.00000000000E+00 0.  1.
          6    1    1    2  501    0 -0.55465934103E+02 -0.17156241439E+03  0.64100974196E+02  0.25796911980E+03  0.17300000000E+03 0.  1.
         -6    1    1    2    0  502  0.55465934103E+02  0.17156241439E+03  0.11344804105E+04  0.11616733335E+04  0.17300000000E+03 0. -1.
<mgrwt>
<rscale>  2 0.24987823E+03</rscale>
<asrwt>0</asrwt>
<pdfrwt beam="1">  1       21 0.20140182E+00 0.24987823E+03</pdfrwt>
<pdfrwt beam="2">  1       21 0.17004699E-01 0.24987823E+03</pdfrwt>
<totfact> 0.39046751E+03</totfact>
</mgrwt>
</event>
<event>
 4    1  0.4451819E+000  0.1990724E+03  0.7546771E-02  0.1150524E+00
         21   -1    0    0  503  502  0.00000000000E+00  0.00000000000E+00  0.23360984468E+02  0.23360984468E+02  0.00000000000E+00 0. -1.
         21   -1    0    0  501  503 -0.00000000000E+00 -0.00000000000E+00 -0.16979099074E+04  0.16979099074E+04  0.00000000000E+00 0. -1.
          6    1    1    2  501    0 -0.89866746444E+02  0.40308601840E+02 -0.81169769980E+03  0.83575293680E+03  0.17300000000E+03 0. -1.
         -6    1    1    2    0  502  0.89866746444E+02 -0.40308601840E+02 -0.86285122314E+03  0.88551795509E+03  0.17300000000E+03 0. -1.
<mgrwt>
<rscale>  2 0.19907239E+03</rscale>
<asrwt>0</asrwt>
<pdfrwt beam="1">  1       21 0.35939964E-02 0.19907239E+03</pdfrwt>
<pdfrwt beam="2">  1       21 0.26121699E+00 0.19907239E+03</pdfrwt>
<totfact> 0.26644131E+04</totfact>
</mgrwt>
</event>
<event>
 4    1  0.4451819E+000  0.1892595E+03  0.7546771E-02  0.1159131E+00
         21   -1    0    0  503  502  0.00000000000E+00  0.00000000000E+00  0.21981071840E+03  0.21981071840E+03  0.00000000000E+00 0. -1.
         21   -1    0    0  501  503 -0.00000000000E+00 -0.00000000000E+00 -0.17837254896E+03  0.17837254896E+03  0.00000000000E+00 0. -1.
          6    1    1    2  501    0  0.62503804375E+01  0.76492408377E+02 -0.37814222779E+02  0.19300018456E+03  0.17300000000E+03 0. -1.
         -6    1    1    2    0  502 -0.62503804375E+01 -0.76492408377E+02  0.79252392214E+02  0.20518308280E+03  0.17300000000E+03 0. -1.
<mgrwt>
<rscale>  2 0.18925949E+03</rscale>
<asrwt>0</asrwt>
<pdfrwt beam="1">  1       21 0.33817033E-01 0.18925949E+03</pdfrwt>
<pdfrwt beam="2">  1       21 0.27441931E-01 0.18925949E+03</pdfrwt>
<totfact> 0.10683852E+05</totfact>
</mgrwt>
</event>
<event>
 4    1  0.4451819E+000  0.1830327E+03  0.7546771E-02  0.1164900E+00
         21   -1    0    0  503  502  0.00000000000E+00  0.00000000000E+00  0.23353821401E+03  0.23353821401E+03  0.00000000000E+00 0.  1.
         21   -1    0    0  501  503 -0.00000000000E+00 -0.00000000000E+00 -0.16758959144E+03  0.16758959144E+03  0.00000000000E+00 0.  1.
          6    1    1    2  501    0 -0.39726844513E+01  0.59633693759E+02 -0.43145543362E+02  0.18804918922E+03  0.17300000000E+03 0.  1.
         -6    1    1    2    0  502  0.39726844513E+01 -0.59633693759E+02  0.10909416594E+03  0.21307861623E+03  0.17300000000E+03 0.  1.
<mgrwt>
<rscale>  2 0.18303267E+03</rscale>
<asrwt>0</asrwt>
<pdfrwt beam="1">  1       21 0.35928956E-01 0.18303267E+03</pdfrwt>
<pdfrwt beam="2">  1       21 0.25783014E-01 0.18303267E+03</pdfrwt>
<totfact> 0.10704263E+05</totfact>
</mgrwt>
</event>
<event>
 4    1  0.4451819E+000  0.2855009E+03  0.7546771E-02  0.1092722E+00
         21   -1    0    0  503  502  0.00000000000E+00  0.00000000000E+00  0.16080838001E+03  0.16080838001E+03  0.00000000000E+00 0.  1.
         21   -1    0    0  501  503 -0.00000000000E+00 -0.00000000000E+00 -0.66431403241E+03  0.66431403241E+03  0.00000000000E+00 0. -1.
          6    1    1    2  501    0  0.22160716621E+03 -0.49719635068E+02 -0.45259228450E+03  0.53511732753E+03  0.17300000000E+03 0. -1.
         -6    1    1    2    0  502 -0.22160716621E+03  0.49719635068E+02 -0.50913367900E+02  0.29000508489E+03  0.17300000000E+03 0.  1.
<mgrwt>
<rscale>  2 0.28550093E+03</rscale>
<asrwt>0</asrwt>
<pdfrwt beam="1">  1       21 0.24739751E-01 0.28550093E+03</pdfrwt>
<pdfrwt beam="2">  1       21 0.10220216E+00 0.28550093E+03</pdfrwt>
<totfact> 0.11411216E+04</totfact>
</mgrwt>
</event>
<event>
 4    1  0.4451819E+000  0.2103163E+03  0.7546771E-02  0.1141316E+00
         21   -1    0    0  503  502  0.00000000000E+00  0.00000000000E+00  0.14947535406E+03  0.14947535406E+03  0.00000000000E+00 0.  1.
         21   -1    0    0  501  503 -0.00000000000E+00 -0.00000000000E+00 -0.46249996182E+03  0.46249996182E+03  0.00000000000E+00 0.  1.
          6    1    1    2  501    0  0.30894371928E+01 -0.11955921011E+03  0.27123631451E+02  0.21205810696E+03  0.17300000000E+03 0.  1.
         -6    1    1    2    0  502 -0.30894371928E+01  0.11955921011E+03 -0.34014823921E+03  0.39991720891E+03  0.17300000000E+03 0.  1.
<mgrwt>
<rscale>  2 0.21031631E+03</rscale>
<asrwt>0</asrwt>
<pdfrwt beam="1">  1       21 0.22996209E-01 0.21031631E+03</pdfrwt>
<pdfrwt beam="2">  1       21 0.71153840E-01 0.21031631E+03</pdfrwt>
<totfact> 0.31426223E+04</totfact>
</mgrwt>
</event>
<event>
 4    1  0.4451819E+000  0.1880607E+03  0.7546771E-02  0.1160222E+00
         21   -1    0    0  503  502  0.00000000000E+00  0.00000000000E+00  0.19576877745E+03  0.19576877745E+03  0.00000000000E+00 0. -1.
         21   -1    0    0  501  503 -0.00000000000E+00 -0.00000000000E+00 -0.25619325407E+03  0.25619325407E+03  0.00000000000E+00 0. -1.
          6    1    1    2  501    0  0.10642254266E+02 -0.72969554719E+02 -0.15291902191E+03  0.24238613977E+03  0.17300000000E+03 0. -1.
         -6    1    1    2    0  502 -0.10642254266E+02  0.72969554719E+02  0.92494545290E+02  0.20957589174E+03  0.17300000000E+03 0. -1.
<mgrwt>
<rscale>  2 0.18806066E+03</rscale>
<asrwt>0</asrwt>
<pdfrwt beam="1">  1       21 0.30118273E-01 0.18806066E+03</pdfrwt>
<pdfrwt beam="2">  1       21 0.39414347E-01 0.18806066E+03</pdfrwt>
<totfact> 0.65752791E+04</totfact>
</mgrwt>
</event>
<event>
 4    1  0.4451819E+000  0.2161358E+03  0.7546771E-02  0.1136797E+00
         21   -1    0    0  501  502  0.00000000000E+00  0.00000000000E+00  0.95065884726E+02  0.95065884726E+02  0.00000000000E+00 0.  1.
         21   -1    0    0  502  503 -0.00000000000E+00 -0.00000000000E+00 -0.64807153561E+03  0.64807153561E+03  0.00000000000E+00 0.  1.
          6    1    1    2  501    0  0.11906535200E+03  0.51079529293E+02 -0.93805197801E+02  0.23561428542E+03  0.17300000000E+03 0.  1.
         -6    1    1    2    0  503 -0.11906535200E+03 -0.51079529293E+02 -0.45920045309E+03  0.50752313492E+03  0.17300000000E+03 0.  1.
<mgrwt>
<rscale>  2 0.21613578E+03</rscale>
<asrwt>0</asrwt>
<pdfrwt beam="1">  1       21 0.14625521E-01 0.21613578E+03</pdfrwt>
<pdfrwt beam="2">  1       21 0.99703311E-01 0.21613578E+03</pdfrwt>
<totfact> 0.33525196E+04</totfact>
</mgrwt>
</event>
<event>
 4    1  0.4451819E+000  0.1769313E+03  0.7546771E-02  0.1170806E+00
         21   -1    0    0  501  502  0.00000000000E+00  0.00000000000E+00  0.45248464788E+03  0.45248464788E+03  0.00000000000E+00 0. -1.
         21   -1    0    0  502  503 -0.00000000000E+00 -0.00000000000E+00 -0.69289914138E+02  0.69289914138E+02  0.00000000000E+00 0. -1.
          6    1    1    2  501    0 -0.30343027217E+02  0.21330761378E+02  0.18139778983E+03  0.25339664330E+03  0.17300000000E+03 0. -1.
         -6    1    1    2    0  503  0.30343027217E+02 -0.21330761378E+02  0.20179694391E+03  0.26837791871E+03  0.17300000000E+03 0. -1.
<mgrwt>
<rscale>  2 0.17693134E+03</rscale>
<asrwt>0</asrwt>
<pdfrwt beam="1">  1       21 0.69613021E-01 0.17693134E+03</pdfrwt>
<pdfrwt beam="2">  1       21 0.10659987E-01 0.17693134E+03</pdfrwt>
<totfact> 0.13666800E+05</totfact>
</mgrwt>
</event>
<event>
 4    1  0.4451819E+000  0.2597268E+03  0.7546771E-02  0.1107307E+00
         21   -1    0    0  501  502  0.00000000000E+00  0.00000000000E+00  0.18007683652E+04  0.18007683652E+04  0.00000000000E+00 0.  1.
         21   -1    0    0  502  503 -0.00000000000E+00 -0.00000000000E+00 -0.16107907920E+03  0.16107907920E+03  0.00000000000E+00 0.  1.
          6    1    1    2  501    0  0.21571390105E+02 -0.19251933137E+03  0.16791691863E+04  0.16991371851E+04  0.17300000000E+03 0.  1.
         -6    1    1    2    0  503 -0.21571390105E+02  0.19251933137E+03 -0.39479900219E+02  0.26271025930E+03  0.17300000000E+03 0.  1.
<mgrwt>
<rscale>  2 0.25972681E+03</rscale>
<asrwt>0</asrwt>
<pdfrwt beam="1">  1       21 0.27704127E+00 0.25972681E+03</pdfrwt>
<pdfrwt beam="2">  1       21 0.24781398E-01 0.25972681E+03</pdfrwt>
<totfact> 0.65947896E+02</totfact>
</mgrwt>
</event>
<event>
 4    1  0.4451819E+000  0.1976429E+03  0.7546771E-02  0.1151743E+00
         21   -1    0    0  501  502  0.00000000000E+00  0.00000000000E+00  0.79489733227E+02  0.79489733227E+02  0.00000000000E+00 0. -1.
         21   -1    0    0  502  503 -0.00000000000E+00 -0.00000000000E+00 -0.52544074921E+03  0.52544074921E+03  0.00000000000E+00 0. -1.
          6    1    1    2  501    0 -0.90607533130E+02 -0.30396957970E+02 -0.14600982196E+03  0.24572661277E+03  0.17300000000E+03 0. -1.
         -6    1    1    2    0  503  0.90607533130E+02  0.30396957970E+02 -0.29994119401E+03  0.35920386966E+03  0.17300000000E+03 0. -1.
<mgrwt>
<rscale>  2 0.19764286E+03</rscale>
<asrwt>0</asrwt>
<pdfrwt beam="1">  1       21 0.12229190E-01 0.19764286E+03</pdfrwt>
<pdfrwt beam="2">  1       21 0.80837035E-01 0.19764286E+03</pdfrwt>
<totfact> 0.76034591E+04</totfact>
</mgrwt>
</event>
<event>
 4    1  0.4451819E+000  0.1944651E+03  0.7546771E-02  0.1154495E+00
         21   -1    0    0  501  502  0.00000000000E+00  0.00000000000E+00  0.62354450297E+03  0.62354450297E+03  0.00000000000E+00 0. -1.
         21   -1    0    0  502  503 -0.00000000000E+00 -0.00000000000E+00 -0.10588420548E+03  0.10588420548E+03  0.00000000000E+00 0. -1.
          6    1    1    2  501    0 -0.86927684785E+02 -0.18200629288E+02  0.49721610711E+03  0.53389188275E+03  0.17300000000E+03 0.  1.
         -6    1    1    2    0  503  0.86927684785E+02  0.18200629288E+02  0.20444190374E+02  0.19553682571E+03  0.17300000000E+03 0.  1.
<mgrwt>
<rscale>  2 0.19446513E+03</rscale>
<asrwt>0</asrwt>
<pdfrwt beam="1">  1       21 0.95929921E-01 0.19446513E+03</pdfrwt>
<pdfrwt beam="2">  1       21 0.16289878E-01 0.19446513E+03</pdfrwt>
<totfact> 0.30519415E+04</totfact>
</mgrwt>
</event>
<event>
 4    1  0.4451819E+000  0.1805402E+03  0.7546771E-02  0.1167281E+00
         21   -1    0    0  501  502  0.00000000000E+00  0.00000000000E+00  0.93211693659E+02  0.93211693659E+02  0.00000000000E+00 0.  1.
         21   -1    0    0  502  503 -0.00000000000E+00 -0.00000000000E+00 -0.35727728794E+03  0.35727728794E+03  0.00000000000E+00 0.  1.
          6    1    1    2  501    0  0.23139064641E+02 -0.46155796869E+02 -0.99198730516E+02  0.20599796609E+03  0.17300000000E+03 0.  1.
         -6    1    1    2    0  503 -0.23139064641E+02  0.46155796869E+02 -0.16486686376E+03  0.24449101551E+03  0.17300000000E+03 0.  1.
<mgrwt>
<rscale>  2 0.18054023E+03</rscale>
<asrwt>0</asrwt>
<pdfrwt beam="1">  1       21 0.14340261E-01 0.18054023E+03</pdfrwt>
<pdfrwt beam="2">  1       21 0.54965736E-01 0.18054023E+03</pdfrwt>
<totfact> 0.13351202E+05</totfact>
</mgrwt>
</event>
<event>
 4    1  0.4451819E+000  0.2073956E+03  0.7546771E-02  0.1143645E+00
         21   -1    0    0  503  502  0.00000000000E+00  0.00000000000E+00  0.10024152022E+03  0.10024152022E+03  0.00000000000E+00 0. -1.
         21   -1    0    0  501  503 -0.00000000000E+00 -0.00000000000E+00 -0.11132263309E+04  0.11132263309E+04  0.00000000000E+00 0.  1.
          6    1    1    2  501    0 -0.52475559993E+02 -0.10163780951E+03 -0.98213083634E+03  0.10037897730E+04  0.17300000000E+03 0.  1.
         -6    1    1    2    0  502  0.52475559993E+02  0.10163780951E+03 -0.30853974386E+02  0.20967807814E+03  0.17300000000E+03 0. -1.
<mgrwt>
<rscale>  2 0.20739559E+03</rscale>
<asrwt>0</asrwt>
<pdfrwt beam="1">  1       21 0.15421771E-01 0.20739559E+03</pdfrwt>
<pdfrwt beam="2">  1       21 0.17126560E+00 0.20739559E+03</pdfrwt>
<totfact> 0.77043321E+03</totfact>
</mgrwt>
</event>
<event>
 4    1  0.4451819E+000  0.1980175E+03  0.7546771E-02  0.1151422E+00
         21   -1    0    0  503  502  0.00000000000E+00  0.00000000000E+00  0.15971906638E+04  0.15971906638E+04  0.00000000000E+00 0.  1.
         21   -1    0    0  501  503 -0.00000000000E+00 -0.00000000000E+00 -0.55535339245E+02  0.55535339245E+02  0.00000000000E+00 0.  1.
          6    1    1    2  501    0 -0.76672751551E+02 -0.58337258633E+02  0.15357261889E+03  0.25059029480E+03  0.17300000000E+03 0.  1.
         -6    1    1    2    0  502  0.76672751551E+02  0.58337258633E+02  0.13880827056E+04  0.14021357082E+04  0.17300000000E+03 0.  1.
<mgrwt>
<rscale>  2 0.19801754E+03</rscale>
<asrwt>0</asrwt>
<pdfrwt beam="1">  1       21 0.24572160E+00 0.19801754E+03</pdfrwt>
<pdfrwt beam="2">  1       21 0.85438996E-02 0.19801754E+03</pdfrwt>
<totfact> 0.75005021E+03</totfact>
</mgrwt>
</event>
<event>
 4    1  0.4451819E+000  0.1827215E+03  0.7546771E-02  0.1165195E+00
         21   -1    0    0  503  502  0.00000000000E+00  0.00000000000E+00  0.10596439697E+03  0.10596439697E+03  0.00000000000E+00 0.  1.
         21   -1    0    0  501  503 -0.00000000000E+00 -0.00000000000E+00 -0.10560252834E+04  0.10560252834E+04  0.00000000000E+00 0.  1.
          6    1    1    2  501    0 -0.24528012300E+02  0.53446602361E+02 -0.96169359169E+03  0.97889822095E+03  0.17300000000E+03 0.  1.
         -6    1    1    2    0  502  0.24528012300E+02 -0.53446602361E+02  0.11632705236E+02  0.18309145945E+03  0.17300000000E+03 0.  1.
<mgrwt>
<rscale>  2 0.18272154E+03</rscale>
<asrwt>0</asrwt>
<pdfrwt beam="1">  1       21 0.16302215E-01 0.18272154E+03</pdfrwt>
<pdfrwt beam="2">  1       21 0.16246543E+00 0.18272154E+03</pdfrwt>
<totfact> 0.82025966E+03</totfact>
</mgrwt>
</event>
<event>
 4    1  0.4451819E+000  0.2015445E+03  0.7546771E-02  0.1148442E+00
         21   -1    0    0  501  502  0.00000000000E+00  0.00000000000E+00  0.43673365309E+03  0.43673365309E+03  0.00000000000E+00 0. -1.
         21   -1    0    0  502  503 -0.00000000000E+00 -0.00000000000E+00 -0.17841273952E+03  0.17841273952E+03  0.00000000000E+00 0. -1.
          6    1    1    2  501    0  0.59794619492E+02 -0.84355070938E+02  0.34196158006E+03  0.39693563301E+03  0.17300000000E+03 0. -1.
         -6    1    1    2    0  503 -0.59794619492E+02  0.84355070938E+02 -0.83640666490E+02  0.21821075960E+03  0.17300000000E+03 0. -1.
<mgrwt>
<rscale>  2 0.20154447E+03</rscale>
<asrwt>0</asrwt>
<pdfrwt beam="1">  1       21 0.67189793E-01 0.20154447E+03</pdfrwt>
<pdfrwt beam="2">  1       21 0.27448114E-01 0.20154447E+03</pdfrwt>
<totfact> 0.25538696E+04</totfact>
</mgrwt>
</event>
<event>
 4    1  0.4451819E+000  0.3274290E+03  0.7546771E-02  0.1072280E+00
         21   -1    0    0  501  502  0.00000000000E+00  0.00000000000E+00  0.33711251690E+03  0.33711251690E+03  0.00000000000E+00 0. -1.
         21   -1    0    0  502  503 -0.00000000000E+00 -0.00000000000E+00 -0.31803160110E+03  0.31803160110E+03  0.00000000000E+00 0.  1.
          6    1    1    2  501    0 -0.14128686822E+03  0.23941344650E+03  0.79100415524E+01  0.32752457352E+03  0.17300000000E+03 0.  1.
         -6    1    1    2    0  503  0.14128686822E+03 -0.23941344650E+03  0.11170874244E+02  0.32761954449E+03  0.17300000000E+03 0. -1.
<mgrwt>
<rscale>  2 0.32742904E+03</rscale>
<asrwt>0</asrwt>
<pdfrwt beam="1">  1       21 0.51863464E-01 0.32742904E+03</pdfrwt>
<pdfrwt beam="2">  1       21 0.48927939E-01 0.32742904E+03</pdfrwt>
<totfact> 0.13139002E+04</totfact>
</mgrwt>
</event>
<event>
 4    1  0.4451819E+000  0.2103870E+03  0.7546771E-02  0.1141260E+00
         21   -1    0    0  503  502  0.00000000000E+00  0.00000000000E+00  0.43811252243E+02  0.43811252243E+02  0.00000000000E+00 0.  1.
         21   -1    0    0  501  503 -0.00000000000E+00 -0.00000000000E+00 -0.11015370194E+04  0.11015370194E+04  0.00000000000E+00 0.  1.
          6    1    1    2  501    0 -0.18008634263E+02  0.11836126434E+03 -0.36405303790E+03  0.42047272707E+03  0.17300000000E+03 0.  1.
         -6    1    1    2    0  502  0.18008634263E+02 -0.11836126434E+03 -0.69367272923E+03  0.72487554455E+03  0.17300000000E+03 0.  1.
<mgrwt>
<rscale>  2 0.21038702E+03</rscale>
<asrwt>0</asrwt>
<pdfrwt beam="1">  1       21 0.67401929E-02 0.21038702E+03</pdfrwt>
<pdfrwt beam="2">  1       21 0.16946723E+00 0.21038702E+03</pdfrwt>
<totfact> 0.34364303E+04</totfact>
</mgrwt>
</event>
<event>
 4    1  0.4451819E+000  0.1998582E+03  0.7546771E-02  0.1149859E+00
         21   -1    0    0  503  502  0.00000000000E+00  0.00000000000E+00  0.14630042671E+03  0.14630042671E+03  0.00000000000E+00 0. -1.
         21   -1    0    0  501  503 -0.00000000000E+00 -0.00000000000E+00 -0.39525633804E+03  0.39525633804E+03  0.00000000000E+00 0. -1.
          6    1    1    2  501    0 -0.89002681145E+02  0.45747418341E+02 -0.27505901553E+03  0.34000112582E+03  0.17300000000E+03 0. -1.
         -6    1    1    2    0  502  0.89002681145E+02 -0.45747418341E+02  0.26103104202E+02  0.20155563893E+03  0.17300000000E+03 0. -1.
<mgrwt>
<rscale>  2 0.19985821E+03</rscale>
<asrwt>0</asrwt>
<pdfrwt beam="1">  1       21 0.22507758E-01 0.19985821E+03</pdfrwt>
<pdfrwt beam="2">  1       21 0.60808667E-01 0.19985821E+03</pdfrwt>
<totfact> 0.46383516E+04</totfact>
</mgrwt>
</event>
<event>
 4    1  0.4451819E+000  0.1778115E+03  0.7546771E-02  0.1169938E+00
         21   -1    0    0  501  502  0.00000000000E+00  0.00000000000E+00  0.36816596157E+03  0.36816596157E+03  0.00000000000E+00 0. -1.
         21   -1    0    0  502  503 -0.00000000000E+00 -0.00000000000E+00 -0.11618178480E+03  0.11618178480E+03  0.00000000000E+00 0. -1.
          6    1    1    2  501    0  0.40789789582E+02  0.49111834536E+01  0.24967652844E+03  0.30652128068E+03  0.17300000000E+03 0. -1.
         -6    1    1    2    0  503 -0.40789789582E+02 -0.49111834536E+01  0.23076483346E+01  0.17782646568E+03  0.17300000000E+03 0. -1.
<mgrwt>
<rscale>  2 0.17781149E+03</rscale>
<asrwt>0</asrwt>
<pdfrwt beam="1">  1       21 0.56640917E-01 0.17781149E+03</pdfrwt>
<pdfrwt beam="2">  1       21 0.17874121E-01 0.17781149E+03</pdfrwt>
<totfact> 0.83858683E+04</totfact>
</mgrwt>
</event>
<event>
 4    1  0.4451819E+000  0.1783696E+03  0.7546771E-02  0.1169390E+00
         21   -1    0    0  503  502  0.00000000000E+00  0.00000000000E+00  0.15891379097E+03  0.15891379097E+03  0.00000000000E+00 0.  1.
         21   -1    0    0  501  503 -0.00000000000E+00 -0.00000000000E+00 -0.26490053002E+03  0.26490053002E+03  0.00000000000E+00 0.  1.
          6    1    1    2  501    0 -0.84023859263E+01  0.42615773476E+02 -0.15771431828E+03  0.23809559095E+03  0.17300000000E+03 0.  1.
         -6    1    1    2    0  502  0.84023859263E+01 -0.42615773476E+02  0.51727579228E+02  0.18571873005E+03  0.17300000000E+03 0.  1.
<mgrwt>
<rscale>  2 0.17836957E+03</rscale>
<asrwt>0</asrwt>
<pdfrwt beam="1">  1       21 0.24448275E-01 0.17836957E+03</pdfrwt>
<pdfrwt beam="2">  1       21 0.40753928E-01 0.17836957E+03</pdfrwt>
<totfact> 0.92183578E+04</totfact>
</mgrwt>
</event>
<event>
 4    1  0.4451819E+000  0.2395164E+03  0.7546771E-02  0.1120115E+00
         21   -1    0    0  501  502  0.00000000000E+00  0.00000000000E+00  0.52646729901E+03  0.52646729901E+03  0.00000000000E+00 0. -1.
         21   -1    0    0  502  503 -0.00000000000E+00 -0.00000000000E+00 -0.11087141411E+03  0.11087141411E+03  0.00000000000E+00 0.  1.
          6    1    1    2  501    0  0.28990647387E+02  0.16309095909E+03  0.16604465592E+03  0.29144286976E+03  0.17300000000E+03 0. -1.
         -6    1    1    2    0  503 -0.28990647387E+02 -0.16309095909E+03  0.24955122898E+03  0.34589584336E+03  0.17300000000E+03 0.  1.
<mgrwt>
<rscale>  2 0.23951643E+03</rscale>
<asrwt>0</asrwt>
<pdfrwt beam="1">  1       21 0.80994968E-01 0.23951643E+03</pdfrwt>
<pdfrwt beam="2">  1       21 0.17057141E-01 0.23951643E+03</pdfrwt>
<totfact> 0.40527355E+04</totfact>
</mgrwt>
</event>
<event>
 4    1  0.4451819E+000  0.2419359E+03  0.7546771E-02  0.1118510E+00
         21   -1    0    0  503  502  0.00000000000E+00  0.00000000000E+00  0.43756185061E+03  0.43756185061E+03  0.00000000000E+00 0. -1.
         21   -1    0    0  501  503 -0.00000000000E+00 -0.00000000000E+00 -0.14832046745E+03  0.14832046745E+03  0.00000000000E+00 0.  1.
          6    1    1    2  501    0  0.15119200321E+03 -0.75795543420E+02  0.52870534795E+02  0.24764547177E+03  0.17300000000E+03 0.  1.
         -6    1    1    2    0  502 -0.15119200321E+03  0.75795543420E+02  0.23637084836E+03  0.33823684630E+03  0.17300000000E+03 0.  1.
<mgrwt>
<rscale>  2 0.24193591E+03</rscale>
<asrwt>0</asrwt>
<pdfrwt beam="1">  1       21 0.67317207E-01 0.24193591E+03</pdfrwt>
<pdfrwt beam="2">  1       21 0.22818534E-01 0.24193591E+03</pdfrwt>
<totfact> 0.35499561E+04</totfact>
</mgrwt>
</event>
<event>
 4    1  0.4451819E+000  0.2008148E+03  0.7546771E-02  0.1149053E+00
         21   -1    0    0  503  502  0.00000000000E+00  0.00000000000E+00  0.46161648544E+03  0.46161648544E+03  0.00000000000E+00 0.  1.
         21   -1    0    0  501  503 -0.00000000000E+00 -0.00000000000E+00 -0.11510481011E+03  0.11510481011E+03  0.00000000000E+00 0.  1.
          6    1    1    2  501    0 -0.76067416461E+02  0.67906866156E+02  0.31681709505E+02  0.20329861051E+03  0.17300000000E+03 0.  1.
         -6    1    1    2    0  502  0.76067416461E+02 -0.67906866156E+02  0.31482996582E+03  0.37342268503E+03  0.17300000000E+03 0.  1.
<mgrwt>
<rscale>  2 0.20081483E+03</rscale>
<asrwt>0</asrwt>
<pdfrwt beam="1">  1       21 0.71017920E-01 0.20081483E+03</pdfrwt>
<pdfrwt beam="2">  1       21 0.17708433E-01 0.20081483E+03</pdfrwt>
<totfact> 0.51725277E+04</totfact>
</mgrwt>
</event>
<event>
 4    1  0.4451819E+000  0.1769303E+03  0.7546771E-02  0.1170807E+00
         21   -1    0    0  503  502  0.00000000000E+00  0.00000000000E+00  0.13979754895E+03  0.13979754895E+03  0.00000000000E+00 0.  1.
         21   -1    0    0  501  503 -0.00000000000E+00 -0.00000000000E+00 -0.30504176002E+03  0.30504176002E+03  0.00000000000E+00 0.  1.
          6    1    1    2  501    0 -0.32683961577E+02 -0.17524214123E+02 -0.19731737142E+03  0.26502544121E+03  0.17300000000E+03 0.  1.
         -6    1    1    2    0  502  0.32683961577E+02  0.17524214123E+02  0.32073160351E+02  0.17981386776E+03  0.17300000000E+03 0.  1.
<mgrwt>
<rscale>  2 0.17693032E+03</rscale>
<asrwt>0</asrwt>
<pdfrwt beam="1">  1       21 0.21507315E-01 0.17693032E+03</pdfrwt>
<pdfrwt beam="2">  1       21 0.46929501E-01 0.17693032E+03</pdfrwt>
<totfact> 0.88096389E+04</totfact>
</mgrwt>
</event>
<event>
 4    1  0.4451819E+000  0.1770943E+03  0.7546771E-02  0.1170645E+00
         21   -1    0    0  501  502  0.00000000000E+00  0.00000000000E+00  0.15743842447E+04  0.15743842447E+04  0.00000000000E+00 0. -1.
         21   -1    0    0  502  503 -0.00000000000E+00 -0.00000000000E+00 -0.42755293291E+02  0.42755293291E+02  0.00000000000E+00 0. -1.
          6    1    1    2  501    0  0.32784083434E+02  0.18936727167E+02  0.13567251778E+04  0.13682344843E+04  0.17300000000E+03 0. -1.
         -6    1    1    2    0  503 -0.32784083434E+02 -0.18936727167E+02  0.17490377359E+03  0.24890505374E+03  0.17300000000E+03 0. -1.
<mgrwt>
<rscale>  2 0.17709431E+03</rscale>
<asrwt>0</asrwt>
<pdfrwt beam="1">  1       21 0.24221292E+00 0.17709431E+03</pdfrwt>
<pdfrwt beam="2">  1       21 0.65777386E-02 0.17709431E+03</pdfrwt>
<totfact> 0.12630185E+04</totfact>
</mgrwt>
</event>
<event>
 4    1  0.4451819E+000  0.2246050E+03  0.7546771E-02  0.1130496E+00
         21   -1    0    0  503  502  0.00000000000E+00  0.00000000000E+00  0.12827880303E+03  0.12827880303E+03  0.00000000000E+00 0. -1.
         21   -1    0    0  501  503 -0.00000000000E+00 -0.00000000000E+00 -0.39699125194E+03  0.39699125194E+03  0.00000000000E+00 0.  1.
          6    1    1    2  501    0  0.89532006270E+02  0.11181421363E+03 -0.15980537031E+03  0.27565404930E+03  0.17300000000E+03 0. -1.
         -6    1    1    2    0  502 -0.89532006270E+02 -0.11181421363E+03 -0.10890707859E+03  0.24961600567E+03  0.17300000000E+03 0. -1.
<mgrwt>
<rscale>  2 0.22460498E+03</rscale>
<asrwt>0</asrwt>
<pdfrwt beam="1">  1       21 0.19735200E-01 0.22460498E+03</pdfrwt>
<pdfrwt beam="2">  1       21 0.61075577E-01 0.22460498E+03</pdfrwt>
<totfact> 0.58168157E+04</totfact>
</mgrwt>
</event>
<event>
 4    1  0.4451819E+000  0.2869453E+03  0.7546771E-02  0.1091955E+00
         21   -1    0    0  503  502  0.00000000000E+00  0.00000000000E+00  0.37139459306E+03  0.37139459306E+03  0.00000000000E+00 0. -1.
         21   -1    0    0  501  503 -0.00000000000E+00 -0.00000000000E+00 -0.10288186824E+04  0.10288186824E+04  0.00000000000E+00 0. -1.
          6    1    1    2  501    0 -0.22468829240E+03 -0.43860647329E+02 -0.94881514989E+03  0.99125565511E+03  0.17300000000E+03 0. -1.
         -6    1    1    2    0  502  0.22468829240E+03  0.43860647329E+02  0.29139106051E+03  0.40895762039E+03  0.17300000000E+03 0. -1.
<mgrwt>
<rscale>  2 0.28694527E+03</rscale>
<asrwt>0</asrwt>
<pdfrwt beam="1">  1       21 0.57137629E-01 0.28694527E+03</pdfrwt>
<pdfrwt beam="2">  1       21 0.15827980E+00 0.28694527E+03</pdfrwt>
<totfact> 0.68409880E+02</totfact>
</mgrwt>
</event>
<event>
 4    1  0.4451819E+000  0.2393707E+03  0.7546771E-02  0.1120213E+00
         21   -1    0    0  501  502  0.00000000000E+00  0.00000000000E+00  0.57046817354E+02  0.57046817354E+02  0.00000000000E+00 0. -1.
         21   -1    0    0  502  503 -0.00000000000E+00 -0.00000000000E+00 -0.11545731208E+04  0.11545731208E+04  0.00000000000E+00 0. -1.
          6    1    1    2  501    0 -0.12255227483E+03  0.11113171135E+03 -0.33028436469E+03  0.40790449726E+03  0.17300000000E+03 0. -1.
         -6    1    1    2    0  503  0.12255227483E+03 -0.11113171135E+03 -0.76724193872E+03  0.80371544085E+03  0.17300000000E+03 0. -1.
<mgrwt>
<rscale>  2 0.23937067E+03</rscale>
<asrwt>0</asrwt>
<pdfrwt beam="1">  1       21 0.87764344E-02 0.23937067E+03</pdfrwt>
<pdfrwt beam="2">  1       21 0.17762661E+00 0.23937067E+03</pdfrwt>
<totfact> 0.18685283E+04</totfact>
</mgrwt>
</event>
<event>
 4    1  0.4451819E+000  0.1740872E+03  0.7546771E-02  0.1173651E+00
         21   -1    0    0  501  502  0.00000000000E+00  0.00000000000E+00  0.63764212828E+02  0.63764212828E+02  0.00000000000E+00 0. -1.
         21   -1    0    0  502  503 -0.00000000000E+00 -0.00000000000E+00 -0.13806746581E+04  0.13806746581E+04  0.00000000000E+00 0. -1.
          6    1    1    2  501    0 -0.19380925791E+02  0.13171423752E+01 -0.73610497026E+02  0.18901021248E+03  0.17300000000E+03 0. -1.
         -6    1    1    2    0  503  0.19380925791E+02 -0.13171423752E+01 -0.12432999483E+04  0.12554286585E+04  0.17300000000E+03 0. -1.
<mgrwt>
<rscale>  2 0.17408721E+03</rscale>
<asrwt>0</asrwt>
<pdfrwt beam="1">  1       21 0.98098781E-02 0.17408721E+03</pdfrwt>
<pdfrwt beam="2">  1       21 0.21241150E+00 0.17408721E+03</pdfrwt>
<totfact> 0.95677350E+03</totfact>
</mgrwt>
</event>
<event>
 4    1  0.4451819E+000  0.2735377E+03  0.7546771E-02  0.1099272E+00
         21   -1    0    0  501  502  0.00000000000E+00  0.00000000000E+00  0.11444922175E+03  0.11444922175E+03  0.00000000000E+00 0.  1.
         21   -1    0    0  502  503 -0.00000000000E+00 -0.00000000000E+00 -0.80976977026E+03  0.80976977026E+03  0.00000000000E+00 0. -1.
          6    1    1    2  501    0  0.12055015927E+03  0.17424554430E+03 -0.14482961715E+03  0.30951327696E+03  0.17300000000E+03 0.  1.
         -6    1    1    2    0  503 -0.12055015927E+03 -0.17424554430E+03 -0.55049093135E+03  0.61470571505E+03  0.17300000000E+03 0. -1.
<mgrwt>
<rscale>  2 0.27353766E+03</rscale>
<asrwt>0</asrwt>
<pdfrwt beam="1">  1       21 0.17607573E-01 0.27353766E+03</pdfrwt>
<pdfrwt beam="2">  1       21 0.12457996E+00 0.27353766E+03</pdfrwt>
<totfact> 0.13405595E+04</totfact>
</mgrwt>
</event>
<event>
 4    1  0.4451819E+000  0.2532150E+03  0.7546771E-02  0.1111290E+00
         21   -1    0    0  503  502  0.00000000000E+00  0.00000000000E+00  0.12069633609E+03  0.12069633609E+03  0.00000000000E+00 0.  1.
         21   -1    0    0  501  503 -0.00000000000E+00 -0.00000000000E+00 -0.56670655378E+03  0.56670655378E+03  0.00000000000E+00 0. -1.
          6    1    1    2  501    0 -0.16769836672E+03 -0.77885169654E+02 -0.30899677378E+03  0.39949574223E+03  0.17300000000E+03 0. -1.
         -6    1    1    2    0  502  0.16769836672E+03  0.77885169654E+02 -0.13701344392E+03  0.28790714765E+03  0.17300000000E+03 0.  1.
<mgrwt>
<rscale>  2 0.25321501E+03</rscale>
<asrwt>0</asrwt>
<pdfrwt beam="1">  1       21 0.18568667E-01 0.25321501E+03</pdfrwt>
<pdfrwt beam="2">  1       21 0.87185625E-01 0.25321501E+03</pdfrwt>
<totfact> 0.29046573E+04</totfact>
</mgrwt>
</event>
<event>
 4    1  0.4451819E+000  0.2900522E+03  0.7546771E-02  0.1090322E+00
         21   -1    0    0  503  502  0.00000000000E+00  0.00000000000E+00  0.52259416333E+03  0.52259416333E+03  0.00000000000E+00 0.  1.
         21   -1    0    0  501  503 -0.00000000000E+00 -0.00000000000E+00 -0.16343623362E+03  0.16343623362E+03  0.00000000000E+00 0. -1.
          6    1    1    2  501    0  0.21308313498E+03  0.93791441676E+02  0.22157977779E+03  0.36500391076E+03  0.17300000000E+03 0.  1.
         -6    1    1    2    0  502 -0.21308313498E+03 -0.93791441676E+02  0.13757815192E+03  0.32102648618E+03  0.17300000000E+03 0. -1.
<mgrwt>
<rscale>  2 0.29005216E+03</rscale>
<asrwt>0</asrwt>
<pdfrwt beam="1">  1       21 0.80399101E-01 0.29005216E+03</pdfrwt>
<pdfrwt beam="2">  1       21 0.25144036E-01 0.29005216E+03</pdfrwt>
<totfact> 0.19381918E+04</totfact>
</mgrwt>
</event>
<event>
 4    1  0.4451819E+000  0.2558649E+03  0.7546771E-02  0.1109653E+00
         21   -1    0    0  503  502  0.00000000000E+00  0.00000000000E+00  0.51925127064E+03  0.51925127064E+03  0.00000000000E+00 0. -1.
         21   -1    0    0  501  503 -0.00000000000E+00 -0.00000000000E+00 -0.13834799370E+03  0.13834799370E+03  0.00000000000E+00 0.  1.
          6    1    1    2  501    0  0.87561558313E+02  0.16694557610E+03  0.92537921828E+02  0.27208476409E+03  0.17300000000E+03 0.  1.
         -6    1    1    2    0  502 -0.87561558313E+02 -0.16694557610E+03  0.28836535511E+03  0.38551450025E+03  0.17300000000E+03 0. -1.
<mgrwt>
<rscale>  2 0.25586491E+03</rscale>
<asrwt>0</asrwt>
<pdfrwt beam="1">  1       21 0.79884810E-01 0.25586491E+03</pdfrwt>
<pdfrwt beam="2">  1       21 0.21284307E-01 0.25586491E+03</pdfrwt>
<totfact> 0.27442495E+04</totfact>
</mgrwt>
</event>
<event>
 4    1  0.4451819E+000  0.2128918E+03  0.7546771E-02  0.1139296E+00
         21   -1    0    0  501  502  0.00000000000E+00  0.00000000000E+00  0.50757909323E+03  0.50757909323E+03  0.00000000000E+00 0.  1.
         21   -1    0    0  502  503 -0.00000000000E+00 -0.00000000000E+00 -0.96096668912E+02  0.96096668912E+02  0.00000000000E+00 0.  1.
          6    1    1    2  501    0 -0.30079788975E+02  0.12037080806E+03  0.12542333611E+03  0.24709095163E+03  0.17300000000E+03 0.  1.
         -6    1    1    2    0  503  0.30079788975E+02 -0.12037080806E+03  0.28605908821E+03  0.35658481051E+03  0.17300000000E+03 0.  1.
<mgrwt>
<rscale>  2 0.21289182E+03</rscale>
<asrwt>0</asrwt>
<pdfrwt beam="1">  1       21 0.78089090E-01 0.21289182E+03</pdfrwt>
<pdfrwt beam="2">  1       21 0.14784103E-01 0.21289182E+03</pdfrwt>
<totfact> 0.57940214E+04</totfact>
</mgrwt>
</event>
<event>
 4    1  0.4451819E+000  0.1909427E+03  0.7546771E-02  0.1157614E+00
         21   -1    0    0  503  502  0.00000000000E+00  0.00000000000E+00  0.61112382414E+02  0.61112382414E+02  0.00000000000E+00 0.  1.
         21   -1    0    0  501  503 -0.00000000000E+00 -0.00000000000E+00 -0.61437648851E+03  0.61437648851E+03  0.00000000000E+00 0.  1.
          6    1    1    2  501    0 -0.17116382546E+02  0.78975686839E+02 -0.33409625102E+03  0.38481090760E+03  0.17300000000E+03 0.  1.
         -6    1    1    2    0  502  0.17116382546E+02 -0.78975686839E+02 -0.21916785508E+03  0.29067796333E+03  0.17300000000E+03 0.  1.
<mgrwt>
<rscale>  2 0.19094274E+03</rscale>
<asrwt>0</asrwt>
<pdfrwt beam="1">  1       21 0.94019056E-02 0.19094274E+03</pdfrwt>
<pdfrwt beam="2">  1       21 0.94519454E-01 0.19094274E+03</pdfrwt>
<totfact> 0.84867035E+04</totfact>
</mgrwt>
</event>
<event>
 4    1  0.4451819E+000  0.2116294E+03  0.7546771E-02  0.1140282E+00
         21   -1    0    0  503  502  0.00000000000E+00  0.00000000000E+00  0.36940487875E+03  0.36940487875E+03  0.00000000000E+00 0.  1.
         21   -1    0    0  501  503 -0.00000000000E+00 -0.00000000000E+00 -0.12726208597E+03  0.12726208597E+03  0.00000000000E+00 0. -1.
          6    1    1    2  501    0 -0.12083796743E+03  0.16005513606E+02  0.67054986172E+02  0.22199856308E+03  0.17300000000E+03 0. -1.
         -6    1    1    2    0  502  0.12083796743E+03 -0.16005513606E+02  0.17508780661E+03  0.27466840164E+03  0.17300000000E+03 0. -1.
<mgrwt>
<rscale>  2 0.21162937E+03</rscale>
<asrwt>0</asrwt>
<pdfrwt beam="1">  1       21 0.56831520E-01 0.21162937E+03</pdfrwt>
<pdfrwt beam="2">  1       21 0.19578783E-01 0.21162937E+03</pdfrwt>
<totfact> 0.69300405E+04</totfact>
</mgrwt>
</event>
<event>
 4    1  0.4451819E+000  0.7514689E+03  0.7546771E-02  0.9633049E-01
         21   -1    0    0  501  502  0.00000000000E+00  0.00000000000E+00  0.31175310002E+04  0.31175310002E+04  0.00000000000E+00 0.  1.
         21   -1    0    0  502  503 -0.00000000000E+00 -0.00000000000E+00 -0.31782813320E+03  0.31782813320E+03  0.00000000000E+00 0. -1.
          6    1    1    2  501    0  0.52846401589E+03  0.50547228908E+03  0.25263054905E+04  0.26357019715E+04  0.17300000000E+03 0.  1.
         -6    1    1    2    0  503 -0.52846401589E+03 -0.50547228908E+03  0.27339737648E+03  0.79965716190E+03  0.17300000000E+03 0. -1.
<mgrwt>
<rscale>  2 0.75146886E+03</rscale>
<asrwt>0</asrwt>
<pdfrwt beam="1">  1       21 0.47962013E+00 0.75146886E+03</pdfrwt>
<pdfrwt beam="2">  1       21 0.48896638E-01 0.75146886E+03</pdfrwt>
<totfact> 0.62086215E+00</totfact>
</mgrwt>
</event>
<event>
 4    1  0.4451819E+000  0.2873141E+03  0.7546771E-02  0.1091760E+00
         21   -1    0    0  501  502  0.00000000000E+00  0.00000000000E+00  0.54339945213E+02  0.54339945213E+02  0.00000000000E+00 0. -1.
         21   -1    0    0  502  503 -0.00000000000E+00 -0.00000000000E+00 -0.20151446860E+04  0.20151446860E+04  0.00000000000E+00 0. -1.
          6    1    1    2  501    0  0.20722584109E+03 -0.98376035798E+02 -0.46703679610E+03  0.54833635895E+03  0.17300000000E+03 0. -1.
         -6    1    1    2    0  503 -0.20722584109E+03  0.98376035798E+02 -0.14937679447E+04  0.15211482723E+04  0.17300000000E+03 0. -1.
<mgrwt>
<rscale>  2 0.28731410E+03</rscale>
<asrwt>0</asrwt>
<pdfrwt beam="1">  1       21 0.83599912E-02 0.28731410E+03</pdfrwt>
<pdfrwt beam="2">  1       21 0.31002227E+00 0.28731410E+03</pdfrwt>
<totfact> 0.30186350E+03</totfact>
</mgrwt>
</event>
<event>
 4    1  0.4451819E+000  0.2969192E+03  0.7546771E-02  0.1086791E+00
         21   -1    0    0  501  502  0.00000000000E+00  0.00000000000E+00  0.20985330175E+03  0.20985330175E+03  0.00000000000E+00 0.  1.
         21   -1    0    0  502  503 -0.00000000000E+00 -0.00000000000E+00 -0.51697306024E+03  0.51697306024E+03  0.00000000000E+00 0. -1.
          6    1    1    2  501    0  0.62146398483E+02  0.23317342959E+03  0.37480420110E+01  0.29694287486E+03  0.17300000000E+03 0.  1.
         -6    1    1    2    0  503 -0.62146398483E+02 -0.23317342959E+03 -0.31086780051E+03  0.42988348712E+03  0.17300000000E+03 0.  1.
<mgrwt>
<rscale>  2 0.29691922E+03</rscale>
<asrwt>0</asrwt>
<pdfrwt beam="1">  1       21 0.32285124E-01 0.29691922E+03</pdfrwt>
<pdfrwt beam="2">  1       21 0.79534316E-01 0.29691922E+03</pdfrwt>
<totfact> 0.12145039E+04</totfact>
</mgrwt>
</event>
<event>
 4    1  0.4451819E+000  0.5805162E+03  0.7546771E-02  0.9946674E-01
         21   -1    0    0  501  502  0.00000000000E+00  0.00000000000E+00  0.35433696494E+03  0.35433696494E+03  0.00000000000E+00 0. -1.
         21   -1    0    0  502  503 -0.00000000000E+00 -0.00000000000E+00 -0.98220113713E+03  0.98220113713E+03  0.00000000000E+00 0. -1.
          6    1    1    2  501    0  0.51276652358E+03  0.21009644863E+03 -0.43290639421E+03  0.72415949319E+03  0.17300000000E+03 0. -1.
         -6    1    1    2    0  503 -0.51276652358E+03 -0.21009644863E+03 -0.19495777797E+03  0.61237860888E+03  0.17300000000E+03 0. -1.
<mgrwt>
<rscale>  2 0.58051617E+03</rscale>
<asrwt>0</asrwt>
<pdfrwt beam="1">  1       21 0.54513379E-01 0.58051617E+03</pdfrwt>
<pdfrwt beam="2">  1       21 0.15110787E+00 0.58051617E+03</pdfrwt>
<totfact> 0.74464299E+02</totfact>
</mgrwt>
</event>
<event>
 4    1  0.4451819E+000  0.2139923E+03  0.7546771E-02  0.1138443E+00
         21   -1    0    0  503  502  0.00000000000E+00  0.00000000000E+00  0.36822150258E+03  0.36822150258E+03  0.00000000000E+00 0. -1.
         21   -1    0    0  501  503 -0.00000000000E+00 -0.00000000000E+00 -0.12814668407E+03  0.12814668407E+03  0.00000000000E+00 0.  1.
          6    1    1    2  501    0  0.12433263388E+03  0.20126848736E+02  0.77384784261E+02  0.22755460602E+03  0.17300000000E+03 0.  1.
         -6    1    1    2    0  502 -0.12433263388E+03 -0.20126848736E+02  0.16269003425E+03  0.26881358063E+03  0.17300000000E+03 0. -1.
<mgrwt>
<rscale>  2 0.21399228E+03</rscale>
<asrwt>0</asrwt>
<pdfrwt beam="1">  1       21 0.56649461E-01 0.21399228E+03</pdfrwt>
<pdfrwt beam="2">  1       21 0.19714875E-01 0.21399228E+03</pdfrwt>
<totfact> 0.68808519E+04</totfact>
</mgrwt>
</event>
<event>
 4    1  0.4451819E+000  0.2080277E+03  0.7546771E-02  0.1143137E+00
         21   -1    0    0  503  502  0.00000000000E+00  0.00000000000E+00  0.17586314910E+03  0.17586314910E+03  0.00000000000E+00 0. -1.
         21   -1    0    0  501  503 -0.00000000000E+00 -0.00000000000E+00 -0.25594126031E+03  0.25594126031E+03  0.00000000000E+00 0.  1.
          6    1    1    2  501    0  0.14697436554E+02 -0.11458834511E+03  0.23511799759E+01  0.20804093713E+03  0.17300000000E+03 0. -1.
         -6    1    1    2    0  502 -0.14697436554E+02  0.11458834511E+03 -0.82429291185E+02  0.22376347227E+03  0.17300000000E+03 0. -1.
<mgrwt>
<rscale>  2 0.20802765E+03</rscale>
<asrwt>0</asrwt>
<pdfrwt beam="1">  1       21 0.27055869E-01 0.20802765E+03</pdfrwt>
<pdfrwt beam="2">  1       21 0.39375578E-01 0.20802765E+03</pdfrwt>
<totfact> 0.80410950E+04</totfact>
</mgrwt>
</event>
<event>
 4    1  0.4451819E+000  0.2172906E+03  0.7546771E-02  0.1135919E+00
         21   -1    0    0  503  502  0.00000000000E+00  0.00000000000E+00  0.93041050389E+03  0.93041050389E+03  0.00000000000E+00 0. -1.
         21   -1    0    0  501  503 -0.00000000000E+00 -0.00000000000E+00 -0.68863202499E+02  0.68863202499E+02  0.00000000000E+00 0. -1.
          6    1    1    2  501    0 -0.10625221690E+03 -0.77438221792E+02  0.68704419525E+03  0.72058652361E+03  0.17300000000E+03 0. -1.
         -6    1    1    2    0  502  0.10625221690E+03  0.77438221792E+02  0.17450310614E+03  0.27868718278E+03  0.17300000000E+03 0. -1.
<mgrwt>
<rscale>  2 0.21729062E+03</rscale>
<asrwt>0</asrwt>
<pdfrwt beam="1">  1       21 0.14314007E+00 0.21729062E+03</pdfrwt>
<pdfrwt beam="2">  1       21 0.10594340E-01 0.21729062E+03</pdfrwt>
<totfact> 0.24372206E+04</totfact>
</mgrwt>
</event>
<event>
 4    1  0.4451819E+000  0.2930731E+03  0.7546771E-02  0.1088755E+00
         21   -1    0    0  503  502  0.00000000000E+00  0.00000000000E+00  0.53387950573E+03  0.53387950573E+03  0.00000000000E+00 0.  1.
         21   -1    0    0  501  503 -0.00000000000E+00 -0.00000000000E+00 -0.16535730339E+03  0.16535730339E+03  0.00000000000E+00 0. -1.
          6    1    1    2  501    0  0.17004643701E+02  0.23595268328E+03  0.12674711393E+03  0.31930652600E+03  0.17300000000E+03 0. -1.
         -6    1    1    2    0  502 -0.17004643701E+02 -0.23595268328E+03  0.24177508840E+03  0.37993028312E+03  0.17300000000E+03 0.  1.
<mgrwt>
<rscale>  2 0.29307307E+03</rscale>
<asrwt>0</asrwt>
<pdfrwt beam="1">  1       21 0.82135308E-01 0.29307307E+03</pdfrwt>
<pdfrwt beam="2">  1       21 0.25439585E-01 0.29307307E+03</pdfrwt>
<totfact> 0.18021134E+04</totfact>
</mgrwt>
</event>
<event>
 4    1  0.4451819E+000  0.2018027E+03  0.7546771E-02  0.1148227E+00
         21   -1    0    0  503  502  0.00000000000E+00  0.00000000000E+00  0.25636449759E+04  0.25636449759E+04  0.00000000000E+00 0.  1.
         21   -1    0    0  501  503 -0.00000000000E+00 -0.00000000000E+00 -0.17491838591E+02  0.17491838591E+02  0.00000000000E+00 0.  1.
          6    1    1    2  501    0  0.10325686515E+03 -0.11547762940E+02  0.16641926183E+04  0.16763834292E+04  0.17300000000E+03 0.  1.
         -6    1    1    2    0  502 -0.10325686515E+03  0.11547762940E+02  0.88196051896E+03  0.90475338520E+03  0.17300000000E+03 0.  1.
<mgrwt>
<rscale>  2 0.20180270E+03</rscale>
<asrwt>0</asrwt>
<pdfrwt beam="1">  1       21 0.39440662E+00 0.20180270E+03</pdfrwt>
<pdfrwt beam="2">  1       21 0.26910541E-02 0.20180270E+03</pdfrwt>
<totfact> 0.70612242E+03</totfact>
</mgrwt>
</event>
<event>
 4    1  0.4451819E+000  0.1840763E+03  0.7546771E-02  0.1163915E+00
         21   -1    0    0  503  502  0.00000000000E+00  0.00000000000E+00  0.85551742154E+02  0.85551742154E+02  0.00000000000E+00 0.  1.
         21   -1    0    0  501  503 -0.00000000000E+00 -0.00000000000E+00 -0.57237554794E+03  0.57237554794E+03  0.00000000000E+00 0.  1.
          6    1    1    2  501    0 -0.57721148014E+02  0.24967106873E+02 -0.42598887053E+03  0.46405883804E+03  0.17300000000E+03 0.  1.
         -6    1    1    2    0  502  0.57721148014E+02 -0.24967106873E+02 -0.60834935263E+02  0.19386845205E+03  0.17300000000E+03 0.  1.
<mgrwt>
<rscale>  2 0.18407631E+03</rscale>
<asrwt>0</asrwt>
<pdfrwt beam="1">  1       21 0.13161807E-01 0.18407631E+03</pdfrwt>
<pdfrwt beam="2">  1       21 0.88057776E-01 0.18407631E+03</pdfrwt>
<totfact> 0.55147649E+04</totfact>
</mgrwt>
</event>
<event>
 4    1  0.4451819E+000  0.3200985E+03  0.7546771E-02  0.1075604E+00
         21   -1    0    0  503  502  0.00000000000E+00  0.00000000000E+00  0.59757084837E+03  0.59757084837E+03  0.00000000000E+00 0.  1.
         21   -1    0    0  501  503 -0.00000000000E+00 -0.00000000000E+00 -0.18113282806E+03  0.18113282806E+03  0.00000000000E+00 0.  1.
          6    1    1    2  501    0  0.14737153949E+03  0.22542334493E+03  0.11827200769E+03  0.34124964893E+03  0.17300000000E+03 0.  1.
         -6    1    1    2    0  502 -0.14737153949E+03 -0.22542334493E+03  0.29816601262E+03  0.43745402750E+03  0.17300000000E+03 0.  1.
<mgrwt>
<rscale>  2 0.32009851E+03</rscale>
<asrwt>0</asrwt>
<pdfrwt beam="1">  1       21 0.91933975E-01 0.32009851E+03</pdfrwt>
<pdfrwt beam="2">  1       21 0.27866589E-01 0.32009851E+03</pdfrwt>
<totfact> 0.11482005E+04</totfact>
</mgrwt>
</event>
<event>
 4    1  0.4451819E+000  0.2517593E+03  0.7546771E-02  0.1112198E+00
         21   -1    0    0  503  502  0.00000000000E+00  0.00000000000E+00  0.68861086573E+03  0.68861086573E+03  0.00000000000E+00 0.  1.
         21   -1    0    0  501  503 -0.00000000000E+00 -0.00000000000E+00 -0.96158021979E+02  0.96158021979E+02  0.00000000000E+00 0. -1.
          6    1    1    2  501    0  0.72998776566E+02 -0.16770481735E+03  0.21506777451E+03  0.33111459463E+03  0.17300000000E+03 0. -1.
         -6    1    1    2    0  502 -0.72998776566E+02  0.16770481735E+03  0.37738506924E+03  0.45365429308E+03  0.17300000000E+03 0.  1.
<mgrwt>
<rscale>  2 0.25175926E+03</rscale>
<asrwt>0</asrwt>
<pdfrwt beam="1">  1       21 0.10594013E+00 0.25175926E+03</pdfrwt>
<pdfrwt beam="2">  1       21 0.14793542E-01 0.25175926E+03</pdfrwt>
<totfact> 0.27880761E+04</totfact>
</mgrwt>
</event>
<event>
 4    1  0.4451819E+000  0.1807922E+03  0.7546771E-02  0.1167039E+00
         21   -1    0    0  501  502  0.00000000000E+00  0.00000000000E+00  0.63610831047E+03  0.63610831047E+03  0.00000000000E+00 0.  1.
         21   -1    0    0  502  503 -0.00000000000E+00 -0.00000000000E+00 -0.54092774517E+02  0.54092774517E+02  0.00000000000E+00 0.  1.
          6    1    1    2  501    0 -0.39499258756E+02 -0.34592507286E+02  0.36823259583E+03  0.41022076694E+03  0.17300000000E+03 0. -1.
         -6    1    1    2    0  503  0.39499258756E+02  0.34592507286E+02  0.21378294013E+03  0.27998031804E+03  0.17300000000E+03 0. -1.
<mgrwt>
<rscale>  2 0.18079224E+03</rscale>
<asrwt>0</asrwt>
<pdfrwt beam="1">  1       21 0.97862812E-01 0.18079224E+03</pdfrwt>
<pdfrwt beam="2">  1       21 0.83219658E-02 0.18079224E+03</pdfrwt>
<totfact> 0.97260447E+04</totfact>
</mgrwt>
</event>
<event>
 4    1  0.4451819E+000  0.1786108E+03  0.7546771E-02  0.1169154E+00
         21   -1    0    0  503  502  0.00000000000E+00  0.00000000000E+00  0.36866206881E+03  0.36866206881E+03  0.00000000000E+00 0.  1.
         21   -1    0    0  501  503 -0.00000000000E+00 -0.00000000000E+00 -0.16394467063E+03  0.16394467063E+03  0.00000000000E+00 0.  1.
          6    1    1    2  501    0  0.53237995721E+01 -0.44096210481E+02 -0.80631702283E+02  0.19596757393E+03  0.17300000000E+03 0.  1.
         -6    1    1    2    0  502 -0.53237995721E+01  0.44096210481E+02  0.28534910046E+03  0.33663916551E+03  0.17300000000E+03 0.  1.
<mgrwt>
<rscale>  2 0.17861080E+03</rscale>
<asrwt>0</asrwt>
<pdfrwt beam="1">  1       21 0.56717241E-01 0.17861080E+03</pdfrwt>
<pdfrwt beam="2">  1       21 0.25222257E-01 0.17861080E+03</pdfrwt>
<totfact> 0.43823023E+04</totfact>
</mgrwt>
</event>
<event>
 4    1  0.4451819E+000  0.2199943E+03  0.7546771E-02  0.1133887E+00
         21   -1    0    0  501  502  0.00000000000E+00  0.00000000000E+00  0.58426364607E+03  0.58426364607E+03  0.00000000000E+00 0. -1.
         21   -1    0    0  502  503 -0.00000000000E+00 -0.00000000000E+00 -0.11291761618E+03  0.11291761618E+03  0.00000000000E+00 0. -1.
          6    1    1    2  501    0  0.38848441833E+02  0.13022791170E+03  0.41559833121E+03  0.47023343493E+03  0.17300000000E+03 0. -1.
         -6    1    1    2    0  503 -0.38848441833E+02 -0.13022791170E+03  0.55747698689E+02  0.22694782732E+03  0.17300000000E+03 0. -1.
<mgrwt>
<rscale>  2 0.21999434E+03</rscale>
<asrwt>0</asrwt>
<pdfrwt beam="1">  1       21 0.89886713E-01 0.21999434E+03</pdfrwt>
<pdfrwt beam="2">  1       21 0.17371941E-01 0.21999434E+03</pdfrwt>
<totfact> 0.31119234E+04</totfact>
</mgrwt>
</event>
<event>
 4    1  0.4451819E+000  0.1961035E+03  0.7546771E-02  0.1153069E+00
         21   -1    0    0  503  502  0.00000000000E+00  0.00000000000E+00  0.22229751982E+03  0.22229751982E+03  0.00000000000E+00 0. -1.
         21   -1    0    0  501  503 -0.00000000000E+00 -0.00000000000E+00 -0.18223829371E+03  0.18223829371E+03  0.00000000000E+00 0. -1.
          6    1    1    2  501    0  0.87817313232E+02  0.28560301690E+02 -0.25521410714E+02  0.19775720907E+03  0.17300000000E+03 0. -1.
         -6    1    1    2    0  502 -0.87817313232E+02 -0.28560301690E+02  0.65580636820E+02  0.20677860446E+03  0.17300000000E+03 0. -1.
<mgrwt>
<rscale>  2 0.19610347E+03</rscale>
<asrwt>0</asrwt>
<pdfrwt beam="1">  1       21 0.34199618E-01 0.19610347E+03</pdfrwt>
<pdfrwt beam="2">  1       21 0.28036661E-01 0.19610347E+03</pdfrwt>
<totfact> 0.99986300E+04</totfact>
</mgrwt>
</event>
<event>
 4    1  0.4451819E+000  0.2319587E+03  0.7546771E-02  0.1125269E+00
         21   -1    0    0  503  502  0.00000000000E+00  0.00000000000E+00  0.27391680044E+03  0.27391680044E+03  0.00000000000E+00 0.  1.
         21   -1    0    0  501  503 -0.00000000000E+00 -0.00000000000E+00 -0.20028515324E+03  0.20028515324E+03  0.00000000000E+00 0. -1.
          6    1    1    2  501    0 -0.12611039406E+03 -0.89286180428E+02  0.39111199383E+01  0.23199170323E+03  0.17300000000E+03 0. -1.
         -6    1    1    2    0  502  0.12611039406E+03  0.89286180428E+02  0.69720527264E+02  0.24221025046E+03  0.17300000000E+03 0. -1.
<mgrwt>
<rscale>  2 0.23195873E+03</rscale>
<asrwt>0</asrwt>
<pdfrwt beam="1">  1       21 0.42141046E-01 0.23195873E+03</pdfrwt>
<pdfrwt beam="2">  1       21 0.30813100E-01 0.23195873E+03</pdfrwt>
<totfact> 0.53842933E+04</totfact>
</mgrwt>
</event>
<event>
 4    1  0.4451819E+000  0.2690708E+03  0.7546771E-02  0.1101813E+00
         21   -1    0    0  503  502  0.00000000000E+00  0.00000000000E+00  0.10732094673E+04  0.10732094673E+04  0.00000000000E+00 0.  1.
         21   -1    0    0  501  503 -0.00000000000E+00 -0.00000000000E+00 -0.90442770290E+02  0.90442770290E+02  0.00000000000E+00 0. -1.
          6    1    1    2  501    0  0.22630788265E+02  0.20483634832E+03  0.19808865697E+03  0.33412302852E+03  0.17300000000E+03 0. -1.
         -6    1    1    2    0  502 -0.22630788265E+02 -0.20483634832E+03  0.78467804001E+03  0.82952920903E+03  0.17300000000E+03 0. -1.
<mgrwt>
<rscale>  2 0.26907078E+03</rscale>
<asrwt>0</asrwt>
<pdfrwt beam="1">  1       21 0.16510914E+00 0.26907078E+03</pdfrwt>
<pdfrwt beam="2">  1       21 0.13914273E-01 0.26907078E+03</pdfrwt>
<totfact> 0.98684416E+03</totfact>
</mgrwt>
</event>
<event>
 4    1  0.4451819E+000  0.1761629E+03  0.7546771E-02  0.1171569E+00
         21   -1    0    0  501  502  0.00000000000E+00  0.00000000000E+00  0.25945803945E+03  0.25945803945E+03  0.00000000000E+00 0.  1.
         21   -1    0    0  502  503 -0.00000000000E+00 -0.00000000000E+00 -0.12279583179E+03  0.12279583179E+03  0.00000000000E+00 0.  1.
          6    1    1    2  501    0 -0.31839589824E+02 -0.95180627083E+01  0.37538059587E+02  0.18011790282E+03  0.17300000000E+03 0.  1.
         -6    1    1    2    0  503  0.31839589824E+02  0.95180627083E+01  0.99124148077E+02  0.20213596842E+03  0.17300000000E+03 0.  1.
<mgrwt>
<rscale>  2 0.17616286E+03</rscale>
<asrwt>0</asrwt>
<pdfrwt beam="1">  1       21 0.39916622E-01 0.17616286E+03</pdfrwt>
<pdfrwt beam="2">  1       21 0.18891666E-01 0.17616286E+03</pdfrwt>
<totfact> 0.15609416E+05</totfact>
</mgrwt>
</event>
<event>
 4    1  0.4451819E+000  0.1958060E+03  0.7546771E-02  0.1153327E+00
         21   -1    0    0  501  502  0.00000000000E+00  0.00000000000E+00  0.56718843106E+02  0.56718843106E+02  0.00000000000E+00 0. -1.
         21   -1    0    0  502  503 -0.00000000000E+00 -0.00000000000E+00 -0.82973144117E+03  0.82973144117E+03  0.00000000000E+00 0. -1.
          6    1    1    2  501    0  0.88763121790E+02 -0.23067219416E+02 -0.19570316278E+03  0.27683879122E+03  0.17300000000E+03 0. -1.
         -6    1    1    2    0  503 -0.88763121790E+02  0.23067219416E+02 -0.57730943528E+03  0.60961149306E+03  0.17300000000E+03 0. -1.
<mgrwt>
<rscale>  2 0.19580600E+03</rscale>
<asrwt>0</asrwt>
<pdfrwt beam="1">  1       21 0.87259762E-02 0.19580600E+03</pdfrwt>
<pdfrwt beam="2">  1       21 0.12765099E+00 0.19580600E+03</pdfrwt>
<totfact> 0.46589177E+04</totfact>
</mgrwt>
</event>
<event>
 4    1  0.4451819E+000  0.2040472E+03  0.7546771E-02  0.1146369E+00
         21   -1    0    0  501  502  0.00000000000E+00  0.00000000000E+00  0.83224285546E+03  0.83224285546E+03  0.00000000000E+00 0.  1.
         21   -1    0    0  502  503 -0.00000000000E+00 -0.00000000000E+00 -0.63042119159E+02  0.63042119159E+02  0.00000000000E+00 0.  1.
          6    1    1    2  501    0 -0.79378939256E+01  0.10790396172E+03  0.58798901425E+03  0.62238762519E+03  0.17300000000E+03 0.  1.
         -6    1    1    2    0  503  0.79378939256E+01 -0.10790396172E+03  0.18121172205E+03  0.27289734943E+03  0.17300000000E+03 0.  1.
<mgrwt>
<rscale>  2 0.20404724E+03</rscale>
<asrwt>0</asrwt>
<pdfrwt beam="1">  1       21 0.12803736E+00 0.20404724E+03</pdfrwt>
<pdfrwt beam="2">  1       21 0.96987881E-02 0.20404724E+03</pdfrwt>
<totfact> 0.38217386E+04</totfact>
</mgrwt>
</event>
<event>
 4    1  0.4451819E+000  0.2028510E+03  0.7546771E-02  0.1147356E+00
         21   -1    0    0  501  502  0.00000000000E+00  0.00000000000E+00  0.40233025795E+03  0.40233025795E+03  0.00000000000E+00 0. -1.
         21   -1    0    0  502  503 -0.00000000000E+00 -0.00000000000E+00 -0.10912293179E+03  0.10912293179E+03  0.00000000000E+00 0. -1.
          6    1    1    2  501    0 -0.10591337615E+03  0.13690597398E+01  0.21066302164E+03  0.29245072450E+03  0.17300000000E+03 0. -1.
         -6    1    1    2    0  503  0.10591337615E+03 -0.13690597398E+01  0.82544304516E+02  0.21900246524E+03  0.17300000000E+03 0. -1.
<mgrwt>
<rscale>  2 0.20285097E+03</rscale>
<asrwt>0</asrwt>
<pdfrwt beam="1">  1       21 0.61896962E-01 0.20285097E+03</pdfrwt>
<pdfrwt beam="2">  1       21 0.16788144E-01 0.20285097E+03</pdfrwt>
<totfact> 0.77015023E+04</totfact>
</mgrwt>
</event>
<event>
 4    1  0.4451819E+000  0.2580648E+03  0.7546771E-02  0.1108312E+00
         21   -1    0    0  501  502  0.00000000000E+00  0.00000000000E+00  0.77339892205E+03  0.77339892205E+03  0.00000000000E+00 0. -1.
         21   -1    0    0  502  503 -0.00000000000E+00 -0.00000000000E+00 -0.11566105874E+03  0.11566105874E+03  0.00000000000E+00 0.  1.
          6    1    1    2  501    0 -0.94374851391E+02 -0.16661882840E+03  0.55356391999E+03  0.61076219600E+03  0.17300000000E+03 0. -1.
         -6    1    1    2    0  503  0.94374851391E+02  0.16661882840E+03  0.10417394332E+03  0.27829778479E+03  0.17300000000E+03 0.  1.
<mgrwt>
<rscale>  2 0.25806481E+03</rscale>
<asrwt>0</asrwt>
<pdfrwt beam="1">  1       21 0.11898445E+00 0.25806481E+03</pdfrwt>
<pdfrwt beam="2">  1       21 0.17794010E-01 0.25806481E+03</pdfrwt>
<totfact> 0.14873675E+04</totfact>
</mgrwt>
</event>
<event>
 4    1  0.4451819E+000  0.2299085E+03  0.7546771E-02  0.1126704E+00
         21   -1    0    0  501  502  0.00000000000E+00  0.00000000000E+00  0.67833849217E+03  0.67833849217E+03  0.00000000000E+00 0. -1.
         21   -1    0    0  502  503 -0.00000000000E+00 -0.00000000000E+00 -0.12079556136E+03  0.12079556136E+03  0.00000000000E+00 0. -1.
          6    1    1    2  501    0  0.12620814576E+02 -0.15089608791E+03  0.51681466589E+03  0.56564592563E+03  0.17300000000E+03 0. -1.
         -6    1    1    2    0  503 -0.12620814576E+02  0.15089608791E+03  0.40728264922E+02  0.23348812790E+03  0.17300000000E+03 0. -1.
<mgrwt>
<rscale>  2 0.22990849E+03</rscale>
<asrwt>0</asrwt>
<pdfrwt beam="1">  1       21 0.10435977E+00 0.22990849E+03</pdfrwt>
<pdfrwt beam="2">  1       21 0.18583933E-01 0.22990849E+03</pdfrwt>
<totfact> 0.19188621E+04</totfact>
</mgrwt>
</event>
<event>
 4    1  0.4451819E+000  0.1918244E+03  0.7546771E-02  0.1156826E+00
         21   -1    0    0  501  502  0.00000000000E+00  0.00000000000E+00  0.37141228974E+03  0.37141228974E+03  0.00000000000E+00 0. -1.
         21   -1    0    0  502  503 -0.00000000000E+00 -0.00000000000E+00 -0.99384413532E+02  0.99384413532E+02  0.00000000000E+00 0. -1.
          6    1    1    2  501    0 -0.79821890312E+02  0.22272386317E+02  0.14920998025E+03  0.24302306798E+03  0.17300000000E+03 0. -1.
         -6    1    1    2    0  503  0.79821890312E+02 -0.22272386317E+02  0.12281789595E+03  0.22777363529E+03  0.17300000000E+03 0. -1.
<mgrwt>
<rscale>  2 0.19182438E+03</rscale>
<asrwt>0</asrwt>
<pdfrwt beam="1">  1       21 0.57140351E-01 0.19182438E+03</pdfrwt>
<pdfrwt beam="2">  1       21 0.15289910E-01 0.19182438E+03</pdfrwt>
<totfact> 0.10900875E+05</totfact>
</mgrwt>
</event>
<event>
 4    1  0.4451819E+000  0.2438138E+03  0.7546771E-02  0.1117278E+00
         21   -1    0    0  501  502  0.00000000000E+00  0.00000000000E+00  0.74745412627E+02  0.74745412627E+02  0.00000000000E+00 0.  1.
         21   -1    0    0  502  503 -0.00000000000E+00 -0.00000000000E+00 -0.11005236334E+04  0.11005236334E+04  0.00000000000E+00 0. -1.
          6    1    1    2  501    0  0.14958946078E+03  0.84493579560E+02 -0.20342142017E+03  0.31753022840E+03  0.17300000000E+03 0.  1.
         -6    1    1    2    0  503 -0.14958946078E+03 -0.84493579560E+02 -0.82235680062E+03  0.85773881764E+03  0.17300000000E+03 0. -1.
<mgrwt>
<rscale>  2 0.24381381E+03</rscale>
<asrwt>0</asrwt>
<pdfrwt beam="1">  1       21 0.11499295E-01 0.24381381E+03</pdfrwt>
<pdfrwt beam="2">  1       21 0.16931131E+00 0.24381381E+03</pdfrwt>
<totfact> 0.13189984E+04</totfact>
</mgrwt>
</event>
<event>
 4    1  0.4451819E+000  0.1874807E+03  0.7546771E-02  0.1160753E+00
         21   -1    0    0  501  502  0.00000000000E+00  0.00000000000E+00  0.16361357190E+03  0.16361357190E+03  0.00000000000E+00 0. -1.
         21   -1    0    0  502  503 -0.00000000000E+00 -0.00000000000E+00 -0.36055223536E+03  0.36055223536E+03  0.00000000000E+00 0. -1.
          6    1    1    2  501    0  0.55610242707E+02 -0.46125106653E+02  0.68147252996E+02  0.19948201084E+03  0.17300000000E+03 0. -1.
         -6    1    1    2    0  503 -0.55610242707E+02  0.46125106653E+02 -0.26508591645E+03  0.32468379642E+03  0.17300000000E+03 0. -1.
<mgrwt>
<rscale>  2 0.18748073E+03</rscale>
<asrwt>0</asrwt>
<pdfrwt beam="1">  1       21 0.25171319E-01 0.18748073E+03</pdfrwt>
<pdfrwt beam="2">  1       21 0.55469574E-01 0.18748073E+03</pdfrwt>
<totfact> 0.45915784E+04</totfact>
</mgrwt>
</event>
<event>
 4    1  0.4451819E+000  0.1762226E+03  0.7546771E-02  0.1171510E+00
         21   -1    0    0  503  502  0.00000000000E+00  0.00000000000E+00  0.14673433867E+03  0.14673433867E+03  0.00000000000E+00 0.  1.
         21   -1    0    0  501  503 -0.00000000000E+00 -0.00000000000E+00 -0.26447188291E+03  0.26447188291E+03  0.00000000000E+00 0.  1.
          6    1    1    2  501    0 -0.26547428598E+02 -0.20509087598E+02 -0.15076571144E+03  0.23191526122E+03  0.17300000000E+03 0.  1.
         -6    1    1    2    0  502  0.26547428598E+02  0.20509087598E+02  0.33028167205E+02  0.17929096036E+03  0.17300000000E+03 0.  1.
<mgrwt>
<rscale>  2 0.17622255E+03</rscale>
<asrwt>0</asrwt>
<pdfrwt beam="1">  1       21 0.22574514E-01 0.17622255E+03</pdfrwt>
<pdfrwt beam="2">  1       21 0.40687981E-01 0.17622255E+03</pdfrwt>
<totfact> 0.10764664E+05</totfact>
</mgrwt>
</event>
<event>
 4    1  0.4451819E+000  0.2125444E+03  0.7546771E-02  0.1139567E+00
         21   -1    0    0  503  502  0.00000000000E+00  0.00000000000E+00  0.31248783709E+03  0.31248783709E+03  0.00000000000E+00 0. -1.
         21   -1    0    0  501  503 -0.00000000000E+00 -0.00000000000E+00 -0.16219110685E+03  0.16219110685E+03  0.00000000000E+00 0. -1.
          6    1    1    2  501    0  0.87495200350E+02 -0.87124600098E+02 -0.30905376811E+01  0.21256683055E+03  0.17300000000E+03 0. -1.
         -6    1    1    2    0  502 -0.87495200350E+02  0.87124600098E+02  0.15338726793E+03  0.26211211340E+03  0.17300000000E+03 0. -1.
<mgrwt>
<rscale>  2 0.21254436E+03</rscale>
<asrwt>0</asrwt>
<pdfrwt beam="1">  1       21 0.48075052E-01 0.21254436E+03</pdfrwt>
<pdfrwt beam="2">  1       21 0.24952478E-01 0.21254436E+03</pdfrwt>
<totfact> 0.62285382E+04</totfact>
</mgrwt>
</event>
<event>
 4    1  0.4451819E+000  0.2207882E+03  0.7546771E-02  0.1133297E+00
         21   -1    0    0  501  502  0.00000000000E+00  0.00000000000E+00  0.48568380969E+03  0.48568380969E+03  0.00000000000E+00 0.  1.
         21   -1    0    0  502  503 -0.00000000000E+00 -0.00000000000E+00 -0.13079456277E+03  0.13079456277E+03  0.00000000000E+00 0.  1.
          6    1    1    2  501    0  0.13696713556E+03  0.76436864474E+01  0.32611173458E+03  0.39382265755E+03  0.17300000000E+03 0.  1.
         -6    1    1    2    0  503 -0.13696713556E+03 -0.76436864474E+01  0.28777512335E+02  0.22265571491E+03  0.17300000000E+03 0.  1.
<mgrwt>
<rscale>  2 0.22078818E+03</rscale>
<asrwt>0</asrwt>
<pdfrwt beam="1">  1       21 0.74720585E-01 0.22078818E+03</pdfrwt>
<pdfrwt beam="2">  1       21 0.20122241E-01 0.22078818E+03</pdfrwt>
<totfact> 0.36057754E+04</totfact>
</mgrwt>
</event>
<event>
 4    1  0.4451819E+000  0.1732837E+03  0.7546771E-02  0.1174466E+00
         21   -1    0    0  503  502  0.00000000000E+00  0.00000000000E+00  0.12852771737E+03  0.12852771737E+03  0.00000000000E+00 0.  1.
         21   -1    0    0  501  503 -0.00000000000E+00 -0.00000000000E+00 -0.47041762242E+03  0.47041762242E+03  0.00000000000E+00 0.  1.
          6    1    1    2  501    0 -0.97453471853E+01 -0.18107236254E+01 -0.38341599762E+03  0.42075536567E+03  0.17300000000E+03 0.  1.
         -6    1    1    2    0  502  0.97453471853E+01  0.18107236254E+01  0.41526092574E+02  0.17818997412E+03  0.17300000000E+03 0.  1.
<mgrwt>
<rscale>  2 0.17328373E+03</rscale>
<asrwt>0</asrwt>
<pdfrwt beam="1">  1       21 0.19773495E-01 0.17328373E+03</pdfrwt>
<pdfrwt beam="2">  1       21 0.72371940E-01 0.17328373E+03</pdfrwt>
<totfact> 0.40991897E+04</totfact>
</mgrwt>
</event>
<event>
 4    1  0.4451819E+000  0.2840605E+03  0.7546771E-02  0.1093492E+00
         21   -1    0    0  503  502  0.00000000000E+00  0.00000000000E+00  0.14754986189E+03  0.14754986189E+03  0.00000000000E+00 0.  1.
         21   -1    0    0  501  503 -0.00000000000E+00 -0.00000000000E+00 -0.78099669861E+03  0.78099669861E+03  0.00000000000E+00 0. -1.
          6    1    1    2  501    0  0.21691217229E+03 -0.60913765951E+02 -0.57092363527E+03  0.63768658029E+03  0.17300000000E+03 0. -1.
         -6    1    1    2    0  502 -0.21691217229E+03  0.60913765951E+02 -0.62523201454E+02  0.29085998021E+03  0.17300000000E+03 0.  1.
<mgrwt>
<rscale>  2 0.28406052E+03</rscale>
<asrwt>0</asrwt>
<pdfrwt beam="1">  1       21 0.22699979E-01 0.28406052E+03</pdfrwt>
<pdfrwt beam="2">  1       21 0.12015334E+00 0.28406052E+03</pdfrwt>
<totfact> 0.90519369E+03</totfact>
</mgrwt>
</event>
<event>
 4    1  0.4451819E+000  0.1778706E+03  0.7546771E-02  0.1169880E+00
         21   -1    0    0  501  502  0.00000000000E+00  0.00000000000E+00  0.39446655388E+03  0.39446655388E+03  0.00000000000E+00 0. -1.
         21   -1    0    0  502  503 -0.00000000000E+00 -0.00000000000E+00 -0.90936191717E+02  0.90936191717E+02  0.00000000000E+00 0. -1.
          6    1    1    2  501    0 -0.25793633737E+02 -0.32305627438E+02  0.68389506207E+02  0.19056518482E+03  0.17300000000E+03 0.  1.
         -6    1    1    2    0  503  0.25793633737E+02  0.32305627438E+02  0.23514085595E+03  0.29483756077E+03  0.17300000000E+03 0.  1.
<mgrwt>
<rscale>  2 0.17787064E+03</rscale>
<asrwt>0</asrwt>
<pdfrwt beam="1">  1       21 0.60687161E-01 0.17787064E+03</pdfrwt>
<pdfrwt beam="2">  1       21 0.13990184E-01 0.17787064E+03</pdfrwt>
<totfact> 0.11318731E+05</totfact>
</mgrwt>
</event>
<event>
 4    1  0.4451819E+000  0.2086826E+03  0.7546771E-02  0.1142614E+00
         21   -1    0    0  503  502  0.00000000000E+00  0.00000000000E+00  0.24921525932E+03  0.24921525932E+03  0.00000000000E+00 0. -1.
         21   -1    0    0  501  503 -0.00000000000E+00 -0.00000000000E+00 -0.26235267145E+03  0.26235267145E+03  0.00000000000E+00 0. -1.
          6    1    1    2  501    0  0.88541127639E+02  0.76025596249E+02 -0.15438032725E+03  0.25957986827E+03  0.17300000000E+03 0. -1.
         -6    1    1    2    0  502 -0.88541127639E+02 -0.76025596249E+02  0.14124291513E+03  0.25198806250E+03  0.17300000000E+03 0. -1.
<mgrwt>
<rscale>  2 0.20868259E+03</rscale>
<asrwt>0</asrwt>
<pdfrwt beam="1">  1       21 0.38340809E-01 0.20868259E+03</pdfrwt>
<pdfrwt beam="2">  1       21 0.40361949E-01 0.20868259E+03</pdfrwt>
<totfact> 0.38481968E+04</totfact>
</mgrwt>
</event>
<event>
 4    1  0.4451819E+000  0.2002520E+03  0.7546771E-02  0.1149527E+00
         21   -1    0    0  503  502  0.00000000000E+00  0.00000000000E+00  0.13598708215E+03  0.13598708215E+03  0.00000000000E+00 0.  1.
         21   -1    0    0  501  503 -0.00000000000E+00 -0.00000000000E+00 -0.53824980351E+03  0.53824980351E+03  0.00000000000E+00 0. -1.
          6    1    1    2  501    0  0.74328831247E+02 -0.68169633714E+02 -0.42781351675E+03  0.47236138626E+03  0.17300000000E+03 0. -1.
         -6    1    1    2    0  502 -0.74328831247E+02  0.68169633714E+02  0.25550795383E+02  0.20187549940E+03  0.17300000000E+03 0.  1.
<mgrwt>
<rscale>  2 0.20025203E+03</rscale>
<asrwt>0</asrwt>
<pdfrwt beam="1">  1       21 0.20921090E-01 0.20025203E+03</pdfrwt>
<pdfrwt beam="2">  1       21 0.82807660E-01 0.20025203E+03</pdfrwt>
<totfact> 0.26867793E+04</totfact>
</mgrwt>
</event>
<event>
 4    1  0.4451819E+000  0.1846751E+03  0.7546771E-02  0.1163354E+00
         21   -1    0    0  501  502  0.00000000000E+00  0.00000000000E+00  0.15382152426E+03  0.15382152426E+03  0.00000000000E+00 0. -1.
         21   -1    0    0  502  503 -0.00000000000E+00 -0.00000000000E+00 -0.35846610322E+03  0.35846610322E+03  0.00000000000E+00 0. -1.
          6    1    1    2  501    0  0.30129146781E+02  0.57167610417E+02  0.55883184901E+02  0.19294515159E+03  0.17300000000E+03 0. -1.
         -6    1    1    2    0  503 -0.30129146781E+02 -0.57167610417E+02 -0.26052776386E+03  0.31934247589E+03  0.17300000000E+03 0. -1.
<mgrwt>
<rscale>  2 0.18467512E+03</rscale>
<asrwt>0</asrwt>
<pdfrwt beam="1">  1       21 0.23664850E-01 0.18467512E+03</pdfrwt>
<pdfrwt beam="2">  1       21 0.55148631E-01 0.18467512E+03</pdfrwt>
<totfact> 0.52343829E+04</totfact>
</mgrwt>
</event>
<event>
 4    1  0.4451819E+000  0.3197794E+03  0.7546771E-02  0.1075751E+00
         21   -1    0    0  503  502  0.00000000000E+00  0.00000000000E+00  0.24788138070E+03  0.24788138070E+03  0.00000000000E+00 0.  1.
         21   -1    0    0  501  503 -0.00000000000E+00 -0.00000000000E+00 -0.42936558279E+03  0.42936558279E+03  0.00000000000E+00 0.  1.
          6    1    1    2  501    0  0.21827515829E+03 -0.15711724183E+03 -0.15779205228E+03  0.35659108818E+03  0.17300000000E+03 0.  1.
         -6    1    1    2    0  502 -0.21827515829E+03  0.15711724183E+03 -0.23692149817E+02  0.32065587531E+03  0.17300000000E+03 0.  1.
<mgrwt>
<rscale>  2 0.31977941E+03</rscale>
<asrwt>0</asrwt>
<pdfrwt beam="1">  1       21 0.38135597E-01 0.31977941E+03</pdfrwt>
<pdfrwt beam="2">  1       21 0.66056243E-01 0.31977941E+03</pdfrwt>
<totfact> 0.13065182E+04</totfact>
</mgrwt>
</event>
<event>
 4    1  0.4451819E+000  0.2317987E+03  0.7546771E-02  0.1125380E+00
         21   -1    0    0  503  502  0.00000000000E+00  0.00000000000E+00  0.59850090158E+03  0.59850090158E+03  0.00000000000E+00 0. -1.
         21   -1    0    0  501  503 -0.00000000000E+00 -0.00000000000E+00 -0.24574325146E+03  0.24574325146E+03  0.00000000000E+00 0.  1.
          6    1    1    2  501    0  0.68190536064E+02 -0.13838965422E+03 -0.15991186085E+03  0.28160690482E+03  0.17300000000E+03 0.  1.
         -6    1    1    2    0  502 -0.68190536064E+02  0.13838965422E+03  0.51266951097E+03  0.56263724821E+03  0.17300000000E+03 0. -1.
<mgrwt>
<rscale>  2 0.23179872E+03</rscale>
<asrwt>0</asrwt>
<pdfrwt beam="1">  1       21 0.92077061E-01 0.23179872E+03</pdfrwt>
<pdfrwt beam="2">  1       21 0.37806654E-01 0.23179872E+03</pdfrwt>
<totfact> 0.65388744E+03</totfact>
</mgrwt>
</event>
<event>
 4    1  0.4451819E+000  0.1825897E+03  0.7546771E-02  0.1165320E+00
         21   -1    0    0  501  502  0.00000000000E+00  0.00000000000E+00  0.17552857828E+04  0.17552857828E+04  0.00000000000E+00 0. -1.
         21   -1    0    0  502  503 -0.00000000000E+00 -0.00000000000E+00 -0.18995307336E+02  0.18995307336E+02  0.00000000000E+00 0. -1.
          6    1    1    2  501    0 -0.97555139981E+01  0.57574509392E+02  0.87683451367E+03  0.89564376766E+03  0.17300000000E+03 0. -1.
         -6    1    1    2    0  503  0.97555139981E+01 -0.57574509392E+02  0.85945596180E+03  0.87863732248E+03  0.17300000000E+03 0. -1.
<mgrwt>
<rscale>  2 0.18258969E+03</rscale>
<asrwt>0</asrwt>
<pdfrwt beam="1">  1       21 0.27004384E+00 0.18258969E+03</pdfrwt>
<pdfrwt beam="2">  1       21 0.29223563E-02 0.18258969E+03</pdfrwt>
<totfact> 0.33870435E+04</totfact>
</mgrwt>
</event>
<event>
 4    1  0.4451819E+000  0.1903525E+03  0.7546771E-02  0.1158144E+00
         21   -1    0    0  501  502  0.00000000000E+00  0.00000000000E+00  0.41453536696E+03  0.41453536696E+03  0.00000000000E+00 0.  1.
         21   -1    0    0  502  503 -0.00000000000E+00 -0.00000000000E+00 -0.90644468720E+02  0.90644468720E+02  0.00000000000E+00 0.  1.
          6    1    1    2  501    0  0.63399673232E+02  0.47807620917E+02  0.20966755276E+03  0.28318645777E+03  0.17300000000E+03 0.  1.
         -6    1    1    2    0  503 -0.63399673232E+02 -0.47807620917E+02  0.11422334548E+03  0.22199337791E+03  0.17300000000E+03 0.  1.
<mgrwt>
<rscale>  2 0.19035253E+03</rscale>
<asrwt>0</asrwt>
<pdfrwt beam="1">  1       21 0.63774671E-01 0.19035253E+03</pdfrwt>
<pdfrwt beam="2">  1       21 0.13945303E-01 0.19035253E+03</pdfrwt>
<totfact> 0.10181136E+05</totfact>
</mgrwt>
</event>
<event>
 4    1  0.4451819E+000  0.2264298E+03  0.7546771E-02  0.1129178E+00
         21   -1    0    0  503  502  0.00000000000E+00  0.00000000000E+00  0.59085645047E+03  0.59085645047E+03  0.00000000000E+00 0. -1.
         21   -1    0    0  501  503 -0.00000000000E+00 -0.00000000000E+00 -0.14023941427E+03  0.14023941427E+03  0.00000000000E+00 0. -1.
          6    1    1    2  501    0 -0.75340159713E+02 -0.12516111118E+03  0.45101780433E+03  0.50466573416E+03  0.17300000000E+03 0. -1.
         -6    1    1    2    0  502  0.75340159713E+02  0.12516111118E+03 -0.40076812536E+00  0.22643013058E+03  0.17300000000E+03 0. -1.
<mgrwt>
<rscale>  2 0.22642978E+03</rscale>
<asrwt>0</asrwt>
<pdfrwt beam="1">  1       21 0.90900991E-01 0.22642978E+03</pdfrwt>
<pdfrwt beam="2">  1       21 0.21575295E-01 0.22642978E+03</pdfrwt>
<totfact> 0.20153859E+04</totfact>
</mgrwt>
</event>
<event>
 4    1  0.4451819E+000  0.1928224E+03  0.7546771E-02  0.1155940E+00
         21   -1    0    0  503  502  0.00000000000E+00  0.00000000000E+00  0.56647090486E+03  0.56647090486E+03  0.00000000000E+00 0. -1.
         21   -1    0    0  501  503 -0.00000000000E+00 -0.00000000000E+00 -0.12695217228E+03  0.12695217228E+03  0.00000000000E+00 0.  1.
          6    1    1    2  501    0  0.27537493362E+02  0.80580235172E+02 -0.21196899166E+02  0.19398401062E+03  0.17300000000E+03 0.  1.
         -6    1    1    2    0  502 -0.27537493362E+02 -0.80580235172E+02  0.46071563174E+03  0.49943906652E+03  0.17300000000E+03 0. -1.
<mgrwt>
<rscale>  2 0.19282243E+03</rscale>
<asrwt>0</asrwt>
<pdfrwt beam="1">  1       21 0.87149369E-01 0.19282243E+03</pdfrwt>
<pdfrwt beam="2">  1       21 0.19531104E-01 0.19282243E+03</pdfrwt>
<totfact> 0.27301110E+04</totfact>
</mgrwt>
</event>
<event>
 4    1  0.4451819E+000  0.2893953E+03  0.7546771E-02  0.1090665E+00
         21   -1    0    0  503  502  0.00000000000E+00  0.00000000000E+00  0.59027194888E+03  0.59027194888E+03  0.00000000000E+00 0. -1.
         21   -1    0    0  501  503 -0.00000000000E+00 -0.00000000000E+00 -0.15923327344E+03  0.15923327344E+03  0.00000000000E+00 0.  1.
          6    1    1    2  501    0 -0.22892748715E+03  0.37587559581E+02  0.91816529464E+02  0.30361141957E+03  0.17300000000E+03 0.  1.
         -6    1    1    2    0  502  0.22892748715E+03 -0.37587559581E+02  0.33922214598E+03  0.44589380275E+03  0.17300000000E+03 0. -1.
<mgrwt>
<rscale>  2 0.28939526E+03</rscale>
<asrwt>0</asrwt>
<pdfrwt beam="1">  1       21 0.90811068E-01 0.28939526E+03</pdfrwt>
<pdfrwt beam="2">  1       21 0.24497427E-01 0.28939526E+03</pdfrwt>
<totfact> 0.15375046E+04</totfact>
</mgrwt>
</event>
<event>
 4    1  0.4451819E+000  0.2031646E+03  0.7546771E-02  0.1147096E+00
         21   -1    0    0  503  502  0.00000000000E+00  0.00000000000E+00  0.65887418023E+02  0.65887418023E+02  0.00000000000E+00 0. -1.
         21   -1    0    0  501  503 -0.00000000000E+00 -0.00000000000E+00 -0.10442417565E+04  0.10442417565E+04  0.00000000000E+00 0.  1.
          6    1    1    2  501    0  0.36124047929E+02  0.10020922946E+03 -0.13808778980E+03  0.24565030877E+03  0.17300000000E+03 0. -1.
         -6    1    1    2    0  502 -0.36124047929E+02 -0.10020922946E+03 -0.84026654873E+03  0.86447886580E+03  0.17300000000E+03 0. -1.
<mgrwt>
<rscale>  2 0.20316456E+03</rscale>
<asrwt>0</asrwt>
<pdfrwt beam="1">  1       21 0.10136527E-01 0.20316456E+03</pdfrwt>
<pdfrwt beam="2">  1       21 0.16065256E+00 0.20316456E+03</pdfrwt>
<totfact> 0.19579435E+04</totfact>
</mgrwt>
</event>
<event>
 4    1  0.4451819E+000  0.2311894E+03  0.7546771E-02  0.1125805E+00
         21   -1    0    0  503  502  0.00000000000E+00  0.00000000000E+00  0.46242657599E+03  0.46242657599E+03  0.00000000000E+00 0.  1.
         21   -1    0    0  501  503 -0.00000000000E+00 -0.00000000000E+00 -0.14520061500E+03  0.14520061500E+03  0.00000000000E+00 0.  1.
          6    1    1    2  501    0 -0.14552658186E+03  0.48389726412E+02  0.21398611644E+02  0.23217763077E+03  0.17300000000E+03 0.  1.
         -6    1    1    2    0  502  0.14552658186E+03 -0.48389726412E+02  0.29582734934E+03  0.37544956022E+03  0.17300000000E+03 0.  1.
<mgrwt>
<rscale>  2 0.23118943E+03</rscale>
<asrwt>0</asrwt>
<pdfrwt beam="1">  1       21 0.71142549E-01 0.23118943E+03</pdfrwt>
<pdfrwt beam="2">  1       21 0.22338556E-01 0.23118943E+03</pdfrwt>
<totfact> 0.32869342E+04</totfact>
</mgrwt>
</event>
<event>
 4    1  0.4451819E+000  0.1940575E+03  0.7546771E-02  0.1154852E+00
         21   -1    0    0  501  502  0.00000000000E+00  0.00000000000E+00  0.20675000795E+03  0.20675000795E+03  0.00000000000E+00 0. -1.
         21   -1    0    0  502  503 -0.00000000000E+00 -0.00000000000E+00 -0.24954638502E+03  0.24954638502E+03  0.00000000000E+00 0. -1.
          6    1    1    2  501    0 -0.42460106314E+02  0.76983358065E+02  0.97172856438E+02  0.21702733025E+03  0.17300000000E+03 0. -1.
         -6    1    1    2    0  503  0.42460106314E+02 -0.76983358065E+02 -0.13996923351E+03  0.23926906272E+03  0.17300000000E+03 0. -1.
<mgrwt>
<rscale>  2 0.19405746E+03</rscale>
<asrwt>0</asrwt>
<pdfrwt beam="1">  1       21 0.31807693E-01 0.19405746E+03</pdfrwt>
<pdfrwt beam="2">  1       21 0.38391752E-01 0.19405746E+03</pdfrwt>
<totfact> 0.62144459E+04</totfact>
</mgrwt>
</event>
<event>
 4    1  0.4451819E+000  0.1898000E+03  0.7546771E-02  0.1158642E+00
         21   -1    0    0  501  502  0.00000000000E+00  0.00000000000E+00  0.11850588084E+04  0.11850588084E+04  0.00000000000E+00 0.  1.
         21   -1    0    0  502  503 -0.00000000000E+00 -0.00000000000E+00 -0.13202107516E+03  0.13202107516E+03  0.00000000000E+00 0.  1.
          6    1    1    2  501    0  0.39292717348E+02 -0.67461991079E+02  0.11042895963E+04  0.11204818385E+04  0.17300000000E+03 0.  1.
         -6    1    1    2    0  503 -0.39292717348E+02  0.67461991079E+02 -0.51251863027E+02  0.19659804511E+03  0.17300000000E+03 0.  1.
<mgrwt>
<rscale>  2 0.18979999E+03</rscale>
<asrwt>0</asrwt>
<pdfrwt beam="1">  1       21 0.18231673E+00 0.18979999E+03</pdfrwt>
<pdfrwt beam="2">  1       21 0.20310935E-01 0.18979999E+03</pdfrwt>
<totfact> 0.39463917E+03</totfact>
</mgrwt>
</event>
<event>
 4    1  0.4451819E+000  0.1857473E+03  0.7546771E-02  0.1162354E+00
         21   -1    0    0  503  502  0.00000000000E+00  0.00000000000E+00  0.95652176889E+03  0.95652176889E+03  0.00000000000E+00 0. -1.
         21   -1    0    0  501  503 -0.00000000000E+00 -0.00000000000E+00 -0.47230902492E+02  0.47230902492E+02  0.00000000000E+00 0.  1.
          6    1    1    2  501    0 -0.43275259664E+02 -0.51964544102E+02  0.21068089194E+03  0.28087096712E+03  0.17300000000E+03 0.  1.
         -6    1    1    2    0  502  0.43275259664E+02  0.51964544102E+02  0.69860997446E+03  0.72288170427E+03  0.17300000000E+03 0. -1.
<mgrwt>
<rscale>  2 0.18574731E+03</rscale>
<asrwt>0</asrwt>
<pdfrwt beam="1">  1       21 0.14715718E+00 0.18574731E+03</pdfrwt>
<pdfrwt beam="2">  1       21 0.72662934E-02 0.18574731E+03</pdfrwt>
<totfact> 0.44745493E+04</totfact>
</mgrwt>
</event>
<event>
 4    1  0.4451819E+000  0.2377305E+03  0.7546771E-02  0.1121314E+00
         21   -1    0    0  503  502  0.00000000000E+00  0.00000000000E+00  0.20597723448E+03  0.20597723448E+03  0.00000000000E+00 0. -1.
         21   -1    0    0  501  503 -0.00000000000E+00 -0.00000000000E+00 -0.29791489146E+03  0.29791489146E+03  0.00000000000E+00 0. -1.
          6    1    1    2  501    0  0.79450866606E+02 -0.14238804293E+03 -0.11678431753E+03  0.26486670571E+03  0.17300000000E+03 0. -1.
         -6    1    1    2    0  502 -0.79450866606E+02  0.14238804293E+03  0.24846660548E+02  0.23902542023E+03  0.17300000000E+03 0. -1.
<mgrwt>
<rscale>  2 0.23773051E+03</rscale>
<asrwt>0</asrwt>
<pdfrwt beam="1">  1       21 0.31688805E-01 0.23773051E+03</pdfrwt>
<pdfrwt beam="2">  1       21 0.45833060E-01 0.23773051E+03</pdfrwt>
<totfact> 0.42766136E+04</totfact>
</mgrwt>
</event>
<event>
 4    1  0.4451819E+000  0.3092882E+03  0.7546771E-02  0.1080688E+00
         21   -1    0    0  503  502  0.00000000000E+00  0.00000000000E+00  0.50053602071E+03  0.50053602071E+03  0.00000000000E+00 0.  1.
         21   -1    0    0  501  503 -0.00000000000E+00 -0.00000000000E+00 -0.22256255732E+03  0.22256255732E+03  0.00000000000E+00 0.  1.
          6    1    1    2  501    0 -0.26209612591E+02 -0.25503574193E+03  0.30785770563E+01  0.30930349350E+03  0.17300000000E+03 0.  1.
         -6    1    1    2    0  502  0.26209612591E+02  0.25503574193E+03  0.27489488633E+03  0.41379508453E+03  0.17300000000E+03 0.  1.
<mgrwt>
<rscale>  2 0.30928817E+03</rscale>
<asrwt>0</asrwt>
<pdfrwt beam="1">  1       21 0.77005541E-01 0.30928817E+03</pdfrwt>
<pdfrwt beam="2">  1       21 0.34240394E-01 0.30928817E+03</pdfrwt>
<totfact> 0.11563878E+04</totfact>
</mgrwt>
</event>
<event>
 4    1  0.4451819E+000  0.1830745E+03  0.7546771E-02  0.1164860E+00
         21   -1    0    0  503  502  0.00000000000E+00  0.00000000000E+00  0.41201594616E+02  0.41201594616E+02  0.00000000000E+00 0. -1.
         21   -1    0    0  501  503 -0.00000000000E+00 -0.00000000000E+00 -0.99411352331E+03  0.99411352331E+03  0.00000000000E+00 0. -1.
          6    1    1    2  501    0  0.32280871562E+02 -0.50450264699E+02 -0.69712180265E+03  0.72076007909E+03  0.17300000000E+03 0. -1.
         -6    1    1    2    0  502 -0.32280871562E+02  0.50450264699E+02 -0.25579012605E+03  0.31455503884E+03  0.17300000000E+03 0. -1.
<mgrwt>
<rscale>  2 0.18307453E+03</rscale>
<asrwt>0</asrwt>
<pdfrwt beam="1">  1       21 0.63387063E-02 0.18307453E+03</pdfrwt>
<pdfrwt beam="2">  1       21 0.15294056E+00 0.18307453E+03</pdfrwt>
<totfact> 0.51236333E+04</totfact>
</mgrwt>
</event>
<event>
 4    1  0.4451819E+000  0.1951395E+03  0.7546771E-02  0.1153906E+00
         21   -1    0    0  503  502  0.00000000000E+00  0.00000000000E+00  0.83172109237E+02  0.83172109237E+02  0.00000000000E+00 0.  1.
         21   -1    0    0  501  503 -0.00000000000E+00 -0.00000000000E+00 -0.62088262410E+03  0.62088262410E+03  0.00000000000E+00 0.  1.
          6    1    1    2  501    0  0.33890978541E+02 -0.83677011256E+02 -0.44924984323E+03  0.48980083940E+03  0.17300000000E+03 0. -1.
         -6    1    1    2    0  502 -0.33890978541E+02  0.83677011256E+02 -0.88460671632E+02  0.21425389393E+03  0.17300000000E+03 0. -1.
<mgrwt>
<rscale>  2 0.19513954E+03</rscale>
<asrwt>0</asrwt>
<pdfrwt beam="1">  1       21 0.12795709E-01 0.19513954E+03</pdfrwt>
<pdfrwt beam="2">  1       21 0.95520405E-01 0.19513954E+03</pdfrwt>
<totfact> 0.47772618E+04</totfact>
</mgrwt>
</event>
<event>
 4    1  0.4451819E+000  0.1762648E+03  0.7546771E-02  0.1171468E+00
         21   -1    0    0  501  502  0.00000000000E+00  0.00000000000E+00  0.22275579039E+03  0.22275579039E+03  0.00000000000E+00 0.  1.
         21   -1    0    0  502  503 -0.00000000000E+00 -0.00000000000E+00 -0.19893881805E+03  0.19893881805E+03  0.00000000000E+00 0. -1.
          6    1    1    2  501    0 -0.89334800386E+01  0.32565083428E+02  0.12718150511E+03  0.21735783162E+03  0.17300000000E+03 0.  1.
         -6    1    1    2    0  503  0.89334800386E+01 -0.32565083428E+02 -0.10336453277E+03  0.20433677682E+03  0.17300000000E+03 0. -1.
<mgrwt>
<rscale>  2 0.17626483E+03</rscale>
<asrwt>0</asrwt>
<pdfrwt beam="1">  1       21 0.34270122E-01 0.17626483E+03</pdfrwt>
<pdfrwt beam="2">  1       21 0.30605972E-01 0.17626483E+03</pdfrwt>
<totfact> 0.84643452E+04</totfact>
</mgrwt>
</event>
<event>
 4    1  0.4451819E+000  0.1824403E+03  0.7546771E-02  0.1165462E+00
         21   -1    0    0  501  502  0.00000000000E+00  0.00000000000E+00  0.23156355239E+03  0.23156355239E+03  0.00000000000E+00 0. -1.
         21   -1    0    0  502  503 -0.00000000000E+00 -0.00000000000E+00 -0.14948795764E+03  0.14948795764E+03  0.00000000000E+00 0. -1.
          6    1    1    2  501    0 -0.57684554415E+02  0.52884023664E+01  0.78404435935E+02  0.19857424453E+03  0.17300000000E+03 0. -1.
         -6    1    1    2    0  503  0.57684554415E+02 -0.52884023664E+01  0.36711588191E+01  0.18247726550E+03  0.17300000000E+03 0. -1.
<mgrwt>
<rscale>  2 0.18244033E+03</rscale>
<asrwt>0</asrwt>
<pdfrwt beam="1">  1       21 0.35625162E-01 0.18244033E+03</pdfrwt>
<pdfrwt beam="2">  1       21 0.22998147E-01 0.18244033E+03</pdfrwt>
<totfact> 0.13532288E+05</totfact>
</mgrwt>
</event>
<event>
 4    1  0.4451819E+000  0.4715563E+03  0.7546771E-02  0.1021482E+00
         21   -1    0    0  501  502  0.00000000000E+00  0.00000000000E+00  0.16266974123E+03  0.16266974123E+03  0.00000000000E+00 0.  1.
         21   -1    0    0  502  503 -0.00000000000E+00 -0.00000000000E+00 -0.19672344995E+04  0.19672344995E+04  0.00000000000E+00 0. -1.
          6    1    1    2  501    0 -0.43828586367E+03  0.18489784470E+02 -0.31401907514E+03  0.56654509968E+03  0.17300000000E+03 0.  1.
         -6    1    1    2    0  503  0.43828586367E+03 -0.18489784470E+02 -0.14905456832E+04  0.15633591411E+04  0.17300000000E+03 0. -1.
<mgrwt>
<rscale>  2 0.47155633E+03</rscale>
<asrwt>0</asrwt>
<pdfrwt beam="1">  1       21 0.25026111E-01 0.47155633E+03</pdfrwt>
<pdfrwt beam="2">  1       21 0.30265149E+00 0.47155633E+03</pdfrwt>
<totfact> 0.39021085E+02</totfact>
</mgrwt>
</event>
<event>
 4    1  0.4451819E+000  0.1739127E+03  0.7546771E-02  0.1173828E+00
         21   -1    0    0  503  502  0.00000000000E+00  0.00000000000E+00  0.92249620948E+02  0.92249620948E+02  0.00000000000E+00 0. -1.
         21   -1    0    0  501  503 -0.00000000000E+00 -0.00000000000E+00 -0.47748229128E+03  0.47748229128E+03  0.00000000000E+00 0. -1.
          6    1    1    2  501    0 -0.15361215908E+02 -0.89819306177E+01 -0.35207544949E+03  0.39268659790E+03  0.17300000000E+03 0. -1.
         -6    1    1    2    0  502  0.15361215908E+02  0.89819306177E+01 -0.33157220834E+02  0.17704531433E+03  0.17300000000E+03 0. -1.
<mgrwt>
<rscale>  2 0.17391274E+03</rscale>
<asrwt>0</asrwt>
<pdfrwt beam="1">  1       21 0.14192250E-01 0.17391274E+03</pdfrwt>
<pdfrwt beam="2">  1       21 0.73458813E-01 0.17391274E+03</pdfrwt>
<totfact> 0.72828431E+04</totfact>
</mgrwt>
</event>
<event>
 4    1  0.4451819E+000  0.1786535E+03  0.7546771E-02  0.1169113E+00
         21   -1    0    0  503  502  0.00000000000E+00  0.00000000000E+00  0.10704160196E+03  0.10704160196E+03  0.00000000000E+00 0. -1.
         21   -1    0    0  501  503 -0.00000000000E+00 -0.00000000000E+00 -0.27258856312E+04  0.27258856312E+04  0.00000000000E+00 0. -1.
          6    1    1    2  501    0 -0.30603374759E+02 -0.32427136853E+02 -0.26461717452E+04  0.26521956924E+04  0.17300000000E+03 0. -1.
         -6    1    1    2    0  502  0.30603374759E+02  0.32427136853E+02  0.27327715990E+02  0.18073154072E+03  0.17300000000E+03 0. -1.
<mgrwt>
<rscale>  2 0.17865354E+03</rscale>
<asrwt>0</asrwt>
<pdfrwt beam="1">  1       21 0.16467942E-01 0.17865354E+03</pdfrwt>
<pdfrwt beam="2">  1       21 0.41936695E+00 0.17865354E+03</pdfrwt>
<totfact> 0.22331814E+02</totfact>
</mgrwt>
</event>
<event>
 4    1  0.4451819E+000  0.1869592E+03  0.7546771E-02  0.1161233E+00
         21   -1    0    0  501  502  0.00000000000E+00  0.00000000000E+00  0.12040281441E+03  0.12040281441E+03  0.00000000000E+00 0. -1.
         21   -1    0    0  502  503 -0.00000000000E+00 -0.00000000000E+00 -0.29114666489E+03  0.29114666489E+03  0.00000000000E+00 0. -1.
          6    1    1    2  501    0  0.54707987727E+02  0.45075109136E+02 -0.96425366222E+02  0.21036059668E+03  0.17300000000E+03 0. -1.
         -6    1    1    2    0  503 -0.54707987727E+02 -0.45075109136E+02 -0.74318484256E+02  0.20118888261E+03  0.17300000000E+03 0. -1.
<mgrwt>
<rscale>  2 0.18695917E+03</rscale>
<asrwt>0</asrwt>
<pdfrwt beam="1">  1       21 0.18523510E-01 0.18695917E+03</pdfrwt>
<pdfrwt beam="2">  1       21 0.44791794E-01 0.18695917E+03</pdfrwt>
<totfact> 0.12762133E+05</totfact>
</mgrwt>
</event>
<event>
 4    1  0.4451819E+000  0.1942365E+03  0.7546771E-02  0.1154695E+00
         21   -1    0    0  501  502  0.00000000000E+00  0.00000000000E+00  0.14737301340E+03  0.14737301340E+03  0.00000000000E+00 0.  1.
         21   -1    0    0  502  503 -0.00000000000E+00 -0.00000000000E+00 -0.30826935592E+03  0.30826935592E+03  0.00000000000E+00 0.  1.
          6    1    1    2  501    0 -0.88025429676E+02  0.70961372843E+01 -0.17425682813E+03  0.26094687885E+03  0.17300000000E+03 0. -1.
         -6    1    1    2    0  503  0.88025429676E+02 -0.70961372843E+01  0.13360485612E+02  0.19469549047E+03  0.17300000000E+03 0. -1.
<mgrwt>
<rscale>  2 0.19423653E+03</rscale>
<asrwt>0</asrwt>
<pdfrwt beam="1">  1       21 0.22672772E-01 0.19423653E+03</pdfrwt>
<pdfrwt beam="2">  1       21 0.47426054E-01 0.19423653E+03</pdfrwt>
<totfact> 0.77501166E+04</totfact>
</mgrwt>
</event>
<event>
 4    1  0.4451819E+000  0.3008406E+03  0.7546771E-02  0.1084821E+00
         21   -1    0    0  503  502  0.00000000000E+00  0.00000000000E+00  0.29366811280E+03  0.29366811280E+03  0.00000000000E+00 0. -1.
         21   -1    0    0  501  503 -0.00000000000E+00 -0.00000000000E+00 -0.34045417042E+03  0.34045417042E+03  0.00000000000E+00 0.  1.
          6    1    1    2  501    0 -0.65975995169E+00 -0.24612117830E+03 -0.12100105650E+03  0.32426274125E+03  0.17300000000E+03 0.  1.
         -6    1    1    2    0  502  0.65975995169E+00  0.24612117830E+03  0.74214998876E+02  0.30985954197E+03  0.17300000000E+03 0. -1.
<mgrwt>
<rscale>  2 0.30084061E+03</rscale>
<asrwt>0</asrwt>
<pdfrwt beam="1">  1       21 0.45179710E-01 0.30084061E+03</pdfrwt>
<pdfrwt beam="2">  1       21 0.52377565E-01 0.30084061E+03</pdfrwt>
<totfact> 0.15364510E+04</totfact>
</mgrwt>
</event>
<event>
 4    1  0.4451819E+000  0.2523229E+03  0.7546771E-02  0.1111846E+00
         21   -1    0    0  501  502  0.00000000000E+00  0.00000000000E+00  0.20131592312E+03  0.20131592312E+03  0.00000000000E+00 0.  1.
         21   -1    0    0  502  503 -0.00000000000E+00 -0.00000000000E+00 -0.51057023034E+03  0.51057023034E+03  0.00000000000E+00 0. -1.
          6    1    1    2  501    0 -0.14212959777E+03 -0.11634880178E+03  0.64960489587E+02  0.26055082315E+03  0.17300000000E+03 0.  1.
         -6    1    1    2    0  503  0.14212959777E+03  0.11634880178E+03 -0.37421479681E+03  0.45133533031E+03  0.17300000000E+03 0. -1.
<mgrwt>
<rscale>  2 0.25232294E+03</rscale>
<asrwt>0</asrwt>
<pdfrwt beam="1">  1       21 0.30971681E-01 0.25232294E+03</pdfrwt>
<pdfrwt beam="2">  1       21 0.78549265E-01 0.25232294E+03</pdfrwt>
<totfact> 0.13856886E+04</totfact>
</mgrwt>
</event>
<event>
 4    1  0.4451819E+000  0.3031110E+03  0.7546771E-02  0.1083696E+00
         21   -1    0    0  503  502  0.00000000000E+00  0.00000000000E+00  0.17816053421E+03  0.17816053421E+03  0.00000000000E+00 0.  1.
         21   -1    0    0  501  503 -0.00000000000E+00 -0.00000000000E+00 -0.52876676301E+03  0.52876676301E+03  0.00000000000E+00 0.  1.
          6    1    1    2  501    0 -0.23316924949E+03  0.87059506732E+02 -0.11972521250E+03  0.32589934509E+03  0.17300000000E+03 0.  1.
         -6    1    1    2    0  502  0.23316924949E+03 -0.87059506732E+02 -0.23088101631E+03  0.38102795214E+03  0.17300000000E+03 0.  1.
<mgrwt>
<rscale>  2 0.30311096E+03</rscale>
<asrwt>0</asrwt>
<pdfrwt beam="1">  1       21 0.27409313E-01 0.30311096E+03</pdfrwt>
<pdfrwt beam="2">  1       21 0.81348732E-01 0.30311096E+03</pdfrwt>
<totfact> 0.15875481E+04</totfact>
</mgrwt>
</event>
<event>
 4    1  0.4451819E+000  0.1837828E+03  0.7546771E-02  0.1164191E+00
         21   -1    0    0  501  502  0.00000000000E+00  0.00000000000E+00  0.49014638021E+02  0.49014638021E+02  0.00000000000E+00 0. -1.
         21   -1    0    0  502  503 -0.00000000000E+00 -0.00000000000E+00 -0.94316572771E+03  0.94316572771E+03  0.00000000000E+00 0.  1.
          6    1    1    2  501    0 -0.58030655440E+02  0.21899056492E+02 -0.18959924873E+03  0.26405302643E+03  0.17300000000E+03 0. -1.
         -6    1    1    2    0  503  0.58030655440E+02 -0.21899056492E+02 -0.70455184095E+03  0.72812733930E+03  0.17300000000E+03 0.  1.
<mgrwt>
<rscale>  2 0.18378282E+03</rscale>
<asrwt>0</asrwt>
<pdfrwt beam="1">  1       21 0.75407132E-02 0.18378282E+03</pdfrwt>
<pdfrwt beam="2">  1       21 0.14510243E+00 0.18378282E+03</pdfrwt>
<totfact> 0.43581541E+04</totfact>
</mgrwt>
</event>
<event>
 4    1  0.4451819E+000  0.2133694E+03  0.7546771E-02  0.1138925E+00
         21   -1    0    0  503  502  0.00000000000E+00  0.00000000000E+00  0.19460758661E+03  0.19460758661E+03  0.00000000000E+00 0. -1.
         21   -1    0    0  501  503 -0.00000000000E+00 -0.00000000000E+00 -0.42815324370E+03  0.42815324370E+03  0.00000000000E+00 0.  1.
          6    1    1    2  501    0  0.64937944036E+02 -0.10667974563E+03 -0.32648858490E+03  0.39002730773E+03  0.17300000000E+03 0.  1.
         -6    1    1    2    0  502 -0.64937944036E+02  0.10667974563E+03  0.92942927811E+02  0.23273352258E+03  0.17300000000E+03 0. -1.
<mgrwt>
<rscale>  2 0.21336941E+03</rscale>
<asrwt>0</asrwt>
<pdfrwt beam="1">  1       21 0.29939629E-01 0.21336941E+03</pdfrwt>
<pdfrwt beam="2">  1       21 0.65869730E-01 0.21336941E+03</pdfrwt>
<totfact> 0.22380354E+04</totfact>
</mgrwt>
</event>
<event>
 4    1  0.4451819E+000  0.1796359E+03  0.7546771E-02  0.1168156E+00
         21   -1    0    0  501  502  0.00000000000E+00  0.00000000000E+00  0.79312928873E+03  0.79312928873E+03  0.00000000000E+00 0. -1.
         21   -1    0    0  502  503 -0.00000000000E+00 -0.00000000000E+00 -0.75088518628E+02  0.75088518628E+02  0.00000000000E+00 0. -1.
          6    1    1    2  501    0  0.34360161086E+02  0.34050375455E+02  0.65285889415E+03  0.67712169099E+03  0.17300000000E+03 0. -1.
         -6    1    1    2    0  503 -0.34360161086E+02 -0.34050375455E+02  0.65181875952E+02  0.19109611637E+03  0.17300000000E+03 0. -1.
<mgrwt>
<rscale>  2 0.17963588E+03</rscale>
<asrwt>0</asrwt>
<pdfrwt beam="1">  1       21 0.12201988E+00 0.17963588E+03</pdfrwt>
<pdfrwt beam="2">  1       21 0.11552080E-01 0.17963588E+03</pdfrwt>
<totfact> 0.32062545E+04</totfact>
</mgrwt>
</event>
<event>
 4    1  0.4451819E+000  0.2165180E+03  0.7546771E-02  0.1136506E+00
         21   -1    0    0  503  502  0.00000000000E+00  0.00000000000E+00  0.94917056977E+02  0.94917056977E+02  0.00000000000E+00 0. -1.
         21   -1    0    0  501  503 -0.00000000000E+00 -0.00000000000E+00 -0.77367243017E+03  0.77367243017E+03  0.00000000000E+00 0. -1.
          6    1    1    2  501    0  0.12946405099E+03  0.13788021320E+02 -0.60053623978E+03  0.63837592790E+03  0.17300000000E+03 0. -1.
         -6    1    1    2    0  502 -0.12946405099E+03 -0.13788021320E+02 -0.78219133411E+02  0.23021355925E+03  0.17300000000E+03 0. -1.
<mgrwt>
<rscale>  2 0.21651801E+03</rscale>
<asrwt>0</asrwt>
<pdfrwt beam="1">  1       21 0.14602624E-01 0.21651801E+03</pdfrwt>
<pdfrwt beam="2">  1       21 0.11902653E+00 0.21651801E+03</pdfrwt>
<totfact> 0.21875098E+04</totfact>
</mgrwt>
</event>
<event>
 4    1  0.4451819E+000  0.3423646E+03  0.7546771E-02  0.1065793E+00
         21   -1    0    0  501  502  0.00000000000E+00  0.00000000000E+00  0.38760443995E+03  0.38760443995E+03  0.00000000000E+00 0. -1.
         21   -1    0    0  502  503 -0.00000000000E+00 -0.00000000000E+00 -0.35790602508E+03  0.35790602508E+03  0.00000000000E+00 0. -1.
          6    1    1    2  501    0 -0.68520174968E+02 -0.28738385320E+03  0.16163702741E+03  0.37860272330E+03  0.17300000000E+03 0. -1.
         -6    1    1    2    0  503  0.68520174968E+02  0.28738385320E+03 -0.13193861255E+03  0.36690774173E+03  0.17300000000E+03 0. -1.
<mgrwt>
<rscale>  2 0.34236456E+03</rscale>
<asrwt>0</asrwt>
<pdfrwt beam="1">  1       21 0.59631452E-01 0.34236456E+03</pdfrwt>
<pdfrwt beam="2">  1       21 0.55062466E-01 0.34236456E+03</pdfrwt>
<totfact> 0.75277291E+03</totfact>
</mgrwt>
</event>
<event>
 4    1  0.4451819E+000  0.2527125E+03  0.7546771E-02  0.1111603E+00
         21   -1    0    0  501  502  0.00000000000E+00  0.00000000000E+00  0.10519819810E+03  0.10519819810E+03  0.00000000000E+00 0.  1.
         21   -1    0    0  502  503 -0.00000000000E+00 -0.00000000000E+00 -0.94228645061E+03  0.94228645061E+03  0.00000000000E+00 0. -1.
          6    1    1    2  501    0  0.10674979479E+03  0.15013019588E+03 -0.10616416392E+03  0.27410659259E+03  0.17300000000E+03 0.  1.
         -6    1    1    2    0  503 -0.10674979479E+03 -0.15013019588E+03 -0.73092408860E+03  0.77337805612E+03  0.17300000000E+03 0. -1.
<mgrwt>
<rscale>  2 0.25271247E+03</rscale>
<asrwt>0</asrwt>
<pdfrwt beam="1">  1       21 0.16184338E-01 0.25271247E+03</pdfrwt>
<pdfrwt beam="2">  1       21 0.14496715E+00 0.25271247E+03</pdfrwt>
<totfact> 0.10722730E+04</totfact>
</mgrwt>
</event>
<event>
 4    1  0.4451819E+000  0.3469469E+03  0.7546771E-02  0.1063875E+00
         21   -1    0    0  503  502  0.00000000000E+00  0.00000000000E+00  0.29097294102E+03  0.29097294102E+03  0.00000000000E+00 0.  1.
         21   -1    0    0  501  503 -0.00000000000E+00 -0.00000000000E+00 -0.45771146293E+03  0.45771146293E+03  0.00000000000E+00 0.  1.
          6    1    1    2  501    0 -0.16371144652E+03  0.25227313594E+03 -0.19946393719E+03  0.40019749509E+03  0.17300000000E+03 0.  1.
         -6    1    1    2    0  502  0.16371144652E+03 -0.25227313594E+03  0.32725415275E+02  0.34848690885E+03  0.17300000000E+03 0.  1.
<mgrwt>
<rscale>  2 0.34694693E+03</rscale>
<asrwt>0</asrwt>
<pdfrwt beam="1">  1       21 0.44765068E-01 0.34694693E+03</pdfrwt>
<pdfrwt beam="2">  1       21 0.70417148E-01 0.34694693E+03</pdfrwt>
<totfact> 0.80619293E+03</totfact>
</mgrwt>
</event>
<event>
 4    1  0.4451819E+000  0.2457471E+03  0.7546771E-02  0.1116022E+00
         21   -1    0    0  503  502  0.00000000000E+00  0.00000000000E+00  0.56657867883E+02  0.56657867883E+02  0.00000000000E+00 0.  1.
         21   -1    0    0  501  503 -0.00000000000E+00 -0.00000000000E+00 -0.16820809551E+04  0.16820809551E+04  0.00000000000E+00 0.  1.
          6    1    1    2  501    0  0.49256154935E+02  0.16744095523E+03 -0.13388922434E+04  0.13612582715E+04  0.17300000000E+03 0.  1.
         -6    1    1    2    0  502 -0.49256154935E+02 -0.16744095523E+03 -0.28653084381E+03  0.37748055147E+03  0.17300000000E+03 0.  1.
<mgrwt>
<rscale>  2 0.24574711E+03</rscale>
<asrwt>0</asrwt>
<pdfrwt beam="1">  1       21 0.87165949E-02 0.24574711E+03</pdfrwt>
<pdfrwt beam="2">  1       21 0.25878169E+00 0.24574711E+03</pdfrwt>
<totfact> 0.58075046E+03</totfact>
</mgrwt>
</event>
<event>
 4    1  0.4451819E+000  0.2018325E+03  0.7546771E-02  0.1148202E+00
         21   -1    0    0  501  502  0.00000000000E+00  0.00000000000E+00  0.94169137834E+02  0.94169137834E+02  0.00000000000E+00 0.  1.
         21   -1    0    0  502  503 -0.00000000000E+00 -0.00000000000E+00 -0.85947982735E+03  0.85947982735E+03  0.00000000000E+00 0.  1.
          6    1    1    2  501    0 -0.10286608908E+03 -0.15031303444E+02 -0.46608375906E+02  0.20714418425E+03  0.17300000000E+03 0.  1.
         -6    1    1    2    0  503  0.10286608908E+03  0.15031303444E+02 -0.71870231361E+03  0.74650478093E+03  0.17300000000E+03 0.  1.
<mgrwt>
<rscale>  2 0.20183254E+03</rscale>
<asrwt>0</asrwt>
<pdfrwt beam="1">  1       21 0.14487559E-01 0.20183254E+03</pdfrwt>
<pdfrwt beam="2">  1       21 0.13222767E+00 0.20183254E+03</pdfrwt>
<totfact> 0.17197424E+04</totfact>
</mgrwt>
</event>
<event>
 4    1  0.4451819E+000  0.1768130E+03  0.7546771E-02  0.1170924E+00
         21   -1    0    0  501  502  0.00000000000E+00  0.00000000000E+00  0.37452110593E+03  0.37452110593E+03  0.00000000000E+00 0.  1.
         21   -1    0    0  502  503 -0.00000000000E+00 -0.00000000000E+00 -0.28754690049E+03  0.28754690049E+03  0.00000000000E+00 0.  1.
          6    1    1    2  501    0  0.23906694992E+02  0.27609702581E+02  0.32236287407E+03  0.36766921046E+03  0.17300000000E+03 0.  1.
         -6    1    1    2    0  503 -0.23906694992E+02 -0.27609702581E+02 -0.23538866863E+03  0.29439879596E+03  0.17300000000E+03 0.  1.
<mgrwt>
<rscale>  2 0.17681297E+03</rscale>
<asrwt>0</asrwt>
<pdfrwt beam="1">  1       21 0.57618632E-01 0.17681297E+03</pdfrwt>
<pdfrwt beam="2">  1       21 0.44237985E-01 0.17681297E+03</pdfrwt>
<totfact> 0.14011604E+04</totfact>
</mgrwt>
</event>
<event>
 4    1  0.4451819E+000  0.2306048E+03  0.7546771E-02  0.1126215E+00
         21   -1    0    0  501  502  0.00000000000E+00  0.00000000000E+00  0.11868179476E+04  0.11868179476E+04  0.00000000000E+00 0.  1.
         21   -1    0    0  502  503 -0.00000000000E+00 -0.00000000000E+00 -0.45257056980E+02  0.45257056980E+02  0.00000000000E+00 0.  1.
          6    1    1    2  501    0  0.14738636846E+03 -0.39074618896E+02  0.50939493202E+03  0.55916166197E+03  0.17300000000E+03 0.  1.
         -6    1    1    2    0  503 -0.14738636846E+03  0.39074618896E+02  0.63216595863E+03  0.67291334264E+03  0.17300000000E+03 0.  1.
<mgrwt>
<rscale>  2 0.23060479E+03</rscale>
<asrwt>0</asrwt>
<pdfrwt beam="1">  1       21 0.18258735E+00 0.23060479E+03</pdfrwt>
<pdfrwt beam="2">  1       21 0.69626251E-02 0.23060479E+03</pdfrwt>
<totfact> 0.26020685E+04</totfact>
</mgrwt>
</event>
<event>
 4    1  0.4451819E+000  0.2674313E+03  0.7546771E-02  0.1102759E+00
         21   -1    0    0  501  502  0.00000000000E+00  0.00000000000E+00  0.39829414633E+03  0.39829414633E+03  0.00000000000E+00 0.  1.
         21   -1    0    0  502  503 -0.00000000000E+00 -0.00000000000E+00 -0.82547828101E+03  0.82547828101E+03  0.00000000000E+00 0. -1.
          6    1    1    2  501    0 -0.18814185592E+03  0.78696490405E+02  0.32766691006E+03  0.42294810497E+03  0.17300000000E+03 0.  1.
         -6    1    1    2    0  503  0.18814185592E+03 -0.78696490405E+02 -0.75485104474E+03  0.80082432237E+03  0.17300000000E+03 0. -1.
<mgrwt>
<rscale>  2 0.26743129E+03</rscale>
<asrwt>0</asrwt>
<pdfrwt beam="1">  1       21 0.61276024E-01 0.26743129E+03</pdfrwt>
<pdfrwt beam="2">  1       21 0.12699666E+00 0.26743129E+03</pdfrwt>
<totfact> 0.10637652E+03</totfact>
</mgrwt>
</event>
<event>
 4    1  0.4451819E+000  0.1877114E+03  0.7546771E-02  0.1160542E+00
         21   -1    0    0  501  502  0.00000000000E+00  0.00000000000E+00  0.46787667041E+02  0.46787667041E+02  0.00000000000E+00 0.  1.
         21   -1    0    0  502  503 -0.00000000000E+00 -0.00000000000E+00 -0.84823831567E+03  0.84823831567E+03  0.00000000000E+00 0.  1.
          6    1    1    2  501    0 -0.65392869097E+02  0.32099058674E+02 -0.25084834583E+03  0.31330571253E+03  0.17300000000E+03 0.  1.
         -6    1    1    2    0  503  0.65392869097E+02 -0.32099058674E+02 -0.55060230280E+03  0.58172027018E+03  0.17300000000E+03 0.  1.
<mgrwt>
<rscale>  2 0.18771142E+03</rscale>
<asrwt>0</asrwt>
<pdfrwt beam="1">  1       21 0.71981032E-02 0.18771142E+03</pdfrwt>
<pdfrwt beam="2">  1       21 0.13049819E+00 0.18771142E+03</pdfrwt>
<totfact> 0.61860876E+04</totfact>
</mgrwt>
</event>
<event>
 4    1  0.4451819E+000  0.1924578E+03  0.7546771E-02  0.1156263E+00
         21   -1    0    0  501  502  0.00000000000E+00  0.00000000000E+00  0.10059561551E+03  0.10059561551E+03  0.00000000000E+00 0. -1.
         21   -1    0    0  502  503 -0.00000000000E+00 -0.00000000000E+00 -0.62341301200E+03  0.62341301200E+03  0.00000000000E+00 0.  1.
          6    1    1    2  501    0  0.18301526641E+02  0.82316746516E+02 -0.29791176684E+02  0.19474985711E+03  0.17300000000E+03 0. -1.
         -6    1    1    2    0  503 -0.18301526641E+02 -0.82316746516E+02 -0.49302621981E+03  0.52925877041E+03  0.17300000000E+03 0.  1.
<mgrwt>
<rscale>  2 0.19245777E+03</rscale>
<asrwt>0</asrwt>
<pdfrwt beam="1">  1       21 0.15476248E-01 0.19245777E+03</pdfrwt>
<pdfrwt beam="2">  1       21 0.95909695E-01 0.19245777E+03</pdfrwt>
<totfact> 0.33573388E+04</totfact>
</mgrwt>
</event>
<event>
 4    1  0.4451819E+000  0.1994626E+03  0.7546771E-02  0.1150193E+00
         21   -1    0    0  503  502  0.00000000000E+00  0.00000000000E+00  0.43701176925E+02  0.43701176925E+02  0.00000000000E+00 0.  1.
         21   -1    0    0  501  503 -0.00000000000E+00 -0.00000000000E+00 -0.12594242274E+04  0.12594242274E+04  0.00000000000E+00 0.  1.
          6    1    1    2  501    0 -0.94992592103E+02  0.28857080188E+02 -0.95086713658E+03  0.97156247100E+03  0.17300000000E+03 0.  1.
         -6    1    1    2    0  502  0.94992592103E+02 -0.28857080188E+02 -0.26485591391E+03  0.33156293334E+03  0.17300000000E+03 0.  1.
<mgrwt>
<rscale>  2 0.19946259E+03</rscale>
<asrwt>0</asrwt>
<pdfrwt beam="1">  1       21 0.67232583E-02 0.19946259E+03</pdfrwt>
<pdfrwt beam="2">  1       21 0.19375756E+00 0.19946259E+03</pdfrwt>
<totfact> 0.23779525E+04</totfact>
</mgrwt>
</event>
<event>
 4    1  0.4451819E+000  0.2038332E+03  0.7546771E-02  0.1146545E+00
         21   -1    0    0  501  502  0.00000000000E+00  0.00000000000E+00  0.13974220550E+03  0.13974220550E+03  0.00000000000E+00 0. -1.
         21   -1    0    0  502  503 -0.00000000000E+00 -0.00000000000E+00 -0.29959638613E+03  0.29959638613E+03  0.00000000000E+00 0. -1.
          6    1    1    2  501    0 -0.27483839081E+02  0.10422859440E+03 -0.60773308206E+02  0.21270015583E+03  0.17300000000E+03 0. -1.
         -6    1    1    2    0  503  0.27483839081E+02 -0.10422859440E+03 -0.99080872427E+02  0.22663843580E+03  0.17300000000E+03 0. -1.
<mgrwt>
<rscale>  2 0.20383317E+03</rscale>
<asrwt>0</asrwt>
<pdfrwt beam="1">  1       21 0.21498801E-01 0.20383317E+03</pdfrwt>
<pdfrwt beam="2">  1       21 0.46091752E-01 0.20383317E+03</pdfrwt>
<totfact> 0.90508401E+04</totfact>
</mgrwt>
</event>
<event>
 4    1  0.4451819E+000  0.2256977E+03  0.7546771E-02  0.1129705E+00
         21   -1    0    0  503  502  0.00000000000E+00  0.00000000000E+00  0.13030865486E+03  0.13030865486E+03  0.00000000000E+00 0.  1.
         21   -1    0    0  501  503 -0.00000000000E+00 -0.00000000000E+00 -0.60535800881E+03  0.60535800881E+03  0.00000000000E+00 0. -1.
          6    1    1    2  501    0 -0.10855706297E+03  0.96051120236E+02 -0.45645306485E+03  0.50920413788E+03  0.17300000000E+03 0. -1.
         -6    1    1    2    0  502  0.10855706297E+03 -0.96051120236E+02 -0.18596289110E+02  0.22646252579E+03  0.17300000000E+03 0.  1.
<mgrwt>
<rscale>  2 0.22569770E+03</rscale>
<asrwt>0</asrwt>
<pdfrwt beam="1">  1       21 0.20047485E-01 0.22569770E+03</pdfrwt>
<pdfrwt beam="2">  1       21 0.93132002E-01 0.22569770E+03</pdfrwt>
<totfact> 0.21875630E+04</totfact>
</mgrwt>
</event>
<event>
 4    1  0.4451819E+000  0.2143720E+03  0.7546771E-02  0.1138150E+00
         21   -1    0    0  503  502  0.00000000000E+00  0.00000000000E+00  0.13336857999E+03  0.13336857999E+03  0.00000000000E+00 0. -1.
         21   -1    0    0  501  503 -0.00000000000E+00 -0.00000000000E+00 -0.44338501228E+03  0.44338501228E+03  0.00000000000E+00 0. -1.
          6    1    1    2  501    0 -0.81502533826E+02  0.96869525385E+02 -0.18872492145E+02  0.21520115922E+03  0.17300000000E+03 0. -1.
         -6    1    1    2    0  502  0.81502533826E+02 -0.96869525385E+02 -0.29114394015E+03  0.36155243306E+03  0.17300000000E+03 0. -1.
<mgrwt>
<rscale>  2 0.21437203E+03</rscale>
<asrwt>0</asrwt>
<pdfrwt beam="1">  1       21 0.20518243E-01 0.21437203E+03</pdfrwt>
<pdfrwt beam="2">  1       21 0.68213078E-01 0.21437203E+03</pdfrwt>
<totfact> 0.42689744E+04</totfact>
</mgrwt>
</event>
<event>
 4    1  0.4451819E+000  0.1817796E+03  0.7546771E-02  0.1166092E+00
         21   -1    0    0  501  502  0.00000000000E+00  0.00000000000E+00  0.40905598554E+02  0.40905598554E+02  0.00000000000E+00 0. -1.
         21   -1    0    0  502  503 -0.00000000000E+00 -0.00000000000E+00 -0.87400910887E+03  0.87400910887E+03  0.00000000000E+00 0. -1.
          6    1    1    2  501    0 -0.29022727708E+02 -0.47670604390E+02 -0.54245312017E+03  0.57210068417E+03  0.17300000000E+03 0. -1.
         -6    1    1    2    0  503  0.29022727708E+02  0.47670604390E+02 -0.29065039015E+03  0.34281402325E+03  0.17300000000E+03 0. -1.
<mgrwt>
<rscale>  2 0.18177955E+03</rscale>
<asrwt>0</asrwt>
<pdfrwt beam="1">  1       21 0.62931692E-02 0.18177955E+03</pdfrwt>
<pdfrwt beam="2">  1       21 0.13446294E+00 0.18177955E+03</pdfrwt>
<totfact> 0.72489778E+04</totfact>
</mgrwt>
</event>
<event>
 4    1  0.4451819E+000  0.1888345E+03  0.7546771E-02  0.1159517E+00
         21   -1    0    0  503  502  0.00000000000E+00  0.00000000000E+00  0.83482565817E+02  0.83482565817E+02  0.00000000000E+00 0.  1.
         21   -1    0    0  501  503 -0.00000000000E+00 -0.00000000000E+00 -0.43746693098E+03  0.43746693098E+03  0.00000000000E+00 0.  1.
          6    1    1    2  501    0 -0.67509791310E+01  0.75391594415E+02 -0.21701870767E+03  0.28767270935E+03  0.17300000000E+03 0.  1.
         -6    1    1    2    0  502  0.67509791310E+01 -0.75391594415E+02 -0.13696565750E+03  0.23327678745E+03  0.17300000000E+03 0.  1.
<mgrwt>
<rscale>  2 0.18883450E+03</rscale>
<asrwt>0</asrwt>
<pdfrwt beam="1">  1       21 0.12843472E-01 0.18883450E+03</pdfrwt>
<pdfrwt beam="2">  1       21 0.67302605E-01 0.18883450E+03</pdfrwt>
<totfact> 0.10509473E+05</totfact>
</mgrwt>
</event>
<event>
 4    1  0.4451819E+000  0.2458916E+03  0.7546771E-02  0.1115929E+00
         21   -1    0    0  501  502  0.00000000000E+00  0.00000000000E+00  0.68598781908E+02  0.68598781908E+02  0.00000000000E+00 0.  1.
         21   -1    0    0  502  503 -0.00000000000E+00 -0.00000000000E+00 -0.97887501514E+03  0.97887501514E+03  0.00000000000E+00 0.  1.
          6    1    1    2  501    0 -0.17283668874E+03  0.25712760012E+02 -0.62041264542E+03  0.66736385698E+03  0.17300000000E+03 0.  1.
         -6    1    1    2    0  503  0.17283668874E+03 -0.25712760012E+02 -0.28986358781E+03  0.38010994007E+03  0.17300000000E+03 0.  1.
<mgrwt>
<rscale>  2 0.24589158E+03</rscale>
<asrwt>0</asrwt>
<pdfrwt beam="1">  1       21 0.10553660E-01 0.24589158E+03</pdfrwt>
<pdfrwt beam="2">  1       21 0.15059614E+00 0.24589158E+03</pdfrwt>
<totfact> 0.21119580E+04</totfact>
</mgrwt>
</event>
<event>
 4    1  0.4451819E+000  0.1828115E+03  0.7546771E-02  0.1165109E+00
         21   -1    0    0  501  502  0.00000000000E+00  0.00000000000E+00  0.37336912493E+03  0.37336912493E+03  0.00000000000E+00 0. -1.
         21   -1    0    0  502  503 -0.00000000000E+00 -0.00000000000E+00 -0.10964475462E+03  0.10964475462E+03  0.00000000000E+00 0. -1.
          6    1    1    2  501    0  0.58647930519E+02  0.71746409921E+01  0.23535616068E+03  0.29801439160E+03  0.17300000000E+03 0. -1.
         -6    1    1    2    0  503 -0.58647930519E+02 -0.71746409921E+01  0.28368209630E+02  0.18499948796E+03  0.17300000000E+03 0. -1.
<mgrwt>
<rscale>  2 0.18281153E+03</rscale>
<asrwt>0</asrwt>
<pdfrwt beam="1">  1       21 0.57441403E-01 0.18281153E+03</pdfrwt>
<pdfrwt beam="2">  1       21 0.16868424E-01 0.18281153E+03</pdfrwt>
<totfact> 0.90364017E+04</totfact>
</mgrwt>
</event>
<event>
 4    1  0.4451819E+000  0.1758813E+03  0.7546771E-02  0.1171850E+00
         21   -1    0    0  501  502  0.00000000000E+00  0.00000000000E+00  0.26720794544E+03  0.26720794544E+03  0.00000000000E+00 0. -1.
         21   -1    0    0  502  503 -0.00000000000E+00 -0.00000000000E+00 -0.26350178910E+03  0.26350178910E+03  0.00000000000E+00 0.  1.
          6    1    1    2  501    0  0.31598153379E+02  0.26050248846E+01  0.20054245248E+03  0.26674239389E+03  0.17300000000E+03 0. -1.
         -6    1    1    2    0  503 -0.31598153379E+02 -0.26050248846E+01 -0.19683629614E+03  0.26396734065E+03  0.17300000000E+03 0.  1.
<mgrwt>
<rscale>  2 0.17588129E+03</rscale>
<asrwt>0</asrwt>
<pdfrwt beam="1">  1       21 0.41108915E-01 0.17588129E+03</pdfrwt>
<pdfrwt beam="2">  1       21 0.40538737E-01 0.17588129E+03</pdfrwt>
<totfact> 0.33709844E+04</totfact>
</mgrwt>
</event>
<event>
 4    1  0.4451819E+000  0.2089478E+03  0.7546771E-02  0.1142402E+00
         21   -1    0    0  501  502  0.00000000000E+00  0.00000000000E+00  0.59715144815E+02  0.59715144815E+02  0.00000000000E+00 0.  1.
         21   -1    0    0  502  503 -0.00000000000E+00 -0.00000000000E+00 -0.10145949844E+04  0.10145949844E+04  0.00000000000E+00 0.  1.
          6    1    1    2  501    0 -0.10522460016E+03  0.51555488529E+02 -0.19351238905E+03  0.28479155463E+03  0.17300000000E+03 0.  1.
         -6    1    1    2    0  503  0.10522460016E+03 -0.51555488529E+02 -0.76136745057E+03  0.78951857462E+03  0.17300000000E+03 0.  1.
<mgrwt>
<rscale>  2 0.20894780E+03</rscale>
<asrwt>0</asrwt>
<pdfrwt beam="1">  1       21 0.91869451E-02 0.20894780E+03</pdfrwt>
<pdfrwt beam="2">  1       21 0.15609154E+00 0.20894780E+03</pdfrwt>
<totfact> 0.25076858E+04</totfact>
</mgrwt>
</event>
<event>
 4    1  0.4451819E+000  0.1786539E+03  0.7546771E-02  0.1169112E+00
         21   -1    0    0  503  502  0.00000000000E+00  0.00000000000E+00  0.60634824574E+02  0.60634824574E+02  0.00000000000E+00 0.  1.
         21   -1    0    0  501  503 -0.00000000000E+00 -0.00000000000E+00 -0.65487730761E+03  0.65487730761E+03  0.00000000000E+00 0.  1.
          6    1    1    2  501    0  0.28773493226E+02 -0.34063027484E+02 -0.45559130319E+03  0.48936759118E+03  0.17300000000E+03 0.  1.
         -6    1    1    2    0  502 -0.28773493226E+02  0.34063027484E+02 -0.13865117984E+03  0.22614454100E+03  0.17300000000E+03 0.  1.
<mgrwt>
<rscale>  2 0.17865387E+03</rscale>
<asrwt>0</asrwt>
<pdfrwt beam="1">  1       21 0.93284342E-02 0.17865387E+03</pdfrwt>
<pdfrwt beam="2">  1       21 0.10075036E+00 0.17865387E+03</pdfrwt>
<totfact> 0.74441399E+04</totfact>
</mgrwt>
</event>
<event>
 4    1  0.4451819E+000  0.2347840E+03  0.7546771E-02  0.1123317E+00
         21   -1    0    0  501  502  0.00000000000E+00  0.00000000000E+00  0.12378513036E+04  0.12378513036E+04  0.00000000000E+00 0. -1.
         21   -1    0    0  502  503 -0.00000000000E+00 -0.00000000000E+00 -0.45708298470E+02  0.45708298470E+02  0.00000000000E+00 0.  1.
          6    1    1    2  501    0  0.12323085275E+03 -0.10004333884E+03  0.69904348714E+03  0.73741800197E+03  0.17300000000E+03 0. -1.
         -6    1    1    2    0  503 -0.12323085275E+03  0.10004333884E+03  0.49309951796E+03  0.54614160007E+03  0.17300000000E+03 0.  1.
<mgrwt>
<rscale>  2 0.23478397E+03</rscale>
<asrwt>0</asrwt>
<pdfrwt beam="1">  1       21 0.19043864E+00 0.23478397E+03</pdfrwt>
<pdfrwt beam="2">  1       21 0.70320469E-02 0.23478397E+03</pdfrwt>
<totfact> 0.22593474E+04</totfact>
</mgrwt>
</event>
<event>
 4    1  0.4451819E+000  0.1746334E+03  0.7546771E-02  0.1173100E+00
         21   -1    0    0  501  502  0.00000000000E+00  0.00000000000E+00  0.42734354961E+03  0.42734354961E+03  0.00000000000E+00 0.  1.
         21   -1    0    0  502  503 -0.00000000000E+00 -0.00000000000E+00 -0.71649655387E+02  0.71649655387E+02  0.00000000000E+00 0.  1.
          6    1    1    2  501    0  0.17121765850E+02  0.16572667398E+02  0.16208455291E+03  0.23826080345E+03  0.17300000000E+03 0.  1.
         -6    1    1    2    0  503 -0.17121765850E+02 -0.16572667398E+02  0.19360934131E+03  0.26073240154E+03  0.17300000000E+03 0.  1.
<mgrwt>
<rscale>  2 0.17463335E+03</rscale>
<asrwt>0</asrwt>
<pdfrwt beam="1">  1       21 0.65745160E-01 0.17463335E+03</pdfrwt>
<pdfrwt beam="2">  1       21 0.11023024E-01 0.17463335E+03</pdfrwt>
<totfact> 0.14605581E+05</totfact>
</mgrwt>
</event>
<event>
 4    1  0.4451819E+000  0.1761380E+03  0.7546771E-02  0.1171594E+00
         21   -1    0    0  501  502  0.00000000000E+00  0.00000000000E+00  0.24795271936E+03  0.24795271936E+03  0.00000000000E+00 0. -1.
         21   -1    0    0  502  503 -0.00000000000E+00 -0.00000000000E+00 -0.16377805685E+03  0.16377805685E+03  0.00000000000E+00 0. -1.
          6    1    1    2  501    0 -0.32300344305E+02 -0.72312807182E+01  0.14210075254E+03  0.22631223462E+03  0.17300000000E+03 0. -1.
         -6    1    1    2    0  503  0.32300344305E+02  0.72312807182E+01 -0.57926090033E+02  0.18541854160E+03  0.17300000000E+03 0. -1.
<mgrwt>
<rscale>  2 0.17613802E+03</rscale>
<asrwt>0</asrwt>
<pdfrwt beam="1">  1       21 0.38146573E-01 0.17613802E+03</pdfrwt>
<pdfrwt beam="2">  1       21 0.25196624E-01 0.17613802E+03</pdfrwt>
<totfact> 0.99511545E+04</totfact>
</mgrwt>
</event>
<event>
 4    1  0.4451819E+000  0.1777667E+03  0.7546771E-02  0.1169982E+00
         21   -1    0    0  501  502  0.00000000000E+00  0.00000000000E+00  0.23132844134E+03  0.23132844134E+03  0.00000000000E+00 0. -1.
         21   -1    0    0  502  503 -0.00000000000E+00 -0.00000000000E+00 -0.38640538814E+03  0.38640538814E+03  0.00000000000E+00 0. -1.
          6    1    1    2  501    0  0.32115400296E+02 -0.25310000085E+02  0.17080054188E+03  0.24652346774E+03  0.17300000000E+03 0. -1.
         -6    1    1    2    0  503 -0.32115400296E+02  0.25310000085E+02 -0.32587748868E+03  0.37121036175E+03  0.17300000000E+03 0. -1.
<mgrwt>
<rscale>  2 0.17776669E+03</rscale>
<asrwt>0</asrwt>
<pdfrwt beam="1">  1       21 0.35588991E-01 0.17776669E+03</pdfrwt>
<pdfrwt beam="2">  1       21 0.59446982E-01 0.17776669E+03</pdfrwt>
<totfact> 0.20302020E+04</totfact>
</mgrwt>
</event>
<event>
 4    1  0.4451819E+000  0.2316473E+03  0.7546771E-02  0.1125486E+00
         21   -1    0    0  501  502  0.00000000000E+00  0.00000000000E+00  0.14470266714E+03  0.14470266714E+03  0.00000000000E+00 0.  1.
         21   -1    0    0  502  503 -0.00000000000E+00 -0.00000000000E+00 -0.45501483204E+03  0.45501483204E+03  0.00000000000E+00 0. -1.
          6    1    1    2  501    0 -0.57853738316E+02  0.14277403831E+03 -0.28413356738E+03  0.36659564259E+03  0.17300000000E+03 0. -1.
         -6    1    1    2    0  503  0.57853738316E+02 -0.14277403831E+03 -0.26178597526E+02  0.23312185659E+03  0.17300000000E+03 0. -1.
<mgrwt>
<rscale>  2 0.23164732E+03</rscale>
<asrwt>0</asrwt>
<pdfrwt beam="1">  1       21 0.22261949E-01 0.23164732E+03</pdfrwt>
<pdfrwt beam="2">  1       21 0.70002282E-01 0.23164732E+03</pdfrwt>
<totfact> 0.34284229E+04</totfact>
</mgrwt>
</event>
<event>
 4    1  0.4451819E+000  0.1948695E+03  0.7546771E-02  0.1154141E+00
         21   -1    0    0  503  502  0.00000000000E+00  0.00000000000E+00  0.68291588668E+03  0.68291588668E+03  0.00000000000E+00 0. -1.
         21   -1    0    0  501  503 -0.00000000000E+00 -0.00000000000E+00 -0.58510849791E+02  0.58510849791E+02  0.00000000000E+00 0. -1.
          6    1    1    2  501    0  0.53211631143E+02 -0.72205520194E+02  0.22959996307E+03  0.30114823240E+03  0.17300000000E+03 0. -1.
         -6    1    1    2    0  502 -0.53211631143E+02  0.72205520194E+02  0.39480507382E+03  0.44027850407E+03  0.17300000000E+03 0. -1.
<mgrwt>
<rscale>  2 0.19486948E+03</rscale>
<asrwt>0</asrwt>
<pdfrwt beam="1">  1       21 0.10506398E+00 0.19486948E+03</pdfrwt>
<pdfrwt beam="2">  1       21 0.90016697E-02 0.19486948E+03</pdfrwt>
<totfact> 0.71168147E+04</totfact>
</mgrwt>
</event>
<event>
 4    1  0.4451819E+000  0.2264667E+03  0.7546771E-02  0.1129152E+00
         21   -1    0    0  503  502  0.00000000000E+00  0.00000000000E+00  0.26128064846E+03  0.26128064846E+03  0.00000000000E+00 0. -1.
         21   -1    0    0  501  503 -0.00000000000E+00 -0.00000000000E+00 -0.22219632702E+03  0.22219632702E+03  0.00000000000E+00 0.  1.
          6    1    1    2  501    0  0.58867542753E+01  0.14602574014E+03 -0.62998454835E+02  0.23506589708E+03  0.17300000000E+03 0. -1.
         -6    1    1    2    0  502 -0.58867542753E+01 -0.14602574014E+03  0.10208277628E+03  0.24841107840E+03  0.17300000000E+03 0. -1.
<mgrwt>
<rscale>  2 0.22646671E+03</rscale>
<asrwt>0</asrwt>
<pdfrwt beam="1">  1       21 0.40197023E-01 0.22646671E+03</pdfrwt>
<pdfrwt beam="2">  1       21 0.34184050E-01 0.22646671E+03</pdfrwt>
<totfact> 0.48403251E+04</totfact>
</mgrwt>
</event>
<event>
 4    1  0.4451819E+000  0.2524644E+03  0.7546771E-02  0.1111757E+00
         21   -1    0    0  503  502  0.00000000000E+00  0.00000000000E+00  0.87551393995E+02  0.87551393995E+02  0.00000000000E+00 0. -1.
         21   -1    0    0  501  503 -0.00000000000E+00 -0.00000000000E+00 -0.72940721470E+03  0.72940721470E+03  0.00000000000E+00 0.  1.
          6    1    1    2  501    0 -0.85606784951E+02  0.16272899860E+03 -0.33880886339E+03  0.42252774409E+03  0.17300000000E+03 0. -1.
         -6    1    1    2    0  502  0.85606784951E+02 -0.16272899860E+03 -0.30304695732E+03  0.39443086461E+03  0.17300000000E+03 0.  1.
<mgrwt>
<rscale>  2 0.25246435E+03</rscale>
<asrwt>0</asrwt>
<pdfrwt beam="1">  1       21 0.13469446E-01 0.25246435E+03</pdfrwt>
<pdfrwt beam="2">  1       21 0.11221649E+00 0.25246435E+03</pdfrwt>
<totfact> 0.28741645E+04</totfact>
</mgrwt>
</event>
<event>
 4    1  0.4451819E+000  0.2389069E+03  0.7546771E-02  0.1120523E+00
         21   -1    0    0  501  502  0.00000000000E+00  0.00000000000E+00  0.18012290839E+04  0.18012290839E+04  0.00000000000E+00 0. -1.
         21   -1    0    0  502  503 -0.00000000000E+00 -0.00000000000E+00 -0.38588860340E+02  0.38588860340E+02  0.00000000000E+00 0. -1.
          6    1    1    2  501    0  0.14466880299E+03 -0.78857170040E+02  0.12703473598E+04  0.12926170858E+04  0.17300000000E+03 0. -1.
         -6    1    1    2    0  503 -0.14466880299E+03  0.78857170040E+02  0.49229286378E+03  0.54720085851E+03  0.17300000000E+03 0. -1.
<mgrwt>
<rscale>  2 0.23890692E+03</rscale>
<asrwt>0</asrwt>
<pdfrwt beam="1">  1       21 0.27711210E+00 0.23890692E+03</pdfrwt>
<pdfrwt beam="2">  1       21 0.59367491E-02 0.23890692E+03</pdfrwt>
<totfact> 0.88878612E+03</totfact>
</mgrwt>
</event>
<event>
 4    1  0.4451819E+000  0.2724313E+03  0.7546771E-02  0.1099896E+00
         21   -1    0    0  501  502  0.00000000000E+00  0.00000000000E+00  0.20330407767E+03  0.20330407767E+03  0.00000000000E+00 0. -1.
         21   -1    0    0  502  503 -0.00000000000E+00 -0.00000000000E+00 -0.50787947733E+03  0.50787947733E+03  0.00000000000E+00 0. -1.
          6    1    1    2  501    0 -0.16279414755E+03  0.13337127902E+03  0.36276944750E+02  0.27483604070E+03  0.17300000000E+03 0. -1.
         -6    1    1    2    0  503  0.16279414755E+03 -0.13337127902E+03 -0.34085234441E+03  0.43634751430E+03  0.17300000000E+03 0. -1.
<mgrwt>
<rscale>  2 0.27243134E+03</rscale>
<asrwt>0</asrwt>
<pdfrwt beam="1">  1       21 0.31277550E-01 0.27243134E+03</pdfrwt>
<pdfrwt beam="2">  1       21 0.78135304E-01 0.27243134E+03</pdfrwt>
<totfact> 0.13618016E+04</totfact>
</mgrwt>
</event>
<event>
 4    1  0.4451819E+000  0.2845591E+03  0.7546771E-02  0.1093225E+00
         21   -1    0    0  503  502  0.00000000000E+00  0.00000000000E+00  0.19878089306E+03  0.19878089306E+03  0.00000000000E+00 0.  1.
         21   -1    0    0  501  503 -0.00000000000E+00 -0.00000000000E+00 -0.40854911238E+03  0.40854911238E+03  0.00000000000E+00 0. -1.
          6    1    1    2  501    0  0.18769492901E+03  0.12575976106E+03 -0.88450230170E+02  0.29798883720E+03  0.17300000000E+03 0. -1.
         -6    1    1    2    0  502 -0.18769492901E+03 -0.12575976106E+03 -0.12131798914E+03  0.30934116824E+03  0.17300000000E+03 0.  1.
<mgrwt>
<rscale>  2 0.28455914E+03</rscale>
<asrwt>0</asrwt>
<pdfrwt beam="1">  1       21 0.30581676E-01 0.28455914E+03</pdfrwt>
<pdfrwt beam="2">  1       21 0.62853709E-01 0.28455914E+03</pdfrwt>
<totfact> 0.22990378E+04</totfact>
</mgrwt>
</event>
<event>
 4    1  0.4451819E+000  0.2172127E+03  0.7546771E-02  0.1135978E+00
         21   -1    0    0  501  502  0.00000000000E+00  0.00000000000E+00  0.15619485354E+02  0.15619485354E+02  0.00000000000E+00 0. -1.
         21   -1    0    0  502  503 -0.00000000000E+00 -0.00000000000E+00 -0.30861259357E+04  0.30861259357E+04  0.00000000000E+00 0.  1.
          6    1    1    2  501    0  0.18822429209E+02  0.12999259000E+03 -0.13093960045E+04  0.13272901921E+04  0.17300000000E+03 0.  1.
         -6    1    1    2    0  503 -0.18822429209E+02 -0.12999259000E+03 -0.17611104458E+04  0.17744552290E+04  0.17300000000E+03 0.  1.
<mgrwt>
<rscale>  2 0.21721270E+03</rscale>
<asrwt>0</asrwt>
<pdfrwt beam="1">  1       21 0.24029975E-02 0.21721270E+03</pdfrwt>
<pdfrwt beam="2">  1       21 0.47478866E+00 0.21721270E+03</pdfrwt>
<totfact> 0.24956236E+03</totfact>
</mgrwt>
</event>
<event>
 4    1  0.4451819E+000  0.2904837E+03  0.7546771E-02  0.1090097E+00
         21   -1    0    0  503  502  0.00000000000E+00  0.00000000000E+00  0.41491236431E+03  0.41491236431E+03  0.00000000000E+00 0. -1.
         21   -1    0    0  501  503 -0.00000000000E+00 -0.00000000000E+00 -0.14610653534E+04  0.14610653534E+04  0.00000000000E+00 0.  1.
          6    1    1    2  501    0  0.12144895886E+03  0.19925341594E+03 -0.13933395916E+04  0.14232975764E+04  0.17300000000E+03 0.  1.
         -6    1    1    2    0  502 -0.12144895886E+03 -0.19925341594E+03  0.34718660254E+03  0.45268014133E+03  0.17300000000E+03 0. -1.
<mgrwt>
<rscale>  2 0.29048369E+03</rscale>
<asrwt>0</asrwt>
<pdfrwt beam="1">  1       21 0.63832671E-01 0.29048369E+03</pdfrwt>
<pdfrwt beam="2">  1       21 0.22477929E+00 0.29048369E+03</pdfrwt>
<totfact> 0.19100854E+02</totfact>
</mgrwt>
</event>
<event>
 4    1  0.4451819E+000  0.3227193E+03  0.7546771E-02  0.1074405E+00
         21   -1    0    0  501  502  0.00000000000E+00  0.00000000000E+00  0.76658910171E+03  0.76658910171E+03  0.00000000000E+00 0.  1.
         21   -1    0    0  502  503 -0.00000000000E+00 -0.00000000000E+00 -0.20593820756E+03  0.20593820756E+03  0.00000000000E+00 0.  1.
          6    1    1    2  501    0  0.70692319849E+02  0.26309945400E+03  0.56398613866E+03  0.64979080586E+03  0.17300000000E+03 0.  1.
         -6    1    1    2    0  503 -0.70692319849E+02 -0.26309945400E+03 -0.33352444999E+01  0.32273650341E+03  0.17300000000E+03 0.  1.
<mgrwt>
<rscale>  2 0.32271927E+03</rscale>
<asrwt>0</asrwt>
<pdfrwt beam="1">  1       21 0.11793678E+00 0.32271927E+03</pdfrwt>
<pdfrwt beam="2">  1       21 0.31682801E-01 0.32271927E+03</pdfrwt>
<totfact> 0.48643760E+03</totfact>
</mgrwt>
</event>
<event>
 4    1  0.4451819E+000  0.1985601E+03  0.7546771E-02  0.1150960E+00
         21   -1    0    0  503  502  0.00000000000E+00  0.00000000000E+00  0.25348179476E+02  0.25348179476E+02  0.00000000000E+00 0. -1.
         21   -1    0    0  501  503 -0.00000000000E+00 -0.00000000000E+00 -0.17959701958E+04  0.17959701958E+04  0.00000000000E+00 0.  1.
          6    1    1    2  501    0  0.35850049892E+01 -0.97387119923E+02 -0.12186172313E+04  0.12346878390E+04  0.17300000000E+03 0.  1.
         -6    1    1    2    0  502 -0.35850049892E+01  0.97387119923E+02 -0.55200478507E+03  0.58663053631E+03  0.17300000000E+03 0. -1.
<mgrwt>
<rscale>  2 0.19856008E+03</rscale>
<asrwt>0</asrwt>
<pdfrwt beam="1">  1       21 0.38997203E-02 0.19856008E+03</pdfrwt>
<pdfrwt beam="2">  1       21 0.27630308E+00 0.19856008E+03</pdfrwt>
<totfact> 0.19006085E+04</totfact>
</mgrwt>
</event>
<event>
 4    1  0.4451819E+000  0.2357870E+03  0.7546771E-02  0.1122632E+00
         21   -1    0    0  503  502  0.00000000000E+00  0.00000000000E+00  0.75710969418E+03  0.75710969418E+03  0.00000000000E+00 0.  1.
         21   -1    0    0  501  503 -0.00000000000E+00 -0.00000000000E+00 -0.12135304812E+03  0.12135304812E+03  0.00000000000E+00 0.  1.
          6    1    1    2  501    0  0.35183820813E+02  0.15629659447E+03  0.41862190374E+02  0.23947436120E+03  0.17300000000E+03 0.  1.
         -6    1    1    2    0  502 -0.35183820813E+02 -0.15629659447E+03  0.59389445569E+03  0.63898838110E+03  0.17300000000E+03 0.  1.
<mgrwt>
<rscale>  2 0.23578704E+03</rscale>
<asrwt>0</asrwt>
<pdfrwt beam="1">  1       21 0.11647841E+00 0.23578704E+03</pdfrwt>
<pdfrwt beam="2">  1       21 0.18669700E-01 0.23578704E+03</pdfrwt>
<totfact> 0.14510751E+04</totfact>
</mgrwt>
</event>
<event>
 4    1  0.4451819E+000  0.2135342E+03  0.7546771E-02  0.1138797E+00
         21   -1    0    0  501  502  0.00000000000E+00  0.00000000000E+00  0.26083788858E+02  0.26083788858E+02  0.00000000000E+00 0. -1.
         21   -1    0    0  502  503 -0.00000000000E+00 -0.00000000000E+00 -0.18479827657E+04  0.18479827657E+04  0.00000000000E+00 0.  1.
          6    1    1    2  501    0  0.21046046485E+02  0.12338924978E+03 -0.69309306948E+03  0.72524123296E+03  0.17300000000E+03 0. -1.
         -6    1    1    2    0  503 -0.21046046485E+02 -0.12338924978E+03 -0.11288059073E+04  0.11488253216E+04  0.17300000000E+03 0.  1.
<mgrwt>
<rscale>  2 0.21353417E+03</rscale>
<asrwt>0</asrwt>
<pdfrwt beam="1">  1       21 0.40128880E-02 0.21353417E+03</pdfrwt>
<pdfrwt beam="2">  1       21 0.28430522E+00 0.21353417E+03</pdfrwt>
<totfact> 0.16060342E+04</totfact>
</mgrwt>
</event>
<event>
 4    1  0.4451819E+000  0.2349185E+03  0.7546771E-02  0.1123225E+00
         21   -1    0    0  503  502  0.00000000000E+00  0.00000000000E+00  0.41827298391E+03  0.41827298391E+03  0.00000000000E+00 0. -1.
         21   -1    0    0  501  503 -0.00000000000E+00 -0.00000000000E+00 -0.18231978650E+04  0.18231978650E+04  0.00000000000E+00 0. -1.
          6    1    1    2  501    0 -0.13119305360E+03 -0.89700005385E+02 -0.17818842350E+04  0.17973030171E+04  0.17300000000E+03 0. -1.
         -6    1    1    2    0  502  0.13119305360E+03  0.89700005385E+02  0.37695935394E+03  0.44416783180E+03  0.17300000000E+03 0. -1.
<mgrwt>
<rscale>  2 0.23491851E+03</rscale>
<asrwt>0</asrwt>
<pdfrwt beam="1">  1       21 0.64349690E-01 0.23491851E+03</pdfrwt>
<pdfrwt beam="2">  1       21 0.28049198E+00 0.23491851E+03</pdfrwt>
<totfact> 0.92555522E+01</totfact>
</mgrwt>
</event>
<event>
 4    1  0.4451819E+000  0.3069459E+03  0.7546771E-02  0.1081819E+00
         21   -1    0    0  503  502  0.00000000000E+00  0.00000000000E+00  0.76366769161E+03  0.76366769161E+03  0.00000000000E+00 0. -1.
         21   -1    0    0  501  503 -0.00000000000E+00 -0.00000000000E+00 -0.15586184027E+03  0.15586184027E+03  0.00000000000E+00 0.  1.
          6    1    1    2  501    0 -0.25124415743E+03 -0.34104862604E+02  0.51381368134E+03  0.59851505196E+03  0.17300000000E+03 0.  1.
         -6    1    1    2    0  502  0.25124415743E+03  0.34104862604E+02  0.93992170009E+02  0.32101447992E+03  0.17300000000E+03 0. -1.
<mgrwt>
<rscale>  2 0.30694587E+03</rscale>
<asrwt>0</asrwt>
<pdfrwt beam="1">  1       21 0.11748734E+00 0.30694587E+03</pdfrwt>
<pdfrwt beam="2">  1       21 0.23978745E-01 0.30694587E+03</pdfrwt>
<totfact> 0.85251523E+03</totfact>
</mgrwt>
</event>
<event>
 4    1  0.4451819E+000  0.1733025E+03  0.7546771E-02  0.1174447E+00
         21   -1    0    0  501  502  0.00000000000E+00  0.00000000000E+00  0.35069735140E+02  0.35069735140E+02  0.00000000000E+00 0. -1.
         21   -1    0    0  502  503 -0.00000000000E+00 -0.00000000000E+00 -0.10723716907E+04  0.10723716907E+04  0.00000000000E+00 0. -1.
          6    1    1    2  501    0 -0.87875159568E+01 -0.52482379172E+01 -0.27015734067E+03  0.32096534572E+03  0.17300000000E+03 0. -1.
         -6    1    1    2    0  503  0.87875159568E+01  0.52482379172E+01 -0.76714461488E+03  0.78647608011E+03  0.17300000000E+03 0. -1.
<mgrwt>
<rscale>  2 0.17330252E+03</rscale>
<asrwt>0</asrwt>
<pdfrwt beam="1">  1       21 0.53953434E-02 0.17330252E+03</pdfrwt>
<pdfrwt beam="2">  1       21 0.16498028E+00 0.17330252E+03</pdfrwt>
<totfact> 0.55371898E+04</totfact>
</mgrwt>
</event>
<event>
 4    1  0.4451819E+000  0.1964605E+03  0.7546771E-02  0.1152760E+00
         21   -1    0    0  503  502  0.00000000000E+00  0.00000000000E+00  0.29979476370E+03  0.29979476370E+03  0.00000000000E+00 0. -1.
         21   -1    0    0  501  503 -0.00000000000E+00 -0.00000000000E+00 -0.13002737691E+03  0.13002737691E+03  0.00000000000E+00 0. -1.
          6    1    1    2  501    0 -0.91412904868E+02  0.17646418218E+02  0.63530964954E+02  0.20647735653E+03  0.17300000000E+03 0. -1.
         -6    1    1    2    0  502  0.91412904868E+02 -0.17646418218E+02  0.10623642184E+03  0.22334478408E+03  0.17300000000E+03 0. -1.
<mgrwt>
<rscale>  2 0.19646047E+03</rscale>
<asrwt>0</asrwt>
<pdfrwt beam="1">  1       21 0.46122271E-01 0.19646047E+03</pdfrwt>
<pdfrwt beam="2">  1       21 0.20004212E-01 0.19646047E+03</pdfrwt>
<totfact> 0.10378182E+05</totfact>
</mgrwt>
</event>
<event>
 4    1  0.4451819E+000  0.1741038E+03  0.7546771E-02  0.1173635E+00
         21   -1    0    0  503  502  0.00000000000E+00  0.00000000000E+00  0.17621117236E+03  0.17621117236E+03  0.00000000000E+00 0. -1.
         21   -1    0    0  501  503 -0.00000000000E+00 -0.00000000000E+00 -0.21835078933E+03  0.21835078933E+03  0.00000000000E+00 0. -1.
          6    1    1    2  501    0  0.19371681628E+02 -0.28030080522E+01 -0.11194292503E+03  0.20698632169E+03  0.17300000000E+03 0. -1.
         -6    1    1    2    0  502 -0.19371681628E+02  0.28030080522E+01  0.69803308069E+02  0.18757564000E+03  0.17300000000E+03 0. -1.
<mgrwt>
<rscale>  2 0.17410376E+03</rscale>
<asrwt>0</asrwt>
<pdfrwt beam="1">  1       21 0.27109411E-01 0.17410376E+03</pdfrwt>
<pdfrwt beam="2">  1       21 0.33592429E-01 0.17410376E+03</pdfrwt>
<totfact> 0.11144154E+05</totfact>
</mgrwt>
</event>
<event>
 4    1  0.4451819E+000  0.2147961E+03  0.7546771E-02  0.1137823E+00
         21   -1    0    0  501  502  0.00000000000E+00  0.00000000000E+00  0.40276443685E+03  0.40276443685E+03  0.00000000000E+00 0. -1.
         21   -1    0    0  502  503 -0.00000000000E+00 -0.00000000000E+00 -0.12153534040E+03  0.12153534040E+03  0.00000000000E+00 0. -1.
          6    1    1    2  501    0  0.61988330156E+02 -0.11120172115E+03  0.20345472484E+03  0.29585672364E+03  0.17300000000E+03 0. -1.
         -6    1    1    2    0  503 -0.61988330156E+02  0.11120172115E+03  0.77774371622E+02  0.22844305361E+03  0.17300000000E+03 0. -1.
<mgrwt>
<rscale>  2 0.21479613E+03</rscale>
<asrwt>0</asrwt>
<pdfrwt beam="1">  1       21 0.61963759E-01 0.21479613E+03</pdfrwt>
<pdfrwt beam="2">  1       21 0.18697745E-01 0.21479613E+03</pdfrwt>
<totfact> 0.62623878E+04</totfact>
</mgrwt>
</event>
<event>
 4    1  0.4451819E+000  0.1917148E+03  0.7546771E-02  0.1156924E+00
         21   -1    0    0  503  502  0.00000000000E+00  0.00000000000E+00  0.63463649510E+03  0.63463649510E+03  0.00000000000E+00 0. -1.
         21   -1    0    0  501  503 -0.00000000000E+00 -0.00000000000E+00 -0.63737854230E+02  0.63737854230E+02  0.00000000000E+00 0. -1.
          6    1    1    2  501    0 -0.67901140911E+02  0.47063758953E+02  0.39099771468E+03  0.43546960310E+03  0.17300000000E+03 0. -1.
         -6    1    1    2    0  502  0.67901140911E+02 -0.47063758953E+02  0.17990092619E+03  0.26290474623E+03  0.17300000000E+03 0. -1.
<mgrwt>
<rscale>  2 0.19171479E+03</rscale>
<asrwt>0</asrwt>
<pdfrwt beam="1">  1       21 0.97636380E-01 0.19171479E+03</pdfrwt>
<pdfrwt beam="2">  1       21 0.98058241E-02 0.19171479E+03</pdfrwt>
<totfact> 0.73005544E+04</totfact>
</mgrwt>
</event>
<event>
 4    1  0.4451819E+000  0.4195832E+03  0.7546771E-02  0.1037202E+00
         21   -1    0    0  503  502  0.00000000000E+00  0.00000000000E+00  0.67486740649E+03  0.67486740649E+03  0.00000000000E+00 0.  1.
         21   -1    0    0  501  503 -0.00000000000E+00 -0.00000000000E+00 -0.62094732770E+03  0.62094732770E+03  0.00000000000E+00 0. -1.
          6    1    1    2  501    0 -0.56680976853E+02 -0.37803221810E+03 -0.46642471002E+03  0.62737716023E+03  0.17300000000E+03 0. -1.
         -6    1    1    2    0  502  0.56680976853E+02  0.37803221810E+03  0.52034478881E+03  0.66843757397E+03  0.17300000000E+03 0.  1.
<mgrwt>
<rscale>  2 0.41958323E+03</rscale>
<asrwt>0</asrwt>
<pdfrwt beam="1">  1       21 0.10382576E+00 0.41958323E+03</pdfrwt>
<pdfrwt beam="2">  1       21 0.95530358E-01 0.41958323E+03</pdfrwt>
<totfact> 0.58428497E+02</totfact>
</mgrwt>
</event>
<event>
 4    1  0.4451819E+000  0.2157677E+03  0.7546771E-02  0.1137078E+00
         21   -1    0    0  501  502  0.00000000000E+00  0.00000000000E+00  0.18689929851E+02  0.18689929851E+02  0.00000000000E+00 0.  1.
         21   -1    0    0  502  503 -0.00000000000E+00 -0.00000000000E+00 -0.27215709856E+04  0.27215709856E+04  0.00000000000E+00 0.  1.
          6    1    1    2  501    0 -0.69011376389E+02  0.10892259027E+03 -0.95259888830E+03  0.97672941121E+03  0.17300000000E+03 0.  1.
         -6    1    1    2    0  503  0.69011376389E+02 -0.10892259027E+03 -0.17502821674E+04  0.17635315042E+04  0.17300000000E+03 0.  1.
<mgrwt>
<rscale>  2 0.21576770E+03</rscale>
<asrwt>0</asrwt>
<pdfrwt beam="1">  1       21 0.28753744E-02 0.21576770E+03</pdfrwt>
<pdfrwt beam="2">  1       21 0.41870314E+00 0.21576770E+03</pdfrwt>
<totfact> 0.43737432E+03</totfact>
</mgrwt>
</event>
<event>
 4    1  0.4451819E+000  0.2081844E+03  0.7546771E-02  0.1143012E+00
         21   -1    0    0  501  502  0.00000000000E+00  0.00000000000E+00  0.17776661542E+03  0.17776661542E+03  0.00000000000E+00 0. -1.
         21   -1    0    0  502  503 -0.00000000000E+00 -0.00000000000E+00 -0.56062713708E+03  0.56062713708E+03  0.00000000000E+00 0. -1.
          6    1    1    2  501    0 -0.41074443878E+02 -0.10828034014E+03  0.86110874820E+02  0.22529053412E+03  0.17300000000E+03 0. -1.
         -6    1    1    2    0  503  0.41074443878E+02  0.10828034014E+03 -0.46897139648E+03  0.51310321839E+03  0.17300000000E+03 0. -1.
<mgrwt>
<rscale>  2 0.20818439E+03</rscale>
<asrwt>0</asrwt>
<pdfrwt beam="1">  1       21 0.27348710E-01 0.20818439E+03</pdfrwt>
<pdfrwt beam="2">  1       21 0.86250329E-01 0.20818439E+03</pdfrwt>
<totfact> 0.14627930E+04</totfact>
</mgrwt>
</event>
<event>
 4    1  0.4451819E+000  0.2113939E+03  0.7546771E-02  0.1140467E+00
         21   -1    0    0  503  502  0.00000000000E+00  0.00000000000E+00  0.93983401371E+02  0.93983401371E+02  0.00000000000E+00 0.  1.
         21   -1    0    0  501  503 -0.00000000000E+00 -0.00000000000E+00 -0.79440395645E+03  0.79440395645E+03  0.00000000000E+00 0.  1.
          6    1    1    2  501    0  0.11246469124E+03  0.45935739582E+02 -0.63165558084E+03  0.66609021292E+03  0.17300000000E+03 0.  1.
         -6    1    1    2    0  502 -0.11246469124E+03 -0.45935739582E+02 -0.68764974235E+02  0.22229714489E+03  0.17300000000E+03 0.  1.
<mgrwt>
<rscale>  2 0.21139394E+03</rscale>
<asrwt>0</asrwt>
<pdfrwt beam="1">  1       21 0.14458985E-01 0.21139394E+03</pdfrwt>
<pdfrwt beam="2">  1       21 0.12221599E+00 0.21139394E+03</pdfrwt>
<totfact> 0.20915670E+04</totfact>
</mgrwt>
</event>
<event>
 4    1  0.4451819E+000  0.3908404E+03  0.7546771E-02  0.1046998E+00
         21   -1    0    0  501  502  0.00000000000E+00  0.00000000000E+00  0.35383275460E+03  0.35383275460E+03  0.00000000000E+00 0. -1.
         21   -1    0    0  502  503 -0.00000000000E+00 -0.00000000000E+00 -0.46352790102E+03  0.46352790102E+03  0.00000000000E+00 0.  1.
          6    1    1    2  501    0 -0.17827783508E+03  0.30173540540E+03 -0.16190620777E+03  0.42304829685E+03  0.17300000000E+03 0.  1.
         -6    1    1    2    0  503  0.17827783508E+03 -0.30173540540E+03  0.52211061345E+02  0.39431235877E+03  0.17300000000E+03 0. -1.
<mgrwt>
<rscale>  2 0.39084043E+03</rscale>
<asrwt>0</asrwt>
<pdfrwt beam="1">  1       21 0.54435809E-01 0.39084043E+03</pdfrwt>
<pdfrwt beam="2">  1       21 0.71311984E-01 0.39084043E+03</pdfrwt>
<totfact> 0.50943462E+03</totfact>
</mgrwt>
</event>
<event>
 4    1  0.4451819E+000  0.1780109E+03  0.7546771E-02  0.1169742E+00
         21   -1    0    0  501  502  0.00000000000E+00  0.00000000000E+00  0.85794178898E+03  0.85794178898E+03  0.00000000000E+00 0.  1.
         21   -1    0    0  502  503 -0.00000000000E+00 -0.00000000000E+00 -0.20140999493E+03  0.20140999493E+03  0.00000000000E+00 0.  1.
          6    1    1    2  501    0 -0.15125856700E+02 -0.39116453649E+02  0.80691795758E+03  0.82631984047E+03  0.17300000000E+03 0.  1.
         -6    1    1    2    0  503  0.15125856700E+02  0.39116453649E+02 -0.15038616352E+03  0.23303194345E+03  0.17300000000E+03 0.  1.
<mgrwt>
<rscale>  2 0.17801092E+03</rscale>
<asrwt>0</asrwt>
<pdfrwt beam="1">  1       21 0.13199104E+00 0.17801092E+03</pdfrwt>
<pdfrwt beam="2">  1       21 0.30986153E-01 0.17801092E+03</pdfrwt>
<totfact> 0.42142219E+03</totfact>
</mgrwt>
</event>
<event>
 4    1  0.4451819E+000  0.2062198E+03  0.7546771E-02  0.1144595E+00
         21   -1    0    0  503  502  0.00000000000E+00  0.00000000000E+00  0.80741621566E+03  0.80741621566E+03  0.00000000000E+00 0.  1.
         21   -1    0    0  501  503 -0.00000000000E+00 -0.00000000000E+00 -0.85656616595E+02  0.85656616595E+02  0.00000000000E+00 0. -1.
          6    1    1    2  501    0 -0.11151426640E+03  0.12734769962E+02  0.63798543659E+03  0.67048640797E+03  0.17300000000E+03 0.  1.
         -6    1    1    2    0  502  0.11151426640E+03 -0.12734769962E+02  0.83774162476E+02  0.22258642428E+03  0.17300000000E+03 0. -1.
<mgrwt>
<rscale>  2 0.20621980E+03</rscale>
<asrwt>0</asrwt>
<pdfrwt beam="1">  1       21 0.12421787E+00 0.20621980E+03</pdfrwt>
<pdfrwt beam="2">  1       21 0.13177942E-01 0.20621980E+03</pdfrwt>
<totfact> 0.23834295E+04</totfact>
</mgrwt>
</event>
<event>
 4    1  0.4451819E+000  0.2216777E+03  0.7546771E-02  0.1132638E+00
         21   -1    0    0  503  502  0.00000000000E+00  0.00000000000E+00  0.17266080551E+04  0.17266080551E+04  0.00000000000E+00 0. -1.
         21   -1    0    0  501  503 -0.00000000000E+00 -0.00000000000E+00 -0.60482428382E+02  0.60482428382E+02  0.00000000000E+00 0.  1.
          6    1    1    2  501    0  0.13859032196E+03  0.21779716271E+01  0.18289992997E+03  0.28739068406E+03  0.17300000000E+03 0.  1.
         -6    1    1    2    0  502 -0.13859032196E+03 -0.21779716271E+01  0.14832256968E+04  0.14996997995E+04  0.17300000000E+03 0. -1.
<mgrwt>
<rscale>  2 0.22167774E+03</rscale>
<asrwt>0</asrwt>
<pdfrwt beam="1">  1       21 0.26563197E+00 0.22167774E+03</pdfrwt>
<pdfrwt beam="2">  1       21 0.93049903E-02 0.22167774E+03</pdfrwt>
<totfact> 0.48195963E+03</totfact>
</mgrwt>
</event>
<event>
 4    1  0.4451819E+000  0.2113454E+03  0.7546771E-02  0.1140505E+00
         21   -1    0    0  503  502  0.00000000000E+00  0.00000000000E+00  0.48770072941E+02  0.48770072941E+02  0.00000000000E+00 0.  1.
         21   -1    0    0  501  503 -0.00000000000E+00 -0.00000000000E+00 -0.14646410511E+04  0.14646410511E+04  0.00000000000E+00 0.  1.
          6    1    1    2  501    0  0.72978935132E+02 -0.97015226659E+02 -0.11711245358E+04  0.11900418301E+04  0.17300000000E+03 0.  1.
         -6    1    1    2    0  502 -0.72978935132E+02  0.97015226659E+02 -0.24474644235E+03  0.32336929387E+03  0.17300000000E+03 0.  1.
<mgrwt>
<rscale>  2 0.21134540E+03</rscale>
<asrwt>0</asrwt>
<pdfrwt beam="1">  1       21 0.75030886E-02 0.21134540E+03</pdfrwt>
<pdfrwt beam="2">  1       21 0.22532938E+00 0.21134540E+03</pdfrwt>
<totfact> 0.12323367E+04</totfact>
</mgrwt>
</event>
<event>
 4    1  0.4451819E+000  0.2192939E+03  0.7546771E-02  0.1134411E+00
         21   -1    0    0  503  502  0.00000000000E+00  0.00000000000E+00  0.29156988538E+03  0.29156988538E+03  0.00000000000E+00 0. -1.
         21   -1    0    0  501  503 -0.00000000000E+00 -0.00000000000E+00 -0.23419133598E+03  0.23419133598E+03  0.00000000000E+00 0. -1.
          6    1    1    2  501    0 -0.61341186352E+02 -0.11999204322E+03 -0.11426776940E+03  0.24727910284E+03  0.17300000000E+03 0. -1.
         -6    1    1    2    0  502  0.61341186352E+02  0.11999204322E+03  0.17164631880E+03  0.27848211852E+03  0.17300000000E+03 0. -1.
<mgrwt>
<rscale>  2 0.21929394E+03</rscale>
<asrwt>0</asrwt>
<pdfrwt beam="1">  1       21 0.44856905E-01 0.21929394E+03</pdfrwt>
<pdfrwt beam="2">  1       21 0.36029437E-01 0.21929394E+03</pdfrwt>
<totfact> 0.34948402E+04</totfact>
</mgrwt>
</event>
<event>
 4    1  0.4451819E+000  0.2065909E+03  0.7546771E-02  0.1144294E+00
         21   -1    0    0  503  502  0.00000000000E+00  0.00000000000E+00  0.20539299657E+03  0.20539299657E+03  0.00000000000E+00 0. -1.
         21   -1    0    0  501  503 -0.00000000000E+00 -0.00000000000E+00 -0.13616964484E+04  0.13616964484E+04  0.00000000000E+00 0. -1.
          6    1    1    2  501    0 -0.82756006922E+02 -0.76825925592E+02 -0.12994383306E+04  0.13157582432E+04  0.17300000000E+03 0. -1.
         -6    1    1    2    0  502  0.82756006922E+02  0.76825925592E+02  0.14313487869E+03  0.25133120185E+03  0.17300000000E+03 0. -1.
<mgrwt>
<rscale>  2 0.20659085E+03</rscale>
<asrwt>0</asrwt>
<pdfrwt beam="1">  1       21 0.31598923E-01 0.20659085E+03</pdfrwt>
<pdfrwt beam="2">  1       21 0.20949176E+00 0.20659085E+03</pdfrwt>
<totfact> 0.11081685E+03</totfact>
</mgrwt>
</event>
<event>
 4    1  0.4451819E+000  0.1739598E+03  0.7546771E-02  0.1173780E+00
         21   -1    0    0  503  502  0.00000000000E+00  0.00000000000E+00  0.12516537722E+03  0.12516537722E+03  0.00000000000E+00 0. -1.
         21   -1    0    0  501  503 -0.00000000000E+00 -0.00000000000E+00 -0.45256155731E+03  0.45256155731E+03  0.00000000000E+00 0. -1.
          6    1    1    2  501    0  0.17549824034E+02  0.50000432222E+01 -0.36083779940E+03  0.40058196943E+03  0.17300000000E+03 0. -1.
         -6    1    1    2    0  502 -0.17549824034E+02 -0.50000432222E+01  0.33441619311E+02  0.17714496509E+03  0.17300000000E+03 0. -1.
<mgrwt>
<rscale>  2 0.17395976E+03</rscale>
<asrwt>0</asrwt>
<pdfrwt beam="1">  1       21 0.19256212E-01 0.17395976E+03</pdfrwt>
<pdfrwt beam="2">  1       21 0.69624856E-01 0.17395976E+03</pdfrwt>
<totfact> 0.46879811E+04</totfact>
</mgrwt>
</event>
<event>
 4    1  0.4451819E+000  0.1859779E+03  0.7546771E-02  0.1162140E+00
         21   -1    0    0  503  502  0.00000000000E+00  0.00000000000E+00  0.21414071963E+02  0.21414071963E+02  0.00000000000E+00 0. -1.
         21   -1    0    0  501  503 -0.00000000000E+00 -0.00000000000E+00 -0.22502877569E+04  0.22502877569E+04  0.00000000000E+00 0. -1.
          6    1    1    2  501    0  0.61671094370E+02 -0.29248417013E+02 -0.17178608858E+04  0.17278986709E+04  0.17300000000E+03 0. -1.
         -6    1    1    2    0  502 -0.61671094370E+02  0.29248417013E+02 -0.51101279914E+03  0.54380315801E+03  0.17300000000E+03 0. -1.
<mgrwt>
<rscale>  2 0.18597794E+03</rscale>
<asrwt>0</asrwt>
<pdfrwt beam="1">  1       21 0.32944750E-02 0.18597794E+03</pdfrwt>
<pdfrwt beam="2">  1       21 0.34619786E+00 0.18597794E+03</pdfrwt>
<totfact> 0.10055695E+04</totfact>
</mgrwt>
</event>
<event>
 4    1  0.4451819E+000  0.2147291E+03  0.7546771E-02  0.1137875E+00
         21   -1    0    0  503  502  0.00000000000E+00  0.00000000000E+00  0.94377003261E+02  0.94377003261E+02  0.00000000000E+00 0. -1.
         21   -1    0    0  501  503 -0.00000000000E+00 -0.00000000000E+00 -0.80057420193E+03  0.80057420193E+03  0.00000000000E+00 0.  1.
          6    1    1    2  501    0 -0.95171478082E+02  0.84391817116E+02 -0.63245428478E+03  0.66791242792E+03  0.17300000000E+03 0.  1.
         -6    1    1    2    0  502  0.95171478082E+02 -0.84391817116E+02 -0.73742913895E+02  0.22703877727E+03  0.17300000000E+03 0. -1.
<mgrwt>
<rscale>  2 0.21472911E+03</rscale>
<asrwt>0</asrwt>
<pdfrwt beam="1">  1       21 0.14519540E-01 0.21472911E+03</pdfrwt>
<pdfrwt beam="2">  1       21 0.12316526E+00 0.21472911E+03</pdfrwt>
<totfact> 0.20318457E+04</totfact>
</mgrwt>
</event>
<event>
 4    1  0.4451819E+000  0.1822856E+03  0.7546771E-02  0.1165609E+00
         21   -1    0    0  503  502  0.00000000000E+00  0.00000000000E+00  0.51464814435E+03  0.51464814435E+03  0.00000000000E+00 0. -1.
         21   -1    0    0  501  503 -0.00000000000E+00 -0.00000000000E+00 -0.75501155217E+02  0.75501155217E+02  0.00000000000E+00 0.  1.
          6    1    1    2  501    0 -0.29343239554E+02 -0.49376188242E+02  0.10726927662E+03  0.21150586607E+03  0.17300000000E+03 0.  1.
         -6    1    1    2    0  502  0.29343239554E+02  0.49376188242E+02  0.33187771251E+03  0.37864343350E+03  0.17300000000E+03 0. -1.
<mgrwt>
<rscale>  2 0.18228558E+03</rscale>
<asrwt>0</asrwt>
<pdfrwt beam="1">  1       21 0.79176635E-01 0.18228558E+03</pdfrwt>
<pdfrwt beam="2">  1       21 0.11615563E-01 0.18228558E+03</pdfrwt>
<totfact> 0.87937508E+04</totfact>
</mgrwt>
</event>
<event>
 4    1  0.4451819E+000  0.2612842E+03  0.7546771E-02  0.1106374E+00
         21   -1    0    0  503  502  0.00000000000E+00  0.00000000000E+00  0.11398329808E+03  0.11398329808E+03  0.00000000000E+00 0.  1.
         21   -1    0    0  501  503 -0.00000000000E+00 -0.00000000000E+00 -0.66545191339E+03  0.66545191339E+03  0.00000000000E+00 0.  1.
          6    1    1    2  501    0 -0.24097198331E+02 -0.19431864633E+03 -0.15252766837E+03  0.30254603104E+03  0.17300000000E+03 0.  1.
         -6    1    1    2    0  502  0.24097198331E+02  0.19431864633E+03 -0.39894094693E+03  0.47688918044E+03  0.17300000000E+03 0.  1.
<mgrwt>
<rscale>  2 0.26128416E+03</rscale>
<asrwt>0</asrwt>
<pdfrwt beam="1">  1       21 0.17535892E-01 0.26128416E+03</pdfrwt>
<pdfrwt beam="2">  1       21 0.10237722E+00 0.26128416E+03</pdfrwt>
<totfact> 0.22035631E+04</totfact>
</mgrwt>
</event>
<event>
 4    1  0.4451819E+000  0.2155716E+03  0.7546771E-02  0.1137228E+00
         21   -1    0    0  503  502  0.00000000000E+00  0.00000000000E+00  0.20126642078E+03  0.20126642078E+03  0.00000000000E+00 0. -1.
         21   -1    0    0  501  503 -0.00000000000E+00 -0.00000000000E+00 -0.37386907375E+03  0.37386907375E+03  0.00000000000E+00 0.  1.
          6    1    1    2  501    0  0.16103840677E+02 -0.12760397662E+03 -0.26413390543E+03  0.34093669285E+03  0.17300000000E+03 0.  1.
         -6    1    1    2    0  502 -0.16103840677E+02  0.12760397662E+03  0.91531252456E+02  0.23419880168E+03  0.17300000000E+03 0. -1.
<mgrwt>
<rscale>  2 0.21557159E+03</rscale>
<asrwt>0</asrwt>
<pdfrwt beam="1">  1       21 0.30964065E-01 0.21557159E+03</pdfrwt>
<pdfrwt beam="2">  1       21 0.57518319E-01 0.21557159E+03</pdfrwt>
<totfact> 0.28059409E+04</totfact>
</mgrwt>
</event>
<event>
 4    1  0.4451819E+000  0.3044759E+03  0.7546771E-02  0.1083024E+00
         21   -1    0    0  501  502  0.00000000000E+00  0.00000000000E+00  0.15537687064E+03  0.15537687064E+03  0.00000000000E+00 0.  1.
         21   -1    0    0  502  503 -0.00000000000E+00 -0.00000000000E+00 -0.59802505206E+03  0.59802505206E+03  0.00000000000E+00 0. -1.
          6    1    1    2  501    0 -0.22495883002E+03 -0.11031816580E+03 -0.23938893264E+03  0.38731464468E+03  0.17300000000E+03 0. -1.
         -6    1    1    2    0  503  0.22495883002E+03  0.11031816580E+03 -0.20325924878E+03  0.36608727802E+03  0.17300000000E+03 0.  1.
<mgrwt>
<rscale>  2 0.30447590E+03</rscale>
<asrwt>0</asrwt>
<pdfrwt beam="1">  1       21 0.23904134E-01 0.30447590E+03</pdfrwt>
<pdfrwt beam="2">  1       21 0.92003854E-01 0.30447590E+03</pdfrwt>
<totfact> 0.15529128E+04</totfact>
</mgrwt>
</event>
<event>
 4    1  0.4451819E+000  0.1980478E+03  0.7546771E-02  0.1151397E+00
         21   -1    0    0  501  502  0.00000000000E+00  0.00000000000E+00  0.20692194004E+03  0.20692194004E+03  0.00000000000E+00 0. -1.
         21   -1    0    0  502  503 -0.00000000000E+00 -0.00000000000E+00 -0.21557968565E+03  0.21557968565E+03  0.00000000000E+00 0. -1.
          6    1    1    2  501    0  0.95252917055E+02  0.14859239176E+02  0.69070812780E+02  0.20974673388E+03  0.17300000000E+03 0. -1.
         -6    1    1    2    0  503 -0.95252917055E+02 -0.14859239176E+02 -0.77728558389E+02  0.21275489180E+03  0.17300000000E+03 0. -1.
<mgrwt>
<rscale>  2 0.19804776E+03</rscale>
<asrwt>0</asrwt>
<pdfrwt beam="1">  1       21 0.31834145E-01 0.19804776E+03</pdfrwt>
<pdfrwt beam="2">  1       21 0.33166105E-01 0.19804776E+03</pdfrwt>
<totfact> 0.82869245E+04</totfact>
</mgrwt>
</event>
<event>
 4    1  0.4451819E+000  0.1910808E+03  0.7546771E-02  0.1157490E+00
         21   -1    0    0  503  502  0.00000000000E+00  0.00000000000E+00  0.13606055808E+03  0.13606055808E+03  0.00000000000E+00 0.  1.
         21   -1    0    0  501  503 -0.00000000000E+00 -0.00000000000E+00 -0.30596697322E+03  0.30596697322E+03  0.00000000000E+00 0. -1.
          6    1    1    2  501    0 -0.79418775770E+02 -0.16599430389E+02 -0.16244801507E+03  0.25080119743E+03  0.17300000000E+03 0. -1.
         -6    1    1    2    0  502  0.79418775770E+02  0.16599430389E+02 -0.74584000708E+01  0.19122633387E+03  0.17300000000E+03 0. -1.
<mgrwt>
<rscale>  2 0.19108083E+03</rscale>
<asrwt>0</asrwt>
<pdfrwt beam="1">  1       21 0.20932394E-01 0.19108083E+03</pdfrwt>
<pdfrwt beam="2">  1       21 0.47071842E-01 0.19108083E+03</pdfrwt>
<totfact> 0.91603964E+04</totfact>
</mgrwt>
</event>
<event>
 4    1  0.4451819E+000  0.2003973E+03  0.7546771E-02  0.1149404E+00
         21   -1    0    0  503  502  0.00000000000E+00  0.00000000000E+00  0.47840998717E+03  0.47840998717E+03  0.00000000000E+00 0. -1.
         21   -1    0    0  501  503 -0.00000000000E+00 -0.00000000000E+00 -0.56631900920E+03  0.56631900920E+03  0.00000000000E+00 0.  1.
          6    1    1    2  501    0  0.46004192538E+02  0.90076042608E+02 -0.52605327540E+03  0.56293083744E+03  0.17300000000E+03 0.  1.
         -6    1    1    2    0  502 -0.46004192538E+02 -0.90076042608E+02  0.43814425337E+03  0.48179815893E+03  0.17300000000E+03 0. -1.
<mgrwt>
<rscale>  2 0.20039730E+03</rscale>
<asrwt>0</asrwt>
<pdfrwt beam="1">  1       21 0.73601536E-01 0.20039730E+03</pdfrwt>
<pdfrwt beam="2">  1       21 0.87126001E-01 0.20039730E+03</pdfrwt>
<totfact> 0.18640943E+03</totfact>
</mgrwt>
</event>
<event>
 4    1  0.4451819E+000  0.1782794E+03  0.7546771E-02  0.1169479E+00
         21   -1    0    0  501  502  0.00000000000E+00  0.00000000000E+00  0.11464554479E+04  0.11464554479E+04  0.00000000000E+00 0. -1.
         21   -1    0    0  502  503 -0.00000000000E+00 -0.00000000000E+00 -0.34512203177E+02  0.34512203177E+02  0.00000000000E+00 0. -1.
          6    1    1    2  501    0  0.74969957325E+01  0.42406929955E+02  0.81786275398E+03  0.83706811969E+03  0.17300000000E+03 0. -1.
         -6    1    1    2    0  503 -0.74969957325E+01 -0.42406929955E+02  0.29408049075E+03  0.34389953139E+03  0.17300000000E+03 0. -1.
<mgrwt>
<rscale>  2 0.17827942E+03</rscale>
<asrwt>0</asrwt>
<pdfrwt beam="1">  1       21 0.17637773E+00 0.17827942E+03</pdfrwt>
<pdfrwt beam="2">  1       21 0.53095706E-02 0.17827942E+03</pdfrwt>
<totfact> 0.47215133E+04</totfact>
</mgrwt>
</event>
<event>
 4    1  0.4451819E+000  0.1748766E+03  0.7546771E-02  0.1172856E+00
         21   -1    0    0  501  502  0.00000000000E+00  0.00000000000E+00  0.18125664942E+03  0.18125664942E+03  0.00000000000E+00 0. -1.
         21   -1    0    0  502  503 -0.00000000000E+00 -0.00000000000E+00 -0.24258364850E+03  0.24258364850E+03  0.00000000000E+00 0. -1.
          6    1    1    2  501    0  0.22178721251E+02 -0.12685266517E+02  0.86273996116E+02  0.19500003607E+03  0.17300000000E+03 0. -1.
         -6    1    1    2    0  503 -0.22178721251E+02  0.12685266517E+02 -0.14760099519E+03  0.22884026185E+03  0.17300000000E+03 0. -1.
<mgrwt>
<rscale>  2 0.17487656E+03</rscale>
<asrwt>0</asrwt>
<pdfrwt beam="1">  1       21 0.27885639E-01 0.17487656E+03</pdfrwt>
<pdfrwt beam="2">  1       21 0.37320561E-01 0.17487656E+03</pdfrwt>
<totfact> 0.85641424E+04</totfact>
</mgrwt>
</event>
<event>
 4    1  0.4451819E+000  0.2159898E+03  0.7546771E-02  0.1136909E+00
         21   -1    0    0  501  502  0.00000000000E+00  0.00000000000E+00  0.56044843785E+03  0.56044843785E+03  0.00000000000E+00 0. -1.
         21   -1    0    0  502  503 -0.00000000000E+00 -0.00000000000E+00 -0.92385043877E+02  0.92385043877E+02  0.00000000000E+00 0. -1.
          6    1    1    2  501    0  0.11768464311E+03 -0.53599521278E+02  0.33673173153E+03  0.40004980055E+03  0.17300000000E+03 0. -1.
         -6    1    1    2    0  503 -0.11768464311E+03  0.53599521278E+02  0.13133166244E+03  0.25278368117E+03  0.17300000000E+03 0. -1.
<mgrwt>
<rscale>  2 0.21598978E+03</rscale>
<asrwt>0</asrwt>
<pdfrwt beam="1">  1       21 0.86222834E-01 0.21598978E+03</pdfrwt>
<pdfrwt beam="2">  1       21 0.14213084E-01 0.21598978E+03</pdfrwt>
<totfact> 0.49597032E+04</totfact>
</mgrwt>
</event>
<event>
 4    1  0.4451819E+000  0.2303173E+03  0.7546771E-02  0.1126417E+00
         21   -1    0    0  501  502  0.00000000000E+00  0.00000000000E+00  0.18583515127E+03  0.18583515127E+03  0.00000000000E+00 0.  1.
         21   -1    0    0  502  503 -0.00000000000E+00 -0.00000000000E+00 -0.51436327405E+03  0.51436327405E+03  0.00000000000E+00 0.  1.
          6    1    1    2  501    0 -0.23130056719E+01 -0.15202542555E+03  0.69293818901E+02  0.24051551581E+03  0.17300000000E+03 0.  1.
         -6    1    1    2    0  503  0.23130056719E+01  0.15202542555E+03 -0.39782194168E+03  0.45968290950E+03  0.17300000000E+03 0.  1.
<mgrwt>
<rscale>  2 0.23031735E+03</rscale>
<asrwt>0</asrwt>
<pdfrwt beam="1">  1       21 0.28590024E-01 0.23031735E+03</pdfrwt>
<pdfrwt beam="2">  1       21 0.79132810E-01 0.23031735E+03</pdfrwt>
<totfact> 0.16124768E+04</totfact>
</mgrwt>
</event>
<event>
 4    1  0.4451819E+000  0.2197995E+03  0.7546771E-02  0.1134033E+00
         21   -1    0    0  501  502  0.00000000000E+00  0.00000000000E+00  0.14762806096E+03  0.14762806096E+03  0.00000000000E+00 0.  1.
         21   -1    0    0  502  503 -0.00000000000E+00 -0.00000000000E+00 -0.32727795042E+03  0.32727795042E+03  0.00000000000E+00 0. -1.
          6    1    1    2  501    0 -0.72574559518E+02 -0.11452397828E+03 -0.91874888833E+02  0.23822846910E+03  0.17300000000E+03 0.  1.
         -6    1    1    2    0  503  0.72574559518E+02  0.11452397828E+03 -0.87775000627E+02  0.23667754229E+03  0.17300000000E+03 0. -1.
<mgrwt>
<rscale>  2 0.21979947E+03</rscale>
<asrwt>0</asrwt>
<pdfrwt beam="1">  1       21 0.22712010E-01 0.21979947E+03</pdfrwt>
<pdfrwt beam="2">  1       21 0.50350453E-01 0.21979947E+03</pdfrwt>
<totfact> 0.67448203E+04</totfact>
</mgrwt>
</event>
<event>
 4    1  0.4451819E+000  0.2289887E+03  0.7546771E-02  0.1127354E+00
         21   -1    0    0  503  502  0.00000000000E+00  0.00000000000E+00  0.45631175752E+03  0.45631175752E+03  0.00000000000E+00 0. -1.
         21   -1    0    0  501  503 -0.00000000000E+00 -0.00000000000E+00 -0.27124165519E+03  0.27124165519E+03  0.00000000000E+00 0.  1.
          6    1    1    2  501    0 -0.64600408930E+02 -0.13540160886E+03 -0.18363529108E+03  0.29352636789E+03  0.17300000000E+03 0.  1.
         -6    1    1    2    0  502  0.64600408930E+02  0.13540160886E+03  0.36870539341E+03  0.43402704483E+03  0.17300000000E+03 0. -1.
<mgrwt>
<rscale>  2 0.22898866E+03</rscale>
<asrwt>0</asrwt>
<pdfrwt beam="1">  1       21 0.70201809E-01 0.22898866E+03</pdfrwt>
<pdfrwt beam="2">  1       21 0.41729485E-01 0.22898866E+03</pdfrwt>
<totfact> 0.99388455E+03</totfact>
</mgrwt>
</event>
<event>
 4    1  0.4451819E+000  0.1853384E+03  0.7546771E-02  0.1162734E+00
         21   -1    0    0  503  502  0.00000000000E+00  0.00000000000E+00  0.11520535046E+03  0.11520535046E+03  0.00000000000E+00 0. -1.
         21   -1    0    0  501  503 -0.00000000000E+00 -0.00000000000E+00 -0.31556423922E+03  0.31556423922E+03  0.00000000000E+00 0.  1.
          6    1    1    2  501    0  0.49201060124E+02  0.44727646857E+02 -0.15075318526E+03  0.23890757539E+03  0.17300000000E+03 0.  1.
         -6    1    1    2    0  502 -0.49201060124E+02 -0.44727646857E+02 -0.49605703499E+02  0.19186201430E+03  0.17300000000E+03 0. -1.
<mgrwt>
<rscale>  2 0.18533836E+03</rscale>
<asrwt>0</asrwt>
<pdfrwt beam="1">  1       21 0.17723900E-01 0.18533836E+03</pdfrwt>
<pdfrwt beam="2">  1       21 0.48548345E-01 0.18533836E+03</pdfrwt>
<totfact> 0.11734387E+05</totfact>
</mgrwt>
</event>
<event>
 4    1  0.4451819E+000  0.1767512E+03  0.7546771E-02  0.1170985E+00
         21   -1    0    0  501  502  0.00000000000E+00  0.00000000000E+00  0.10092170441E+03  0.10092170441E+03  0.00000000000E+00 0. -1.
         21   -1    0    0  502  503 -0.00000000000E+00 -0.00000000000E+00 -0.92476675588E+03  0.92476675588E+03  0.00000000000E+00 0. -1.
          6    1    1    2  501    0 -0.35935574248E+02 -0.45407804106E+01  0.63709603880E+01  0.17686597558E+03  0.17300000000E+03 0. -1.
         -6    1    1    2    0  503  0.35935574248E+02  0.45407804106E+01 -0.83021601186E+03  0.84882248470E+03  0.17300000000E+03 0. -1.
<mgrwt>
<rscale>  2 0.17675119E+03</rscale>
<asrwt>0</asrwt>
<pdfrwt beam="1">  1       21 0.15526416E-01 0.17675119E+03</pdfrwt>
<pdfrwt beam="2">  1       21 0.14227181E+00 0.17675119E+03</pdfrwt>
<totfact> 0.12790683E+04</totfact>
</mgrwt>
</event>
<event>
 4    1  0.4451819E+000  0.2801500E+03  0.7546771E-02  0.1095607E+00
         21   -1    0    0  503  502  0.00000000000E+00  0.00000000000E+00  0.11652746737E+04  0.11652746737E+04  0.00000000000E+00 0. -1.
         21   -1    0    0  501  503 -0.00000000000E+00 -0.00000000000E+00 -0.23952637353E+03  0.23952637353E+03  0.00000000000E+00 0. -1.
          6    1    1    2  501    0 -0.20732185946E+03  0.74650206468E+02 -0.13263981547E+03  0.30996342911E+03  0.17300000000E+03 0. -1.
         -6    1    1    2    0  502  0.20732185946E+03 -0.74650206468E+02  0.10583881156E+04  0.10948376181E+04  0.17300000000E+03 0. -1.
<mgrwt>
<rscale>  2 0.28014997E+03</rscale>
<asrwt>0</asrwt>
<pdfrwt beam="1">  1       21 0.17927302E+00 0.28014997E+03</pdfrwt>
<pdfrwt beam="2">  1       21 0.36850212E-01 0.28014997E+03</pdfrwt>
<totfact> 0.12091655E+03</totfact>
</mgrwt>
</event>
<event>
 4    1  0.4451819E+000  0.1900352E+03  0.7546771E-02  0.1158430E+00
         21   -1    0    0  501  502  0.00000000000E+00  0.00000000000E+00  0.26166865029E+03  0.26166865029E+03  0.00000000000E+00 0.  1.
         21   -1    0    0  502  503 -0.00000000000E+00 -0.00000000000E+00 -0.14200749530E+03  0.14200749530E+03  0.00000000000E+00 0.  1.
          6    1    1    2  501    0  0.53337808261E+02 -0.57788146348E+02  0.93686711283E+02  0.21187399916E+03  0.17300000000E+03 0.  1.
         -6    1    1    2    0  503 -0.53337808261E+02  0.57788146348E+02  0.25974443714E+02  0.19180214643E+03  0.17300000000E+03 0.  1.
<mgrwt>
<rscale>  2 0.19003524E+03</rscale>
<asrwt>0</asrwt>
<pdfrwt beam="1">  1       21 0.40256715E-01 0.19003524E+03</pdfrwt>
<pdfrwt beam="2">  1       21 0.21847307E-01 0.19003524E+03</pdfrwt>
<totfact> 0.11640650E+05</totfact>
</mgrwt>
</event>
<event>
 4    1  0.4451819E+000  0.2131125E+03  0.7546771E-02  0.1139125E+00
         21   -1    0    0  501  502  0.00000000000E+00  0.00000000000E+00  0.47998435657E+03  0.47998435657E+03  0.00000000000E+00 0.  1.
         21   -1    0    0  502  503 -0.00000000000E+00 -0.00000000000E+00 -0.11518976708E+03  0.11518976708E+03  0.00000000000E+00 0. -1.
          6    1    1    2  501    0 -0.32316964842E+02 -0.12018128983E+03  0.30814613625E+03  0.37466114014E+03  0.17300000000E+03 0. -1.
         -6    1    1    2    0  503  0.32316964842E+02  0.12018128983E+03  0.56648453237E+02  0.22051298351E+03  0.17300000000E+03 0. -1.
<mgrwt>
<rscale>  2 0.21311248E+03</rscale>
<asrwt>0</asrwt>
<pdfrwt beam="1">  1       21 0.73843746E-01 0.21311248E+03</pdfrwt>
<pdfrwt beam="2">  1       21 0.17721503E-01 0.21311248E+03</pdfrwt>
<totfact> 0.47082113E+04</totfact>
</mgrwt>
</event>
<event>
 4    1  0.4451819E+000  0.1835134E+03  0.7546771E-02  0.1164445E+00
         21   -1    0    0  503  502  0.00000000000E+00  0.00000000000E+00  0.21372701818E+03  0.21372701818E+03  0.00000000000E+00 0. -1.
         21   -1    0    0  501  503 -0.00000000000E+00 -0.00000000000E+00 -0.20046325851E+03  0.20046325851E+03  0.00000000000E+00 0. -1.
          6    1    1    2  501    0 -0.60852998898E+02 -0.67134321098E+01 -0.89163044224E+02  0.20402746408E+03  0.17300000000E+03 0. -1.
         -6    1    1    2    0  502  0.60852998898E+02  0.67134321098E+01  0.10242680389E+03  0.21016281260E+03  0.17300000000E+03 0. -1.
<mgrwt>
<rscale>  2 0.18351337E+03</rscale>
<asrwt>0</asrwt>
<pdfrwt beam="1">  1       21 0.32881080E-01 0.18351337E+03</pdfrwt>
<pdfrwt beam="2">  1       21 0.30840501E-01 0.18351337E+03</pdfrwt>
<totfact> 0.90216515E+04</totfact>
</mgrwt>
</event>
<event>
 4    1  0.4451819E+000  0.1880935E+03  0.7546771E-02  0.1160192E+00
         21   -1    0    0  501  502  0.00000000000E+00  0.00000000000E+00  0.52202624476E+02  0.52202624476E+02  0.00000000000E+00 0.  1.
         21   -1    0    0  502  503 -0.00000000000E+00 -0.00000000000E+00 -0.10621362572E+04  0.10621362572E+04  0.00000000000E+00 0.  1.
          6    1    1    2  501    0  0.78661752731E+01  0.73405047634E+02 -0.16977488723E+03  0.25338249755E+03  0.17300000000E+03 0.  1.
         -6    1    1    2    0  503 -0.78661752731E+01 -0.73405047634E+02 -0.84015874545E+03  0.86095638408E+03  0.17300000000E+03 0.  1.
<mgrwt>
<rscale>  2 0.18809353E+03</rscale>
<asrwt>0</asrwt>
<pdfrwt beam="1">  1       21 0.80311727E-02 0.18809353E+03</pdfrwt>
<pdfrwt beam="2">  1       21 0.16340558E+00 0.18809353E+03</pdfrwt>
<totfact> 0.28421906E+04</totfact>
</mgrwt>
</event>
<event>
 4    1  0.4451819E+000  0.3050924E+03  0.7546771E-02  0.1082722E+00
         21   -1    0    0  501  502  0.00000000000E+00  0.00000000000E+00  0.10518193118E+03  0.10518193118E+03  0.00000000000E+00 0. -1.
         21   -1    0    0  502  503 -0.00000000000E+00 -0.00000000000E+00 -0.12501607182E+04  0.12501607182E+04  0.00000000000E+00 0. -1.
          6    1    1    2  501    0 -0.80520122535E+02  0.23805227256E+03 -0.20621681041E+03  0.36824821452E+03  0.17300000000E+03 0. -1.
         -6    1    1    2    0  503  0.80520122535E+02 -0.23805227256E+03 -0.93876197663E+03  0.98709443487E+03  0.17300000000E+03 0. -1.
<mgrwt>
<rscale>  2 0.30509240E+03</rscale>
<asrwt>0</asrwt>
<pdfrwt beam="1">  1       21 0.16181835E-01 0.30509240E+03</pdfrwt>
<pdfrwt beam="2">  1       21 0.19233243E+00 0.30509240E+03</pdfrwt>
<totfact> 0.47352735E+03</totfact>
</mgrwt>
</event>
<event>
 4    1  0.4451819E+000  0.2202991E+03  0.7546771E-02  0.1133660E+00
         21   -1    0    0  501  502  0.00000000000E+00  0.00000000000E+00  0.37291637297E+03  0.37291637297E+03  0.00000000000E+00 0.  1.
         21   -1    0    0  502  503 -0.00000000000E+00 -0.00000000000E+00 -0.17774661922E+03  0.17774661922E+03  0.00000000000E+00 0. -1.
          6    1    1    2  501    0 -0.14251500011E+02 -0.13564513362E+03  0.24007486684E+03  0.32583377543E+03  0.17300000000E+03 0.  1.
         -6    1    1    2    0  503  0.14251500011E+02  0.13564513362E+03 -0.44905113093E+02  0.22482921676E+03  0.17300000000E+03 0. -1.
<mgrwt>
<rscale>  2 0.22029913E+03</rscale>
<asrwt>0</asrwt>
<pdfrwt beam="1">  1       21 0.57371750E-01 0.22029913E+03</pdfrwt>
<pdfrwt beam="2">  1       21 0.27345634E-01 0.22029913E+03</pdfrwt>
<totfact> 0.35855078E+04</totfact>
</mgrwt>
</event>
<event>
 4    1  0.4451819E+000  0.2226193E+03  0.7546771E-02  0.1131945E+00
         21   -1    0    0  503  502  0.00000000000E+00  0.00000000000E+00  0.27133979503E+03  0.27133979503E+03  0.00000000000E+00 0.  1.
         21   -1    0    0  501  503 -0.00000000000E+00 -0.00000000000E+00 -0.20294540672E+03  0.20294540672E+03  0.00000000000E+00 0. -1.
          6    1    1    2  501    0  0.70570059870E+02  0.12103805842E+03 -0.40801394976E+02  0.22632741497E+03  0.17300000000E+03 0. -1.
         -6    1    1    2    0  502 -0.70570059870E+02 -0.12103805842E+03  0.10919578329E+03  0.24795778678E+03  0.17300000000E+03 0.  1.
<mgrwt>
<rscale>  2 0.22261928E+03</rscale>
<asrwt>0</asrwt>
<pdfrwt beam="1">  1       21 0.41744584E-01 0.22261928E+03</pdfrwt>
<pdfrwt beam="2">  1       21 0.31222370E-01 0.22261928E+03</pdfrwt>
<totfact> 0.53701077E+04</totfact>
</mgrwt>
</event>
<event>
 4    1  0.4451819E+000  0.3661160E+03  0.7546771E-02  0.1056188E+00
         21   -1    0    0  501  502  0.00000000000E+00  0.00000000000E+00  0.13756009124E+03  0.13756009124E+03  0.00000000000E+00 0. -1.
         21   -1    0    0  502  503 -0.00000000000E+00 -0.00000000000E+00 -0.10838976438E+04  0.10838976438E+04  0.00000000000E+00 0.  1.
          6    1    1    2  501    0  0.30600784179E+03 -0.10232868835E+03 -0.27907035666E+03  0.46034902374E+03  0.17300000000E+03 0. -1.
         -6    1    1    2    0  503 -0.30600784179E+03  0.10232868835E+03 -0.66726719592E+03  0.76110871132E+03  0.17300000000E+03 0.  1.
<mgrwt>
<rscale>  2 0.36611605E+03</rscale>
<asrwt>0</asrwt>
<pdfrwt beam="1">  1       21 0.21163092E-01 0.36611605E+03</pdfrwt>
<pdfrwt beam="2">  1       21 0.16675348E+00 0.36611605E+03</pdfrwt>
<totfact> 0.41811065E+03</totfact>
</mgrwt>
</event>
<event>
 4    1  0.4451819E+000  0.1930231E+03  0.7546771E-02  0.1155763E+00
         21   -1    0    0  501  502  0.00000000000E+00  0.00000000000E+00  0.24039072230E+02  0.24039072230E+02  0.00000000000E+00 0. -1.
         21   -1    0    0  502  503 -0.00000000000E+00 -0.00000000000E+00 -0.15793950641E+04  0.15793950641E+04  0.00000000000E+00 0. -1.
          6    1    1    2  501    0  0.84897449959E+02  0.11015607255E+02 -0.66810005938E+03  0.69542476944E+03  0.17300000000E+03 0. -1.
         -6    1    1    2    0  503 -0.84897449959E+02 -0.11015607255E+02 -0.88725593250E+03  0.90800936690E+03  0.17300000000E+03 0. -1.
<mgrwt>
<rscale>  2 0.19302311E+03</rscale>
<asrwt>0</asrwt>
<pdfrwt beam="1">  1       21 0.36983188E-02 0.19302311E+03</pdfrwt>
<pdfrwt beam="2">  1       21 0.24298386E+00 0.19302311E+03</pdfrwt>
<totfact> 0.32671335E+04</totfact>
</mgrwt>
</event>
<event>
 4    1  0.4451819E+000  0.2611487E+03  0.7546771E-02  0.1106455E+00
         21   -1    0    0  501  502  0.00000000000E+00  0.00000000000E+00  0.32116317922E+03  0.32116317922E+03  0.00000000000E+00 0.  1.
         21   -1    0    0  502  503 -0.00000000000E+00 -0.00000000000E+00 -0.28210728494E+03  0.28210728494E+03  0.00000000000E+00 0.  1.
          6    1    1    2  501    0 -0.94485638723E+01  0.19539802338E+03  0.16952163364E+03  0.31134586423E+03  0.17300000000E+03 0.  1.
         -6    1    1    2    0  503  0.94485638723E+01 -0.19539802338E+03 -0.13046573937E+03  0.29192459994E+03  0.17300000000E+03 0.  1.
<mgrwt>
<rscale>  2 0.26114874E+03</rscale>
<asrwt>0</asrwt>
<pdfrwt beam="1">  1       21 0.49409720E-01 0.26114874E+03</pdfrwt>
<pdfrwt beam="2">  1       21 0.43401121E-01 0.26114874E+03</pdfrwt>
<totfact> 0.19213231E+04</totfact>
</mgrwt>
</event>
<event>
 4    1  0.4451819E+000  0.1731526E+03  0.7546771E-02  0.1174600E+00
         21   -1    0    0  501  502  0.00000000000E+00  0.00000000000E+00  0.36063793095E+03  0.36063793095E+03  0.00000000000E+00 0. -1.
         21   -1    0    0  502  503 -0.00000000000E+00 -0.00000000000E+00 -0.83469965216E+02  0.83469965216E+02  0.00000000000E+00 0. -1.
          6    1    1    2  501    0  0.65316432895E+01 -0.31853975077E+01  0.15264053865E+03  0.23082665176E+03  0.17300000000E+03 0. -1.
         -6    1    1    2    0  503 -0.65316432895E+01  0.31853975077E+01  0.12452742708E+03  0.21328124441E+03  0.17300000000E+03 0. -1.
<mgrwt>
<rscale>  2 0.17315256E+03</rscale>
<asrwt>0</asrwt>
<pdfrwt beam="1">  1       21 0.55482758E-01 0.17315256E+03</pdfrwt>
<pdfrwt beam="2">  1       21 0.12841533E-01 0.17315256E+03</pdfrwt>
<totfact> 0.16012484E+05</totfact>
</mgrwt>
</event>
<event>
 4    1  0.4451819E+000  0.1981229E+03  0.7546771E-02  0.1151332E+00
         21   -1    0    0  501  502  0.00000000000E+00  0.00000000000E+00  0.16686408698E+03  0.16686408698E+03  0.00000000000E+00 0. -1.
         21   -1    0    0  502  503 -0.00000000000E+00 -0.00000000000E+00 -0.41061665473E+03  0.41061665473E+03  0.00000000000E+00 0.  1.
          6    1    1    2  501    0  0.67005074437E+02  0.69527092677E+02  0.66826441151E+02  0.20908962158E+03  0.17300000000E+03 0.  1.
         -6    1    1    2    0  503 -0.67005074437E+02 -0.69527092677E+02 -0.31057900891E+03  0.36839112013E+03  0.17300000000E+03 0.  1.
<mgrwt>
<rscale>  2 0.19812293E+03</rscale>
<asrwt>0</asrwt>
<pdfrwt beam="1">  1       21 0.25671398E-01 0.19812293E+03</pdfrwt>
<pdfrwt beam="2">  1       21 0.63171792E-01 0.19812293E+03</pdfrwt>
<totfact> 0.33288047E+04</totfact>
</mgrwt>
</event>
<event>
 4    1  0.4451819E+000  0.1744504E+03  0.7546771E-02  0.1173285E+00
         21   -1    0    0  501  502  0.00000000000E+00  0.00000000000E+00  0.71123955438E+02  0.71123955438E+02  0.00000000000E+00 0. -1.
         21   -1    0    0  502  503 -0.00000000000E+00 -0.00000000000E+00 -0.55012892862E+03  0.55012892862E+03  0.00000000000E+00 0. -1.
          6    1    1    2  501    0 -0.16240033972E+02  0.15498159067E+02 -0.93076424673E+02  0.19772747019E+03  0.17300000000E+03 0. -1.
         -6    1    1    2    0  503  0.16240033972E+02 -0.15498159067E+02 -0.38592854851E+03  0.42352541387E+03  0.17300000000E+03 0. -1.
<mgrwt>
<rscale>  2 0.17445037E+03</rscale>
<asrwt>0</asrwt>
<pdfrwt beam="1">  1       21 0.10942147E-01 0.17445037E+03</pdfrwt>
<pdfrwt beam="2">  1       21 0.84635222E-01 0.17445037E+03</pdfrwt>
<totfact> 0.84361700E+04</totfact>
</mgrwt>
</event>
<event>
 4    1  0.4451819E+000  0.2503015E+03  0.7546771E-02  0.1113114E+00
         21   -1    0    0  501  502  0.00000000000E+00  0.00000000000E+00  0.56607518056E+03  0.56607518056E+03  0.00000000000E+00 0. -1.
         21   -1    0    0  502  503 -0.00000000000E+00 -0.00000000000E+00 -0.11079957734E+03  0.11079957734E+03  0.00000000000E+00 0.  1.
          6    1    1    2  501    0  0.80688870826E+02 -0.16189862531E+03  0.21632889909E+03  0.33083085004E+03  0.17300000000E+03 0.  1.
         -6    1    1    2    0  503 -0.80688870826E+02  0.16189862531E+03  0.23894670414E+03  0.34604390787E+03  0.17300000000E+03 0. -1.
<mgrwt>
<rscale>  2 0.25030154E+03</rscale>
<asrwt>0</asrwt>
<pdfrwt beam="1">  1       21 0.87088488E-01 0.25030154E+03</pdfrwt>
<pdfrwt beam="2">  1       21 0.17046089E-01 0.25030154E+03</pdfrwt>
<totfact> 0.34185028E+04</totfact>
</mgrwt>
</event>
<event>
 4    1  0.4451819E+000  0.1863367E+03  0.7546771E-02  0.1161807E+00
         21   -1    0    0  503  502  0.00000000000E+00  0.00000000000E+00  0.10910118219E+04  0.10910118219E+04  0.00000000000E+00 0. -1.
         21   -1    0    0  501  503 -0.00000000000E+00 -0.00000000000E+00 -0.13523178849E+03  0.13523178849E+03  0.00000000000E+00 0. -1.
          6    1    1    2  501    0 -0.66724726103E+02  0.18444276933E+02 -0.58254695860E+02  0.19523060727E+03  0.17300000000E+03 0. -1.
         -6    1    1    2    0  502  0.66724726103E+02 -0.18444276933E+02  0.10140347292E+04  0.10310130031E+04  0.17300000000E+03 0. -1.
<mgrwt>
<rscale>  2 0.18633674E+03</rscale>
<asrwt>0</asrwt>
<pdfrwt beam="1">  1       21 0.16784797E+00 0.18633674E+03</pdfrwt>
<pdfrwt beam="2">  1       21 0.20804891E-01 0.18633674E+03</pdfrwt>
<totfact> 0.47642950E+03</totfact>
</mgrwt>
</event>
<event>
 4    1  0.4451819E+000  0.1779728E+03  0.7546771E-02  0.1169780E+00
         21   -1    0    0  501  502  0.00000000000E+00  0.00000000000E+00  0.55491906591E+03  0.55491906591E+03  0.00000000000E+00 0.  1.
         21   -1    0    0  502  503 -0.00000000000E+00 -0.00000000000E+00 -0.57446962506E+02  0.57446962506E+02  0.00000000000E+00 0.  1.
          6    1    1    2  501    0  0.37188224996E+02  0.19035742807E+02  0.22423724870E+03  0.28628074907E+03  0.17300000000E+03 0.  1.
         -6    1    1    2    0  503 -0.37188224996E+02 -0.19035742807E+02  0.27323485471E+03  0.32608527935E+03  0.17300000000E+03 0.  1.
<mgrwt>
<rscale>  2 0.17797282E+03</rscale>
<asrwt>0</asrwt>
<pdfrwt beam="1">  1       21 0.85372160E-01 0.17797282E+03</pdfrwt>
<pdfrwt beam="2">  1       21 0.88379946E-02 0.17797282E+03</pdfrwt>
<totfact> 0.12029575E+05</totfact>
</mgrwt>
</event>
<event>
 4    1  0.4451819E+000  0.2036898E+03  0.7546771E-02  0.1146663E+00
         21   -1    0    0  503  502  0.00000000000E+00  0.00000000000E+00  0.89115376656E+03  0.89115376656E+03  0.00000000000E+00 0. -1.
         21   -1    0    0  501  503 -0.00000000000E+00 -0.00000000000E+00 -0.48003758717E+02  0.48003758717E+02  0.00000000000E+00 0. -1.
          6    1    1    2  501    0  0.10015741733E+03 -0.39103009628E+02  0.34005752513E+03  0.39639459382E+03  0.17300000000E+03 0. -1.
         -6    1    1    2    0  502 -0.10015741733E+03  0.39103009628E+02  0.50309248271E+03  0.54276293146E+03  0.17300000000E+03 0. -1.
<mgrwt>
<rscale>  2 0.20368985E+03</rscale>
<asrwt>0</asrwt>
<pdfrwt beam="1">  1       21 0.13710057E+00 0.20368985E+03</pdfrwt>
<pdfrwt beam="2">  1       21 0.73851943E-02 0.20368985E+03</pdfrwt>
<totfact> 0.51758217E+04</totfact>
</mgrwt>
</event>
<event>
 4    1  0.4451819E+000  0.2331626E+03  0.7546771E-02  0.1124433E+00
         21   -1    0    0  501  502  0.00000000000E+00  0.00000000000E+00  0.80786020253E+03  0.80786020253E+03  0.00000000000E+00 0. -1.
         21   -1    0    0  502  503 -0.00000000000E+00 -0.00000000000E+00 -0.17973964544E+03  0.17973964544E+03  0.00000000000E+00 0. -1.
          6    1    1    2  501    0 -0.93983857106E+02 -0.12491126004E+03  0.70463025923E+03  0.74220522129E+03  0.17300000000E+03 0. -1.
         -6    1    1    2    0  503  0.93983857106E+02  0.12491126004E+03 -0.76509702141E+02  0.24539462668E+03  0.17300000000E+03 0. -1.
<mgrwt>
<rscale>  2 0.23316258E+03</rscale>
<asrwt>0</asrwt>
<pdfrwt beam="1">  1       21 0.12428618E+00 0.23316258E+03</pdfrwt>
<pdfrwt beam="2">  1       21 0.27652254E-01 0.23316258E+03</pdfrwt>
<totfact> 0.58606777E+03</totfact>
</mgrwt>
</event>
<event>
 4    1  0.4451819E+000  0.1837465E+03  0.7546771E-02  0.1164226E+00
         21   -1    0    0  501  502  0.00000000000E+00  0.00000000000E+00  0.99788937555E+02  0.99788937555E+02  0.00000000000E+00 0. -1.
         21   -1    0    0  502  503 -0.00000000000E+00 -0.00000000000E+00 -0.34239088185E+03  0.34239088185E+03  0.00000000000E+00 0. -1.
          6    1    1    2  501    0 -0.44465611521E+02  0.43088137239E+02 -0.14534355044E+03  0.23428086954E+03  0.17300000000E+03 0. -1.
         -6    1    1    2    0  503  0.44465611521E+02 -0.43088137239E+02 -0.97258393850E+02  0.20789894986E+03  0.17300000000E+03 0. -1.
<mgrwt>
<rscale>  2 0.18374651E+03</rscale>
<asrwt>0</asrwt>
<pdfrwt beam="1">  1       21 0.15352144E-01 0.18374651E+03</pdfrwt>
<pdfrwt beam="2">  1       21 0.52675520E-01 0.18374651E+03</pdfrwt>
<totfact> 0.12886967E+05</totfact>
</mgrwt>
</event>
<event>
 4    1  0.4451819E+000  0.1762401E+03  0.7546771E-02  0.1171492E+00
         21   -1    0    0  503  502  0.00000000000E+00  0.00000000000E+00  0.22133704484E+03  0.22133704484E+03  0.00000000000E+00 0.  1.
         21   -1    0    0  501  503 -0.00000000000E+00 -0.00000000000E+00 -0.15597175238E+03  0.15597175238E+03  0.00000000000E+00 0.  1.
          6    1    1    2  501    0 -0.28547702840E+02  0.17793579785E+02 -0.27057237904E+02  0.17830501098E+03  0.17300000000E+03 0. -1.
         -6    1    1    2    0  502  0.28547702840E+02 -0.17793579785E+02  0.92422530359E+02  0.19900378624E+03  0.17300000000E+03 0. -1.
<mgrwt>
<rscale>  2 0.17624013E+03</rscale>
<asrwt>0</asrwt>
<pdfrwt beam="1">  1       21 0.34051853E-01 0.17624013E+03</pdfrwt>
<pdfrwt beam="2">  1       21 0.23995654E-01 0.17624013E+03</pdfrwt>
<totfact> 0.13683980E+05</totfact>
</mgrwt>
</event>
<event>
 4    1  0.4451819E+000  0.1805326E+03  0.7546771E-02  0.1167289E+00
         21   -1    0    0  501  502  0.00000000000E+00  0.00000000000E+00  0.15754849552E+03  0.15754849552E+03  0.00000000000E+00 0. -1.
         21   -1    0    0  502  503 -0.00000000000E+00 -0.00000000000E+00 -0.23018329622E+03  0.23018329622E+03  0.00000000000E+00 0. -1.
          6    1    1    2  501    0  0.48253644408E+02 -0.18292100457E+02 -0.98015082051E+02  0.20542388237E+03  0.17300000000E+03 0. -1.
         -6    1    1    2    0  503 -0.48253644408E+02  0.18292100457E+02  0.25380281344E+02  0.18230790937E+03  0.17300000000E+03 0. -1.
<mgrwt>
<rscale>  2 0.18053259E+03</rscale>
<asrwt>0</asrwt>
<pdfrwt beam="1">  1       21 0.24238230E-01 0.18053259E+03</pdfrwt>
<pdfrwt beam="2">  1       21 0.35412815E-01 0.18053259E+03</pdfrwt>
<totfact> 0.12404653E+05</totfact>
</mgrwt>
</event>
<event>
 4    1  0.4451819E+000  0.1837019E+03  0.7546771E-02  0.1164268E+00
         21   -1    0    0  501  502  0.00000000000E+00  0.00000000000E+00  0.20144130614E+03  0.20144130614E+03  0.00000000000E+00 0.  1.
         21   -1    0    0  502  503 -0.00000000000E+00 -0.00000000000E+00 -0.80762186501E+03  0.80762186501E+03  0.00000000000E+00 0.  1.
          6    1    1    2  501    0 -0.25316530302E+02 -0.56359951866E+02  0.14607617838E+03  0.23470113074E+03  0.17300000000E+03 0.  1.
         -6    1    1    2    0  503  0.25316530302E+02  0.56359951866E+02 -0.75225673725E+03  0.77436204041E+03  0.17300000000E+03 0.  1.
<mgrwt>
<rscale>  2 0.18370185E+03</rscale>
<asrwt>0</asrwt>
<pdfrwt beam="1">  1       21 0.30990971E-01 0.18370185E+03</pdfrwt>
<pdfrwt beam="2">  1       21 0.12424952E+00 0.18370185E+03</pdfrwt>
<totfact> 0.48790000E+03</totfact>
</mgrwt>
</event>
<event>
 4    1  0.4451819E+000  0.2879673E+03  0.7546771E-02  0.1091415E+00
         21   -1    0    0  501  502  0.00000000000E+00  0.00000000000E+00  0.50954332288E+03  0.50954332288E+03  0.00000000000E+00 0. -1.
         21   -1    0    0  502  503 -0.00000000000E+00 -0.00000000000E+00 -0.49410306343E+03  0.49410306343E+03  0.00000000000E+00 0.  1.
          6    1    1    2  501    0  0.20891409176E+03 -0.96700875665E+02  0.41867235244E+03  0.50814534908E+03  0.17300000000E+03 0. -1.
         -6    1    1    2    0  503 -0.20891409176E+03  0.96700875665E+02 -0.40323209299E+03  0.49550103724E+03  0.17300000000E+03 0.  1.
<mgrwt>
<rscale>  2 0.28796728E+03</rscale>
<asrwt>0</asrwt>
<pdfrwt beam="1">  1       21 0.78391281E-01 0.28796728E+03</pdfrwt>
<pdfrwt beam="2">  1       21 0.76015856E-01 0.28796728E+03</pdfrwt>
<totfact> 0.20693292E+03</totfact>
</mgrwt>
</event>
<event>
 4    1  0.4451819E+000  0.2173879E+03  0.7546771E-02  0.1135846E+00
         21   -1    0    0  503  502  0.00000000000E+00  0.00000000000E+00  0.18475587981E+03  0.18475587981E+03  0.00000000000E+00 0. -1.
         21   -1    0    0  501  503 -0.00000000000E+00 -0.00000000000E+00 -0.33547572453E+03  0.33547572453E+03  0.00000000000E+00 0.  1.
          6    1    1    2  501    0 -0.12624174398E+03 -0.37302897884E+02 -0.20213809232E+03  0.29684557009E+03  0.17300000000E+03 0.  1.
         -6    1    1    2    0  502  0.12624174398E+03  0.37302897884E+02  0.51418247595E+02  0.22338603425E+03  0.17300000000E+03 0. -1.
<mgrwt>
<rscale>  2 0.21738787E+03</rscale>
<asrwt>0</asrwt>
<pdfrwt beam="1">  1       21 0.28423982E-01 0.21738787E+03</pdfrwt>
<pdfrwt beam="2">  1       21 0.51611650E-01 0.21738787E+03</pdfrwt>
<totfact> 0.41683113E+04</totfact>
</mgrwt>
</event>
<event>
 4    1  0.4451819E+000  0.2035126E+03  0.7546771E-02  0.1146809E+00
         21   -1    0    0  503  502  0.00000000000E+00  0.00000000000E+00  0.16012785555E+03  0.16012785555E+03  0.00000000000E+00 0. -1.
         21   -1    0    0  501  503 -0.00000000000E+00 -0.00000000000E+00 -0.31516010048E+03  0.31516010048E+03  0.00000000000E+00 0. -1.
          6    1    1    2  501    0 -0.66830512694E+02  0.83797818337E+02 -0.17814358286E+03  0.27046723997E+03  0.17300000000E+03 0. -1.
         -6    1    1    2    0  502  0.66830512694E+02 -0.83797818337E+02  0.23111337921E+02  0.20482071606E+03  0.17300000000E+03 0. -1.
<mgrwt>
<rscale>  2 0.20351263E+03</rscale>
<asrwt>0</asrwt>
<pdfrwt beam="1">  1       21 0.24635055E-01 0.20351263E+03</pdfrwt>
<pdfrwt beam="2">  1       21 0.48486168E-01 0.20351263E+03</pdfrwt>
<totfact> 0.62962517E+04</totfact>
</mgrwt>
</event>
<event>
 4    1  0.4451819E+000  0.1824750E+03  0.7546771E-02  0.1165429E+00
         21   -1    0    0  501  502  0.00000000000E+00  0.00000000000E+00  0.53056092298E+02  0.53056092298E+02  0.00000000000E+00 0.  1.
         21   -1    0    0  502  503 -0.00000000000E+00 -0.00000000000E+00 -0.73419647388E+03  0.73419647388E+03  0.00000000000E+00 0.  1.
          6    1    1    2  501    0 -0.42026248452E+02 -0.40024020819E+02 -0.19057304939E+03  0.26384695366E+03  0.17300000000E+03 0.  1.
         -6    1    1    2    0  503  0.42026248452E+02  0.40024020819E+02 -0.49056733219E+03  0.52340561251E+03  0.17300000000E+03 0.  1.
<mgrwt>
<rscale>  2 0.18247501E+03</rscale>
<asrwt>0</asrwt>
<pdfrwt beam="1">  1       21 0.81624751E-02 0.18247501E+03</pdfrwt>
<pdfrwt beam="2">  1       21 0.11295331E+00 0.18247501E+03</pdfrwt>
<totfact> 0.71303899E+04</totfact>
</mgrwt>
</event>
<event>
 4    1  0.4451819E+000  0.1747276E+03  0.7546771E-02  0.1173006E+00
         21   -1    0    0  503  502  0.00000000000E+00  0.00000000000E+00  0.36547489618E+03  0.36547489618E+03  0.00000000000E+00 0. -1.
         21   -1    0    0  501  503 -0.00000000000E+00 -0.00000000000E+00 -0.17698651495E+03  0.17698651495E+03  0.00000000000E+00 0. -1.
          6    1    1    2  501    0  0.24507545457E+02 -0.32339305218E+00 -0.10284524397E+03  0.20274828871E+03  0.17300000000E+03 0. -1.
         -6    1    1    2    0  502 -0.24507545457E+02  0.32339305218E+00  0.29133362520E+03  0.33971312241E+03  0.17300000000E+03 0. -1.
<mgrwt>
<rscale>  2 0.17472757E+03</rscale>
<asrwt>0</asrwt>
<pdfrwt beam="1">  1       21 0.56226907E-01 0.17472757E+03</pdfrwt>
<pdfrwt beam="2">  1       21 0.27228695E-01 0.17472757E+03</pdfrwt>
<totfact> 0.38630306E+04</totfact>
</mgrwt>
</event>
<event>
 4    1  0.4451819E+000  0.2593570E+03  0.7546771E-02  0.1107530E+00
         21   -1    0    0  503  502  0.00000000000E+00  0.00000000000E+00  0.22858903417E+04  0.22858903417E+04  0.00000000000E+00 0. -1.
         21   -1    0    0  501  503 -0.00000000000E+00 -0.00000000000E+00 -0.30685987641E+02  0.30685987641E+02  0.00000000000E+00 0. -1.
          6    1    1    2  501    0  0.19147791305E+03  0.25946876595E+02  0.89295115893E+03  0.92985364645E+03  0.17300000000E+03 0. -1.
         -6    1    1    2    0  502 -0.19147791305E+03 -0.25946876595E+02  0.13622531952E+04  0.13867226829E+04  0.17300000000E+03 0. -1.
<mgrwt>
<rscale>  2 0.25935696E+03</rscale>
<asrwt>0</asrwt>
<pdfrwt beam="1">  1       21 0.35167530E+00 0.25935696E+03</pdfrwt>
<pdfrwt beam="2">  1       21 0.47209230E-02 0.25935696E+03</pdfrwt>
<totfact> 0.47083005E+03</totfact>
</mgrwt>
</event>
<event>
 4    1  0.4451819E+000  0.2276397E+03  0.7546771E-02  0.1128312E+00
         21   -1    0    0  501  502  0.00000000000E+00  0.00000000000E+00  0.28948381760E+03  0.28948381760E+03  0.00000000000E+00 0. -1.
         21   -1    0    0  502  503 -0.00000000000E+00 -0.00000000000E+00 -0.20488478986E+03  0.20488478986E+03  0.00000000000E+00 0.  1.
          6    1    1    2  501    0  0.33217325128E+02  0.14417853991E+03  0.13014581231E+03  0.26221703705E+03  0.17300000000E+03 0. -1.
         -6    1    1    2    0  503 -0.33217325128E+02 -0.14417853991E+03 -0.45546784564E+02  0.23215157041E+03  0.17300000000E+03 0.  1.
<mgrwt>
<rscale>  2 0.22763972E+03</rscale>
<asrwt>0</asrwt>
<pdfrwt beam="1">  1       21 0.44535972E-01 0.22763972E+03</pdfrwt>
<pdfrwt beam="2">  1       21 0.31520737E-01 0.22763972E+03</pdfrwt>
<totfact> 0.46057036E+04</totfact>
</mgrwt>
</event>
<event>
 4    1  0.4451819E+000  0.2739350E+03  0.7546771E-02  0.1099048E+00
         21   -1    0    0  501  502  0.00000000000E+00  0.00000000000E+00  0.28023295148E+03  0.28023295148E+03  0.00000000000E+00 0. -1.
         21   -1    0    0  502  503 -0.00000000000E+00 -0.00000000000E+00 -0.55572007694E+03  0.55572007694E+03  0.00000000000E+00 0. -1.
          6    1    1    2  501    0  0.45101443560E+02 -0.20755060942E+03  0.16312438797E+03  0.31882591117E+03  0.17300000000E+03 0. -1.
         -6    1    1    2    0  503 -0.45101443560E+02  0.20755060942E+03 -0.43861151343E+03  0.51712711725E+03  0.17300000000E+03 0. -1.
<mgrwt>
<rscale>  2 0.27393502E+03</rscale>
<asrwt>0</asrwt>
<pdfrwt beam="1">  1       21 0.43112763E-01 0.27393502E+03</pdfrwt>
<pdfrwt beam="2">  1       21 0.85495395E-01 0.27393502E+03</pdfrwt>
<totfact> 0.57992921E+03</totfact>
</mgrwt>
</event>
<event>
 4    1  0.4451819E+000  0.2232933E+03  0.7546771E-02  0.1131451E+00
         21   -1    0    0  501  502  0.00000000000E+00  0.00000000000E+00  0.10118023998E+03  0.10118023998E+03  0.00000000000E+00 0.  1.
         21   -1    0    0  502  503 -0.00000000000E+00 -0.00000000000E+00 -0.50329780223E+03  0.50329780223E+03  0.00000000000E+00 0.  1.
          6    1    1    2  501    0  0.14087827717E+03  0.91765859005E+01 -0.15737308268E+03  0.27317793809E+03  0.17300000000E+03 0.  1.
         -6    1    1    2    0  503 -0.14087827717E+03 -0.91765859005E+01 -0.24474447957E+03  0.33130010411E+03  0.17300000000E+03 0.  1.
<mgrwt>
<rscale>  2 0.22329330E+03</rscale>
<asrwt>0</asrwt>
<pdfrwt beam="1">  1       21 0.15566191E-01 0.22329330E+03</pdfrwt>
<pdfrwt beam="2">  1       21 0.77430432E-01 0.22329330E+03</pdfrwt>
<totfact> 0.53495730E+04</totfact>
</mgrwt>
</event>
<event>
 4    1  0.4451819E+000  0.1809874E+03  0.7546771E-02  0.1166851E+00
         21   -1    0    0  501  502  0.00000000000E+00  0.00000000000E+00  0.27117699679E+03  0.27117699679E+03  0.00000000000E+00 0.  1.
         21   -1    0    0  502  503 -0.00000000000E+00 -0.00000000000E+00 -0.15948367417E+03  0.15948367417E+03  0.00000000000E+00 0.  1.
          6    1    1    2  501    0 -0.81013689711E+01  0.52553028837E+02  0.16190546646E+03  0.24283705049E+03  0.17300000000E+03 0.  1.
         -6    1    1    2    0  503  0.81013689711E+01 -0.52553028837E+02 -0.50212143842E+02  0.18782362047E+03  0.17300000000E+03 0.  1.
<mgrwt>
<rscale>  2 0.18098744E+03</rscale>
<asrwt>0</asrwt>
<pdfrwt beam="1">  1       21 0.41719538E-01 0.18098744E+03</pdfrwt>
<pdfrwt beam="2">  1       21 0.24535950E-01 0.18098744E+03</pdfrwt>
<totfact> 0.87225848E+04</totfact>
</mgrwt>
</event>
<event>
 4    1  0.4451819E+000  0.3071732E+03  0.7546771E-02  0.1081709E+00
         21   -1    0    0  503  502  0.00000000000E+00  0.00000000000E+00  0.59813815802E+03  0.59813815802E+03  0.00000000000E+00 0. -1.
         21   -1    0    0  501  503 -0.00000000000E+00 -0.00000000000E+00 -0.38739425811E+03  0.38739425811E+03  0.00000000000E+00 0. -1.
          6    1    1    2  501    0  0.15038259430E+02 -0.25337766094E+03 -0.27402475635E+03  0.41163692181E+03  0.17300000000E+03 0. -1.
         -6    1    1    2    0  502 -0.15038259430E+02  0.25337766094E+03  0.48476865626E+03  0.57389549432E+03  0.17300000000E+03 0. -1.
<mgrwt>
<rscale>  2 0.30717322E+03</rscale>
<asrwt>0</asrwt>
<pdfrwt beam="1">  1       21 0.92021255E-01 0.30717322E+03</pdfrwt>
<pdfrwt beam="2">  1       21 0.59599116E-01 0.30717322E+03</pdfrwt>
<totfact> 0.24203235E+03</totfact>
</mgrwt>
</event>
<event>
 4    1  0.4451819E+000  0.2959874E+03  0.7546771E-02  0.1087264E+00
         21   -1    0    0  501  502  0.00000000000E+00  0.00000000000E+00  0.32854959204E+03  0.32854959204E+03  0.00000000000E+00 0.  1.
         21   -1    0    0  502  503 -0.00000000000E+00 -0.00000000000E+00 -0.28603309106E+03  0.28603309106E+03  0.00000000000E+00 0.  1.
          6    1    1    2  501    0  0.96757314683E+02 -0.21981253962E+03  0.10124665646E+03  0.31282489665E+03  0.17300000000E+03 0.  1.
         -6    1    1    2    0  503 -0.96757314683E+02  0.21981253962E+03 -0.58730155482E+02  0.30175778645E+03  0.17300000000E+03 0.  1.
<mgrwt>
<rscale>  2 0.29598738E+03</rscale>
<asrwt>0</asrwt>
<pdfrwt beam="1">  1       21 0.50546091E-01 0.29598738E+03</pdfrwt>
<pdfrwt beam="2">  1       21 0.44005091E-01 0.29598738E+03</pdfrwt>
<totfact> 0.17531662E+04</totfact>
</mgrwt>
</event>
<event>
 4    1  0.4451819E+000  0.2203535E+03  0.7546771E-02  0.1133620E+00
         21   -1    0    0  501  502  0.00000000000E+00  0.00000000000E+00  0.62067236469E+03  0.62067236469E+03  0.00000000000E+00 0.  1.
         21   -1    0    0  502  503 -0.00000000000E+00 -0.00000000000E+00 -0.82796552537E+02  0.82796552537E+02  0.00000000000E+00 0.  1.
          6    1    1    2  501    0 -0.13152088533E+03 -0.36454161248E+02  0.35153571675E+03  0.41488915303E+03  0.17300000000E+03 0.  1.
         -6    1    1    2    0  503  0.13152088533E+03  0.36454161248E+02  0.18634009540E+03  0.28857976420E+03  0.17300000000E+03 0.  1.
<mgrwt>
<rscale>  2 0.22035346E+03</rscale>
<asrwt>0</asrwt>
<pdfrwt beam="1">  1       21 0.95488053E-01 0.22035346E+03</pdfrwt>
<pdfrwt beam="2">  1       21 0.12737932E-01 0.22035346E+03</pdfrwt>
<totfact> 0.47596798E+04</totfact>
</mgrwt>
</event>
<event>
 4    1  0.4451819E+000  0.3530133E+03  0.7546771E-02  0.1061385E+00
         21   -1    0    0  501  502  0.00000000000E+00  0.00000000000E+00  0.11373720968E+04  0.11373720968E+04  0.00000000000E+00 0.  1.
         21   -1    0    0  502  503 -0.00000000000E+00 -0.00000000000E+00 -0.11622062766E+03  0.11622062766E+03  0.00000000000E+00 0.  1.
          6    1    1    2  501    0  0.30552795533E+03 -0.36633839183E+02  0.66054987072E+03  0.74896228301E+03  0.17300000000E+03 0.  1.
         -6    1    1    2    0  503 -0.30552795533E+03  0.36633839183E+02  0.36060159848E+03  0.50463044150E+03  0.17300000000E+03 0.  1.
<mgrwt>
<rscale>  2 0.35301327E+03</rscale>
<asrwt>0</asrwt>
<pdfrwt beam="1">  1       21 0.17498031E+00 0.35301327E+03</pdfrwt>
<pdfrwt beam="2">  1       21 0.17880097E-01 0.35301327E+03</pdfrwt>
<totfact> 0.50477468E+03</totfact>
</mgrwt>
</event>
<event>
 4    1  0.4451819E+000  0.2136692E+03  0.7546771E-02  0.1138693E+00
         21   -1    0    0  503  502  0.00000000000E+00  0.00000000000E+00  0.10273555770E+04  0.10273555770E+04  0.00000000000E+00 0.  1.
         21   -1    0    0  501  503 -0.00000000000E+00 -0.00000000000E+00 -0.53892670603E+02  0.53892670603E+02  0.00000000000E+00 0.  1.
          6    1    1    2  501    0  0.54288478564E+02 -0.11304114330E+03  0.26030175706E+03  0.33676630430E+03  0.17300000000E+03 0. -1.
         -6    1    1    2    0  502 -0.54288478564E+02  0.11304114330E+03  0.71316114932E+03  0.74448194329E+03  0.17300000000E+03 0. -1.
<mgrwt>
<rscale>  2 0.21366923E+03</rscale>
<asrwt>0</asrwt>
<pdfrwt beam="1">  1       21 0.15805469E+00 0.21366923E+03</pdfrwt>
<pdfrwt beam="2">  1       21 0.82911809E-02 0.21366923E+03</pdfrwt>
<totfact> 0.28943404E+04</totfact>
</mgrwt>
</event>
<event>
 4    1  0.4451819E+000  0.2523053E+03  0.7546771E-02  0.1111857E+00
         21   -1    0    0  501  502  0.00000000000E+00  0.00000000000E+00  0.60904863674E+02  0.60904863674E+02  0.00000000000E+00 0.  1.
         21   -1    0    0  502  503 -0.00000000000E+00 -0.00000000000E+00 -0.10453691802E+04  0.10453691802E+04  0.00000000000E+00 0. -1.
          6    1    1    2  501    0 -0.16293415425E+03 -0.84743299453E+02 -0.48526468674E+03  0.54693672542E+03  0.17300000000E+03 0. -1.
         -6    1    1    2    0  503  0.16293415425E+03  0.84743299453E+02 -0.49919962976E+03  0.55933731842E+03  0.17300000000E+03 0. -1.
<mgrwt>
<rscale>  2 0.25230530E+03</rscale>
<asrwt>0</asrwt>
<pdfrwt beam="1">  1       21 0.93699799E-02 0.25230530E+03</pdfrwt>
<pdfrwt beam="2">  1       21 0.16082601E+00 0.25230530E+03</pdfrwt>
<totfact> 0.21778309E+04</totfact>
</mgrwt>
</event>
<event>
 4    1  0.4451819E+000  0.2018207E+03  0.7546771E-02  0.1148212E+00
         21   -1    0    0  503  502  0.00000000000E+00  0.00000000000E+00  0.11190934664E+03  0.11190934664E+03  0.00000000000E+00 0. -1.
         21   -1    0    0  501  503 -0.00000000000E+00 -0.00000000000E+00 -0.62243995543E+03  0.62243995543E+03  0.00000000000E+00 0. -1.
          6    1    1    2  501    0  0.29537306936E+02 -0.99650138375E+02 -0.49187324251E+03  0.53166802544E+03  0.17300000000E+03 0. -1.
         -6    1    1    2    0  502 -0.29537306936E+02  0.99650138375E+02 -0.18657366270E+02  0.20268127663E+03  0.17300000000E+03 0. -1.
<mgrwt>
<rscale>  2 0.20182072E+03</rscale>
<asrwt>0</asrwt>
<pdfrwt beam="1">  1       21 0.17216823E-01 0.20182072E+03</pdfrwt>
<pdfrwt beam="2">  1       21 0.95759991E-01 0.20182072E+03</pdfrwt>
<totfact> 0.27563426E+04</totfact>
</mgrwt>
</event>
<event>
 4    1  0.4451819E+000  0.2587968E+03  0.7546771E-02  0.1107868E+00
         21   -1    0    0  503  502  0.00000000000E+00  0.00000000000E+00  0.21739750912E+03  0.21739750912E+03  0.00000000000E+00 0. -1.
         21   -1    0    0  501  503 -0.00000000000E+00 -0.00000000000E+00 -0.43288263242E+03  0.43288263242E+03  0.00000000000E+00 0. -1.
          6    1    1    2  501    0  0.17698492937E+03  0.75651326865E+02 -0.28232380295E+03  0.38299153801E+03  0.17300000000E+03 0. -1.
         -6    1    1    2    0  502 -0.17698492937E+03 -0.75651326865E+02  0.66838679643E+02  0.26728860353E+03  0.17300000000E+03 0. -1.
<mgrwt>
<rscale>  2 0.25879681E+03</rscale>
<asrwt>0</asrwt>
<pdfrwt beam="1">  1       21 0.33445771E-01 0.25879681E+03</pdfrwt>
<pdfrwt beam="2">  1       21 0.66597327E-01 0.25879681E+03</pdfrwt>
<totfact> 0.17156714E+04</totfact>
</mgrwt>
</event>
<event>
 4    1  0.4451819E+000  0.2008371E+03  0.7546771E-02  0.1149035E+00
         21   -1    0    0  503  502  0.00000000000E+00  0.00000000000E+00  0.18186570410E+03  0.18186570410E+03  0.00000000000E+00 0.  1.
         21   -1    0    0  501  503 -0.00000000000E+00 -0.00000000000E+00 -0.45502161052E+03  0.45502161052E+03  0.00000000000E+00 0.  1.
          6    1    1    2  501    0 -0.80447963674E+02 -0.62726900106E+02 -0.36456628969E+03  0.41622604248E+03  0.17300000000E+03 0.  1.
         -6    1    1    2    0  502  0.80447963674E+02  0.62726900106E+02  0.91410383265E+02  0.22066127215E+03  0.17300000000E+03 0.  1.
<mgrwt>
<rscale>  2 0.20083710E+03</rscale>
<asrwt>0</asrwt>
<pdfrwt beam="1">  1       21 0.27979339E-01 0.20083710E+03</pdfrwt>
<pdfrwt beam="2">  1       21 0.70003325E-01 0.20083710E+03</pdfrwt>
<totfact> 0.22495578E+04</totfact>
</mgrwt>
</event>
<event>
 4    1  0.4451819E+000  0.1809559E+03  0.7546771E-02  0.1166881E+00
         21   -1    0    0  501  502  0.00000000000E+00  0.00000000000E+00  0.84769675154E+03  0.84769675154E+03  0.00000000000E+00 0. -1.
         21   -1    0    0  502  503 -0.00000000000E+00 -0.00000000000E+00 -0.67371923022E+02  0.67371923022E+02  0.00000000000E+00 0. -1.
          6    1    1    2  501    0 -0.35400052477E+02  0.39533218023E+02  0.68901387268E+03  0.71237992377E+03  0.17300000000E+03 0. -1.
         -6    1    1    2    0  503  0.35400052477E+02 -0.39533218023E+02  0.91310955838E+02  0.20268875079E+03  0.17300000000E+03 0. -1.
<mgrwt>
<rscale>  2 0.18095590E+03</rscale>
<asrwt>0</asrwt>
<pdfrwt beam="1">  1       21 0.13041488E+00 0.18095590E+03</pdfrwt>
<pdfrwt beam="2">  1       21 0.10364912E-01 0.18095590E+03</pdfrwt>
<totfact> 0.32881256E+04</totfact>
</mgrwt>
</event>
<event>
 4    1  0.4451819E+000  0.1836241E+03  0.7546771E-02  0.1164341E+00
         21   -1    0    0  501  502  0.00000000000E+00  0.00000000000E+00  0.11272576003E+04  0.11272576003E+04  0.00000000000E+00 0.  1.
         21   -1    0    0  502  503 -0.00000000000E+00 -0.00000000000E+00 -0.11358050200E+03  0.11358050200E+03  0.00000000000E+00 0.  1.
          6    1    1    2  501    0 -0.61485851864E+02 -0.28799233261E+01  0.10393339978E+04  0.10554302264E+04  0.17300000000E+03 0.  1.
         -6    1    1    2    0  503  0.61485851864E+02  0.28799233261E+01 -0.25656899490E+02  0.18540787586E+03  0.17300000000E+03 0.  1.
<mgrwt>
<rscale>  2 0.18362408E+03</rscale>
<asrwt>0</asrwt>
<pdfrwt beam="1">  1       21 0.17342424E+00 0.18362408E+03</pdfrwt>
<pdfrwt beam="2">  1       21 0.17473924E-01 0.18362408E+03</pdfrwt>
<totfact> 0.60360907E+03</totfact>
</mgrwt>
</event>
<event>
 4    1  0.4451819E+000  0.2004554E+03  0.7546771E-02  0.1149355E+00
         21   -1    0    0  501  502  0.00000000000E+00  0.00000000000E+00  0.51984316222E+03  0.51984316222E+03  0.00000000000E+00 0. -1.
         21   -1    0    0  502  503 -0.00000000000E+00 -0.00000000000E+00 -0.14104648416E+03  0.14104648416E+03  0.00000000000E+00 0. -1.
          6    1    1    2  501    0  0.60190043441E+02  0.81428065485E+02  0.41155319048E+03  0.45777549058E+03  0.17300000000E+03 0. -1.
         -6    1    1    2    0  503 -0.60190043441E+02 -0.81428065485E+02 -0.32756512424E+02  0.20311415579E+03  0.17300000000E+03 0. -1.
<mgrwt>
<rscale>  2 0.20045541E+03</rscale>
<asrwt>0</asrwt>
<pdfrwt beam="1">  1       21 0.79975870E-01 0.20045541E+03</pdfrwt>
<pdfrwt beam="2">  1       21 0.21699459E-01 0.20045541E+03</pdfrwt>
<totfact> 0.27142341E+04</totfact>
</mgrwt>
</event>
<event>
 4    1  0.4451819E+000  0.2202219E+03  0.7546771E-02  0.1133718E+00
         21   -1    0    0  501  502  0.00000000000E+00  0.00000000000E+00  0.53983526508E+03  0.53983526508E+03  0.00000000000E+00 0.  1.
         21   -1    0    0  502  503 -0.00000000000E+00 -0.00000000000E+00 -0.12966047022E+03  0.12966047022E+03  0.00000000000E+00 0.  1.
          6    1    1    2  501    0 -0.86721316585E+02 -0.10510994009E+03  0.39060215687E+03  0.44840576625E+03  0.17300000000E+03 0.  1.
         -6    1    1    2    0  503  0.86721316585E+02  0.10510994009E+03  0.19572637994E+02  0.22108996905E+03  0.17300000000E+03 0.  1.
<mgrwt>
<rscale>  2 0.22022190E+03</rscale>
<asrwt>0</asrwt>
<pdfrwt beam="1">  1       21 0.83051578E-01 0.22022190E+03</pdfrwt>
<pdfrwt beam="2">  1       21 0.19947765E-01 0.22022190E+03</pdfrwt>
<totfact> 0.28865106E+04</totfact>
</mgrwt>
</event>
<event>
 4    1  0.4451819E+000  0.3436079E+03  0.7546771E-02  0.1065270E+00
         21   -1    0    0  503  502  0.00000000000E+00  0.00000000000E+00  0.14537173046E+04  0.14537173046E+04  0.00000000000E+00 0.  1.
         21   -1    0    0  501  503 -0.00000000000E+00 -0.00000000000E+00 -0.82248860319E+02  0.82248860319E+02  0.00000000000E+00 0.  1.
          6    1    1    2  501    0  0.14784031083E+03 -0.25745023575E+03  0.77175884494E+03  0.84479470650E+03  0.17300000000E+03 0.  1.
         -6    1    1    2    0  502 -0.14784031083E+03  0.25745023575E+03  0.59970959938E+03  0.69117145845E+03  0.17300000000E+03 0.  1.
<mgrwt>
<rscale>  2 0.34360789E+03</rscale>
<asrwt>0</asrwt>
<pdfrwt beam="1">  1       21 0.22364880E+00 0.34360789E+03</pdfrwt>
<pdfrwt beam="2">  1       21 0.12653672E-01 0.34360789E+03</pdfrwt>
<totfact> 0.45651443E+03</totfact>
</mgrwt>
</event>
<event>
 4    1  0.4451819E+000  0.2537383E+03  0.7546771E-02  0.1110965E+00
         21   -1    0    0  503  502  0.00000000000E+00  0.00000000000E+00  0.96027996112E+02  0.96027996112E+02  0.00000000000E+00 0.  1.
         21   -1    0    0  501  503 -0.00000000000E+00 -0.00000000000E+00 -0.97996820508E+03  0.97996820508E+03  0.00000000000E+00 0. -1.
          6    1    1    2  501    0  0.16815969509E+03  0.78590355708E+02 -0.74431970235E+03  0.78638091684E+03  0.17300000000E+03 0. -1.
         -6    1    1    2    0  502 -0.16815969509E+03 -0.78590355708E+02 -0.13962050662E+03  0.28961528435E+03  0.17300000000E+03 0.  1.
<mgrwt>
<rscale>  2 0.25373830E+03</rscale>
<asrwt>0</asrwt>
<pdfrwt beam="1">  1       21 0.14773537E-01 0.25373830E+03</pdfrwt>
<pdfrwt beam="2">  1       21 0.15076435E+00 0.25373830E+03</pdfrwt>
<totfact> 0.11420798E+04</totfact>
</mgrwt>
</event>
<event>
 4    1  0.4451819E+000  0.2120537E+03  0.7546771E-02  0.1139950E+00
         21   -1    0    0  501  502  0.00000000000E+00  0.00000000000E+00  0.20934985233E+02  0.20934985233E+02  0.00000000000E+00 0. -1.
         21   -1    0    0  502  503 -0.00000000000E+00 -0.00000000000E+00 -0.23465767952E+04  0.23465767952E+04  0.00000000000E+00 0.  1.
          6    1    1    2  501    0  0.50374351431E+02 -0.11180435290E+03 -0.81839923476E+03  0.84542539356E+03  0.17300000000E+03 0. -1.
         -6    1    1    2    0  503 -0.50374351431E+02  0.11180435290E+03 -0.15072425752E+04  0.15220863869E+04  0.17300000000E+03 0.  1.
<mgrwt>
<rscale>  2 0.21205374E+03</rscale>
<asrwt>0</asrwt>
<pdfrwt beam="1">  1       21 0.32207679E-02 0.21205374E+03</pdfrwt>
<pdfrwt beam="2">  1       21 0.36101171E+00 0.21205374E+03</pdfrwt>
<totfact> 0.82708789E+03</totfact>
</mgrwt>
</event>
<event>
 4    1  0.4451819E+000  0.2310023E+03  0.7546771E-02  0.1125936E+00
         21   -1    0    0  501  502  0.00000000000E+00  0.00000000000E+00  0.11568627760E+04  0.11568627760E+04  0.00000000000E+00 0. -1.
         21   -1    0    0  502  503 -0.00000000000E+00 -0.00000000000E+00 -0.80334784565E+02  0.80334784565E+02  0.00000000000E+00 0. -1.
          6    1    1    2  501    0  0.13323814110E+03  0.75370148368E+02  0.94193050812E+03  0.96984284482E+03  0.17300000000E+03 0. -1.
         -6    1    1    2    0  503 -0.13323814110E+03 -0.75370148368E+02  0.13459748327E+03  0.26735471571E+03  0.17300000000E+03 0. -1.
<mgrwt>
<rscale>  2 0.23100230E+03</rscale>
<asrwt>0</asrwt>
<pdfrwt beam="1">  1       21 0.17797888E+00 0.23100230E+03</pdfrwt>
<pdfrwt beam="2">  1       21 0.12359198E-01 0.23100230E+03</pdfrwt>
<totfact> 0.10157644E+04</totfact>
</mgrwt>
</event>
<event>
 4    1  0.4451819E+000  0.1768291E+03  0.7546771E-02  0.1170908E+00
         21   -1    0    0  503  502  0.00000000000E+00  0.00000000000E+00  0.32859508116E+03  0.32859508116E+03  0.00000000000E+00 0. -1.
         21   -1    0    0  501  503 -0.00000000000E+00 -0.00000000000E+00 -0.11063601493E+03  0.11063601493E+03  0.00000000000E+00 0. -1.
          6    1    1    2  501    0 -0.36202670843E+02  0.53758024607E+01  0.26836836589E+02  0.17885398633E+03  0.17300000000E+03 0. -1.
         -6    1    1    2    0  502  0.36202670843E+02 -0.53758024607E+01  0.19112222964E+03  0.26037710977E+03  0.17300000000E+03 0. -1.
<mgrwt>
<rscale>  2 0.17682911E+03</rscale>
<asrwt>0</asrwt>
<pdfrwt beam="1">  1       21 0.50553089E-01 0.17682911E+03</pdfrwt>
<pdfrwt beam="2">  1       21 0.17020926E-01 0.17682911E+03</pdfrwt>
<totfact> 0.11657720E+05</totfact>
</mgrwt>
</event>
<event>
 4    1  0.4451819E+000  0.2107609E+03  0.7546771E-02  0.1140965E+00
         21   -1    0    0  501  502  0.00000000000E+00  0.00000000000E+00  0.21643006112E+02  0.21643006112E+02  0.00000000000E+00 0.  1.
         21   -1    0    0  502  503 -0.00000000000E+00 -0.00000000000E+00 -0.21213978916E+04  0.21213978916E+04  0.00000000000E+00 0.  1.
          6    1    1    2  501    0 -0.11702713359E+03 -0.28210177337E+02 -0.85663664539E+03  0.88218280777E+03  0.17300000000E+03 0.  1.
         -6    1    1    2    0  503  0.11702713359E+03  0.28210177337E+02 -0.12431182401E+04  0.12608580899E+04  0.17300000000E+03 0.  1.
<mgrwt>
<rscale>  2 0.21076092E+03</rscale>
<asrwt>0</asrwt>
<pdfrwt beam="1">  1       21 0.33296935E-02 0.21076092E+03</pdfrwt>
<pdfrwt beam="2">  1       21 0.32636889E+00 0.21076092E+03</pdfrwt>
<totfact> 0.12549226E+04</totfact>
</mgrwt>
</event>
<event>
 4    1  0.4451819E+000  0.2825167E+03  0.7546771E-02  0.1094322E+00
         21   -1    0    0  503  502  0.00000000000E+00  0.00000000000E+00  0.20805990646E+03  0.20805990646E+03  0.00000000000E+00 0.  1.
         21   -1    0    0  501  503 -0.00000000000E+00 -0.00000000000E+00 -0.70894239233E+03  0.70894239233E+03  0.00000000000E+00 0. -1.
          6    1    1    2  501    0 -0.19368491130E+03  0.11123328675E+03 -0.56103501547E+03  0.62815282975E+03  0.17300000000E+03 0. -1.
         -6    1    1    2    0  502  0.19368491130E+03 -0.11123328675E+03  0.60152529596E+02  0.28884946904E+03  0.17300000000E+03 0.  1.
<mgrwt>
<rscale>  2 0.28251671E+03</rscale>
<asrwt>0</asrwt>
<pdfrwt beam="1">  1       21 0.32009216E-01 0.28251671E+03</pdfrwt>
<pdfrwt beam="2">  1       21 0.10906806E+00 0.28251671E+03</pdfrwt>
<totfact> 0.59001448E+03</totfact>
</mgrwt>
</event>
<event>
 4    1  0.4451819E+000  0.2568269E+03  0.7546771E-02  0.1109065E+00
         21   -1    0    0  501  502  0.00000000000E+00  0.00000000000E+00  0.23550324224E+03  0.23550324224E+03  0.00000000000E+00 0.  1.
         21   -1    0    0  502  503 -0.00000000000E+00 -0.00000000000E+00 -0.29665277288E+03  0.29665277288E+03  0.00000000000E+00 0.  1.
          6    1    1    2  501    0  0.52508731135E+02  0.18241137526E+03 -0.93462229220E+02  0.27330434493E+03  0.17300000000E+03 0.  1.
         -6    1    1    2    0  503 -0.52508731135E+02 -0.18241137526E+03  0.32312698579E+02  0.25885167019E+03  0.17300000000E+03 0.  1.
<mgrwt>
<rscale>  2 0.25682694E+03</rscale>
<asrwt>0</asrwt>
<pdfrwt beam="1">  1       21 0.36231268E-01 0.25682694E+03</pdfrwt>
<pdfrwt beam="2">  1       21 0.45638888E-01 0.25682694E+03</pdfrwt>
<totfact> 0.32785097E+04</totfact>
</mgrwt>
</event>
<event>
 4    1  0.4451819E+000  0.1806299E+03  0.7546771E-02  0.1167195E+00
         21   -1    0    0  501  502  0.00000000000E+00  0.00000000000E+00  0.44767366042E+03  0.44767366042E+03  0.00000000000E+00 0.  1.
         21   -1    0    0  502  503 -0.00000000000E+00 -0.00000000000E+00 -0.79873867472E+02  0.79873867472E+02  0.00000000000E+00 0.  1.
          6    1    1    2  501    0  0.12311819746E+02  0.50463635492E+02  0.26194383435E+03  0.31818505899E+03  0.17300000000E+03 0. -1.
         -6    1    1    2    0  503 -0.12311819746E+02 -0.50463635492E+02  0.10585595860E+03  0.20936246890E+03  0.17300000000E+03 0. -1.
<mgrwt>
<rscale>  2 0.18062990E+03</rscale>
<asrwt>0</asrwt>
<pdfrwt beam="1">  1       21 0.68872869E-01 0.18062990E+03</pdfrwt>
<pdfrwt beam="2">  1       21 0.12288288E-01 0.18062990E+03</pdfrwt>
<totfact> 0.10848879E+05</totfact>
</mgrwt>
</event>
<event>
 4    1  0.4451819E+000  0.2118066E+03  0.7546771E-02  0.1140143E+00
         21   -1    0    0  503  502  0.00000000000E+00  0.00000000000E+00  0.43610576729E+03  0.43610576729E+03  0.00000000000E+00 0. -1.
         21   -1    0    0  501  503 -0.00000000000E+00 -0.00000000000E+00 -0.10475734699E+03  0.10475734699E+03  0.00000000000E+00 0. -1.
          6    1    1    2  501    0  0.12181607263E+03 -0.96895474648E+01  0.12937204554E+03  0.24819179891E+03  0.17300000000E+03 0. -1.
         -6    1    1    2    0  502 -0.12181607263E+03  0.96895474648E+01  0.20197637476E+03  0.29267131537E+03  0.17300000000E+03 0. -1.
<mgrwt>
<rscale>  2 0.21180662E+03</rscale>
<asrwt>0</asrwt>
<pdfrwt beam="1">  1       21 0.67093194E-01 0.21180662E+03</pdfrwt>
<pdfrwt beam="2">  1       21 0.16116515E-01 0.21180662E+03</pdfrwt>
<totfact> 0.69380409E+04</totfact>
</mgrwt>
</event>
<event>
 4    1  0.4451819E+000  0.1817581E+03  0.7546771E-02  0.1166112E+00
         21   -1    0    0  501  502  0.00000000000E+00  0.00000000000E+00  0.35044332290E+03  0.35044332290E+03  0.00000000000E+00 0. -1.
         21   -1    0    0  502  503 -0.00000000000E+00 -0.00000000000E+00 -0.12488480055E+03  0.12488480055E+03  0.00000000000E+00 0. -1.
          6    1    1    2  501    0 -0.63866454321E+01 -0.55373371174E+02  0.23045321923E+03  0.29350414942E+03  0.17300000000E+03 0. -1.
         -6    1    1    2    0  503  0.63866454321E+01  0.55373371174E+02 -0.48946968832E+01  0.18182397403E+03  0.17300000000E+03 0. -1.
<mgrwt>
<rscale>  2 0.18175808E+03</rscale>
<asrwt>0</asrwt>
<pdfrwt beam="1">  1       21 0.53914357E-01 0.18175808E+03</pdfrwt>
<pdfrwt beam="2">  1       21 0.19213046E-01 0.18175808E+03</pdfrwt>
<totfact> 0.81292449E+04</totfact>
</mgrwt>
</event>
<event>
 4    1  0.4451819E+000  0.1945929E+03  0.7546771E-02  0.1154383E+00
         21   -1    0    0  501  502  0.00000000000E+00  0.00000000000E+00  0.17929318467E+03  0.17929318467E+03  0.00000000000E+00 0.  1.
         21   -1    0    0  502  503 -0.00000000000E+00 -0.00000000000E+00 -0.35660047673E+03  0.35660047673E+03  0.00000000000E+00 0.  1.
          6    1    1    2  501    0 -0.42545671287E+02  0.78276783796E+02  0.82443727127E+02  0.21133707003E+03  0.17300000000E+03 0.  1.
         -6    1    1    2    0  503  0.42545671287E+02 -0.78276783796E+02 -0.25975101919E+03  0.32455659137E+03  0.17300000000E+03 0.  1.
<mgrwt>
<rscale>  2 0.19459288E+03</rscale>
<asrwt>0</asrwt>
<pdfrwt beam="1">  1       21 0.27583567E-01 0.19459288E+03</pdfrwt>
<pdfrwt beam="2">  1       21 0.54861611E-01 0.19459288E+03</pdfrwt>
<totfact> 0.39290417E+04</totfact>
</mgrwt>
</event>
<event>
 4    1  0.4451819E+000  0.2031909E+03  0.7546771E-02  0.1147074E+00
         21   -1    0    0  503  502  0.00000000000E+00  0.00000000000E+00  0.47854454228E+03  0.47854454228E+03  0.00000000000E+00 0.  1.
         21   -1    0    0  501  503 -0.00000000000E+00 -0.00000000000E+00 -0.88100244598E+02  0.88100244598E+02  0.00000000000E+00 0.  1.
          6    1    1    2  501    0  0.97794086341E+02 -0.42354180560E+02  0.15444464177E+03  0.25522481718E+03  0.17300000000E+03 0.  1.
         -6    1    1    2    0  502 -0.97794086341E+02  0.42354180560E+02  0.23599965592E+03  0.31141996970E+03  0.17300000000E+03 0.  1.
<mgrwt>
<rscale>  2 0.20319094E+03</rscale>
<asrwt>0</asrwt>
<pdfrwt beam="1">  1       21 0.73622236E-01 0.20319094E+03</pdfrwt>
<pdfrwt beam="2">  1       21 0.13553884E-01 0.20319094E+03</pdfrwt>
<totfact> 0.77756595E+04</totfact>
</mgrwt>
</event>
<event>
 4    1  0.4451819E+000  0.1765314E+03  0.7546771E-02  0.1171203E+00
         21   -1    0    0  503  502  0.00000000000E+00  0.00000000000E+00  0.21462645379E+03  0.21462645379E+03  0.00000000000E+00 0.  1.
         21   -1    0    0  501  503 -0.00000000000E+00 -0.00000000000E+00 -0.46646707351E+03  0.46646707351E+03  0.00000000000E+00 0.  1.
          6    1    1    2  501    0  0.29670340338E+02 -0.18814984523E+02 -0.40853889516E+03  0.44504759476E+03  0.17300000000E+03 0.  1.
         -6    1    1    2    0  502 -0.29670340338E+02  0.18814984523E+02  0.15669827545E+03  0.23604593254E+03  0.17300000000E+03 0.  1.
<mgrwt>
<rscale>  2 0.17653139E+03</rscale>
<asrwt>0</asrwt>
<pdfrwt beam="1">  1       21 0.33019454E-01 0.17653139E+03</pdfrwt>
<pdfrwt beam="2">  1       21 0.71764165E-01 0.17653139E+03</pdfrwt>
<totfact> 0.15646779E+04</totfact>
</mgrwt>
</event>
<event>
 4    1  0.4451819E+000  0.1782325E+03  0.7546771E-02  0.1169525E+00
         21   -1    0    0  503  502  0.00000000000E+00  0.00000000000E+00  0.28123550197E+03  0.28123550197E+03  0.00000000000E+00 0. -1.
         21   -1    0    0  501  503 -0.00000000000E+00 -0.00000000000E+00 -0.12183346478E+03  0.12183346478E+03  0.00000000000E+00 0. -1.
          6    1    1    2  501    0 -0.78177426086E+01 -0.42150979576E+02  0.25295036382E+02  0.18001850195E+03  0.17300000000E+03 0. -1.
         -6    1    1    2    0  502  0.78177426086E+01  0.42150979576E+02  0.13410700081E+03  0.22305046479E+03  0.17300000000E+03 0. -1.
<mgrwt>
<rscale>  2 0.17823249E+03</rscale>
<asrwt>0</asrwt>
<pdfrwt beam="1">  1       21 0.43267000E-01 0.17823249E+03</pdfrwt>
<pdfrwt beam="2">  1       21 0.18743610E-01 0.17823249E+03</pdfrwt>
<totfact> 0.13442271E+05</totfact>
</mgrwt>
</event>
<event>
 4    1  0.4451819E+000  0.1832761E+03  0.7546771E-02  0.1164670E+00
         21   -1    0    0  501  502  0.00000000000E+00  0.00000000000E+00  0.36712184761E+03  0.36712184761E+03  0.00000000000E+00 0.  1.
         21   -1    0    0  502  503 -0.00000000000E+00 -0.00000000000E+00 -0.24198288045E+03  0.24198288045E+03  0.00000000000E+00 0.  1.
          6    1    1    2  501    0 -0.55714076148E+02  0.23601979064E+02  0.30273975252E+03  0.35389471521E+03  0.17300000000E+03 0.  1.
         -6    1    1    2    0  503  0.55714076148E+02 -0.23601979064E+02 -0.17760078536E+03  0.25521001285E+03  0.17300000000E+03 0.  1.
<mgrwt>
<rscale>  2 0.18327605E+03</rscale>
<asrwt>0</asrwt>
<pdfrwt beam="1">  1       21 0.56480284E-01 0.18327605E+03</pdfrwt>
<pdfrwt beam="2">  1       21 0.37228136E-01 0.18327605E+03</pdfrwt>
<totfact> 0.20631131E+04</totfact>
</mgrwt>
</event>
<event>
 4    1  0.4451819E+000  0.1931866E+03  0.7546771E-02  0.1155618E+00
         21   -1    0    0  503  502  0.00000000000E+00  0.00000000000E+00  0.22539296513E+02  0.22539296513E+02  0.00000000000E+00 0.  1.
         21   -1    0    0  501  503 -0.00000000000E+00 -0.00000000000E+00 -0.21562014705E+04  0.21562014705E+04  0.00000000000E+00 0. -1.
          6    1    1    2  501    0  0.31588568964E+02  0.79963855885E+02 -0.15916153139E+04  0.16032967172E+04  0.17300000000E+03 0. -1.
         -6    1    1    2    0  502 -0.31588568964E+02 -0.79963855885E+02 -0.54204686009E+03  0.57544404982E+03  0.17300000000E+03 0.  1.
<mgrwt>
<rscale>  2 0.19318658E+03</rscale>
<asrwt>0</asrwt>
<pdfrwt beam="1">  1       21 0.34675862E-02 0.19318658E+03</pdfrwt>
<pdfrwt beam="2">  1       21 0.33172310E+00 0.19318658E+03</pdfrwt>
<totfact> 0.11124995E+04</totfact>
</mgrwt>
</event>
<event>
 4    1  0.4451819E+000  0.1994144E+03  0.7546771E-02  0.1150234E+00
         21   -1    0    0  501  502  0.00000000000E+00  0.00000000000E+00  0.17868040174E+03  0.17868040174E+03  0.00000000000E+00 0. -1.
         21   -1    0    0  502  503 -0.00000000000E+00 -0.00000000000E+00 -0.22438858252E+03  0.22438858252E+03  0.00000000000E+00 0.  1.
          6    1    1    2  501    0  0.67333740759E+02 -0.72823666243E+02 -0.46334327339E+01  0.19946826241E+03  0.17300000000E+03 0.  1.
         -6    1    1    2    0  503 -0.67333740759E+02  0.72823666243E+02 -0.41074748050E+02  0.20360072185E+03  0.17300000000E+03 0.  1.
<mgrwt>
<rscale>  2 0.19941444E+03</rscale>
<asrwt>0</asrwt>
<pdfrwt beam="1">  1       21 0.27489293E-01 0.19941444E+03</pdfrwt>
<pdfrwt beam="2">  1       21 0.34521320E-01 0.19941444E+03</pdfrwt>
<totfact> 0.10182310E+05</totfact>
</mgrwt>
</event>
<event>
 4    1  0.4451819E+000  0.2721800E+03  0.7546771E-02  0.1100038E+00
         21   -1    0    0  503  502  0.00000000000E+00  0.00000000000E+00  0.17922804603E+03  0.17922804603E+03  0.00000000000E+00 0. -1.
         21   -1    0    0  501  503 -0.00000000000E+00 -0.00000000000E+00 -0.43085832254E+03  0.43085832254E+03  0.00000000000E+00 0.  1.
          6    1    1    2  501    0  0.73502812172E+02 -0.19685092080E+03 -0.18732606153E+03  0.33041338010E+03  0.17300000000E+03 0.  1.
         -6    1    1    2    0  502 -0.73502812172E+02  0.19685092080E+03 -0.64304214983E+02  0.27967298847E+03  0.17300000000E+03 0. -1.
<mgrwt>
<rscale>  2 0.27217999E+03</rscale>
<asrwt>0</asrwt>
<pdfrwt beam="1">  1       21 0.27573546E-01 0.27217999E+03</pdfrwt>
<pdfrwt beam="2">  1       21 0.66285895E-01 0.27217999E+03</pdfrwt>
<totfact> 0.25188965E+04</totfact>
</mgrwt>
</event>
<event>
 4    1  0.4451819E+000  0.1940129E+03  0.7546771E-02  0.1154891E+00
         21   -1    0    0  503  502  0.00000000000E+00  0.00000000000E+00  0.16474574657E+04  0.16474574657E+04  0.00000000000E+00 0. -1.
         21   -1    0    0  501  503 -0.00000000000E+00 -0.00000000000E+00 -0.26439036003E+02  0.26439036003E+02  0.00000000000E+00 0. -1.
          6    1    1    2  501    0 -0.27557273566E+02 -0.83382242736E+02  0.50205579857E+03  0.53823881931E+03  0.17300000000E+03 0. -1.
         -6    1    1    2    0  502  0.27557273566E+02  0.83382242736E+02  0.11189626311E+04  0.11356576824E+04  0.17300000000E+03 0. -1.
<mgrwt>
<rscale>  2 0.19401289E+03</rscale>
<asrwt>0</asrwt>
<pdfrwt beam="1">  1       21 0.25345491E+00 0.19401289E+03</pdfrwt>
<pdfrwt beam="2">  1       21 0.40675453E-02 0.19401289E+03</pdfrwt>
<totfact> 0.24149416E+04</totfact>
</mgrwt>
</event>
<event>
 4    1  0.4451819E+000  0.2280671E+03  0.7546771E-02  0.1128008E+00
         21   -1    0    0  503  502  0.00000000000E+00  0.00000000000E+00  0.13413691747E+03  0.13413691747E+03  0.00000000000E+00 0.  1.
         21   -1    0    0  501  503 -0.00000000000E+00 -0.00000000000E+00 -0.57419663618E+03  0.57419663618E+03  0.00000000000E+00 0.  1.
          6    1    1    2  501    0 -0.21886579478E+02 -0.14699169174E+03 -0.42183341325E+03  0.47953937099E+03  0.17300000000E+03 0.  1.
         -6    1    1    2    0  502  0.21886579478E+02  0.14699169174E+03 -0.18226305464E+02  0.22879418265E+03  0.17300000000E+03 0.  1.
<mgrwt>
<rscale>  2 0.22806705E+03</rscale>
<asrwt>0</asrwt>
<pdfrwt beam="1">  1       21 0.20636449E-01 0.22806705E+03</pdfrwt>
<pdfrwt beam="2">  1       21 0.88337944E-01 0.22806705E+03</pdfrwt>
<totfact> 0.23401927E+04</totfact>
</mgrwt>
</event>
<event>
 4    1  0.4451819E+000  0.3664516E+03  0.7546771E-02  0.1056058E+00
         21   -1    0    0  501  502  0.00000000000E+00  0.00000000000E+00  0.25505385733E+03  0.25505385733E+03  0.00000000000E+00 0. -1.
         21   -1    0    0  502  503 -0.00000000000E+00 -0.00000000000E+00 -0.52685834899E+03  0.52685834899E+03  0.00000000000E+00 0.  1.
          6    1    1    2  501    0 -0.30773114226E+03  0.98281814072E+02 -0.12575731041E+03  0.38742957039E+03  0.17300000000E+03 0.  1.
         -6    1    1    2    0  503  0.30773114226E+03 -0.98281814072E+02 -0.14604718125E+03  0.39448263592E+03  0.17300000000E+03 0. -1.
<mgrwt>
<rscale>  2 0.36645159E+03</rscale>
<asrwt>0</asrwt>
<pdfrwt beam="1">  1       21 0.39239055E-01 0.36645159E+03</pdfrwt>
<pdfrwt beam="2">  1       21 0.81055130E-01 0.36645159E+03</pdfrwt>
<totfact> 0.76274502E+03</totfact>
</mgrwt>
</event>
<event>
 4    1  0.4451819E+000  0.1778054E+03  0.7546771E-02  0.1169944E+00
         21   -1    0    0  501  502  0.00000000000E+00  0.00000000000E+00  0.11152901524E+04  0.11152901524E+04  0.00000000000E+00 0.  1.
         21   -1    0    0  502  503 -0.00000000000E+00 -0.00000000000E+00 -0.60835647468E+02  0.60835647468E+02  0.00000000000E+00 0.  1.
          6    1    1    2  501    0 -0.40389945129E+02 -0.73763616520E+01  0.95697415635E+03  0.97335209164E+03  0.17300000000E+03 0.  1.
         -6    1    1    2    0  503  0.40389945129E+02  0.73763616520E+01  0.97480348536E+02  0.20277370818E+03  0.17300000000E+03 0.  1.
<mgrwt>
<rscale>  2 0.17780539E+03</rscale>
<asrwt>0</asrwt>
<pdfrwt beam="1">  1       21 0.17158309E+00 0.17780539E+03</pdfrwt>
<pdfrwt beam="2">  1       21 0.93593312E-02 0.17780539E+03</pdfrwt>
<totfact> 0.19172347E+04</totfact>
</mgrwt>
</event>
<event>
 4    1  0.4451819E+000  0.2920191E+03  0.7546771E-02  0.1089300E+00
         21   -1    0    0  503  502  0.00000000000E+00  0.00000000000E+00  0.69013381682E+02  0.69013381682E+02  0.00000000000E+00 0. -1.
         21   -1    0    0  501  503 -0.00000000000E+00 -0.00000000000E+00 -0.12761942573E+04  0.12761942573E+04  0.00000000000E+00 0. -1.
          6    1    1    2  501    0 -0.64511786773E+02 -0.22623968111E+03 -0.48367907009E+03  0.56499611219E+03  0.17300000000E+03 0. -1.
         -6    1    1    2    0  502  0.64511786773E+02  0.22623968111E+03 -0.72350180549E+03  0.78021152676E+03  0.17300000000E+03 0. -1.
<mgrwt>
<rscale>  2 0.29201912E+03</rscale>
<asrwt>0</asrwt>
<pdfrwt beam="1">  1       21 0.10617444E-01 0.29201912E+03</pdfrwt>
<pdfrwt beam="2">  1       21 0.19633757E+00 0.29201912E+03</pdfrwt>
<totfact> 0.96596993E+03</totfact>
</mgrwt>
</event>
<event>
 4    1  0.4451819E+000  0.1834309E+03  0.7546771E-02  0.1164523E+00
         21   -1    0    0  501  502  0.00000000000E+00  0.00000000000E+00  0.29636165309E+03  0.29636165309E+03  0.00000000000E+00 0.  1.
         21   -1    0    0  502  503 -0.00000000000E+00 -0.00000000000E+00 -0.37510498916E+03  0.37510498916E+03  0.00000000000E+00 0.  1.
          6    1    1    2  501    0 -0.27002713710E+02 -0.54669538623E+02  0.24098663776E+03  0.30285551767E+03  0.17300000000E+03 0.  1.
         -6    1    1    2    0  503  0.27002713710E+02  0.54669538623E+02 -0.31972997383E+03  0.36861112458E+03  0.17300000000E+03 0.  1.
<mgrwt>
<rscale>  2 0.18343093E+03</rscale>
<asrwt>0</asrwt>
<pdfrwt beam="1">  1       21 0.45594101E-01 0.18343093E+03</pdfrwt>
<pdfrwt beam="2">  1       21 0.57708459E-01 0.18343093E+03</pdfrwt>
<totfact> 0.13069401E+04</totfact>
</mgrwt>
</event>
<event>
 4    1  0.4451819E+000  0.2249596E+03  0.7546771E-02  0.1130239E+00
         21   -1    0    0  501  502  0.00000000000E+00  0.00000000000E+00  0.17998026266E+03  0.17998026266E+03  0.00000000000E+00 0. -1.
         21   -1    0    0  502  503 -0.00000000000E+00 -0.00000000000E+00 -0.33716033158E+03  0.33716033158E+03  0.00000000000E+00 0.  1.
          6    1    1    2  501    0  0.44935932063E+02 -0.13659650010E+03  0.26770584474E+02  0.22654691793E+03  0.17300000000E+03 0. -1.
         -6    1    1    2    0  503 -0.44935932063E+02  0.13659650010E+03 -0.18395065339E+03  0.29059367631E+03  0.17300000000E+03 0.  1.
<mgrwt>
<rscale>  2 0.22495964E+03</rscale>
<asrwt>0</asrwt>
<pdfrwt beam="1">  1       21 0.27689271E-01 0.22495964E+03</pdfrwt>
<pdfrwt beam="2">  1       21 0.51870820E-01 0.22495964E+03</pdfrwt>
<totfact> 0.43244349E+04</totfact>
</mgrwt>
</event>
<event>
 4    1  0.4451819E+000  0.1870802E+03  0.7546771E-02  0.1161121E+00
         21   -1    0    0  501  502  0.00000000000E+00  0.00000000000E+00  0.22976214936E+03  0.22976214936E+03  0.00000000000E+00 0. -1.
         21   -1    0    0  502  503 -0.00000000000E+00 -0.00000000000E+00 -0.22175285067E+03  0.22175285067E+03  0.00000000000E+00 0. -1.
          6    1    1    2  501    0 -0.63160467596E+02  0.32874964031E+02  0.13032339124E+03  0.22799823295E+03  0.17300000000E+03 0. -1.
         -6    1    1    2    0  503  0.63160467596E+02 -0.32874964031E+02 -0.12231409255E+03  0.22351676707E+03  0.17300000000E+03 0. -1.
<mgrwt>
<rscale>  2 0.18708022E+03</rscale>
<asrwt>0</asrwt>
<pdfrwt beam="1">  1       21 0.35348023E-01 0.18708022E+03</pdfrwt>
<pdfrwt beam="2">  1       21 0.34115823E-01 0.18708022E+03</pdfrwt>
<totfact> 0.64035413E+04</totfact>
</mgrwt>
</event>
<event>
 4    1  0.4451819E+000  0.2292510E+03  0.7546771E-02  0.1127168E+00
         21   -1    0    0  501  502  0.00000000000E+00  0.00000000000E+00  0.27363492832E+03  0.27363492832E+03  0.00000000000E+00 0.  1.
         21   -1    0    0  502  503 -0.00000000000E+00 -0.00000000000E+00 -0.27100229005E+03  0.27100229005E+03  0.00000000000E+00 0. -1.
          6    1    1    2  501    0  0.14882248459E+03 -0.21883956685E+02  0.14828623926E+03  0.27302902453E+03  0.17300000000E+03 0.  1.
         -6    1    1    2    0  503 -0.14882248459E+03  0.21883956685E+02 -0.14565360099E+03  0.27160819384E+03  0.17300000000E+03 0. -1.
<mgrwt>
<rscale>  2 0.22925104E+03</rscale>
<asrwt>0</asrwt>
<pdfrwt beam="1">  1       21 0.42097681E-01 0.22925104E+03</pdfrwt>
<pdfrwt beam="2">  1       21 0.41692660E-01 0.22925104E+03</pdfrwt>
<totfact> 0.29503279E+04</totfact>
</mgrwt>
</event>
<event>
 4    1  0.4451819E+000  0.2929320E+03  0.7546771E-02  0.1088828E+00
         21   -1    0    0  503  502  0.00000000000E+00  0.00000000000E+00  0.14009158010E+04  0.14009158010E+04  0.00000000000E+00 0.  1.
         21   -1    0    0  501  503 -0.00000000000E+00 -0.00000000000E+00 -0.22705583152E+03  0.22705583152E+03  0.00000000000E+00 0. -1.
          6    1    1    2  501    0 -0.23557295825E+03  0.19634967354E+02 -0.10865075643E+03  0.31243261270E+03  0.17300000000E+03 0. -1.
         -6    1    1    2    0  502  0.23557295825E+03 -0.19634967354E+02  0.12825107260E+04  0.13155390199E+04  0.17300000000E+03 0.  1.
<mgrwt>
<rscale>  2 0.29293199E+03</rscale>
<asrwt>0</asrwt>
<pdfrwt beam="1">  1       21 0.21552550E+00 0.29293199E+03</pdfrwt>
<pdfrwt beam="2">  1       21 0.34931667E-01 0.29293199E+03</pdfrwt>
<totfact> 0.76887226E+02</totfact>
</mgrwt>
</event>
<event>
 4    1  0.4451819E+000  0.2064642E+03  0.7546771E-02  0.1144397E+00
         21   -1    0    0  501  502  0.00000000000E+00  0.00000000000E+00  0.13251390654E+03  0.13251390654E+03  0.00000000000E+00 0. -1.
         21   -1    0    0  502  503 -0.00000000000E+00 -0.00000000000E+00 -0.48575627089E+03  0.48575627089E+03  0.00000000000E+00 0. -1.
          6    1    1    2  501    0 -0.10336056290E+03 -0.44889423672E+02  0.30415748011E+01  0.20648660367E+03  0.17300000000E+03 0. -1.
         -6    1    1    2    0  503  0.10336056290E+03  0.44889423672E+02 -0.35628393915E+03  0.41178357376E+03  0.17300000000E+03 0. -1.
<mgrwt>
<rscale>  2 0.20646420E+03</rscale>
<asrwt>0</asrwt>
<pdfrwt beam="1">  1       21 0.20386755E-01 0.20646420E+03</pdfrwt>
<pdfrwt beam="2">  1       21 0.74731734E-01 0.20646420E+03</pdfrwt>
<totfact> 0.35430558E+04</totfact>
</mgrwt>
</event>
<event>
 4    1  0.4451819E+000  0.2466620E+03  0.7546771E-02  0.1115433E+00
         21   -1    0    0  501  502  0.00000000000E+00  0.00000000000E+00  0.33096960938E+03  0.33096960938E+03  0.00000000000E+00 0. -1.
         21   -1    0    0  502  503 -0.00000000000E+00 -0.00000000000E+00 -0.18440397950E+03  0.18440397950E+03  0.00000000000E+00 0. -1.
          6    1    1    2  501    0  0.28752225619E+02 -0.17345452076E+03  0.58906926889E+02  0.25359847650E+03  0.17300000000E+03 0. -1.
         -6    1    1    2    0  503 -0.28752225619E+02  0.17345452076E+03  0.87658702984E+02  0.26177511237E+03  0.17300000000E+03 0. -1.
<mgrwt>
<rscale>  2 0.24666204E+03</rscale>
<asrwt>0</asrwt>
<pdfrwt beam="1">  1       21 0.50918401E-01 0.24666204E+03</pdfrwt>
<pdfrwt beam="2">  1       21 0.28369843E-01 0.24666204E+03</pdfrwt>
<totfact> 0.42489509E+04</totfact>
</mgrwt>
</event>
<event>
 4    1  0.4451819E+000  0.1949158E+03  0.7546771E-02  0.1154101E+00
         21   -1    0    0  501  502  0.00000000000E+00  0.00000000000E+00  0.30455389320E+03  0.30455389320E+03  0.00000000000E+00 0.  1.
         21   -1    0    0  502  503 -0.00000000000E+00 -0.00000000000E+00 -0.14043142240E+03  0.14043142240E+03  0.00000000000E+00 0.  1.
          6    1    1    2  501    0 -0.65186686224E+01 -0.89558124790E+02  0.15641780338E+03  0.24991734628E+03  0.17300000000E+03 0.  1.
         -6    1    1    2    0  503  0.65186686224E+01  0.89558124790E+02  0.77046674308E+01  0.19506796933E+03  0.17300000000E+03 0.  1.
<mgrwt>
<rscale>  2 0.19491575E+03</rscale>
<asrwt>0</asrwt>
<pdfrwt beam="1">  1       21 0.46854445E-01 0.19491575E+03</pdfrwt>
<pdfrwt beam="2">  1       21 0.21604834E-01 0.19491575E+03</pdfrwt>
<totfact> 0.87015017E+04</totfact>
</mgrwt>
</event>
<event>
 4    1  0.4451819E+000  0.1805931E+03  0.7546771E-02  0.1167230E+00
         21   -1    0    0  503  502  0.00000000000E+00  0.00000000000E+00  0.31937304051E+03  0.31937304051E+03  0.00000000000E+00 0. -1.
         21   -1    0    0  501  503 -0.00000000000E+00 -0.00000000000E+00 -0.10434967112E+03  0.10434967112E+03  0.00000000000E+00 0. -1.
          6    1    1    2  501    0 -0.13560516032E+01  0.51797849001E+02  0.13849192435E+03  0.22758266443E+03  0.17300000000E+03 0. -1.
         -6    1    1    2    0  502  0.13560516032E+01 -0.51797849001E+02  0.76531445035E+02  0.19614004720E+03  0.17300000000E+03 0. -1.
<mgrwt>
<rscale>  2 0.18059307E+03</rscale>
<asrwt>0</asrwt>
<pdfrwt beam="1">  1       21 0.49134313E-01 0.18059307E+03</pdfrwt>
<pdfrwt beam="2">  1       21 0.16053796E-01 0.18059307E+03</pdfrwt>
<totfact> 0.13749628E+05</totfact>
</mgrwt>
</event>
<event>
 4    1  0.4451819E+000  0.1848431E+03  0.7546771E-02  0.1163196E+00
         21   -1    0    0  501  502  0.00000000000E+00  0.00000000000E+00  0.16741693068E+03  0.16741693068E+03  0.00000000000E+00 0.  1.
         21   -1    0    0  502  503 -0.00000000000E+00 -0.00000000000E+00 -0.33620598398E+03  0.33620598398E+03  0.00000000000E+00 0. -1.
          6    1    1    2  501    0 -0.13478295400E+02 -0.63689123858E+02  0.73461716423E+02  0.19890598966E+03  0.17300000000E+03 0.  1.
         -6    1    1    2    0  503  0.13478295400E+02  0.63689123858E+02 -0.24225076972E+03  0.30471692499E+03  0.17300000000E+03 0. -1.
<mgrwt>
<rscale>  2 0.18484309E+03</rscale>
<asrwt>0</asrwt>
<pdfrwt beam="1">  1       21 0.25756451E-01 0.18484309E+03</pdfrwt>
<pdfrwt beam="2">  1       21 0.51723997E-01 0.18484309E+03</pdfrwt>
<totfact> 0.50973589E+04</totfact>
</mgrwt>
</event>
<event>
 4    1  0.4451819E+000  0.1832943E+03  0.7546771E-02  0.1164652E+00
         21   -1    0    0  501  502  0.00000000000E+00  0.00000000000E+00  0.41076918898E+02  0.41076918898E+02  0.00000000000E+00 0. -1.
         21   -1    0    0  502  503 -0.00000000000E+00 -0.00000000000E+00 -0.11157050825E+04  0.11157050825E+04  0.00000000000E+00 0. -1.
          6    1    1    2  501    0  0.59297999049E+02  0.12310499826E+02 -0.23849173857E+03  0.30079080848E+03  0.17300000000E+03 0. -1.
         -6    1    1    2    0  503 -0.59297999049E+02 -0.12310499826E+02 -0.83613642503E+03  0.85599119292E+03  0.17300000000E+03 0. -1.
<mgrwt>
<rscale>  2 0.18329430E+03</rscale>
<asrwt>0</asrwt>
<pdfrwt beam="1">  1       21 0.63195255E-02 0.18329430E+03</pdfrwt>
<pdfrwt beam="2">  1       21 0.17164695E+00 0.18329430E+03</pdfrwt>
<totfact> 0.37705959E+04</totfact>
</mgrwt>
</event>
<event>
 4    1  0.4451819E+000  0.1746665E+03  0.7546771E-02  0.1173067E+00
         21   -1    0    0  501  502  0.00000000000E+00  0.00000000000E+00  0.87651587689E+02  0.87651587689E+02  0.00000000000E+00 0.  1.
         21   -1    0    0  502  503 -0.00000000000E+00 -0.00000000000E+00 -0.47844988311E+03  0.47844988311E+03  0.00000000000E+00 0.  1.
          6    1    1    2  501    0 -0.66237371289E+01  0.23141262926E+02 -0.47637820690E+02  0.18104627559E+03  0.17300000000E+03 0.  1.
         -6    1    1    2    0  503  0.66237371289E+01 -0.23141262926E+02 -0.34316047473E+03  0.38505519522E+03  0.17300000000E+03 0.  1.
<mgrwt>
<rscale>  2 0.17466652E+03</rscale>
<asrwt>0</asrwt>
<pdfrwt beam="1">  1       21 0.13484859E-01 0.17466652E+03</pdfrwt>
<pdfrwt beam="2">  1       21 0.73607676E-01 0.17466652E+03</pdfrwt>
<totfact> 0.79484357E+04</totfact>
</mgrwt>
</event>
<event>
 4    1  0.4451819E+000  0.1808128E+03  0.7546771E-02  0.1167019E+00
         21   -1    0    0  503  502  0.00000000000E+00  0.00000000000E+00  0.13987853430E+03  0.13987853430E+03  0.00000000000E+00 0. -1.
         21   -1    0    0  501  503 -0.00000000000E+00 -0.00000000000E+00 -0.34692550618E+03  0.34692550618E+03  0.00000000000E+00 0. -1.
          6    1    1    2  501    0 -0.31891884028E+02  0.41799379307E+02 -0.24255969474E+03  0.30253675131E+03  0.17300000000E+03 0. -1.
         -6    1    1    2    0  502  0.31891884028E+02 -0.41799379307E+02  0.35512722864E+02  0.18426728918E+03  0.17300000000E+03 0. -1.
<mgrwt>
<rscale>  2 0.18081283E+03</rscale>
<asrwt>0</asrwt>
<pdfrwt beam="1">  1       21 0.21519775E-01 0.18081283E+03</pdfrwt>
<pdfrwt beam="2">  1       21 0.53373154E-01 0.18081283E+03</pdfrwt>
<totfact> 0.67214035E+04</totfact>
</mgrwt>
</event>
<event>
 4    1  0.4451819E+000  0.2220477E+03  0.7546771E-02  0.1132366E+00
         21   -1    0    0  501  502  0.00000000000E+00  0.00000000000E+00  0.41286207172E+03  0.41286207172E+03  0.00000000000E+00 0. -1.
         21   -1    0    0  502  503 -0.00000000000E+00 -0.00000000000E+00 -0.20622068485E+03  0.20622068485E+03  0.00000000000E+00 0.  1.
          6    1    1    2  501    0  0.11757244557E+03 -0.74517746681E+02  0.30414070578E+03  0.37657236150E+03  0.17300000000E+03 0. -1.
         -6    1    1    2    0  503 -0.11757244557E+03  0.74517746681E+02 -0.97499318911E+02  0.24251039507E+03  0.17300000000E+03 0.  1.
<mgrwt>
<rscale>  2 0.22204769E+03</rscale>
<asrwt>0</asrwt>
<pdfrwt beam="1">  1       21 0.63517241E-01 0.22204769E+03</pdfrwt>
<pdfrwt beam="2">  1       21 0.31726259E-01 0.22204769E+03</pdfrwt>
<totfact> 0.21522657E+04</totfact>
</mgrwt>
</event>
<event>
 4    1  0.4451819E+000  0.2098975E+03  0.7546771E-02  0.1141647E+00
         21   -1    0    0  501  502  0.00000000000E+00  0.00000000000E+00  0.10619080760E+03  0.10619080760E+03  0.00000000000E+00 0.  1.
         21   -1    0    0  502  503 -0.00000000000E+00 -0.00000000000E+00 -0.41770468686E+03  0.41770468686E+03  0.00000000000E+00 0.  1.
          6    1    1    2  501    0 -0.42217657818E+02 -0.11111098213E+03 -0.13423532748E+03  0.24915076585E+03  0.17300000000E+03 0.  1.
         -6    1    1    2    0  503  0.42217657818E+02  0.11111098213E+03 -0.17727855178E+03  0.27474472861E+03  0.17300000000E+03 0.  1.
<mgrwt>
<rscale>  2 0.20989755E+03</rscale>
<asrwt>0</asrwt>
<pdfrwt beam="1">  1       21 0.16337047E-01 0.20989755E+03</pdfrwt>
<pdfrwt beam="2">  1       21 0.64262260E-01 0.20989755E+03</pdfrwt>
<totfact> 0.74416715E+04</totfact>
</mgrwt>
</event>
<event>
 4    1  0.4451819E+000  0.1975843E+03  0.7546771E-02  0.1151793E+00
         21   -1    0    0  503  502  0.00000000000E+00  0.00000000000E+00  0.76099883429E+03  0.76099883429E+03  0.00000000000E+00 0.  1.
         21   -1    0    0  501  503 -0.00000000000E+00 -0.00000000000E+00 -0.82357194254E+02  0.82357194254E+02  0.00000000000E+00 0.  1.
          6    1    1    2  501    0 -0.85328478867E+02  0.42773748944E+02  0.80375232605E+02  0.21330663590E+03  0.17300000000E+03 0.  1.
         -6    1    1    2    0  502  0.85328478867E+02 -0.42773748944E+02  0.59826640743E+03  0.63004939264E+03  0.17300000000E+03 0.  1.
<mgrwt>
<rscale>  2 0.19758427E+03</rscale>
<asrwt>0</asrwt>
<pdfrwt beam="1">  1       21 0.11707674E+00 0.19758427E+03</pdfrwt>
<pdfrwt beam="2">  1       21 0.12670338E-01 0.19758427E+03</pdfrwt>
<totfact> 0.29787626E+04</totfact>
</mgrwt>
</event>
<event>
 4    1  0.4451819E+000  0.2091698E+03  0.7546771E-02  0.1142225E+00
         21   -1    0    0  501  502  0.00000000000E+00  0.00000000000E+00  0.44229437114E+03  0.44229437114E+03  0.00000000000E+00 0.  1.
         21   -1    0    0  502  503 -0.00000000000E+00 -0.00000000000E+00 -0.10338110182E+03  0.10338110182E+03  0.00000000000E+00 0.  1.
          6    1    1    2  501    0  0.56449482373E+02 -0.10313323018E+03  0.22612982076E+03  0.30803685342E+03  0.17300000000E+03 0.  1.
         -6    1    1    2    0  503 -0.56449482373E+02  0.10313323018E+03  0.11278344855E+03  0.23763861954E+03  0.17300000000E+03 0.  1.
<mgrwt>
<rscale>  2 0.20916980E+03</rscale>
<asrwt>0</asrwt>
<pdfrwt beam="1">  1       21 0.68045287E-01 0.20916980E+03</pdfrwt>
<pdfrwt beam="2">  1       21 0.15904785E-01 0.20916980E+03</pdfrwt>
<totfact> 0.68997540E+04</totfact>
</mgrwt>
</event>
<event>
 4    1  0.4451819E+000  0.1903212E+03  0.7546771E-02  0.1158172E+00
         21   -1    0    0  501  502  0.00000000000E+00  0.00000000000E+00  0.12406703115E+03  0.12406703115E+03  0.00000000000E+00 0. -1.
         21   -1    0    0  502  503 -0.00000000000E+00 -0.00000000000E+00 -0.38618750195E+03  0.38618750195E+03  0.00000000000E+00 0. -1.
          6    1    1    2  501    0  0.72157755337E+02  0.32961010997E+02 -0.25708467931E+03  0.31986669448E+03  0.17300000000E+03 0. -1.
         -6    1    1    2    0  503 -0.72157755337E+02 -0.32961010997E+02 -0.50357914958E+01  0.19038783863E+03  0.17300000000E+03 0. -1.
<mgrwt>
<rscale>  2 0.19032123E+03</rscale>
<asrwt>0</asrwt>
<pdfrwt beam="1">  1       21 0.19087235E-01 0.19032123E+03</pdfrwt>
<pdfrwt beam="2">  1       21 0.59413462E-01 0.19032123E+03</pdfrwt>
<totfact> 0.66713265E+04</totfact>
</mgrwt>
</event>
<event>
 4    1  0.4451819E+000  0.2300988E+03  0.7546771E-02  0.1126570E+00
         21   -1    0    0  501  502  0.00000000000E+00  0.00000000000E+00  0.15119130097E+03  0.15119130097E+03  0.00000000000E+00 0.  1.
         21   -1    0    0  502  503 -0.00000000000E+00 -0.00000000000E+00 -0.35173279638E+03  0.35173279638E+03  0.00000000000E+00 0.  1.
          6    1    1    2  501    0  0.14470647345E+03  0.45568609157E+02 -0.83608825066E+02  0.24481809008E+03  0.17300000000E+03 0.  1.
         -6    1    1    2    0  503 -0.14470647345E+03 -0.45568609157E+02 -0.11693267035E+03  0.25810600728E+03  0.17300000000E+03 0.  1.
<mgrwt>
<rscale>  2 0.23009881E+03</rscale>
<asrwt>0</asrwt>
<pdfrwt beam="1">  1       21 0.23260200E-01 0.23009881E+03</pdfrwt>
<pdfrwt beam="2">  1       21 0.54112738E-01 0.23009881E+03</pdfrwt>
<totfact> 0.55141841E+04</totfact>
</mgrwt>
</event>
<event>
 4    1  0.4451819E+000  0.1770706E+03  0.7546771E-02  0.1170669E+00
         21   -1    0    0  503  502  0.00000000000E+00  0.00000000000E+00  0.49082992804E+03  0.49082992804E+03  0.00000000000E+00 0. -1.
         21   -1    0    0  501  503 -0.00000000000E+00 -0.00000000000E+00 -0.63880862952E+02  0.63880862952E+02  0.00000000000E+00 0. -1.
          6    1    1    2  501    0 -0.37707778346E+02  0.17707662854E+01  0.21471501442E+03  0.27831016794E+03  0.17300000000E+03 0.  1.
         -6    1    1    2    0  502  0.37707778346E+02 -0.17707662854E+01  0.21223405067E+03  0.27640062305E+03  0.17300000000E+03 0.  1.
<mgrwt>
<rscale>  2 0.17707064E+03</rscale>
<asrwt>0</asrwt>
<pdfrwt beam="1">  1       21 0.75512294E-01 0.17707064E+03</pdfrwt>
<pdfrwt beam="2">  1       21 0.98278254E-02 0.17707064E+03</pdfrwt>
<totfact> 0.13175619E+05</totfact>
</mgrwt>
</event>
<event>
 4    1  0.4451819E+000  0.2024019E+03  0.7546771E-02  0.1147728E+00
         21   -1    0    0  501  502  0.00000000000E+00  0.00000000000E+00  0.13162209510E+03  0.13162209510E+03  0.00000000000E+00 0. -1.
         21   -1    0    0  502  503 -0.00000000000E+00 -0.00000000000E+00 -0.32063616269E+03  0.32063616269E+03  0.00000000000E+00 0.  1.
          6    1    1    2  501    0  0.40034238416E+02  0.97132901780E+02 -0.55804336609E+02  0.20995395885E+03  0.17300000000E+03 0. -1.
         -6    1    1    2    0  503 -0.40034238416E+02 -0.97132901780E+02 -0.13320973099E+03  0.24230429894E+03  0.17300000000E+03 0.  1.
<mgrwt>
<rscale>  2 0.20240193E+03</rscale>
<asrwt>0</asrwt>
<pdfrwt beam="1">  1       21 0.20249553E-01 0.20240193E+03</pdfrwt>
<pdfrwt beam="2">  1       21 0.49328640E-01 0.20240193E+03</pdfrwt>
<totfact> 0.88033828E+04</totfact>
</mgrwt>
</event>
<event>
 4    1  0.4451819E+000  0.1810296E+03  0.7546771E-02  0.1166810E+00
         21   -1    0    0  503  502  0.00000000000E+00  0.00000000000E+00  0.28504586681E+03  0.28504586681E+03  0.00000000000E+00 0.  1.
         21   -1    0    0  501  503 -0.00000000000E+00 -0.00000000000E+00 -0.23186004930E+03  0.23186004930E+03  0.00000000000E+00 0.  1.
          6    1    1    2  501    0 -0.24607800969E+02 -0.47298936661E+02 -0.15691604160E+03  0.23957123656E+03  0.17300000000E+03 0.  1.
         -6    1    1    2    0  502  0.24607800969E+02  0.47298936661E+02  0.21010185911E+03  0.27733467955E+03  0.17300000000E+03 0.  1.
<mgrwt>
<rscale>  2 0.18102965E+03</rscale>
<asrwt>0</asrwt>
<pdfrwt beam="1">  1       21 0.43853210E-01 0.18102965E+03</pdfrwt>
<pdfrwt beam="2">  1       21 0.35670777E-01 0.18102965E+03</pdfrwt>
<totfact> 0.38084593E+04</totfact>
</mgrwt>
</event>
<event>
 4    1  0.4451819E+000  0.1990166E+03  0.7546771E-02  0.1150571E+00
         21   -1    0    0  501  502  0.00000000000E+00  0.00000000000E+00  0.71942386761E+03  0.71942386761E+03  0.00000000000E+00 0. -1.
         21   -1    0    0  502  503 -0.00000000000E+00 -0.00000000000E+00 -0.56118605463E+02  0.56118605463E+02  0.00000000000E+00 0. -1.
          6    1    1    2  501    0 -0.86316147473E+01 -0.98000433222E+02  0.27825830616E+03  0.34210418681E+03  0.17300000000E+03 0. -1.
         -6    1    1    2    0  503  0.86316147473E+01  0.98000433222E+02  0.38504695599E+03  0.43343828626E+03  0.17300000000E+03 0. -1.
<mgrwt>
<rscale>  2 0.19901656E+03</rscale>
<asrwt>0</asrwt>
<pdfrwt beam="1">  1       21 0.11068059E+00 0.19901656E+03</pdfrwt>
<pdfrwt beam="2">  1       21 0.86336321E-02 0.19901656E+03</pdfrwt>
<totfact> 0.67387038E+04</totfact>
</mgrwt>
</event>
<event>
 4    1  0.4451819E+000  0.2858858E+03  0.7546771E-02  0.1092517E+00
         21   -1    0    0  503  502  0.00000000000E+00  0.00000000000E+00  0.10086833166E+04  0.10086833166E+04  0.00000000000E+00 0.  1.
         21   -1    0    0  501  503 -0.00000000000E+00 -0.00000000000E+00 -0.84500363466E+02  0.84500363466E+02  0.00000000000E+00 0.  1.
          6    1    1    2  501    0 -0.12202046950E+03  0.19212681330E+03  0.35127578296E+03  0.45290769816E+03  0.17300000000E+03 0. -1.
         -6    1    1    2    0  502  0.12202046950E+03 -0.19212681330E+03  0.57290717021E+03  0.64027598193E+03  0.17300000000E+03 0. -1.
<mgrwt>
<rscale>  2 0.28588583E+03</rscale>
<asrwt>0</asrwt>
<pdfrwt beam="1">  1       21 0.15518204E+00 0.28588583E+03</pdfrwt>
<pdfrwt beam="2">  1       21 0.13000057E-01 0.28588583E+03</pdfrwt>
<totfact> 0.13114270E+04</totfact>
</mgrwt>
</event>
<event>
 4    1  0.4451819E+000  0.2031452E+03  0.7546771E-02  0.1147112E+00
         21   -1    0    0  501  502  0.00000000000E+00  0.00000000000E+00  0.35967787755E+03  0.35967787755E+03  0.00000000000E+00 0. -1.
         21   -1    0    0  502  503 -0.00000000000E+00 -0.00000000000E+00 -0.14595715621E+03  0.14595715621E+03  0.00000000000E+00 0.  1.
          6    1    1    2  501    0 -0.19878272549E+02 -0.10461270096E+03  0.22378867573E+03  0.30224052393E+03  0.17300000000E+03 0. -1.
         -6    1    1    2    0  503  0.19878272549E+02  0.10461270096E+03 -0.10067954393E+02  0.20339450983E+03  0.17300000000E+03 0.  1.
<mgrwt>
<rscale>  2 0.20314518E+03</rscale>
<asrwt>0</asrwt>
<pdfrwt beam="1">  1       21 0.55335058E-01 0.20314518E+03</pdfrwt>
<pdfrwt beam="2">  1       21 0.22454947E-01 0.20314518E+03</pdfrwt>
<totfact> 0.56905087E+04</totfact>
</mgrwt>
</event>
<event>
 4    1  0.4451819E+000  0.2273152E+03  0.7546771E-02  0.1128544E+00
         21   -1    0    0  503  502  0.00000000000E+00  0.00000000000E+00  0.12311117721E+04  0.12311117721E+04  0.00000000000E+00 0.  1.
         21   -1    0    0  501  503 -0.00000000000E+00 -0.00000000000E+00 -0.42937018937E+02  0.42937018937E+02  0.00000000000E+00 0. -1.
          6    1    1    2  501    0  0.12849078722E+03  0.72341743136E+02  0.68958892915E+03  0.72608890737E+03  0.17300000000E+03 0. -1.
         -6    1    1    2    0  502 -0.12849078722E+03 -0.72341743136E+02  0.49858582399E+03  0.54795988364E+03  0.17300000000E+03 0.  1.
<mgrwt>
<rscale>  2 0.22731522E+03</rscale>
<asrwt>0</asrwt>
<pdfrwt beam="1">  1       21 0.18940178E+00 0.22731522E+03</pdfrwt>
<pdfrwt beam="2">  1       21 0.66056962E-02 0.22731522E+03</pdfrwt>
<totfact> 0.25700789E+04</totfact>
</mgrwt>
</event>
<event>
 4    1  0.4451819E+000  0.3954631E+03  0.7546771E-02  0.1045362E+00
         21   -1    0    0  503  502  0.00000000000E+00  0.00000000000E+00  0.40773120755E+03  0.40773120755E+03  0.00000000000E+00 0. -1.
         21   -1    0    0  501  503 -0.00000000000E+00 -0.00000000000E+00 -0.42324978606E+03  0.42324978606E+03  0.00000000000E+00 0.  1.
          6    1    1    2  501    0 -0.12242726442E+03 -0.33387663534E+03 -0.13498644394E+03  0.41786646521E+03  0.17300000000E+03 0.  1.
         -6    1    1    2    0  502  0.12242726442E+03  0.33387663534E+03  0.11946786544E+03  0.41311452840E+03  0.17300000000E+03 0. -1.
<mgrwt>
<rscale>  2 0.39546307E+03</rscale>
<asrwt>0</asrwt>
<pdfrwt beam="1">  1       21 0.62727878E-01 0.39546307E+03</pdfrwt>
<pdfrwt beam="2">  1       21 0.65115352E-01 0.39546307E+03</pdfrwt>
<totfact> 0.45770647E+03</totfact>
</mgrwt>
</event>
<event>
 4    1  0.4451819E+000  0.2058290E+03  0.7546771E-02  0.1144912E+00
         21   -1    0    0  501  502  0.00000000000E+00  0.00000000000E+00  0.28591135258E+03  0.28591135258E+03  0.00000000000E+00 0. -1.
         21   -1    0    0  502  503 -0.00000000000E+00 -0.00000000000E+00 -0.33099044904E+03  0.33099044904E+03  0.00000000000E+00 0. -1.
          6    1    1    2  501    0 -0.87746226846E+02 -0.68827075878E+02  0.20669604432E+03  0.29169988248E+03  0.17300000000E+03 0. -1.
         -6    1    1    2    0  503  0.87746226846E+02  0.68827075878E+02 -0.25177514079E+03  0.32520191915E+03  0.17300000000E+03 0. -1.
<mgrwt>
<rscale>  2 0.20582897E+03</rscale>
<asrwt>0</asrwt>
<pdfrwt beam="1">  1       21 0.43986362E-01 0.20582897E+03</pdfrwt>
<pdfrwt beam="2">  1       21 0.50921608E-01 0.20582897E+03</pdfrwt>
<totfact> 0.18065675E+04</totfact>
</mgrwt>
</event>
<event>
 4    1  0.4451819E+000  0.3347295E+03  0.7546771E-02  0.1069063E+00
         21   -1    0    0  501  502  0.00000000000E+00  0.00000000000E+00  0.15109617514E+03  0.15109617514E+03  0.00000000000E+00 0.  1.
         21   -1    0    0  502  503 -0.00000000000E+00 -0.00000000000E+00 -0.82002171676E+03  0.82002171676E+03  0.00000000000E+00 0. -1.
          6    1    1    2  501    0 -0.21924345054E+03  0.18451871909E+03 -0.18424763232E+03  0.38208773641E+03  0.17300000000E+03 0.  1.
         -6    1    1    2    0  503  0.21924345054E+03 -0.18451871909E+03 -0.48467790930E+03  0.58903015548E+03  0.17300000000E+03 0. -1.
<mgrwt>
<rscale>  2 0.33472952E+03</rscale>
<asrwt>0</asrwt>
<pdfrwt beam="1">  1       21 0.23245565E-01 0.33472952E+03</pdfrwt>
<pdfrwt beam="2">  1       21 0.12615719E+00 0.33472952E+03</pdfrwt>
<totfact> 0.74626676E+03</totfact>
</mgrwt>
</event>
<event>
 4    1  0.4451819E+000  0.2004457E+03  0.7546771E-02  0.1149364E+00
         21   -1    0    0  503  502  0.00000000000E+00  0.00000000000E+00  0.11220005018E+03  0.11220005018E+03  0.00000000000E+00 0.  1.
         21   -1    0    0  501  503 -0.00000000000E+00 -0.00000000000E+00 -0.40460661809E+03  0.40460661809E+03  0.00000000000E+00 0.  1.
          6    1    1    2  501    0 -0.10096234298E+03 -0.74888407982E+01 -0.23381334934E+03  0.30797266074E+03  0.17300000000E+03 0.  1.
         -6    1    1    2    0  502  0.10096234298E+03  0.74888407982E+01 -0.58593218574E+02  0.20883400753E+03  0.17300000000E+03 0.  1.
<mgrwt>
<rscale>  2 0.20044570E+03</rscale>
<asrwt>0</asrwt>
<pdfrwt beam="1">  1       21 0.17261546E-01 0.20044570E+03</pdfrwt>
<pdfrwt beam="2">  1       21 0.62247174E-01 0.20044570E+03</pdfrwt>
<totfact> 0.72359755E+04</totfact>
</mgrwt>
</event>
<event>
 4    1  0.4451819E+000  0.1968710E+03  0.7546771E-02  0.1152406E+00
         21   -1    0    0  503  502  0.00000000000E+00  0.00000000000E+00  0.13608160135E+03  0.13608160135E+03  0.00000000000E+00 0. -1.
         21   -1    0    0  501  503 -0.00000000000E+00 -0.00000000000E+00 -0.91830072766E+03  0.91830072766E+03  0.00000000000E+00 0. -1.
          6    1    1    2  501    0  0.79206889675E+02  0.50551725915E+02 -0.82897811627E+03  0.85203458006E+03  0.17300000000E+03 0. -1.
         -6    1    1    2    0  502 -0.79206889675E+02 -0.50551725915E+02  0.46758989958E+02  0.20234774895E+03  0.17300000000E+03 0. -1.
<mgrwt>
<rscale>  2 0.19687105E+03</rscale>
<asrwt>0</asrwt>
<pdfrwt beam="1">  1       21 0.20935632E-01 0.19687105E+03</pdfrwt>
<pdfrwt beam="2">  1       21 0.14127703E+00 0.19687105E+03</pdfrwt>
<totfact> 0.73818373E+03</totfact>
</mgrwt>
</event>
<event>
 4    1  0.4451819E+000  0.2026774E+03  0.7546771E-02  0.1147500E+00
         21   -1    0    0  503  502  0.00000000000E+00  0.00000000000E+00  0.38586460581E+02  0.38586460581E+02  0.00000000000E+00 0. -1.
         21   -1    0    0  501  503 -0.00000000000E+00 -0.00000000000E+00 -0.10990368865E+04  0.10990368865E+04  0.00000000000E+00 0. -1.
          6    1    1    2  501    0  0.55934308669E+02 -0.89557195393E+02 -0.63095059763E+03  0.66270415329E+03  0.17300000000E+03 0. -1.
         -6    1    1    2    0  502 -0.55934308669E+02  0.89557195393E+02 -0.42949982826E+03  0.47491919377E+03  0.17300000000E+03 0. -1.
<mgrwt>
<rscale>  2 0.20267742E+03</rscale>
<asrwt>0</asrwt>
<pdfrwt beam="1">  1       21 0.59363803E-02 0.20267742E+03</pdfrwt>
<pdfrwt beam="2">  1       21 0.16908255E+00 0.20267742E+03</pdfrwt>
<totfact> 0.43223565E+04</totfact>
</mgrwt>
</event>
<event>
 4    1  0.4451819E+000  0.1827346E+03  0.7546771E-02  0.1165182E+00
         21   -1    0    0  501  502  0.00000000000E+00  0.00000000000E+00  0.60537588664E+03  0.60537588664E+03  0.00000000000E+00 0.  1.
         21   -1    0    0  502  503 -0.00000000000E+00 -0.00000000000E+00 -0.93030559781E+02  0.93030559781E+02  0.00000000000E+00 0.  1.
          6    1    1    2  501    0  0.46350781613E+02 -0.36256397450E+02  0.47897620565E+03  0.51265010181E+03  0.17300000000E+03 0.  1.
         -6    1    1    2    0  503 -0.46350781613E+02  0.36256397450E+02  0.33369121212E+02  0.18575634461E+03  0.17300000000E+03 0.  1.
<mgrwt>
<rscale>  2 0.18273457E+03</rscale>
<asrwt>0</asrwt>
<pdfrwt beam="1">  1       21 0.93134750E-01 0.18273457E+03</pdfrwt>
<pdfrwt beam="2">  1       21 0.14312394E-01 0.18273457E+03</pdfrwt>
<totfact> 0.41662817E+04</totfact>
</mgrwt>
</event>
<event>
 4    1  0.4451819E+000  0.2325506E+03  0.7546771E-02  0.1124857E+00
         21   -1    0    0  503  502  0.00000000000E+00  0.00000000000E+00  0.56823567391E+03  0.56823567391E+03  0.00000000000E+00 0. -1.
         21   -1    0    0  501  503 -0.00000000000E+00 -0.00000000000E+00 -0.14049533618E+03  0.14049533618E+03  0.00000000000E+00 0. -1.
          6    1    1    2  501    0 -0.13741383387E+03 -0.72582478181E+02  0.12597709945E+02  0.23289156312E+03  0.17300000000E+03 0. -1.
         -6    1    1    2    0  502  0.13741383387E+03  0.72582478181E+02  0.41514262779E+03  0.47583944697E+03  0.17300000000E+03 0. -1.
<mgrwt>
<rscale>  2 0.23255059E+03</rscale>
<asrwt>0</asrwt>
<pdfrwt beam="1">  1       21 0.87420872E-01 0.23255059E+03</pdfrwt>
<pdfrwt beam="2">  1       21 0.21614667E-01 0.23255059E+03</pdfrwt>
<totfact> 0.21917665E+04</totfact>
</mgrwt>
</event>
<event>
 4    1  0.4451819E+000  0.2009286E+03  0.7546771E-02  0.1148958E+00
         21   -1    0    0  501  502  0.00000000000E+00  0.00000000000E+00  0.44133434405E+03  0.44133434405E+03  0.00000000000E+00 0. -1.
         21   -1    0    0  502  503 -0.00000000000E+00 -0.00000000000E+00 -0.12124626797E+03  0.12124626797E+03  0.00000000000E+00 0. -1.
          6    1    1    2  501    0  0.60054041053E+02  0.82684948776E+02  0.29942354416E+03  0.36059221761E+03  0.17300000000E+03 0. -1.
         -6    1    1    2    0  503 -0.60054041053E+02 -0.82684948776E+02  0.20664531919E+02  0.20198839442E+03  0.17300000000E+03 0. -1.
<mgrwt>
<rscale>  2 0.20092857E+03</rscale>
<asrwt>0</asrwt>
<pdfrwt beam="1">  1       21 0.67897591E-01 0.20092857E+03</pdfrwt>
<pdfrwt beam="2">  1       21 0.18653272E-01 0.20092857E+03</pdfrwt>
<totfact> 0.51864940E+04</totfact>
</mgrwt>
</event>
<event>
 4    1  0.4451819E+000  0.1826424E+03  0.7546771E-02  0.1165270E+00
         21   -1    0    0  503  502  0.00000000000E+00  0.00000000000E+00  0.34883462966E+03  0.34883462966E+03  0.00000000000E+00 0. -1.
         21   -1    0    0  501  503 -0.00000000000E+00 -0.00000000000E+00 -0.11629427536E+03  0.11629427536E+03  0.00000000000E+00 0. -1.
          6    1    1    2  501    0 -0.56852203592E+02 -0.14038233659E+02  0.18231222517E+02  0.18355005457E+03  0.17300000000E+03 0.  1.
         -6    1    1    2    0  502  0.56852203592E+02  0.14038233659E+02  0.21430913178E+03  0.28157885045E+03  0.17300000000E+03 0.  1.
<mgrwt>
<rscale>  2 0.18264240E+03</rscale>
<asrwt>0</asrwt>
<pdfrwt beam="1">  1       21 0.53666866E-01 0.18264240E+03</pdfrwt>
<pdfrwt beam="2">  1       21 0.17891427E-01 0.18264240E+03</pdfrwt>
<totfact> 0.93629746E+04</totfact>
</mgrwt>
</event>
<event>
 4    1  0.4451819E+000  0.2167420E+03  0.7546771E-02  0.1136336E+00
         21   -1    0    0  503  502  0.00000000000E+00  0.00000000000E+00  0.17194040811E+04  0.17194040811E+04  0.00000000000E+00 0. -1.
         21   -1    0    0  501  503 -0.00000000000E+00 -0.00000000000E+00 -0.61990434175E+02  0.61990434175E+02  0.00000000000E+00 0.  1.
          6    1    1    2  501    0  0.72791487114E+02  0.10839516094E+03  0.16261129665E+03  0.27096041281E+03  0.17300000000E+03 0.  1.
         -6    1    1    2    0  502 -0.72791487114E+02 -0.10839516094E+03  0.14948023503E+04  0.15104341025E+04  0.17300000000E+03 0. -1.
<mgrwt>
<rscale>  2 0.21674204E+03</rscale>
<asrwt>0</asrwt>
<pdfrwt beam="1">  1       21 0.26452367E+00 0.21674204E+03</pdfrwt>
<pdfrwt beam="2">  1       21 0.95369912E-02 0.21674204E+03</pdfrwt>
<totfact> 0.47066590E+03</totfact>
</mgrwt>
</event>
<event>
 4    1  0.4451819E+000  0.3919114E+03  0.7546771E-02  0.1046617E+00
         21   -1    0    0  503  502  0.00000000000E+00  0.00000000000E+00  0.28551887897E+03  0.28551887897E+03  0.00000000000E+00 0. -1.
         21   -1    0    0  501  503 -0.00000000000E+00 -0.00000000000E+00 -0.62735258502E+03  0.62735258502E+03  0.00000000000E+00 0.  1.
          6    1    1    2  501    0  0.32593550934E+03  0.13202872695E+03 -0.34322337646E+03  0.52095760589E+03  0.17300000000E+03 0.  1.
         -6    1    1    2    0  502 -0.32593550934E+03 -0.13202872695E+03  0.13896704090E+01  0.39191385810E+03  0.17300000000E+03 0. -1.
<mgrwt>
<rscale>  2 0.39191139E+03</rscale>
<asrwt>0</asrwt>
<pdfrwt beam="1">  1       21 0.43925982E-01 0.39191139E+03</pdfrwt>
<pdfrwt beam="2">  1       21 0.96515781E-01 0.39191139E+03</pdfrwt>
<totfact> 0.39697247E+03</totfact>
</mgrwt>
</event>
<event>
 4    1  0.4451819E+000  0.2836151E+03  0.7546771E-02  0.1093731E+00
         21   -1    0    0  501  502  0.00000000000E+00  0.00000000000E+00  0.40637959106E+03  0.40637959106E+03  0.00000000000E+00 0.  1.
         21   -1    0    0  502  503 -0.00000000000E+00 -0.00000000000E+00 -0.45973389734E+03  0.45973389734E+03  0.00000000000E+00 0. -1.
          6    1    1    2  501    0  0.20934765025E+03 -0.81743877554E+02  0.30011672106E+03  0.41292559431E+03  0.17300000000E+03 0.  1.
         -6    1    1    2    0  503 -0.20934765025E+03  0.81743877554E+02 -0.35347102733E+03  0.45318789409E+03  0.17300000000E+03 0. -1.
<mgrwt>
<rscale>  2 0.28361506E+03</rscale>
<asrwt>0</asrwt>
<pdfrwt beam="1">  1       21 0.62519937E-01 0.28361506E+03</pdfrwt>
<pdfrwt beam="2">  1       21 0.70728292E-01 0.28361506E+03</pdfrwt>
<totfact> 0.40380761E+03</totfact>
</mgrwt>
</event>
<event>
 4    1  0.4451819E+000  0.2046937E+03  0.7546771E-02  0.1145838E+00
         21   -1    0    0  503  502  0.00000000000E+00  0.00000000000E+00  0.46252540595E+03  0.46252540595E+03  0.00000000000E+00 0.  1.
         21   -1    0    0  501  503 -0.00000000000E+00 -0.00000000000E+00 -0.11449386379E+03  0.11449386379E+03  0.00000000000E+00 0. -1.
          6    1    1    2  501    0 -0.12506287809E+02 -0.10869265999E+03  0.42185081418E+02  0.20899541302E+03  0.17300000000E+03 0. -1.
         -6    1    1    2    0  502  0.12506287809E+02  0.10869265999E+03  0.30584646074E+03  0.36802385673E+03  0.17300000000E+03 0.  1.
<mgrwt>
<rscale>  2 0.20469368E+03</rscale>
<asrwt>0</asrwt>
<pdfrwt beam="1">  1       21 0.71157754E-01 0.20469368E+03</pdfrwt>
<pdfrwt beam="2">  1       21 0.17614441E-01 0.20469368E+03</pdfrwt>
<totfact> 0.51911097E+04</totfact>
</mgrwt>
</event>
<event>
 4    1  0.4451819E+000  0.1772281E+03  0.7546771E-02  0.1170513E+00
         21   -1    0    0  503  502  0.00000000000E+00  0.00000000000E+00  0.25145809753E+03  0.25145809753E+03  0.00000000000E+00 0. -1.
         21   -1    0    0  501  503 -0.00000000000E+00 -0.00000000000E+00 -0.18362345458E+03  0.18362345458E+03  0.00000000000E+00 0. -1.
          6    1    1    2  501    0 -0.24740891409E+02  0.29473433225E+02 -0.89093410131E+02  0.19836186807E+03  0.17300000000E+03 0. -1.
         -6    1    1    2    0  502  0.24740891409E+02 -0.29473433225E+02  0.15692805308E+03  0.23671968405E+03  0.17300000000E+03 0. -1.
<mgrwt>
<rscale>  2 0.17722809E+03</rscale>
<asrwt>0</asrwt>
<pdfrwt beam="1">  1       21 0.38685861E-01 0.17722809E+03</pdfrwt>
<pdfrwt beam="2">  1       21 0.28249762E-01 0.17722809E+03</pdfrwt>
<totfact> 0.77652971E+04</totfact>
</mgrwt>
</event>
<event>
 4    1  0.4451819E+000  0.2272552E+03  0.7546771E-02  0.1128587E+00
         21   -1    0    0  503  502  0.00000000000E+00  0.00000000000E+00  0.12885925785E+04  0.12885925785E+04  0.00000000000E+00 0. -1.
         21   -1    0    0  501  503 -0.00000000000E+00 -0.00000000000E+00 -0.40212784557E+02  0.40212784557E+02  0.00000000000E+00 0.  1.
          6    1    1    2  501    0  0.13520737582E+03 -0.58608075774E+02  0.66257455710E+03  0.70046412095E+03  0.17300000000E+03 0. -1.
         -6    1    1    2    0  502 -0.13520737582E+03  0.58608075774E+02  0.58580523685E+03  0.62834124212E+03  0.17300000000E+03 0.  1.
<mgrwt>
<rscale>  2 0.22725523E+03</rscale>
<asrwt>0</asrwt>
<pdfrwt beam="1">  1       21 0.19824498E+00 0.22725523E+03</pdfrwt>
<pdfrwt beam="2">  1       21 0.61865832E-02 0.22725523E+03</pdfrwt>
<totfact> 0.25170445E+04</totfact>
</mgrwt>
</event>
<event>
 4    1  0.4451819E+000  0.2084151E+03  0.7546771E-02  0.1142827E+00
         21   -1    0    0  503  502  0.00000000000E+00  0.00000000000E+00  0.72454282384E+03  0.72454282384E+03  0.00000000000E+00 0. -1.
         21   -1    0    0  501  503 -0.00000000000E+00 -0.00000000000E+00 -0.77960846762E+02  0.77960846762E+02  0.00000000000E+00 0. -1.
          6    1    1    2  501    0  0.72953544200E+02 -0.90474518592E+02  0.13043317447E+03  0.24586514826E+03  0.17300000000E+03 0.  1.
         -6    1    1    2    0  502 -0.72953544200E+02  0.90474518592E+02  0.51614880260E+03  0.55663852234E+03  0.17300000000E+03 0.  1.
<mgrwt>
<rscale>  2 0.20841511E+03</rscale>
<asrwt>0</asrwt>
<pdfrwt beam="1">  1       21 0.11146812E+00 0.20841511E+03</pdfrwt>
<pdfrwt beam="2">  1       21 0.11993977E-01 0.20841511E+03</pdfrwt>
<totfact> 0.36824052E+04</totfact>
</mgrwt>
</event>
<event>
 4    1  0.4451819E+000  0.2621168E+03  0.7546771E-02  0.1105878E+00
         21   -1    0    0  503  502  0.00000000000E+00  0.00000000000E+00  0.34429824356E+02  0.34429824356E+02  0.00000000000E+00 0.  1.
         21   -1    0    0  501  503 -0.00000000000E+00 -0.00000000000E+00 -0.25298132484E+04  0.25298132484E+04  0.00000000000E+00 0.  1.
          6    1    1    2  501    0  0.19598224060E+03  0.19162530978E+02 -0.18369106784E+04  0.18555177395E+04  0.17300000000E+03 0.  1.
         -6    1    1    2    0  502 -0.19598224060E+03 -0.19162530978E+02 -0.65847274566E+03  0.70872533326E+03  0.17300000000E+03 0.  1.
<mgrwt>
<rscale>  2 0.26211685E+03</rscale>
<asrwt>0</asrwt>
<pdfrwt beam="1">  1       21 0.52968956E-02 0.26211685E+03</pdfrwt>
<pdfrwt beam="2">  1       21 0.38920207E+00 0.26211685E+03</pdfrwt>
<totfact> 0.22765174E+03</totfact>
</mgrwt>
</event>
<event>
 4    1  0.4451819E+000  0.1882442E+03  0.7546771E-02  0.1160055E+00
         21   -1    0    0  503  502  0.00000000000E+00  0.00000000000E+00  0.70392183715E+02  0.70392183715E+02  0.00000000000E+00 0. -1.
         21   -1    0    0  501  503 -0.00000000000E+00 -0.00000000000E+00 -0.52607922106E+03  0.52607922106E+03  0.00000000000E+00 0. -1.
          6    1    1    2  501    0 -0.66707718653E+02 -0.32510670982E+02 -0.28975746937E+03  0.34553618408E+03  0.17300000000E+03 0. -1.
         -6    1    1    2    0  502  0.66707718653E+02  0.32510670982E+02 -0.16592956798E+03  0.25093522069E+03  0.17300000000E+03 0. -1.
<mgrwt>
<rscale>  2 0.18824416E+03</rscale>
<asrwt>0</asrwt>
<pdfrwt beam="1">  1       21 0.10829567E-01 0.18824416E+03</pdfrwt>
<pdfrwt beam="2">  1       21 0.80935264E-01 0.18824416E+03</pdfrwt>
<totfact> 0.94562027E+04</totfact>
</mgrwt>
</event>
<event>
 4    1  0.4451819E+000  0.1770264E+03  0.7546771E-02  0.1170712E+00
         21   -1    0    0  501  502  0.00000000000E+00  0.00000000000E+00  0.18152911989E+03  0.18152911989E+03  0.00000000000E+00 0. -1.
         21   -1    0    0  502  503 -0.00000000000E+00 -0.00000000000E+00 -0.17749764981E+03  0.17749764981E+03  0.00000000000E+00 0. -1.
          6    1    1    2  501    0 -0.30609572197E+02 -0.21734470738E+02  0.31727186217E+02  0.17984701130E+03  0.17300000000E+03 0. -1.
         -6    1    1    2    0  503  0.30609572197E+02  0.21734470738E+02 -0.27695716132E+02  0.17917975840E+03  0.17300000000E+03 0. -1.
<mgrwt>
<rscale>  2 0.17702636E+03</rscale>
<asrwt>0</asrwt>
<pdfrwt beam="1">  1       21 0.27927557E-01 0.17702636E+03</pdfrwt>
<pdfrwt beam="2">  1       21 0.27307331E-01 0.17702636E+03</pdfrwt>
<totfact> 0.15735170E+05</totfact>
</mgrwt>
</event>
<event>
 4    1  0.4451819E+000  0.1795280E+03  0.7546771E-02  0.1168261E+00
         21   -1    0    0  503  502  0.00000000000E+00  0.00000000000E+00  0.53081918488E+03  0.53081918488E+03  0.00000000000E+00 0.  1.
         21   -1    0    0  501  503 -0.00000000000E+00 -0.00000000000E+00 -0.14098448647E+03  0.14098448647E+03  0.00000000000E+00 0.  1.
          6    1    1    2  501    0 -0.45815250237E+02 -0.14222631035E+02 -0.58533429979E+02  0.18882924247E+03  0.17300000000E+03 0.  1.
         -6    1    1    2    0  502  0.45815250237E+02  0.14222631035E+02  0.44836812840E+03  0.48297442888E+03  0.17300000000E+03 0.  1.
<mgrwt>
<rscale>  2 0.17952805E+03</rscale>
<asrwt>0</asrwt>
<pdfrwt beam="1">  1       21 0.81664489E-01 0.17952805E+03</pdfrwt>
<pdfrwt beam="2">  1       21 0.21689921E-01 0.17952805E+03</pdfrwt>
<totfact> 0.26221295E+04</totfact>
</mgrwt>
</event>
<event>
 4    1  0.4451819E+000  0.2127164E+03  0.7546771E-02  0.1139433E+00
         21   -1    0    0  503  502  0.00000000000E+00  0.00000000000E+00  0.58092224251E+03  0.58092224251E+03  0.00000000000E+00 0. -1.
         21   -1    0    0  501  503 -0.00000000000E+00 -0.00000000000E+00 -0.82250152372E+02  0.82250152372E+02  0.00000000000E+00 0. -1.
          6    1    1    2  501    0  0.81312353971E+02 -0.93314291480E+02  0.17299469220E+03  0.27418136230E+03  0.17300000000E+03 0. -1.
         -6    1    1    2    0  502 -0.81312353971E+02  0.93314291480E+02  0.32567739795E+03  0.38899103259E+03  0.17300000000E+03 0. -1.
<mgrwt>
<rscale>  2 0.21271637E+03</rscale>
<asrwt>0</asrwt>
<pdfrwt beam="1">  1       21 0.89372650E-01 0.21271637E+03</pdfrwt>
<pdfrwt beam="2">  1       21 0.12653870E-01 0.21271637E+03</pdfrwt>
<totfact> 0.56420903E+04</totfact>
</mgrwt>
</event>
<event>
 4    1  0.4451819E+000  0.2358657E+03  0.7546771E-02  0.1122578E+00
         21   -1    0    0  503  502  0.00000000000E+00  0.00000000000E+00  0.70898133678E+03  0.70898133678E+03  0.00000000000E+00 0. -1.
         21   -1    0    0  501  503 -0.00000000000E+00 -0.00000000000E+00 -0.12653065439E+03  0.12653065439E+03  0.00000000000E+00 0.  1.
          6    1    1    2  501    0 -0.15898608845E+03  0.20664947835E+02  0.33755137087E+02  0.23826880968E+03  0.17300000000E+03 0.  1.
         -6    1    1    2    0  502  0.15898608845E+03 -0.20664947835E+02  0.54869554531E+03  0.59724318148E+03  0.17300000000E+03 0. -1.
<mgrwt>
<rscale>  2 0.23586567E+03</rscale>
<asrwt>0</asrwt>
<pdfrwt beam="1">  1       21 0.10907405E+00 0.23586567E+03</pdfrwt>
<pdfrwt beam="2">  1       21 0.19466255E-01 0.23586567E+03</pdfrwt>
<totfact> 0.15758705E+04</totfact>
</mgrwt>
</event>
<event>
 4    1  0.4451819E+000  0.3485912E+03  0.7546771E-02  0.1063195E+00
         21   -1    0    0  501  502  0.00000000000E+00  0.00000000000E+00  0.42645165892E+03  0.42645165892E+03  0.00000000000E+00 0.  1.
         21   -1    0    0  502  503 -0.00000000000E+00 -0.00000000000E+00 -0.97196972200E+03  0.97196972200E+03  0.00000000000E+00 0. -1.
          6    1    1    2  501    0  0.19123646128E+03 -0.23455364798E+03  0.31509226625E+03  0.46989247085E+03  0.17300000000E+03 0.  1.
         -6    1    1    2    0  503 -0.19123646128E+03  0.23455364798E+03 -0.86061032933E+03  0.92852891008E+03  0.17300000000E+03 0. -1.
<mgrwt>
<rscale>  2 0.34859116E+03</rscale>
<asrwt>0</asrwt>
<pdfrwt beam="1">  1       21 0.65607948E-01 0.34859116E+03</pdfrwt>
<pdfrwt beam="2">  1       21 0.14953380E+00 0.34859116E+03</pdfrwt>
<totfact> 0.56633463E+02</totfact>
</mgrwt>
</event>
<event>
 4    1  0.4451819E+000  0.1791995E+03  0.7546771E-02  0.1168580E+00
         21   -1    0    0  501  502  0.00000000000E+00  0.00000000000E+00  0.16272427043E+03  0.16272427043E+03  0.00000000000E+00 0.  1.
         21   -1    0    0  502  503 -0.00000000000E+00 -0.00000000000E+00 -0.21234694127E+03  0.21234694127E+03  0.00000000000E+00 0.  1.
          6    1    1    2  501    0 -0.29326655408E+01  0.46635457045E+02  0.25038762570E+02  0.18094033827E+03  0.17300000000E+03 0.  1.
         -6    1    1    2    0  503  0.29326655408E+01 -0.46635457045E+02 -0.74661433412E+02  0.19413087343E+03  0.17300000000E+03 0.  1.
<mgrwt>
<rscale>  2 0.17919952E+03</rscale>
<asrwt>0</asrwt>
<pdfrwt beam="1">  1       21 0.25034503E-01 0.17919952E+03</pdfrwt>
<pdfrwt beam="2">  1       21 0.32668760E-01 0.17919952E+03</pdfrwt>
<totfact> 0.13684710E+05</totfact>
</mgrwt>
</event>
<event>
 4    1  0.4451819E+000  0.1817886E+03  0.7546771E-02  0.1166083E+00
         21   -1    0    0  501  502  0.00000000000E+00  0.00000000000E+00  0.46113786355E+03  0.46113786355E+03  0.00000000000E+00 0. -1.
         21   -1    0    0  502  503 -0.00000000000E+00 -0.00000000000E+00 -0.12162505449E+03  0.12162505449E+03  0.00000000000E+00 0. -1.
          6    1    1    2  501    0  0.21834641470E+02 -0.51394153594E+02  0.35650828914E+03  0.40018154732E+03  0.17300000000E+03 0. -1.
         -6    1    1    2    0  503 -0.21834641470E+02  0.51394153594E+02 -0.16995480084E+02  0.18258137072E+03  0.17300000000E+03 0. -1.
<mgrwt>
<rscale>  2 0.18178864E+03</rscale>
<asrwt>0</asrwt>
<pdfrwt beam="1">  1       21 0.70944285E-01 0.18178864E+03</pdfrwt>
<pdfrwt beam="2">  1       21 0.18711547E-01 0.18178864E+03</pdfrwt>
<totfact> 0.47254524E+04</totfact>
</mgrwt>
</event>
<event>
 4    1  0.4451819E+000  0.1740239E+03  0.7546771E-02  0.1173715E+00
         21   -1    0    0  501  502  0.00000000000E+00  0.00000000000E+00  0.11805131497E+03  0.11805131497E+03  0.00000000000E+00 0.  1.
         21   -1    0    0  502  503 -0.00000000000E+00 -0.00000000000E+00 -0.39476074235E+03  0.39476074235E+03  0.00000000000E+00 0.  1.
          6    1    1    2  501    0 -0.33390518927E+01 -0.18551495347E+02  0.13369726592E+02  0.17453669195E+03  0.17300000000E+03 0. -1.
         -6    1    1    2    0  503  0.33390518927E+01  0.18551495347E+02 -0.29007915397E+03  0.33827536537E+03  0.17300000000E+03 0. -1.
<mgrwt>
<rscale>  2 0.17402387E+03</rscale>
<asrwt>0</asrwt>
<pdfrwt beam="1">  1       21 0.18161741E-01 0.17402387E+03</pdfrwt>
<pdfrwt beam="2">  1       21 0.60732422E-01 0.17402387E+03</pdfrwt>
<totfact> 0.70281007E+04</totfact>
</mgrwt>
</event>
<event>
 4    1  0.4451819E+000  0.1981546E+03  0.7546771E-02  0.1151305E+00
         21   -1    0    0  503  502  0.00000000000E+00  0.00000000000E+00  0.12468277770E+03  0.12468277770E+03  0.00000000000E+00 0. -1.
         21   -1    0    0  501  503 -0.00000000000E+00 -0.00000000000E+00 -0.31500238524E+03  0.31500238524E+03  0.00000000000E+00 0. -1.
          6    1    1    2  501    0  0.94517789508E+02 -0.20065303544E+02 -0.98692808367E+02  0.22137185766E+03  0.17300000000E+03 0. -1.
         -6    1    1    2    0  502 -0.94517789508E+02  0.20065303544E+02 -0.91626799171E+02  0.21831330529E+03  0.17300000000E+03 0. -1.
<mgrwt>
<rscale>  2 0.19815456E+03</rscale>
<asrwt>0</asrwt>
<pdfrwt beam="1">  1       21 0.19181966E-01 0.19815456E+03</pdfrwt>
<pdfrwt beam="2">  1       21 0.48461906E-01 0.19815456E+03</pdfrwt>
<totfact> 0.10123954E+05</totfact>
</mgrwt>
</event>
<event>
 4    1  0.4451819E+000  0.1833711E+03  0.7546771E-02  0.1164580E+00
         21   -1    0    0  503  502  0.00000000000E+00  0.00000000000E+00  0.71566294121E+03  0.71566294121E+03  0.00000000000E+00 0. -1.
         21   -1    0    0  501  503 -0.00000000000E+00 -0.00000000000E+00 -0.47079021129E+02  0.47079021129E+02  0.00000000000E+00 0. -1.
          6    1    1    2  501    0 -0.60383883519E+02  0.70525495838E+01  0.31718933416E+03  0.36637961945E+03  0.17300000000E+03 0. -1.
         -6    1    1    2    0  502  0.60383883519E+02 -0.70525495838E+01  0.35139458592E+03  0.39636234288E+03  0.17300000000E+03 0. -1.
<mgrwt>
<rscale>  2 0.18337108E+03</rscale>
<asrwt>0</asrwt>
<pdfrwt beam="1">  1       21 0.11010198E+00 0.18337108E+03</pdfrwt>
<pdfrwt beam="2">  1       21 0.72429268E-02 0.18337108E+03</pdfrwt>
<totfact> 0.93295960E+04</totfact>
</mgrwt>
</event>
<event>
 4    1  0.4451819E+000  0.1889845E+03  0.7546771E-02  0.1159380E+00
         21   -1    0    0  501  502  0.00000000000E+00  0.00000000000E+00  0.30132797370E+03  0.30132797370E+03  0.00000000000E+00 0. -1.
         21   -1    0    0  502  503 -0.00000000000E+00 -0.00000000000E+00 -0.24115984424E+03  0.24115984424E+03  0.00000000000E+00 0. -1.
          6    1    1    2  501    0  0.33060623544E+02  0.68506554432E+02  0.22350921462E+03  0.29269697957E+03  0.17300000000E+03 0. -1.
         -6    1    1    2    0  503 -0.33060623544E+02 -0.68506554432E+02 -0.16334108517E+03  0.24979083837E+03  0.17300000000E+03 0. -1.
<mgrwt>
<rscale>  2 0.18898453E+03</rscale>
<asrwt>0</asrwt>
<pdfrwt beam="1">  1       21 0.46358150E-01 0.18898453E+03</pdfrwt>
<pdfrwt beam="2">  1       21 0.37101514E-01 0.18898453E+03</pdfrwt>
<totfact> 0.31291396E+04</totfact>
</mgrwt>
</event>
<event>
 4    1  0.4451819E+000  0.1775619E+03  0.7546771E-02  0.1170184E+00
         21   -1    0    0  501  502  0.00000000000E+00  0.00000000000E+00  0.60668888110E+02  0.60668888110E+02  0.00000000000E+00 0. -1.
         21   -1    0    0  502  503 -0.00000000000E+00 -0.00000000000E+00 -0.59781495212E+03  0.59781495212E+03  0.00000000000E+00 0. -1.
          6    1    1    2  501    0  0.86780045985E+01 -0.39037323713E+02 -0.14954123307E+03  0.23214392259E+03  0.17300000000E+03 0. -1.
         -6    1    1    2    0  503 -0.86780045985E+01  0.39037323713E+02 -0.38760483094E+03  0.42633991764E+03  0.17300000000E+03 0. -1.
<mgrwt>
<rscale>  2 0.17756188E+03</rscale>
<asrwt>0</asrwt>
<pdfrwt beam="1">  1       21 0.93336752E-02 0.17756188E+03</pdfrwt>
<pdfrwt beam="2">  1       21 0.91971530E-01 0.17756188E+03</pdfrwt>
<totfact> 0.92124009E+04</totfact>
</mgrwt>
</event>
<event>
 4    1  0.4451819E+000  0.1917741E+03  0.7546771E-02  0.1156871E+00
         21   -1    0    0  501  502  0.00000000000E+00  0.00000000000E+00  0.10092666528E+03  0.10092666528E+03  0.00000000000E+00 0. -1.
         21   -1    0    0  502  503 -0.00000000000E+00 -0.00000000000E+00 -0.10998428120E+04  0.10998428120E+04  0.00000000000E+00 0. -1.
          6    1    1    2  501    0 -0.50868038497E+02  0.65274465786E+02 -0.85051488456E+01  0.19196262861E+03  0.17300000000E+03 0. -1.
         -6    1    1    2    0  503  0.50868038497E+02 -0.65274465786E+02 -0.99041099791E+03  0.10088068487E+04  0.17300000000E+03 0. -1.
<mgrwt>
<rscale>  2 0.19177412E+03</rscale>
<asrwt>0</asrwt>
<pdfrwt beam="1">  1       21 0.15527179E-01 0.19177412E+03</pdfrwt>
<pdfrwt beam="2">  1       21 0.16920659E+00 0.19177412E+03</pdfrwt>
<totfact> 0.79672943E+03</totfact>
</mgrwt>
</event>
<event>
 4    1  0.4451819E+000  0.2783431E+03  0.7546771E-02  0.1096597E+00
         21   -1    0    0  501  502  0.00000000000E+00  0.00000000000E+00  0.63711297181E+03  0.63711297181E+03  0.00000000000E+00 0. -1.
         21   -1    0    0  502  503 -0.00000000000E+00 -0.00000000000E+00 -0.21323749551E+03  0.21323749551E+03  0.00000000000E+00 0. -1.
          6    1    1    2  501    0 -0.12682982164E+03  0.17736992507E+03  0.49065604864E+03  0.56410836906E+03  0.17300000000E+03 0. -1.
         -6    1    1    2    0  503  0.12682982164E+03 -0.17736992507E+03 -0.66780572341E+02  0.28624209826E+03  0.17300000000E+03 0. -1.
<mgrwt>
<rscale>  2 0.27834312E+03</rscale>
<asrwt>0</asrwt>
<pdfrwt beam="1">  1       21 0.98017379E-01 0.27834312E+03</pdfrwt>
<pdfrwt beam="2">  1       21 0.32805769E-01 0.27834312E+03</pdfrwt>
<totfact> 0.72923207E+03</totfact>
</mgrwt>
</event>
<event>
 4    1  0.4451819E+000  0.1983295E+03  0.7546771E-02  0.1151156E+00
         21   -1    0    0  503  502  0.00000000000E+00  0.00000000000E+00  0.25453713739E+03  0.25453713739E+03  0.00000000000E+00 0.  1.
         21   -1    0    0  501  503 -0.00000000000E+00 -0.00000000000E+00 -0.18353370300E+03  0.18353370300E+03  0.00000000000E+00 0.  1.
          6    1    1    2  501    0  0.92462236672E+02 -0.29263179960E+02 -0.51565462925E+02  0.20492339027E+03  0.17300000000E+03 0.  1.
         -6    1    1    2    0  502 -0.92462236672E+02  0.29263179960E+02  0.12256889732E+03  0.23314745013E+03  0.17300000000E+03 0.  1.
<mgrwt>
<rscale>  2 0.19832952E+03</rscale>
<asrwt>0</asrwt>
<pdfrwt beam="1">  1       21 0.39159560E-01 0.19832952E+03</pdfrwt>
<pdfrwt beam="2">  1       21 0.28235954E-01 0.19832952E+03</pdfrwt>
<totfact> 0.75179916E+04</totfact>
</mgrwt>
</event>
<event>
 4    1  0.4451819E+000  0.1944421E+03  0.7546771E-02  0.1154515E+00
         21   -1    0    0  501  502  0.00000000000E+00  0.00000000000E+00  0.10784749081E+03  0.10784749081E+03  0.00000000000E+00 0. -1.
         21   -1    0    0  502  503 -0.00000000000E+00 -0.00000000000E+00 -0.95944848219E+03  0.95944848219E+03  0.00000000000E+00 0.  1.
          6    1    1    2  501    0  0.13388836258E+02  0.87746523107E+02 -0.68139327626E+00  0.19444325021E+03  0.17300000000E+03 0. -1.
         -6    1    1    2    0  503 -0.13388836258E+02 -0.87746523107E+02 -0.85091959810E+03  0.87285272279E+03  0.17300000000E+03 0.  1.
<mgrwt>
<rscale>  2 0.19444206E+03</rscale>
<asrwt>0</asrwt>
<pdfrwt beam="1">  1       21 0.16591921E-01 0.19444206E+03</pdfrwt>
<pdfrwt beam="2">  1       21 0.14760746E+00 0.19444206E+03</pdfrwt>
<totfact> 0.10157890E+04</totfact>
</mgrwt>
</event>
<event>
 4    1  0.4451819E+000  0.1878148E+03  0.7546771E-02  0.1160447E+00
         21   -1    0    0  503  502  0.00000000000E+00  0.00000000000E+00  0.33381610338E+03  0.33381610338E+03  0.00000000000E+00 0. -1.
         21   -1    0    0  501  503 -0.00000000000E+00 -0.00000000000E+00 -0.10620454752E+03  0.10620454752E+03  0.00000000000E+00 0. -1.
          6    1    1    2  501    0  0.41568473287E+02  0.60145218568E+02  0.12941275708E+03  0.22808342111E+03  0.17300000000E+03 0. -1.
         -6    1    1    2    0  502 -0.41568473287E+02 -0.60145218568E+02  0.98198798776E+02  0.21193722979E+03  0.17300000000E+03 0. -1.
<mgrwt>
<rscale>  2 0.18781476E+03</rscale>
<asrwt>0</asrwt>
<pdfrwt beam="1">  1       21 0.51356323E-01 0.18781476E+03</pdfrwt>
<pdfrwt beam="2">  1       21 0.16339161E-01 0.18781476E+03</pdfrwt>
<totfact> 0.12110792E+05</totfact>
</mgrwt>
</event>
<event>
 4    1  0.4451819E+000  0.2187934E+03  0.7546771E-02  0.1134786E+00
         21   -1    0    0  503  502  0.00000000000E+00  0.00000000000E+00  0.10489505978E+03  0.10489505978E+03  0.00000000000E+00 0. -1.
         21   -1    0    0  501  503 -0.00000000000E+00 -0.00000000000E+00 -0.45638317724E+03  0.45638317724E+03  0.00000000000E+00 0. -1.
          6    1    1    2  501    0  0.61126921399E+02 -0.11918501863E+03 -0.17745121466E+03  0.28170818726E+03  0.17300000000E+03 0. -1.
         -6    1    1    2    0  502 -0.61126921399E+02  0.11918501863E+03 -0.17403690280E+03  0.27957004976E+03  0.17300000000E+03 0. -1.
<mgrwt>
<rscale>  2 0.21879344E+03</rscale>
<asrwt>0</asrwt>
<pdfrwt beam="1">  1       21 0.16137701E-01 0.21879344E+03</pdfrwt>
<pdfrwt beam="2">  1       21 0.70212798E-01 0.21879344E+03</pdfrwt>
<totfact> 0.62427804E+04</totfact>
</mgrwt>
</event>
<event>
 4    1  0.4451819E+000  0.2268284E+03  0.7546771E-02  0.1128892E+00
         21   -1    0    0  501  502  0.00000000000E+00  0.00000000000E+00  0.15325731574E+04  0.15325731574E+04  0.00000000000E+00 0.  1.
         21   -1    0    0  502  503 -0.00000000000E+00 -0.00000000000E+00 -0.35711465689E+02  0.35711465689E+02  0.00000000000E+00 0. -1.
          6    1    1    2  501    0 -0.45747215398E+02  0.13938900387E+03  0.94037421392E+03  0.96734418090E+03  0.17300000000E+03 0.  1.
         -6    1    1    2    0  503  0.45747215398E+02 -0.13938900387E+03  0.55648747778E+03  0.60094044217E+03  0.17300000000E+03 0. -1.
<mgrwt>
<rscale>  2 0.22682835E+03</rscale>
<asrwt>0</asrwt>
<pdfrwt beam="1">  1       21 0.23578043E+00 0.22682835E+03</pdfrwt>
<pdfrwt beam="2">  1       21 0.54940728E-02 0.22682835E+03</pdfrwt>
<totfact> 0.17999498E+04</totfact>
</mgrwt>
</event>
<event>
 4    1  0.4451819E+000  0.1766929E+03  0.7546771E-02  0.1171043E+00
         21   -1    0    0  501  502  0.00000000000E+00  0.00000000000E+00  0.18402461372E+03  0.18402461372E+03  0.00000000000E+00 0.  1.
         21   -1    0    0  502  503 -0.00000000000E+00 -0.00000000000E+00 -0.16968980115E+03  0.16968980115E+03  0.00000000000E+00 0.  1.
          6    1    1    2  501    0  0.28118557102E+02  0.22376757931E+02  0.97632928962E+01  0.17696240967E+03  0.17300000000E+03 0.  1.
         -6    1    1    2    0  503 -0.28118557102E+02 -0.22376757931E+02  0.45715196798E+01  0.17675200520E+03  0.17300000000E+03 0.  1.
<mgrwt>
<rscale>  2 0.17669288E+03</rscale>
<asrwt>0</asrwt>
<pdfrwt beam="1">  1       21 0.28311479E-01 0.17669288E+03</pdfrwt>
<pdfrwt beam="2">  1       21 0.26106123E-01 0.17669288E+03</pdfrwt>
<totfact> 0.16709002E+05</totfact>
</mgrwt>
</event>
<event>
 4    1  0.4451819E+000  0.1890675E+03  0.7546771E-02  0.1159305E+00
         21   -1    0    0  503  502  0.00000000000E+00  0.00000000000E+00  0.37825299752E+03  0.37825299752E+03  0.00000000000E+00 0.  1.
         21   -1    0    0  501  503 -0.00000000000E+00 -0.00000000000E+00 -0.12696566575E+03  0.12696566575E+03  0.00000000000E+00 0.  1.
          6    1    1    2  501    0 -0.51672650189E+02 -0.56102232092E+02 -0.20854307178E+01  0.18907901059E+03  0.17300000000E+03 0.  1.
         -6    1    1    2    0  502  0.51672650189E+02  0.56102232092E+02  0.25337276249E+03  0.31613965268E+03  0.17300000000E+03 0.  1.
<mgrwt>
<rscale>  2 0.18906751E+03</rscale>
<asrwt>0</asrwt>
<pdfrwt beam="1">  1       21 0.58192768E-01 0.18906751E+03</pdfrwt>
<pdfrwt beam="2">  1       21 0.19533180E-01 0.18906751E+03</pdfrwt>
<totfact> 0.66844002E+04</totfact>
</mgrwt>
</event>
<event>
 4    1  0.4451819E+000  0.2955174E+03  0.7546771E-02  0.1087503E+00
         21   -1    0    0  503  502  0.00000000000E+00  0.00000000000E+00  0.38884174693E+03  0.38884174693E+03  0.00000000000E+00 0. -1.
         21   -1    0    0  501  503 -0.00000000000E+00 -0.00000000000E+00 -0.26161302175E+03  0.26161302175E+03  0.00000000000E+00 0. -1.
          6    1    1    2  501    0  0.21023420511E+03  0.11490469753E+03 -0.58730341444E+02  0.30129680304E+03  0.17300000000E+03 0. -1.
         -6    1    1    2    0  502 -0.21023420511E+03 -0.11490469753E+03  0.18595906662E+03  0.34915796564E+03  0.17300000000E+03 0. -1.
<mgrwt>
<rscale>  2 0.29551736E+03</rscale>
<asrwt>0</asrwt>
<pdfrwt beam="1">  1       21 0.59821808E-01 0.29551736E+03</pdfrwt>
<pdfrwt beam="2">  1       21 0.40248157E-01 0.29551736E+03</pdfrwt>
<totfact> 0.14692127E+04</totfact>
</mgrwt>
</event>
<event>
 4    1  0.4451819E+000  0.1896657E+03  0.7546771E-02  0.1158763E+00
         21   -1    0    0  503  502  0.00000000000E+00  0.00000000000E+00  0.48043570132E+02  0.48043570132E+02  0.00000000000E+00 0. -1.
         21   -1    0    0  501  503 -0.00000000000E+00 -0.00000000000E+00 -0.91821606187E+03  0.91821606187E+03  0.00000000000E+00 0. -1.
          6    1    1    2  501    0 -0.50638732881E+02 -0.58989851833E+02 -0.64263516569E+03  0.67003958097E+03  0.17300000000E+03 0. -1.
         -6    1    1    2    0  502  0.50638732881E+02  0.58989851833E+02 -0.22753732605E+03  0.29622005103E+03  0.17300000000E+03 0. -1.
<mgrwt>
<rscale>  2 0.18966572E+03</rscale>
<asrwt>0</asrwt>
<pdfrwt beam="1">  1       21 0.73913189E-02 0.18966572E+03</pdfrwt>
<pdfrwt beam="2">  1       21 0.14126400E+00 0.18966572E+03</pdfrwt>
<totfact> 0.48213360E+04</totfact>
</mgrwt>
</event>
<event>
 4    1  0.4451819E+000  0.1854825E+03  0.7546771E-02  0.1162600E+00
         21   -1    0    0  503  502  0.00000000000E+00  0.00000000000E+00  0.41533598462E+03  0.41533598462E+03  0.00000000000E+00 0.  1.
         21   -1    0    0  501  503 -0.00000000000E+00 -0.00000000000E+00 -0.29742955368E+03  0.29742955368E+03  0.00000000000E+00 0.  1.
          6    1    1    2  501    0  0.47508509172E+02  0.47092428865E+02 -0.24376283625E+03  0.30630715897E+03  0.17300000000E+03 0.  1.
         -6    1    1    2    0  502 -0.47508509172E+02 -0.47092428865E+02  0.36166926718E+03  0.40645837933E+03  0.17300000000E+03 0.  1.
<mgrwt>
<rscale>  2 0.18548249E+03</rscale>
<asrwt>0</asrwt>
<pdfrwt beam="1">  1       21 0.63897844E-01 0.18548249E+03</pdfrwt>
<pdfrwt beam="2">  1       21 0.45758393E-01 0.18548249E+03</pdfrwt>
<totfact> 0.10407675E+04</totfact>
</mgrwt>
</event>
<event>
 4    1  0.4451819E+000  0.2034505E+03  0.7546771E-02  0.1146860E+00
         21   -1    0    0  501  502  0.00000000000E+00  0.00000000000E+00  0.52061397943E+03  0.52061397943E+03  0.00000000000E+00 0.  1.
         21   -1    0    0  502  503 -0.00000000000E+00 -0.00000000000E+00 -0.14298543573E+03  0.14298543573E+03  0.00000000000E+00 0.  1.
          6    1    1    2  501    0 -0.79696442332E+02 -0.71495338801E+02  0.40989225826E+03  0.45760656657E+03  0.17300000000E+03 0.  1.
         -6    1    1    2    0  503  0.79696442332E+02  0.71495338801E+02 -0.32263714560E+02  0.20599284858E+03  0.17300000000E+03 0.  1.
<mgrwt>
<rscale>  2 0.20345050E+03</rscale>
<asrwt>0</asrwt>
<pdfrwt beam="1">  1       21 0.80094457E-01 0.20345050E+03</pdfrwt>
<pdfrwt beam="2">  1       21 0.21997760E-01 0.20345050E+03</pdfrwt>
<totfact> 0.26318784E+04</totfact>
</mgrwt>
</event>
<event>
 4    1  0.4451819E+000  0.2228169E+03  0.7546771E-02  0.1131800E+00
         21   -1    0    0  503  502  0.00000000000E+00  0.00000000000E+00  0.33596541422E+02  0.33596541422E+02  0.00000000000E+00 0.  1.
         21   -1    0    0  501  503 -0.00000000000E+00 -0.00000000000E+00 -0.15999577781E+04  0.15999577781E+04  0.00000000000E+00 0. -1.
          6    1    1    2  501    0 -0.13633917338E+03 -0.33615405412E+02 -0.10089134330E+04  0.10332248937E+04  0.17300000000E+03 0. -1.
         -6    1    1    2    0  502  0.13633917338E+03  0.33615405412E+02 -0.55744780368E+03  0.60032942582E+03  0.17300000000E+03 0. -1.
<mgrwt>
<rscale>  2 0.22281689E+03</rscale>
<asrwt>0</asrwt>
<pdfrwt beam="1">  1       21 0.51686998E-02 0.22281689E+03</pdfrwt>
<pdfrwt beam="2">  1       21 0.24614730E+00 0.22281689E+03</pdfrwt>
<totfact> 0.17369125E+04</totfact>
</mgrwt>
</event>
<event>
 4    1  0.4451819E+000  0.2123503E+03  0.7546771E-02  0.1139718E+00
         21   -1    0    0  503  502  0.00000000000E+00  0.00000000000E+00  0.78280534392E+03  0.78280534392E+03  0.00000000000E+00 0.  1.
         21   -1    0    0  501  503 -0.00000000000E+00 -0.00000000000E+00 -0.58024475656E+02  0.58024475656E+02  0.00000000000E+00 0.  1.
          6    1    1    2  501    0 -0.12248577129E+03 -0.12684093593E+02  0.39818261815E+03  0.45126715790E+03  0.17300000000E+03 0.  1.
         -6    1    1    2    0  502  0.12248577129E+03  0.12684093593E+02  0.32659825011E+03  0.38956266168E+03  0.17300000000E+03 0.  1.
<mgrwt>
<rscale>  2 0.21235030E+03</rscale>
<asrwt>0</asrwt>
<pdfrwt beam="1">  1       21 0.12043158E+00 0.21235030E+03</pdfrwt>
<pdfrwt beam="2">  1       21 0.89268430E-02 0.21235030E+03</pdfrwt>
<totfact> 0.51336093E+04</totfact>
</mgrwt>
</event>
<event>
 4    1  0.4451819E+000  0.2105023E+03  0.7546771E-02  0.1141169E+00
         21   -1    0    0  501  502  0.00000000000E+00  0.00000000000E+00  0.37377388149E+03  0.37377388149E+03  0.00000000000E+00 0.  1.
         21   -1    0    0  502  503 -0.00000000000E+00 -0.00000000000E+00 -0.32821165778E+03  0.32821165778E+03  0.00000000000E+00 0.  1.
          6    1    1    2  501    0  0.24216405351E+02  0.11745549772E+03  0.30331139459E+03  0.36920052861E+03  0.17300000000E+03 0.  1.
         -6    1    1    2    0  503 -0.24216405351E+02 -0.11745549772E+03 -0.25774917089E+03  0.33278501067E+03  0.17300000000E+03 0.  1.
<mgrwt>
<rscale>  2 0.21050232E+03</rscale>
<asrwt>0</asrwt>
<pdfrwt beam="1">  1       21 0.57503674E-01 0.21050232E+03</pdfrwt>
<pdfrwt beam="2">  1       21 0.50494101E-01 0.21050232E+03</pdfrwt>
<totfact> 0.10467195E+04</totfact>
</mgrwt>
</event>
<event>
 4    1  0.4451819E+000  0.1887106E+03  0.7546771E-02  0.1159629E+00
         21   -1    0    0  501  502  0.00000000000E+00  0.00000000000E+00  0.46857384280E+03  0.46857384280E+03  0.00000000000E+00 0. -1.
         21   -1    0    0  502  503 -0.00000000000E+00 -0.00000000000E+00 -0.88502066726E+02  0.88502066726E+02  0.00000000000E+00 0. -1.
          6    1    1    2  501    0  0.44603867872E+02  0.60771594825E+02  0.29472358058E+03  0.34996239901E+03  0.17300000000E+03 0. -1.
         -6    1    1    2    0  503 -0.44603867872E+02 -0.60771594825E+02  0.85348195493E+02  0.20711351052E+03  0.17300000000E+03 0. -1.
<mgrwt>
<rscale>  2 0.18871060E+03</rscale>
<asrwt>0</asrwt>
<pdfrwt beam="1">  1       21 0.72088282E-01 0.18871060E+03</pdfrwt>
<pdfrwt beam="2">  1       21 0.13615703E-01 0.18871060E+03</pdfrwt>
<totfact> 0.81324775E+04</totfact>
</mgrwt>
</event>
<event>
 4    1  0.4451819E+000  0.1806213E+03  0.7546771E-02  0.1167203E+00
         21   -1    0    0  501  502  0.00000000000E+00  0.00000000000E+00  0.58103679785E+02  0.58103679785E+02  0.00000000000E+00 0.  1.
         21   -1    0    0  502  503 -0.00000000000E+00 -0.00000000000E+00 -0.61340606194E+03  0.61340606194E+03  0.00000000000E+00 0.  1.
          6    1    1    2  501    0 -0.13221470403E+02  0.50202172274E+02 -0.37533895607E+03  0.41653739007E+03  0.17300000000E+03 0.  1.
         -6    1    1    2    0  503  0.13221470403E+02 -0.50202172274E+02 -0.17996342608E+03  0.25497235165E+03  0.17300000000E+03 0.  1.
<mgrwt>
<rscale>  2 0.18062133E+03</rscale>
<asrwt>0</asrwt>
<pdfrwt beam="1">  1       21 0.89390279E-02 0.18062133E+03</pdfrwt>
<pdfrwt beam="2">  1       21 0.94370160E-01 0.18062133E+03</pdfrwt>
<totfact> 0.93474021E+04</totfact>
</mgrwt>
</event>
<event>
 4    1  0.4451819E+000  0.3781847E+03  0.7546771E-02  0.1051607E+00
         21   -1    0    0  501  502  0.00000000000E+00  0.00000000000E+00  0.33813430468E+03  0.33813430468E+03  0.00000000000E+00 0. -1.
         21   -1    0    0  502  503 -0.00000000000E+00 -0.00000000000E+00 -0.48794096848E+03  0.48794096848E+03  0.00000000000E+00 0.  1.
          6    1    1    2  501    0  0.31460945101E+03 -0.11880892045E+03  0.75804563989E+02  0.38570714041E+03  0.17300000000E+03 0.  1.
         -6    1    1    2    0  503 -0.31460945101E+03  0.11880892045E+03 -0.22561122779E+03  0.44036813276E+03  0.17300000000E+03 0. -1.
<mgrwt>
<rscale>  2 0.37818470E+03</rscale>
<asrwt>0</asrwt>
<pdfrwt beam="1">  1       21 0.52020662E-01 0.37818470E+03</pdfrwt>
<pdfrwt beam="2">  1       21 0.75067841E-01 0.37818470E+03</pdfrwt>
<totfact> 0.50232296E+03</totfact>
</mgrwt>
</event>
<event>
 4    1  0.4451819E+000  0.2072379E+03  0.7546771E-02  0.1143772E+00
         21   -1    0    0  501  502  0.00000000000E+00  0.00000000000E+00  0.10357863112E+04  0.10357863112E+04  0.00000000000E+00 0.  1.
         21   -1    0    0  502  503 -0.00000000000E+00 -0.00000000000E+00 -0.54899053325E+02  0.54899053325E+02  0.00000000000E+00 0.  1.
          6    1    1    2  501    0 -0.17281304503E+02  0.11278260759E+03  0.76022451941E+03  0.78796502459E+03  0.17300000000E+03 0.  1.
         -6    1    1    2    0  503  0.17281304503E+02 -0.11278260759E+03  0.22066273843E+03  0.30272033990E+03  0.17300000000E+03 0.  1.
<mgrwt>
<rscale>  2 0.20723793E+03</rscale>
<asrwt>0</asrwt>
<pdfrwt beam="1">  1       21 0.15935173E+00 0.20723793E+03</pdfrwt>
<pdfrwt beam="2">  1       21 0.84460090E-02 0.20723793E+03</pdfrwt>
<totfact> 0.27519558E+04</totfact>
</mgrwt>
</event>
<event>
 4    1  0.4451819E+000  0.2410580E+03  0.7546771E-02  0.1119090E+00
         21   -1    0    0  501  502  0.00000000000E+00  0.00000000000E+00  0.71649708707E+02  0.71649708707E+02  0.00000000000E+00 0. -1.
         21   -1    0    0  502  503 -0.00000000000E+00 -0.00000000000E+00 -0.81350047580E+03  0.81350047580E+03  0.00000000000E+00 0.  1.
          6    1    1    2  501    0  0.28567674575E+02 -0.16542021670E+03 -0.34646025856E+03  0.42207069418E+03  0.17300000000E+03 0. -1.
         -6    1    1    2    0  503 -0.28567674575E+02  0.16542021670E+03 -0.39539050853E+03  0.46307949033E+03  0.17300000000E+03 0.  1.
<mgrwt>
<rscale>  2 0.24105800E+03</rscale>
<asrwt>0</asrwt>
<pdfrwt beam="1">  1       21 0.11023032E-01 0.24105800E+03</pdfrwt>
<pdfrwt beam="2">  1       21 0.12515392E+00 0.24105800E+03</pdfrwt>
<totfact> 0.31621880E+04</totfact>
</mgrwt>
</event>
<event>
 4    1  0.4451819E+000  0.1822776E+03  0.7546771E-02  0.1165617E+00
         21   -1    0    0  501  502  0.00000000000E+00  0.00000000000E+00  0.16005002300E+04  0.16005002300E+04  0.00000000000E+00 0. -1.
         21   -1    0    0  502  503 -0.00000000000E+00 -0.00000000000E+00 -0.34842838598E+02  0.34842838598E+02  0.00000000000E+00 0. -1.
          6    1    1    2  501    0 -0.42000249078E+02 -0.39142200084E+02  0.13026801664E+04  0.13153709548E+04  0.17300000000E+03 0. -1.
         -6    1    1    2    0  503  0.42000249078E+02  0.39142200084E+02  0.26297722499E+03  0.31997211381E+03  0.17300000000E+03 0. -1.
<mgrwt>
<rscale>  2 0.18227763E+03</rscale>
<asrwt>0</asrwt>
<pdfrwt beam="1">  1       21 0.24623075E+00 0.18227763E+03</pdfrwt>
<pdfrwt beam="2">  1       21 0.53604380E-02 0.18227763E+03</pdfrwt>
<totfact> 0.16882927E+04</totfact>
</mgrwt>
</event>
<event>
 4    1  0.4451819E+000  0.1740000E+03  0.7546771E-02  0.1173740E+00
         21   -1    0    0  501  502  0.00000000000E+00  0.00000000000E+00  0.34340968703E+02  0.34340968703E+02  0.00000000000E+00 0.  1.
         21   -1    0    0  502  503 -0.00000000000E+00 -0.00000000000E+00 -0.89085976781E+03  0.89085976781E+03  0.00000000000E+00 0.  1.
          6    1    1    2  501    0 -0.73834776475E+01  0.17101682442E+02 -0.38116953039E+03  0.41900619826E+03  0.17300000000E+03 0.  1.
         -6    1    1    2    0  503  0.73834776475E+01 -0.17101682442E+02 -0.47534926872E+03  0.50619453825E+03  0.17300000000E+03 0.  1.
<mgrwt>
<rscale>  2 0.17399995E+03</rscale>
<asrwt>0</asrwt>
<pdfrwt beam="1">  1       21 0.52832253E-02 0.17399995E+03</pdfrwt>
<pdfrwt beam="2">  1       21 0.13705537E+00 0.17399995E+03</pdfrwt>
<totfact> 0.93408202E+04</totfact>
</mgrwt>
</event>
<event>
 4    1  0.4451819E+000  0.1901279E+03  0.7546771E-02  0.1158346E+00
         21   -1    0    0  501  502  0.00000000000E+00  0.00000000000E+00  0.83159132309E+02  0.83159132309E+02  0.00000000000E+00 0. -1.
         21   -1    0    0  502  503 -0.00000000000E+00 -0.00000000000E+00 -0.44533347913E+03  0.44533347913E+03  0.00000000000E+00 0. -1.
          6    1    1    2  501    0 -0.58380612579E+02  0.53021852710E+02 -0.14023958199E+03  0.23625357806E+03  0.17300000000E+03 0. -1.
         -6    1    1    2    0  503  0.58380612579E+02 -0.53021852710E+02 -0.22193476483E+03  0.29223903338E+03  0.17300000000E+03 0. -1.
<mgrwt>
<rscale>  2 0.19012789E+03</rscale>
<asrwt>0</asrwt>
<pdfrwt beam="1">  1       21 0.12793713E-01 0.19012789E+03</pdfrwt>
<pdfrwt beam="2">  1       21 0.68512843E-01 0.19012789E+03</pdfrwt>
<totfact> 0.10172678E+05</totfact>
</mgrwt>
</event>
<event>
 4    1  0.4451819E+000  0.1770712E+03  0.7546771E-02  0.1170668E+00
         21   -1    0    0  501  502  0.00000000000E+00  0.00000000000E+00  0.73028232717E+02  0.73028232717E+02  0.00000000000E+00 0. -1.
         21   -1    0    0  502  503 -0.00000000000E+00 -0.00000000000E+00 -0.10868187618E+04  0.10868187618E+04  0.00000000000E+00 0. -1.
          6    1    1    2  501    0  0.35362985790E+02 -0.13215969212E+02 -0.55837850841E+02  0.18566655109E+03  0.17300000000E+03 0.  1.
         -6    1    1    2    0  503 -0.35362985790E+02  0.13215969212E+02 -0.95795267819E+03  0.97418044338E+03  0.17300000000E+03 0.  1.
<mgrwt>
<rscale>  2 0.17707118E+03</rscale>
<asrwt>0</asrwt>
<pdfrwt beam="1">  1       21 0.11235113E-01 0.17707118E+03</pdfrwt>
<pdfrwt beam="2">  1       21 0.16720289E+00 0.17707118E+03</pdfrwt>
<totfact> 0.14912547E+04</totfact>
</mgrwt>
</event>
<event>
 4    1  0.4451819E+000  0.1849620E+03  0.7546771E-02  0.1163085E+00
         21   -1    0    0  501  502  0.00000000000E+00  0.00000000000E+00  0.16669964832E+03  0.16669964832E+03  0.00000000000E+00 0.  1.
         21   -1    0    0  502  503 -0.00000000000E+00 -0.00000000000E+00 -0.42774425074E+03  0.42774425074E+03  0.00000000000E+00 0.  1.
          6    1    1    2  501    0  0.46134036875E+02 -0.46406790547E+02  0.83851918991E+02  0.20308147105E+03  0.17300000000E+03 0.  1.
         -6    1    1    2    0  503 -0.46134036875E+02  0.46406790547E+02 -0.34489652142E+03  0.39136242800E+03  0.17300000000E+03 0.  1.
<mgrwt>
<rscale>  2 0.18496199E+03</rscale>
<asrwt>0</asrwt>
<pdfrwt beam="1">  1       21 0.25646100E-01 0.18496199E+03</pdfrwt>
<pdfrwt beam="2">  1       21 0.65806807E-01 0.18496199E+03</pdfrwt>
<totfact> 0.30733710E+04</totfact>
</mgrwt>
</event>
<event>
 4    1  0.4451819E+000  0.1930111E+03  0.7546771E-02  0.1155773E+00
         21   -1    0    0  503  502  0.00000000000E+00  0.00000000000E+00  0.23291067846E+04  0.23291067846E+04  0.00000000000E+00 0. -1.
         21   -1    0    0  501  503 -0.00000000000E+00 -0.00000000000E+00 -0.17340364675E+02  0.17340364675E+02  0.00000000000E+00 0. -1.
          6    1    1    2  501    0 -0.25753688502E+02  0.81615159216E+02  0.82905053374E+03  0.85122151887E+03  0.17300000000E+03 0. -1.
         -6    1    1    2    0  502  0.25753688502E+02 -0.81615159216E+02  0.14827158862E+04  0.14952256304E+04  0.17300000000E+03 0. -1.
<mgrwt>
<rscale>  2 0.19301111E+03</rscale>
<asrwt>0</asrwt>
<pdfrwt beam="1">  1       21 0.35832387E+00 0.19301111E+03</pdfrwt>
<pdfrwt beam="2">  1       21 0.26677503E-02 0.19301111E+03</pdfrwt>
<totfact> 0.11982848E+04</totfact>
</mgrwt>
</event>
<event>
 4    1  0.4451819E+000  0.1742561E+03  0.7546771E-02  0.1173481E+00
         21   -1    0    0  501  502  0.00000000000E+00  0.00000000000E+00  0.17398965524E+03  0.17398965524E+03  0.00000000000E+00 0. -1.
         21   -1    0    0  502  503 -0.00000000000E+00 -0.00000000000E+00 -0.28599080089E+03  0.28599080089E+03  0.00000000000E+00 0. -1.
          6    1    1    2  501    0  0.16553833741E+02 -0.12733925006E+02  0.87584148336E+02  0.19502862687E+03  0.17300000000E+03 0. -1.
         -6    1    1    2    0  503 -0.16553833741E+02  0.12733925006E+02 -0.19958529399E+03  0.26495182927E+03  0.17300000000E+03 0. -1.
<mgrwt>
<rscale>  2 0.17425608E+03</rscale>
<asrwt>0</asrwt>
<pdfrwt beam="1">  1       21 0.26767640E-01 0.17425608E+03</pdfrwt>
<pdfrwt beam="2">  1       21 0.43998584E-01 0.17425608E+03</pdfrwt>
<totfact> 0.66475092E+04</totfact>
</mgrwt>
</event>
<event>
 4    1  0.4451819E+000  0.1964926E+03  0.7546771E-02  0.1152732E+00
         21   -1    0    0  503  502  0.00000000000E+00  0.00000000000E+00  0.22079447274E+03  0.22079447274E+03  0.00000000000E+00 0. -1.
         21   -1    0    0  501  503 -0.00000000000E+00 -0.00000000000E+00 -0.21503937958E+03  0.21503937958E+03  0.00000000000E+00 0. -1.
          6    1    1    2  501    0 -0.89316152568E+02  0.26513374605E+02 -0.91312257655E+02  0.21667316987E+03  0.17300000000E+03 0. -1.
         -6    1    1    2    0  502  0.89316152568E+02 -0.26513374605E+02  0.97067350812E+02  0.21916068246E+03  0.17300000000E+03 0. -1.
<mgrwt>
<rscale>  2 0.19649258E+03</rscale>
<asrwt>0</asrwt>
<pdfrwt beam="1">  1       21 0.33968381E-01 0.19649258E+03</pdfrwt>
<pdfrwt beam="2">  1       21 0.33082981E-01 0.19649258E+03</pdfrwt>
<totfact> 0.73332004E+04</totfact>
</mgrwt>
</event>
<event>
 4    1  0.4451819E+000  0.2134353E+03  0.7546771E-02  0.1138874E+00
         21   -1    0    0  501  502  0.00000000000E+00  0.00000000000E+00  0.89287207375E+02  0.89287207375E+02  0.00000000000E+00 0. -1.
         21   -1    0    0  502  503 -0.00000000000E+00 -0.00000000000E+00 -0.54260132140E+03  0.54260132140E+03  0.00000000000E+00 0. -1.
          6    1    1    2  501    0 -0.11400094453E+03 -0.51277847454E+02 -0.30385912075E+03  0.37132869302E+03  0.17300000000E+03 0. -1.
         -6    1    1    2    0  503  0.11400094453E+03  0.51277847454E+02 -0.14945499327E+03  0.26055983575E+03  0.17300000000E+03 0. -1.
<mgrwt>
<rscale>  2 0.21343531E+03</rscale>
<asrwt>0</asrwt>
<pdfrwt beam="1">  1       21 0.13736494E-01 0.21343531E+03</pdfrwt>
<pdfrwt beam="2">  1       21 0.83477124E-01 0.21343531E+03</pdfrwt>
<totfact> 0.56898470E+04</totfact>
</mgrwt>
</event>
<event>
 4    1  0.4451819E+000  0.1995878E+03  0.7546771E-02  0.1150087E+00
         21   -1    0    0  503  502  0.00000000000E+00  0.00000000000E+00  0.25973932387E+03  0.25973932387E+03  0.00000000000E+00 0. -1.
         21   -1    0    0  501  503 -0.00000000000E+00 -0.00000000000E+00 -0.17016274182E+03  0.17016274182E+03  0.00000000000E+00 0.  1.
          6    1    1    2  501    0 -0.67342779006E+02 -0.73288690581E+02 -0.22744515721E+02  0.20087955358E+03  0.17300000000E+03 0.  1.
         -6    1    1    2    0  502  0.67342779006E+02  0.73288690581E+02  0.11232109777E+03  0.22902251211E+03  0.17300000000E+03 0. -1.
<mgrwt>
<rscale>  2 0.19958778E+03</rscale>
<asrwt>0</asrwt>
<pdfrwt beam="1">  1       21 0.39959896E-01 0.19958778E+03</pdfrwt>
<pdfrwt beam="2">  1       21 0.26178883E-01 0.19958778E+03</pdfrwt>
<totfact> 0.83459693E+04</totfact>
</mgrwt>
</event>
<event>
 4    1  0.4451819E+000  0.2073044E+03  0.7546771E-02  0.1143719E+00
         21   -1    0    0  503  502  0.00000000000E+00  0.00000000000E+00  0.33110465969E+03  0.33110465969E+03  0.00000000000E+00 0.  1.
         21   -1    0    0  501  503 -0.00000000000E+00 -0.00000000000E+00 -0.38602759145E+03  0.38602759145E+03  0.00000000000E+00 0.  1.
          6    1    1    2  501    0  0.83368150650E+02  0.78076104834E+02 -0.31959325052E+03  0.38093959162E+03  0.17300000000E+03 0.  1.
         -6    1    1    2    0  502 -0.83368150650E+02 -0.78076104834E+02  0.26467031875E+03  0.33619265952E+03  0.17300000000E+03 0.  1.
<mgrwt>
<rscale>  2 0.20730443E+03</rscale>
<asrwt>0</asrwt>
<pdfrwt beam="1">  1       21 0.50939178E-01 0.20730443E+03</pdfrwt>
<pdfrwt beam="2">  1       21 0.59388860E-01 0.20730443E+03</pdfrwt>
<totfact> 0.96107098E+03</totfact>
</mgrwt>
</event>
<event>
 4    1  0.4451819E+000  0.1971242E+03  0.7546771E-02  0.1152188E+00
         21   -1    0    0  503  502  0.00000000000E+00  0.00000000000E+00  0.50202646622E+02  0.50202646622E+02  0.00000000000E+00 0.  1.
         21   -1    0    0  501  503 -0.00000000000E+00 -0.00000000000E+00 -0.10521261534E+04  0.10521261534E+04  0.00000000000E+00 0. -1.
          6    1    1    2  501    0  0.94371030363E+02  0.48008807057E+01 -0.21759350095E+03  0.29360666117E+03  0.17300000000E+03 0.  1.
         -6    1    1    2    0  502 -0.94371030363E+02 -0.48008807057E+01 -0.78433000581E+03  0.80872213883E+03  0.17300000000E+03 0. -1.
<mgrwt>
<rscale>  2 0.19712417E+03</rscale>
<asrwt>0</asrwt>
<pdfrwt beam="1">  1       21 0.77234842E-02 0.19712417E+03</pdfrwt>
<pdfrwt beam="2">  1       21 0.16186556E+00 0.19712417E+03</pdfrwt>
<totfact> 0.31029750E+04</totfact>
</mgrwt>
</event>
<event>
 4    1  0.4451819E+000  0.1817316E+03  0.7546771E-02  0.1166138E+00
         21   -1    0    0  501  502  0.00000000000E+00  0.00000000000E+00  0.35376008612E+03  0.35376008612E+03  0.00000000000E+00 0. -1.
         21   -1    0    0  502  503 -0.00000000000E+00 -0.00000000000E+00 -0.31138080118E+03  0.31138080118E+03  0.00000000000E+00 0. -1.
          6    1    1    2  501    0 -0.46402501525E+02  0.30727308563E+02  0.29947388755E+03  0.35030125459E+03  0.17300000000E+03 0. -1.
         -6    1    1    2    0  503  0.46402501525E+02 -0.30727308563E+02 -0.25709460260E+03  0.31483963271E+03  0.17300000000E+03 0. -1.
<mgrwt>
<rscale>  2 0.18173156E+03</rscale>
<asrwt>0</asrwt>
<pdfrwt beam="1">  1       21 0.54424629E-01 0.18173156E+03</pdfrwt>
<pdfrwt beam="2">  1       21 0.47904739E-01 0.18173156E+03</pdfrwt>
<totfact> 0.13378146E+04</totfact>
</mgrwt>
</event>
<event>
 4    1  0.4451819E+000  0.2362568E+03  0.7546771E-02  0.1122312E+00
         21   -1    0    0  503  502  0.00000000000E+00  0.00000000000E+00  0.68287868497E+03  0.68287868497E+03  0.00000000000E+00 0.  1.
         21   -1    0    0  501  503 -0.00000000000E+00 -0.00000000000E+00 -0.14594076401E+03  0.14594076401E+03  0.00000000000E+00 0. -1.
          6    1    1    2  501    0 -0.11764004823E+03  0.10976845946E+03 -0.63949443032E+01  0.23634337510E+03  0.17300000000E+03 0. -1.
         -6    1    1    2    0  502  0.11764004823E+03 -0.10976845946E+03  0.54333286527E+03  0.59247607388E+03  0.17300000000E+03 0.  1.
<mgrwt>
<rscale>  2 0.23625684E+03</rscale>
<asrwt>0</asrwt>
<pdfrwt beam="1">  1       21 0.10505826E+00 0.23625684E+03</pdfrwt>
<pdfrwt beam="2">  1       21 0.22452426E-01 0.23625684E+03</pdfrwt>
<totfact> 0.13185477E+04</totfact>
</mgrwt>
</event>
<event>
 4    1  0.4451819E+000  0.1831441E+03  0.7546771E-02  0.1164794E+00
         21   -1    0    0  501  502  0.00000000000E+00  0.00000000000E+00  0.45914762583E+02  0.45914762583E+02  0.00000000000E+00 0. -1.
         21   -1    0    0  502  503 -0.00000000000E+00 -0.00000000000E+00 -0.74280102074E+03  0.74280102074E+03  0.00000000000E+00 0. -1.
          6    1    1    2  501    0 -0.32029550351E+02 -0.50861141221E+02 -0.29773999864E+03  0.34955808469E+03  0.17300000000E+03 0. -1.
         -6    1    1    2    0  503  0.32029550351E+02  0.50861141221E+02 -0.39914625952E+03  0.43915769863E+03  0.17300000000E+03 0. -1.
<mgrwt>
<rscale>  2 0.18314406E+03</rscale>
<asrwt>0</asrwt>
<pdfrwt beam="1">  1       21 0.70638101E-02 0.18314406E+03</pdfrwt>
<pdfrwt beam="2">  1       21 0.11427707E+00 0.18314406E+03</pdfrwt>
<totfact> 0.89024587E+04</totfact>
</mgrwt>
</event>
<event>
 4    1  0.4451819E+000  0.2073930E+03  0.7546771E-02  0.1143647E+00
         21   -1    0    0  501  502  0.00000000000E+00  0.00000000000E+00  0.15291678096E+03  0.15291678096E+03  0.00000000000E+00 0.  1.
         21   -1    0    0  502  503 -0.00000000000E+00 -0.00000000000E+00 -0.28147299107E+03  0.28147299107E+03  0.00000000000E+00 0.  1.
          6    1    1    2  501    0  0.10565913758E+03  0.43806659382E+02 -0.70018588035E+02  0.21889376289E+03  0.17300000000E+03 0.  1.
         -6    1    1    2    0  503 -0.10565913758E+03 -0.43806659382E+02 -0.58537622069E+02  0.21549600915E+03  0.17300000000E+03 0.  1.
<mgrwt>
<rscale>  2 0.20739305E+03</rscale>
<asrwt>0</asrwt>
<pdfrwt beam="1">  1       21 0.23525659E-01 0.20739305E+03</pdfrwt>
<pdfrwt beam="2">  1       21 0.43303537E-01 0.20739305E+03</pdfrwt>
<totfact> 0.86639028E+04</totfact>
</mgrwt>
</event>
<event>
 4    1  0.4451819E+000  0.3403649E+03  0.7546771E-02  0.1066641E+00
         21   -1    0    0  501  502  0.00000000000E+00  0.00000000000E+00  0.36586926053E+03  0.36586926053E+03  0.00000000000E+00 0.  1.
         21   -1    0    0  502  503 -0.00000000000E+00 -0.00000000000E+00 -0.16535904355E+04  0.16535904355E+04  0.00000000000E+00 0.  1.
          6    1    1    2  501    0  0.16370364611E+02  0.29266244221E+03  0.26406261666E+03  0.43078690723E+03  0.17300000000E+03 0.  1.
         -6    1    1    2    0  503 -0.16370364611E+02 -0.29266244221E+03 -0.15517837916E+04  0.15886727888E+04  0.17300000000E+03 0.  1.
<mgrwt>
<rscale>  2 0.34036494E+03</rscale>
<asrwt>0</asrwt>
<pdfrwt beam="1">  1       21 0.56287578E-01 0.34036494E+03</pdfrwt>
<pdfrwt beam="2">  1       21 0.25439853E+00 0.34036494E+03</pdfrwt>
<totfact> 0.15854857E+02</totfact>
</mgrwt>
</event>
<event>
 4    1  0.4451819E+000  0.2018623E+03  0.7546771E-02  0.1148177E+00
         21   -1    0    0  503  502  0.00000000000E+00  0.00000000000E+00  0.63371071949E+03  0.63371071949E+03  0.00000000000E+00 0. -1.
         21   -1    0    0  501  503 -0.00000000000E+00 -0.00000000000E+00 -0.67283700096E+02  0.67283700096E+02  0.00000000000E+00 0. -1.
          6    1    1    2  501    0 -0.52225957778E+02 -0.89954587585E+02  0.20942007794E+03  0.29086964011E+03  0.17300000000E+03 0. -1.
         -6    1    1    2    0  502  0.52225957778E+02  0.89954587585E+02  0.35700694146E+03  0.41012477948E+03  0.17300000000E+03 0. -1.
<mgrwt>
<rscale>  2 0.20186228E+03</rscale>
<asrwt>0</asrwt>
<pdfrwt beam="1">  1       21 0.97493953E-01 0.20186228E+03</pdfrwt>
<pdfrwt beam="2">  1       21 0.10351339E-01 0.20186228E+03</pdfrwt>
<totfact> 0.66248264E+04</totfact>
</mgrwt>
</event>
<event>
 4    1  0.4451819E+000  0.2182350E+03  0.7546771E-02  0.1135206E+00
         21   -1    0    0  503  502  0.00000000000E+00  0.00000000000E+00  0.30175381934E+02  0.30175381934E+02  0.00000000000E+00 0.  1.
         21   -1    0    0  501  503 -0.00000000000E+00 -0.00000000000E+00 -0.15970259599E+04  0.15970259599E+04  0.00000000000E+00 0. -1.
          6    1    1    2  501    0 -0.13302770872E+03  0.10691360377E+01 -0.69538028632E+03  0.72882114194E+03  0.17300000000E+03 0.  1.
         -6    1    1    2    0  502  0.13302770872E+03 -0.10691360377E+01 -0.87147029167E+03  0.89838019991E+03  0.17300000000E+03 0. -1.
<mgrwt>
<rscale>  2 0.21823500E+03</rscale>
<asrwt>0</asrwt>
<pdfrwt beam="1">  1       21 0.46423666E-02 0.21823500E+03</pdfrwt>
<pdfrwt beam="2">  1       21 0.24569629E+00 0.21823500E+03</pdfrwt>
<totfact> 0.21050701E+04</totfact>
</mgrwt>
</event>
<event>
 4    1  0.4451819E+000  0.1993971E+03  0.7546771E-02  0.1150249E+00
         21   -1    0    0  503  502  0.00000000000E+00  0.00000000000E+00  0.32739527210E+02  0.32739527210E+02  0.00000000000E+00 0. -1.
         21   -1    0    0  501  503 -0.00000000000E+00 -0.00000000000E+00 -0.12156879848E+04  0.12156879848E+04  0.00000000000E+00 0.  1.
          6    1    1    2  501    0 -0.81127777959E+02 -0.56995391477E+02 -0.61171745475E+03  0.64339524047E+03  0.17300000000E+03 0.  1.
         -6    1    1    2    0  502  0.81127777959E+02  0.56995391477E+02 -0.57123100283E+03  0.60503227153E+03  0.17300000000E+03 0.  1.
<mgrwt>
<rscale>  2 0.19939707E+03</rscale>
<asrwt>0</asrwt>
<pdfrwt beam="1">  1       21 0.50368506E-02 0.19939707E+03</pdfrwt>
<pdfrwt beam="2">  1       21 0.18702891E+00 0.19939707E+03</pdfrwt>
<totfact> 0.43164989E+04</totfact>
</mgrwt>
</event>
<event>
 4    1  0.4451819E+000  0.2120068E+03  0.7546771E-02  0.1139987E+00
         21   -1    0    0  503  502  0.00000000000E+00  0.00000000000E+00  0.62958744158E+03  0.62958744158E+03  0.00000000000E+00 0.  1.
         21   -1    0    0  501  503 -0.00000000000E+00 -0.00000000000E+00 -0.75196865871E+02  0.75196865871E+02  0.00000000000E+00 0.  1.
          6    1    1    2  501    0  0.13315229758E+02  0.12182197651E+03  0.19791741518E+03  0.29003136474E+03  0.17300000000E+03 0.  1.
         -6    1    1    2    0  502 -0.13315229758E+02 -0.12182197651E+03  0.35647316053E+03  0.41475294271E+03  0.17300000000E+03 0.  1.
<mgrwt>
<rscale>  2 0.21200681E+03</rscale>
<asrwt>0</asrwt>
<pdfrwt beam="1">  1       21 0.96859603E-01 0.21200681E+03</pdfrwt>
<pdfrwt beam="2">  1       21 0.11568749E-01 0.21200681E+03</pdfrwt>
<totfact> 0.54926341E+04</totfact>
</mgrwt>
</event>
<event>
 4    1  0.4451819E+000  0.2069728E+03  0.7546771E-02  0.1143986E+00
         21   -1    0    0  501  502  0.00000000000E+00  0.00000000000E+00  0.47874081173E+02  0.47874081173E+02  0.00000000000E+00 0. -1.
         21   -1    0    0  502  503 -0.00000000000E+00 -0.00000000000E+00 -0.10334081233E+04  0.10334081233E+04  0.00000000000E+00 0. -1.
          6    1    1    2  501    0 -0.81612394110E+02 -0.79045344254E+02 -0.69076773808E+03  0.72110874165E+03  0.17300000000E+03 0. -1.
         -6    1    1    2    0  503  0.81612394110E+02  0.79045344254E+02 -0.29476630409E+03  0.36017346286E+03  0.17300000000E+03 0. -1.
<mgrwt>
<rscale>  2 0.20697282E+03</rscale>
<asrwt>0</asrwt>
<pdfrwt beam="1">  1       21 0.73652438E-02 0.20697282E+03</pdfrwt>
<pdfrwt beam="2">  1       21 0.15898585E+00 0.20697282E+03</pdfrwt>
<totfact> 0.35156497E+04</totfact>
</mgrwt>
</event>
<event>
 4    1  0.4451819E+000  0.2346323E+03  0.7546771E-02  0.1123421E+00
         21   -1    0    0  501  502  0.00000000000E+00  0.00000000000E+00  0.74700025322E+03  0.74700025322E+03  0.00000000000E+00 0. -1.
         21   -1    0    0  502  503 -0.00000000000E+00 -0.00000000000E+00 -0.12733292197E+03  0.12733292197E+03  0.00000000000E+00 0. -1.
          6    1    1    2  501    0  0.15064180596E+03 -0.49298809075E+02  0.59356086346E+03  0.63825294744E+03  0.17300000000E+03 0. -1.
         -6    1    1    2    0  503 -0.15064180596E+03  0.49298809075E+02  0.26106467786E+02  0.23608022776E+03  0.17300000000E+03 0. -1.
<mgrwt>
<rscale>  2 0.23463232E+03</rscale>
<asrwt>0</asrwt>
<pdfrwt beam="1">  1       21 0.11492311E+00 0.23463232E+03</pdfrwt>
<pdfrwt beam="2">  1       21 0.19589681E-01 0.23463232E+03</pdfrwt>
<totfact> 0.13717457E+04</totfact>
</mgrwt>
</event>
<event>
 4    1  0.4451819E+000  0.2033054E+03  0.7546771E-02  0.1146980E+00
         21   -1    0    0  501  502  0.00000000000E+00  0.00000000000E+00  0.21010470799E+02  0.21010470799E+02  0.00000000000E+00 0. -1.
         21   -1    0    0  502  503 -0.00000000000E+00 -0.00000000000E+00 -0.19707343712E+04  0.19707343712E+04  0.00000000000E+00 0. -1.
          6    1    1    2  501    0 -0.99692366941E+02 -0.38282046968E+02 -0.10166695547E+04  0.10367979873E+04  0.17300000000E+03 0. -1.
         -6    1    1    2    0  503  0.99692366941E+02  0.38282046968E+02 -0.93305434569E+03  0.95494685462E+03  0.17300000000E+03 0. -1.
<mgrwt>
<rscale>  2 0.20330539E+03</rscale>
<asrwt>0</asrwt>
<pdfrwt beam="1">  1       21 0.32323802E-02 0.20330539E+03</pdfrwt>
<pdfrwt beam="2">  1       21 0.30318990E+00 0.20330539E+03</pdfrwt>
<totfact> 0.18103000E+04</totfact>
</mgrwt>
</event>
<event>
 4    1  0.4451819E+000  0.2163640E+03  0.7546771E-02  0.1136623E+00
         21   -1    0    0  501  502  0.00000000000E+00  0.00000000000E+00  0.22712461447E+04  0.22712461447E+04  0.00000000000E+00 0.  1.
         21   -1    0    0  502  503 -0.00000000000E+00 -0.00000000000E+00 -0.12755342442E+03  0.12755342442E+03  0.00000000000E+00 0.  1.
          6    1    1    2  501    0 -0.11946578097E+03 -0.51110550402E+02  0.21700737883E+04  0.21808332370E+04  0.17300000000E+03 0.  1.
         -6    1    1    2    0  503  0.11946578097E+03  0.51110550402E+02 -0.26381067980E+02  0.21796633211E+03  0.17300000000E+03 0.  1.
<mgrwt>
<rscale>  2 0.21636396E+03</rscale>
<asrwt>0</asrwt>
<pdfrwt beam="1">  1       21 0.34942245E+00 0.21636396E+03</pdfrwt>
<pdfrwt beam="2">  1       21 0.19623605E-01 0.21636396E+03</pdfrwt>
<totfact> 0.40692784E+02</totfact>
</mgrwt>
</event>
<event>
 4    1  0.4451819E+000  0.2073598E+03  0.7546771E-02  0.1143674E+00
         21   -1    0    0  501  502  0.00000000000E+00  0.00000000000E+00  0.53256041563E+03  0.53256041563E+03  0.00000000000E+00 0. -1.
         21   -1    0    0  502  503 -0.00000000000E+00 -0.00000000000E+00 -0.88646555638E+02  0.88646555638E+02  0.00000000000E+00 0. -1.
          6    1    1    2  501    0  0.84149665031E+02 -0.77381639928E+02  0.12918586121E+03  0.24430937571E+03  0.17300000000E+03 0. -1.
         -6    1    1    2    0  503 -0.84149665031E+02  0.77381639928E+02  0.31472799878E+03  0.37689759556E+03  0.17300000000E+03 0. -1.
<mgrwt>
<rscale>  2 0.20735979E+03</rscale>
<asrwt>0</asrwt>
<pdfrwt beam="1">  1       21 0.81932369E-01 0.20735979E+03</pdfrwt>
<pdfrwt beam="2">  1       21 0.13637932E-01 0.20735979E+03</pdfrwt>
<totfact> 0.60323705E+04</totfact>
</mgrwt>
</event>
<event>
 4    1  0.4451819E+000  0.1890081E+03  0.7546771E-02  0.1159359E+00
         21   -1    0    0  503  502  0.00000000000E+00  0.00000000000E+00  0.70918673685E+02  0.70918673685E+02  0.00000000000E+00 0. -1.
         21   -1    0    0  501  503 -0.00000000000E+00 -0.00000000000E+00 -0.15222334612E+04  0.15222334612E+04  0.00000000000E+00 0. -1.
          6    1    1    2  501    0 -0.40642268409E+02  0.64368336650E+02 -0.13772366290E+04  0.13901456072E+04  0.17300000000E+03 0. -1.
         -6    1    1    2    0  502  0.40642268409E+02 -0.64368336650E+02 -0.74078158513E+02  0.20300652776E+03  0.17300000000E+03 0. -1.
<mgrwt>
<rscale>  2 0.18900814E+03</rscale>
<asrwt>0</asrwt>
<pdfrwt beam="1">  1       21 0.10910565E-01 0.18900814E+03</pdfrwt>
<pdfrwt beam="2">  1       21 0.23418977E+00 0.18900814E+03</pdfrwt>
<totfact> 0.57590522E+03</totfact>
</mgrwt>
</event>
<event>
 4    1  0.4451819E+000  0.2256980E+03  0.7546771E-02  0.1129705E+00
         21   -1    0    0  501  502  0.00000000000E+00  0.00000000000E+00  0.36248886877E+03  0.36248886877E+03  0.00000000000E+00 0. -1.
         21   -1    0    0  502  503 -0.00000000000E+00 -0.00000000000E+00 -0.21670786634E+03  0.21670786634E+03  0.00000000000E+00 0. -1.
          6    1    1    2  501    0 -0.14494544456E+03  0.11918928596E+01  0.24459461827E+03  0.33281545906E+03  0.17300000000E+03 0. -1.
         -6    1    1    2    0  503  0.14494544456E+03 -0.11918928596E+01 -0.98813615839E+02  0.24638127604E+03  0.17300000000E+03 0. -1.
<mgrwt>
<rscale>  2 0.22569803E+03</rscale>
<asrwt>0</asrwt>
<pdfrwt beam="1">  1       21 0.55767518E-01 0.22569803E+03</pdfrwt>
<pdfrwt beam="2">  1       21 0.33339672E-01 0.22569803E+03</pdfrwt>
<totfact> 0.25772855E+04</totfact>
</mgrwt>
</event>
<event>
 4    1  0.4451819E+000  0.2085264E+03  0.7546771E-02  0.1142738E+00
         21   -1    0    0  501  502  0.00000000000E+00  0.00000000000E+00  0.22298073018E+03  0.22298073018E+03  0.00000000000E+00 0.  1.
         21   -1    0    0  502  503 -0.00000000000E+00 -0.00000000000E+00 -0.20892470231E+03  0.20892470231E+03  0.00000000000E+00 0.  1.
          6    1    1    2  501    0  0.11590158340E+03  0.11003072002E+02 -0.48705530129E+02  0.21413891121E+03  0.17300000000E+03 0.  1.
         -6    1    1    2    0  503 -0.11590158340E+03 -0.11003072002E+02  0.62761557995E+02  0.21776652128E+03  0.17300000000E+03 0.  1.
<mgrwt>
<rscale>  2 0.20852636E+03</rscale>
<asrwt>0</asrwt>
<pdfrwt beam="1">  1       21 0.34304728E-01 0.20852636E+03</pdfrwt>
<pdfrwt beam="2">  1       21 0.32142262E-01 0.20852636E+03</pdfrwt>
<totfact> 0.75720660E+04</totfact>
</mgrwt>
</event>
<event>
 4    1  0.4451819E+000  0.2074621E+03  0.7546771E-02  0.1143592E+00
         21   -1    0    0  503  502  0.00000000000E+00  0.00000000000E+00  0.16097741508E+03  0.16097741508E+03  0.00000000000E+00 0.  1.
         21   -1    0    0  501  503 -0.00000000000E+00 -0.00000000000E+00 -0.31941358890E+03  0.31941358890E+03  0.00000000000E+00 0.  1.
          6    1    1    2  501    0 -0.22799930825E+02 -0.11221276424E+03 -0.17617338369E+03  0.27217200889E+03  0.17300000000E+03 0.  1.
         -6    1    1    2    0  502  0.22799930825E+02  0.11221276424E+03  0.17737209875E+02  0.20821899509E+03  0.17300000000E+03 0.  1.
<mgrwt>
<rscale>  2 0.20746214E+03</rscale>
<asrwt>0</asrwt>
<pdfrwt beam="1">  1       21 0.24765756E-01 0.20746214E+03</pdfrwt>
<pdfrwt beam="2">  1       21 0.49140552E-01 0.20746214E+03</pdfrwt>
<totfact> 0.60505752E+04</totfact>
</mgrwt>
</event>
<event>
 4    1  0.4451819E+000  0.1957612E+03  0.7546771E-02  0.1153365E+00
         21   -1    0    0  501  502  0.00000000000E+00  0.00000000000E+00  0.38387181972E+03  0.38387181972E+03  0.00000000000E+00 0. -1.
         21   -1    0    0  502  503 -0.00000000000E+00 -0.00000000000E+00 -0.15775346703E+03  0.15775346703E+03  0.00000000000E+00 0.  1.
          6    1    1    2  501    0 -0.39126421206E+02  0.82840519698E+02  0.27715662344E+03  0.33932023585E+03  0.17300000000E+03 0. -1.
         -6    1    1    2    0  503  0.39126421206E+02 -0.82840519698E+02 -0.51038270752E+02  0.20230505090E+03  0.17300000000E+03 0.  1.
<mgrwt>
<rscale>  2 0.19576115E+03</rscale>
<asrwt>0</asrwt>
<pdfrwt beam="1">  1       21 0.59057203E-01 0.19576115E+03</pdfrwt>
<pdfrwt beam="2">  1       21 0.24269764E-01 0.19576115E+03</pdfrwt>
<totfact> 0.42898184E+04</totfact>
</mgrwt>
</event>
<event>
 4    1  0.4451819E+000  0.1821765E+03  0.7546771E-02  0.1165713E+00
         21   -1    0    0  503  502  0.00000000000E+00  0.00000000000E+00  0.51678959674E+02  0.51678959674E+02  0.00000000000E+00 0.  1.
         21   -1    0    0  501  503 -0.00000000000E+00 -0.00000000000E+00 -0.12809551063E+04  0.12809551063E+04  0.00000000000E+00 0.  1.
          6    1    1    2  501    0  0.51021183787E+02  0.25615040661E+02 -0.10851609405E+04  0.11003465628E+04  0.17300000000E+03 0.  1.
         -6    1    1    2    0  502 -0.51021183787E+02 -0.25615040661E+02 -0.14411520621E+03  0.23228750324E+03  0.17300000000E+03 0.  1.
<mgrwt>
<rscale>  2 0.18217654E+03</rscale>
<asrwt>0</asrwt>
<pdfrwt beam="1">  1       21 0.79506097E-02 0.18217654E+03</pdfrwt>
<pdfrwt beam="2">  1       21 0.19707000E+00 0.18217654E+03</pdfrwt>
<totfact> 0.17150883E+04</totfact>
</mgrwt>
</event>
<event>
 4    1  0.4451819E+000  0.2234629E+03  0.7546771E-02  0.1131327E+00
         21   -1    0    0  503  502  0.00000000000E+00  0.00000000000E+00  0.10350488485E+03  0.10350488485E+03  0.00000000000E+00 0. -1.
         21   -1    0    0  501  503 -0.00000000000E+00 -0.00000000000E+00 -0.10995084719E+04  0.10995084719E+04  0.00000000000E+00 0. -1.
          6    1    1    2  501    0  0.14106690423E+03  0.10335139492E+02 -0.94861628741E+03  0.97458121638E+03  0.17300000000E+03 0. -1.
         -6    1    1    2    0  502 -0.14106690423E+03 -0.10335139492E+02 -0.47387299617E+02  0.22843214035E+03  0.17300000000E+03 0. -1.
<mgrwt>
<rscale>  2 0.22346294E+03</rscale>
<asrwt>0</asrwt>
<pdfrwt beam="1">  1       21 0.15923828E-01 0.22346294E+03</pdfrwt>
<pdfrwt beam="2">  1       21 0.16915516E+00 0.22346294E+03</pdfrwt>
<totfact> 0.74268498E+03</totfact>
</mgrwt>
</event>
<event>
 4    1  0.4451819E+000  0.2495093E+03  0.7546771E-02  0.1113615E+00
         21   -1    0    0  501  502  0.00000000000E+00  0.00000000000E+00  0.59972857939E+03  0.59972857939E+03  0.00000000000E+00 0.  1.
         21   -1    0    0  502  503 -0.00000000000E+00 -0.00000000000E+00 -0.11020909257E+03  0.11020909257E+03  0.00000000000E+00 0. -1.
          6    1    1    2  501    0  0.11071207442E+02  0.17945280416E+03  0.15919257059E+03  0.29596816567E+03  0.17300000000E+03 0. -1.
         -6    1    1    2    0  503 -0.11071207442E+02 -0.17945280416E+03  0.33032691622E+03  0.41396950629E+03  0.17300000000E+03 0.  1.
<mgrwt>
<rscale>  2 0.24950928E+03</rscale>
<asrwt>0</asrwt>
<pdfrwt beam="1">  1       21 0.92265933E-01 0.24950928E+03</pdfrwt>
<pdfrwt beam="2">  1       21 0.16955245E-01 0.24950928E+03</pdfrwt>
<totfact> 0.30189338E+04</totfact>
</mgrwt>
</event>
<event>
 4    1  0.4451819E+000  0.1778378E+03  0.7546771E-02  0.1169912E+00
         21   -1    0    0  503  502  0.00000000000E+00  0.00000000000E+00  0.59384804720E+03  0.59384804720E+03  0.00000000000E+00 0.  1.
         21   -1    0    0  501  503 -0.00000000000E+00 -0.00000000000E+00 -0.57350863368E+02  0.57350863368E+02  0.00000000000E+00 0.  1.
          6    1    1    2  501    0 -0.30581615897E+02 -0.27605019284E+02  0.18125113811E+03  0.25392567296E+03  0.17300000000E+03 0.  1.
         -6    1    1    2    0  502  0.30581615897E+02  0.27605019284E+02  0.35524604572E+03  0.39727323761E+03  0.17300000000E+03 0.  1.
<mgrwt>
<rscale>  2 0.17783777E+03</rscale>
<asrwt>0</asrwt>
<pdfrwt beam="1">  1       21 0.91361234E-01 0.17783777E+03</pdfrwt>
<pdfrwt beam="2">  1       21 0.88232101E-02 0.17783777E+03</pdfrwt>
<totfact> 0.10323241E+05</totfact>
</mgrwt>
</event>
<event>
 4    1  0.4451819E+000  0.2312278E+03  0.7546771E-02  0.1125779E+00
         21   -1    0    0  503  502  0.00000000000E+00  0.00000000000E+00  0.14587032702E+03  0.14587032702E+03  0.00000000000E+00 0.  1.
         21   -1    0    0  501  503 -0.00000000000E+00 -0.00000000000E+00 -0.40204370467E+03  0.40204370467E+03  0.00000000000E+00 0. -1.
          6    1    1    2  501    0  0.76949415628E+02 -0.13272555622E+03 -0.20950564938E+03  0.31202388204E+03  0.17300000000E+03 0. -1.
         -6    1    1    2    0  502 -0.76949415628E+02  0.13272555622E+03 -0.46667728278E+02  0.23589014965E+03  0.17300000000E+03 0.  1.
<mgrwt>
<rscale>  2 0.23122778E+03</rscale>
<asrwt>0</asrwt>
<pdfrwt beam="1">  1       21 0.22441589E-01 0.23122778E+03</pdfrwt>
<pdfrwt beam="2">  1       21 0.61852877E-01 0.23122778E+03</pdfrwt>
<totfact> 0.44296129E+04</totfact>
</mgrwt>
</event>
<event>
 4    1  0.4451819E+000  0.2511007E+03  0.7546771E-02  0.1112611E+00
         21   -1    0    0  501  502  0.00000000000E+00  0.00000000000E+00  0.14448697563E+04  0.14448697563E+04  0.00000000000E+00 0. -1.
         21   -1    0    0  502  503 -0.00000000000E+00 -0.00000000000E+00 -0.88599504264E+02  0.88599504264E+02  0.00000000000E+00 0.  1.
          6    1    1    2  501    0 -0.16260364028E+03 -0.81747209622E+02  0.12243314432E+04  0.12498155996E+04  0.17300000000E+03 0. -1.
         -6    1    1    2    0  503  0.16260364028E+03  0.81747209622E+02  0.13193880881E+03  0.28365366097E+03  0.17300000000E+03 0.  1.
<mgrwt>
<rscale>  2 0.25110068E+03</rscale>
<asrwt>0</asrwt>
<pdfrwt beam="1">  1       21 0.22228764E+00 0.25110068E+03</pdfrwt>
<pdfrwt beam="2">  1       21 0.13630694E-01 0.25110068E+03</pdfrwt>
<totfact> 0.43175033E+03</totfact>
</mgrwt>
</event>
<event>
 4    1  0.4451819E+000  0.2453761E+03  0.7546771E-02  0.1116262E+00
         21   -1    0    0  503  502  0.00000000000E+00  0.00000000000E+00  0.44940743041E+03  0.44940743041E+03  0.00000000000E+00 0. -1.
         21   -1    0    0  501  503 -0.00000000000E+00 -0.00000000000E+00 -0.15614673315E+03  0.15614673315E+03  0.00000000000E+00 0.  1.
          6    1    1    2  501    0  0.12088393246E+03  0.12516997630E+03  0.32538541283E+02  0.24752414986E+03  0.17300000000E+03 0.  1.
         -6    1    1    2    0  502 -0.12088393246E+03 -0.12516997630E+03  0.26072215598E+03  0.35803001371E+03  0.17300000000E+03 0. -1.
<mgrwt>
<rscale>  2 0.24537614E+03</rscale>
<asrwt>0</asrwt>
<pdfrwt beam="1">  1       21 0.69139604E-01 0.24537614E+03</pdfrwt>
<pdfrwt beam="2">  1       21 0.24022575E-01 0.24537614E+03</pdfrwt>
<totfact> 0.30293405E+04</totfact>
</mgrwt>
</event>
<event>
 4    1  0.4451819E+000  0.2055044E+03  0.7546771E-02  0.1145176E+00
         21   -1    0    0  501  502  0.00000000000E+00  0.00000000000E+00  0.11891476785E+03  0.11891476785E+03  0.00000000000E+00 0. -1.
         21   -1    0    0  502  503 -0.00000000000E+00 -0.00000000000E+00 -0.47445532063E+03  0.47445532063E+03  0.00000000000E+00 0.  1.
          6    1    1    2  501    0  0.74288778569E+02  0.82366412447E+02 -0.28993196167E+02  0.20753952381E+03  0.17300000000E+03 0.  1.
         -6    1    1    2    0  503 -0.74288778569E+02 -0.82366412447E+02 -0.32654735661E+03  0.38583056466E+03  0.17300000000E+03 0.  1.
<mgrwt>
<rscale>  2 0.20550438E+03</rscale>
<asrwt>0</asrwt>
<pdfrwt beam="1">  1       21 0.18294580E-01 0.20550438E+03</pdfrwt>
<pdfrwt beam="2">  1       21 0.72993125E-01 0.20550438E+03</pdfrwt>
<totfact> 0.45716736E+04</totfact>
</mgrwt>
</event>
<event>
 4    1  0.4451819E+000  0.2212385E+03  0.7546771E-02  0.1132963E+00
         21   -1    0    0  501  502  0.00000000000E+00  0.00000000000E+00  0.19115754837E+04  0.19115754837E+04  0.00000000000E+00 0. -1.
         21   -1    0    0  502  503 -0.00000000000E+00 -0.00000000000E+00 -0.36203150893E+02  0.36203150893E+02  0.00000000000E+00 0. -1.
          6    1    1    2  501    0 -0.96495099314E+02  0.98519786798E+02  0.14646070832E+04  0.14812225899E+04  0.17300000000E+03 0. -1.
         -6    1    1    2    0  503  0.96495099314E+02 -0.98519786798E+02  0.41076524960E+03  0.46655604472E+03  0.17300000000E+03 0. -1.
<mgrwt>
<rscale>  2 0.22123845E+03</rscale>
<asrwt>0</asrwt>
<pdfrwt beam="1">  1       21 0.29408846E+00 0.22123845E+03</pdfrwt>
<pdfrwt beam="2">  1       21 0.55697170E-02 0.22123845E+03</pdfrwt>
<totfact> 0.80262042E+03</totfact>
</mgrwt>
</event>
<event>
 4    1  0.4451819E+000  0.2303011E+03  0.7546771E-02  0.1126428E+00
         21   -1    0    0  503  502  0.00000000000E+00  0.00000000000E+00  0.80657033173E+03  0.80657033173E+03  0.00000000000E+00 0.  1.
         21   -1    0    0  501  503 -0.00000000000E+00 -0.00000000000E+00 -0.65773431692E+02  0.65773431692E+02  0.00000000000E+00 0.  1.
          6    1    1    2  501    0  0.10236010049E+03  0.11239210860E+03  0.37704595136E+03  0.44181695948E+03  0.17300000000E+03 0.  1.
         -6    1    1    2    0  502 -0.10236010049E+03 -0.11239210860E+03  0.36375094867E+03  0.43052680394E+03  0.17300000000E+03 0.  1.
<mgrwt>
<rscale>  2 0.23030106E+03</rscale>
<asrwt>0</asrwt>
<pdfrwt beam="1">  1       21 0.12408774E+00 0.23030106E+03</pdfrwt>
<pdfrwt beam="2">  1       21 0.10118990E-01 0.23030106E+03</pdfrwt>
<totfact> 0.37830892E+04</totfact>
</mgrwt>
</event>
<event>
 4    1  0.4451819E+000  0.2189174E+03  0.7546771E-02  0.1134693E+00
         21   -1    0    0  503  502  0.00000000000E+00  0.00000000000E+00  0.95863657417E+03  0.95863657417E+03  0.00000000000E+00 0.  1.
         21   -1    0    0  501  503 -0.00000000000E+00 -0.00000000000E+00 -0.53029265372E+02  0.53029265372E+02  0.00000000000E+00 0.  1.
          6    1    1    2  501    0  0.12228621758E+03  0.55153461080E+02  0.33176024361E+03  0.39747915986E+03  0.17300000000E+03 0.  1.
         -6    1    1    2    0  502 -0.12228621758E+03 -0.55153461080E+02  0.57384706519E+03  0.61418667969E+03  0.17300000000E+03 0.  1.
<mgrwt>
<rscale>  2 0.21891739E+03</rscale>
<asrwt>0</asrwt>
<pdfrwt beam="1">  1       21 0.14748254E+00 0.21891739E+03</pdfrwt>
<pdfrwt beam="2">  1       21 0.81583492E-02 0.21891739E+03</pdfrwt>
<totfact> 0.35686248E+04</totfact>
</mgrwt>
</event>
<event>
 4    1  0.4451819E+000  0.2802559E+03  0.7546771E-02  0.1095549E+00
         21   -1    0    0  501  502  0.00000000000E+00  0.00000000000E+00  0.34160996560E+03  0.34160996560E+03  0.00000000000E+00 0. -1.
         21   -1    0    0  502  503 -0.00000000000E+00 -0.00000000000E+00 -0.24375908800E+03  0.24375908800E+03  0.00000000000E+00 0.  1.
          6    1    1    2  501    0 -0.20043111010E+03 -0.91878795309E+02  0.11866121717E+03  0.30434162940E+03  0.17300000000E+03 0.  1.
         -6    1    1    2    0  503  0.20043111010E+03  0.91878795309E+02 -0.20810339566E+02  0.28102742421E+03  0.17300000000E+03 0. -1.
<mgrwt>
<rscale>  2 0.28025585E+03</rscale>
<asrwt>0</asrwt>
<pdfrwt beam="1">  1       21 0.52555379E-01 0.28025585E+03</pdfrwt>
<pdfrwt beam="2">  1       21 0.37501398E-01 0.28025585E+03</pdfrwt>
<totfact> 0.22532982E+04</totfact>
</mgrwt>
</event>
<event>
 4    1  0.4451819E+000  0.1946481E+03  0.7546771E-02  0.1154335E+00
         21   -1    0    0  501  502  0.00000000000E+00  0.00000000000E+00  0.38450788325E+03  0.38450788325E+03  0.00000000000E+00 0.  1.
         21   -1    0    0  502  503 -0.00000000000E+00 -0.00000000000E+00 -0.21832891858E+03  0.21832891858E+03  0.00000000000E+00 0.  1.
          6    1    1    2  501    0 -0.89128732572E+02 -0.38661217628E+01  0.30635911602E+03  0.36296526809E+03  0.17300000000E+03 0.  1.
         -6    1    1    2    0  503  0.89128732572E+02  0.38661217628E+01 -0.14018015135E+03  0.23987153374E+03  0.17300000000E+03 0.  1.
<mgrwt>
<rscale>  2 0.19464809E+03</rscale>
<asrwt>0</asrwt>
<pdfrwt beam="1">  1       21 0.59155059E-01 0.19464809E+03</pdfrwt>
<pdfrwt beam="2">  1       21 0.33589064E-01 0.19464809E+03</pdfrwt>
<totfact> 0.22779549E+04</totfact>
</mgrwt>
</event>
<event>
 4    1  0.4451819E+000  0.2016352E+03  0.7546771E-02  0.1148367E+00
         21   -1    0    0  501  502  0.00000000000E+00  0.00000000000E+00  0.88799297584E+02  0.88799297584E+02  0.00000000000E+00 0. -1.
         21   -1    0    0  502  503 -0.00000000000E+00 -0.00000000000E+00 -0.73008027642E+03  0.73008027642E+03  0.00000000000E+00 0. -1.
          6    1    1    2  501    0  0.55847866480E+02  0.87228354910E+02 -0.70621588477E+02  0.21364498321E+03  0.17300000000E+03 0. -1.
         -6    1    1    2    0  503 -0.55847866480E+02 -0.87228354910E+02 -0.57065939036E+03  0.60523459080E+03  0.17300000000E+03 0. -1.
<mgrwt>
<rscale>  2 0.20163524E+03</rscale>
<asrwt>0</asrwt>
<pdfrwt beam="1">  1       21 0.13661430E-01 0.20163524E+03</pdfrwt>
<pdfrwt beam="2">  1       21 0.11232004E+00 0.20163524E+03</pdfrwt>
<totfact> 0.28704707E+04</totfact>
</mgrwt>
</event>
<event>
 4    1  0.4451819E+000  0.1822386E+03  0.7546771E-02  0.1165654E+00
         21   -1    0    0  503  502  0.00000000000E+00  0.00000000000E+00  0.33812360370E+02  0.33812360370E+02  0.00000000000E+00 0. -1.
         21   -1    0    0  501  503 -0.00000000000E+00 -0.00000000000E+00 -0.98451311008E+03  0.98451311008E+03  0.00000000000E+00 0. -1.
          6    1    1    2  501    0 -0.34061025171E+02  0.46062323543E+02 -0.49996858446E+03  0.53214610449E+03  0.17300000000E+03 0. -1.
         -6    1    1    2    0  502  0.34061025171E+02 -0.46062323543E+02 -0.45073216526E+03  0.48617936596E+03  0.17300000000E+03 0. -1.
<mgrwt>
<rscale>  2 0.18223856E+03</rscale>
<asrwt>0</asrwt>
<pdfrwt beam="1">  1       21 0.52019013E-02 0.18223856E+03</pdfrwt>
<pdfrwt beam="2">  1       21 0.15146356E+00 0.18223856E+03</pdfrwt>
<totfact> 0.73671876E+04</totfact>
</mgrwt>
</event>
<event>
 4    1  0.4451819E+000  0.2937888E+03  0.7546771E-02  0.1088387E+00
         21   -1    0    0  501  502  0.00000000000E+00  0.00000000000E+00  0.66571326439E+02  0.66571326439E+02  0.00000000000E+00 0. -1.
         21   -1    0    0  502  503 -0.00000000000E+00 -0.00000000000E+00 -0.13190313724E+04  0.13190313724E+04  0.00000000000E+00 0.  1.
          6    1    1    2  501    0 -0.46372313799E+01  0.23740551842E+03 -0.53574803204E+03  0.61101377884E+03  0.17300000000E+03 0. -1.
         -6    1    1    2    0  503  0.46372313799E+01 -0.23740551842E+03 -0.71671201391E+03  0.77458891999E+03  0.17300000000E+03 0.  1.
<mgrwt>
<rscale>  2 0.29378884E+03</rscale>
<asrwt>0</asrwt>
<pdfrwt beam="1">  1       21 0.10241744E-01 0.29378884E+03</pdfrwt>
<pdfrwt beam="2">  1       21 0.20292788E+00 0.29378884E+03</pdfrwt>
<totfact> 0.93179120E+03</totfact>
</mgrwt>
</event>
<event>
 4    1  0.4451819E+000  0.2031074E+03  0.7546771E-02  0.1147143E+00
         21   -1    0    0  503  502  0.00000000000E+00  0.00000000000E+00  0.56322090137E+03  0.56322090137E+03  0.00000000000E+00 0.  1.
         21   -1    0    0  501  503 -0.00000000000E+00 -0.00000000000E+00 -0.11478379019E+03  0.11478379019E+03  0.00000000000E+00 0. -1.
          6    1    1    2  501    0  0.10544236990E+03  0.14336656714E+02  0.20282593221E+02  0.20411765402E+03  0.17300000000E+03 0. -1.
         -6    1    1    2    0  502 -0.10544236990E+03 -0.14336656714E+02  0.42815451796E+03  0.47388703754E+03  0.17300000000E+03 0.  1.
<mgrwt>
<rscale>  2 0.20310744E+03</rscale>
<asrwt>0</asrwt>
<pdfrwt beam="1">  1       21 0.86649368E-01 0.20310744E+03</pdfrwt>
<pdfrwt beam="2">  1       21 0.17659045E-01 0.20310744E+03</pdfrwt>
<totfact> 0.33157654E+04</totfact>
</mgrwt>
</event>
<event>
 4    1  0.4451819E+000  0.2245183E+03  0.7546771E-02  0.1130559E+00
         21   -1    0    0  503  502  0.00000000000E+00  0.00000000000E+00  0.12579327716E+04  0.12579327716E+04  0.00000000000E+00 0.  1.
         21   -1    0    0  501  503 -0.00000000000E+00 -0.00000000000E+00 -0.45253702333E+02  0.45253702333E+02  0.00000000000E+00 0.  1.
          6    1    1    2  501    0 -0.24413109240E+02 -0.14100870092E+03  0.38586080542E+03  0.44642694228E+03  0.17300000000E+03 0.  1.
         -6    1    1    2    0  502  0.24413109240E+02  0.14100870092E+03  0.82681826384E+03  0.85675953164E+03  0.17300000000E+03 0.  1.
<mgrwt>
<rscale>  2 0.22451827E+03</rscale>
<asrwt>0</asrwt>
<pdfrwt beam="1">  1       21 0.19352809E+00 0.22451827E+03</pdfrwt>
<pdfrwt beam="2">  1       21 0.69621090E-02 0.22451827E+03</pdfrwt>
<totfact> 0.22077756E+04</totfact>
</mgrwt>
</event>
<event>
 4    1  0.4451819E+000  0.2191992E+03  0.7546771E-02  0.1134481E+00
         21   -1    0    0  501  502  0.00000000000E+00  0.00000000000E+00  0.11131190061E+03  0.11131190061E+03  0.00000000000E+00 0. -1.
         21   -1    0    0  502  503 -0.00000000000E+00 -0.00000000000E+00 -0.87331892273E+03  0.87331892273E+03  0.00000000000E+00 0.  1.
          6    1    1    2  501    0  0.10801010199E+03 -0.80331326752E+02 -0.30894643899E+02  0.22136572276E+03  0.17300000000E+03 0. -1.
         -6    1    1    2    0  503 -0.10801010199E+03  0.80331326752E+02 -0.73111237822E+03  0.76326510059E+03  0.17300000000E+03 0.  1.
<mgrwt>
<rscale>  2 0.21919923E+03</rscale>
<asrwt>0</asrwt>
<pdfrwt beam="1">  1       21 0.17124908E-01 0.21919923E+03</pdfrwt>
<pdfrwt beam="2">  1       21 0.13435676E+00 0.21919923E+03</pdfrwt>
<totfact> 0.12016169E+04</totfact>
</mgrwt>
</event>
<event>
 4    1  0.4451819E+000  0.2222373E+03  0.7546771E-02  0.1132226E+00
         21   -1    0    0  503  502  0.00000000000E+00  0.00000000000E+00  0.85284058195E+02  0.85284058195E+02  0.00000000000E+00 0. -1.
         21   -1    0    0  501  503 -0.00000000000E+00 -0.00000000000E+00 -0.61106190045E+03  0.61106190045E+03  0.00000000000E+00 0. -1.
          6    1    1    2  501    0 -0.12903207992E+02 -0.13890264272E+03 -0.34249644336E+03  0.40828084775E+03  0.17300000000E+03 0. -1.
         -6    1    1    2    0  502  0.12903207992E+02  0.13890264272E+03 -0.18328139890E+03  0.28806511089E+03  0.17300000000E+03 0. -1.
<mgrwt>
<rscale>  2 0.22223734E+03</rscale>
<asrwt>0</asrwt>
<pdfrwt beam="1">  1       21 0.13120625E-01 0.22223734E+03</pdfrwt>
<pdfrwt beam="2">  1       21 0.94009521E-01 0.22223734E+03</pdfrwt>
<totfact> 0.46763308E+04</totfact>
</mgrwt>
</event>
<event>
 4    1  0.4451819E+000  0.2065512E+03  0.7546771E-02  0.1144327E+00
         21   -1    0    0  503  502  0.00000000000E+00  0.00000000000E+00  0.17715195899E+04  0.17715195899E+04  0.00000000000E+00 0.  1.
         21   -1    0    0  501  503 -0.00000000000E+00 -0.00000000000E+00 -0.29728092442E+02  0.29728092442E+02  0.00000000000E+00 0. -1.
          6    1    1    2  501    0 -0.40247873189E+02 -0.10542541474E+03  0.12633576934E+04  0.12801312709E+04  0.17300000000E+03 0. -1.
         -6    1    1    2    0  502  0.40247873189E+02  0.10542541474E+03  0.47843380410E+03  0.52111641145E+03  0.17300000000E+03 0. -1.
<mgrwt>
<rscale>  2 0.20655123E+03</rscale>
<asrwt>0</asrwt>
<pdfrwt beam="1">  1       21 0.27254139E+00 0.20655123E+03</pdfrwt>
<pdfrwt beam="2">  1       21 0.45735540E-02 0.20655123E+03</pdfrwt>
<totfact> 0.15170666E+04</totfact>
</mgrwt>
</event>
<event>
 4    1  0.4451819E+000  0.1735638E+03  0.7546771E-02  0.1174181E+00
         21   -1    0    0  503  502  0.00000000000E+00  0.00000000000E+00  0.31956309236E+03  0.31956309236E+03  0.00000000000E+00 0.  1.
         21   -1    0    0  501  503 -0.00000000000E+00 -0.00000000000E+00 -0.17407134097E+03  0.17407134097E+03  0.00000000000E+00 0.  1.
          6    1    1    2  501    0  0.13765789214E+02  0.24307770203E+01 -0.94372336097E+02  0.19756149283E+03  0.17300000000E+03 0.  1.
         -6    1    1    2    0  502 -0.13765789214E+02 -0.24307770203E+01  0.23986408748E+03  0.29607294049E+03  0.17300000000E+03 0.  1.
<mgrwt>
<rscale>  2 0.17356384E+03</rscale>
<asrwt>0</asrwt>
<pdfrwt beam="1">  1       21 0.49163553E-01 0.17356384E+03</pdfrwt>
<pdfrwt beam="2">  1       21 0.26780206E-01 0.17356384E+03</pdfrwt>
<totfact> 0.52870095E+04</totfact>
</mgrwt>
</event>
<event>
 4    1  0.4451819E+000  0.1743478E+03  0.7546771E-02  0.1173388E+00
         21   -1    0    0  501  502  0.00000000000E+00  0.00000000000E+00  0.26730407855E+03  0.26730407855E+03  0.00000000000E+00 0. -1.
         21   -1    0    0  502  503 -0.00000000000E+00 -0.00000000000E+00 -0.22906735050E+03  0.22906735050E+03  0.00000000000E+00 0. -1.
          6    1    1    2  501    0 -0.12072672064E+02 -0.17955857327E+02  0.19523631603E+03  0.26175251922E+03  0.17300000000E+03 0. -1.
         -6    1    1    2    0  503  0.12072672064E+02  0.17955857327E+02 -0.15699958798E+03  0.23461890983E+03  0.17300000000E+03 0. -1.
<mgrwt>
<rscale>  2 0.17434782E+03</rscale>
<asrwt>0</asrwt>
<pdfrwt beam="1">  1       21 0.41123705E-01 0.17434782E+03</pdfrwt>
<pdfrwt beam="2">  1       21 0.35241131E-01 0.17434782E+03</pdfrwt>
<totfact> 0.44608580E+04</totfact>
</mgrwt>
</event>
<event>
 4    1  0.4451819E+000  0.2025871E+03  0.7546771E-02  0.1147574E+00
         21   -1    0    0  503  502  0.00000000000E+00  0.00000000000E+00  0.49301841178E+03  0.49301841178E+03  0.00000000000E+00 0. -1.
         21   -1    0    0  501  503 -0.00000000000E+00 -0.00000000000E+00 -0.11016863985E+03  0.11016863985E+03  0.00000000000E+00 0. -1.
          6    1    1    2  501    0  0.84678120168E+02  0.62786663006E+02  0.42332274621E+02  0.20696272747E+03  0.17300000000E+03 0. -1.
         -6    1    1    2    0  502 -0.84678120168E+02 -0.62786663006E+02  0.34051749731E+03  0.39622432416E+03  0.17300000000E+03 0. -1.
<mgrwt>
<rscale>  2 0.20258714E+03</rscale>
<asrwt>0</asrwt>
<pdfrwt beam="1">  1       21 0.75848985E-01 0.20258714E+03</pdfrwt>
<pdfrwt beam="2">  1       21 0.16949022E-01 0.20258714E+03</pdfrwt>
<totfact> 0.48394635E+04</totfact>
</mgrwt>
</event>
<event>
 4    1  0.4451819E+000  0.2047991E+03  0.7546771E-02  0.1145752E+00
         21   -1    0    0  503  502  0.00000000000E+00  0.00000000000E+00  0.24656317569E+03  0.24656317569E+03  0.00000000000E+00 0. -1.
         21   -1    0    0  501  503 -0.00000000000E+00 -0.00000000000E+00 -0.17147186280E+03  0.17147186280E+03  0.00000000000E+00 0. -1.
          6    1    1    2  501    0  0.85110654762E+02 -0.69064231222E+02  0.18913505601E+02  0.20567064030E+03  0.17300000000E+03 0. -1.
         -6    1    1    2    0  502 -0.85110654762E+02  0.69064231222E+02  0.56177807285E+02  0.21236439819E+03  0.17300000000E+03 0. -1.
<mgrwt>
<rscale>  2 0.20479915E+03</rscale>
<asrwt>0</asrwt>
<pdfrwt beam="1">  1       21 0.37932796E-01 0.20479915E+03</pdfrwt>
<pdfrwt beam="2">  1       21 0.26380287E-01 0.20479915E+03</pdfrwt>
<totfact> 0.91134296E+04</totfact>
</mgrwt>
</event>
<event>
 4    1  0.4451819E+000  0.2223456E+03  0.7546771E-02  0.1132146E+00
         21   -1    0    0  503  502  0.00000000000E+00  0.00000000000E+00  0.20701105180E+03  0.20701105180E+03  0.00000000000E+00 0.  1.
         21   -1    0    0  501  503 -0.00000000000E+00 -0.00000000000E+00 -0.24636135023E+03  0.24636135023E+03  0.00000000000E+00 0. -1.
          6    1    1    2  501    0 -0.13859294434E+03  0.17336764089E+02 -0.59346431392E+02  0.23012945602E+03  0.17300000000E+03 0.  1.
         -6    1    1    2    0  502  0.13859294434E+03 -0.17336764089E+02  0.19996132954E+02  0.22324294601E+03  0.17300000000E+03 0. -1.
<mgrwt>
<rscale>  2 0.22234560E+03</rscale>
<asrwt>0</asrwt>
<pdfrwt beam="1">  1       21 0.31847854E-01 0.22234560E+03</pdfrwt>
<pdfrwt beam="2">  1       21 0.37901746E-01 0.22234560E+03</pdfrwt>
<totfact> 0.62812914E+04</totfact>
</mgrwt>
</event>
<event>
 4    1  0.4451819E+000  0.2742802E+03  0.7546771E-02  0.1098855E+00
         21   -1    0    0  501  502  0.00000000000E+00  0.00000000000E+00  0.30336199772E+03  0.30336199772E+03  0.00000000000E+00 0.  1.
         21   -1    0    0  502  503 -0.00000000000E+00 -0.00000000000E+00 -0.25765739718E+03  0.25765739718E+03  0.00000000000E+00 0. -1.
          6    1    1    2  501    0  0.17641125632E+03 -0.11907852092E+03  0.77197850772E+02  0.28493706966E+03  0.17300000000E+03 0.  1.
         -6    1    1    2    0  503 -0.17641125632E+03  0.11907852092E+03 -0.31493250225E+02  0.27608232524E+03  0.17300000000E+03 0. -1.
<mgrwt>
<rscale>  2 0.27428020E+03</rscale>
<asrwt>0</asrwt>
<pdfrwt beam="1">  1       21 0.46671077E-01 0.27428020E+03</pdfrwt>
<pdfrwt beam="2">  1       21 0.39639599E-01 0.27428020E+03</pdfrwt>
<totfact> 0.25908165E+04</totfact>
</mgrwt>
</event>
<event>
 4    1  0.4451819E+000  0.2354332E+03  0.7546771E-02  0.1122873E+00
         21   -1    0    0  503  502  0.00000000000E+00  0.00000000000E+00  0.14139202387E+04  0.14139202387E+04  0.00000000000E+00 0. -1.
         21   -1    0    0  501  503 -0.00000000000E+00 -0.00000000000E+00 -0.40338312255E+02  0.40338312255E+02  0.00000000000E+00 0. -1.
          6    1    1    2  501    0 -0.14069346312E+03  0.75532406738E+02  0.56476228774E+03  0.61187027766E+03  0.17300000000E+03 0. -1.
         -6    1    1    2    0  502  0.14069346312E+03 -0.75532406738E+02  0.80881963875E+03  0.84238827334E+03  0.17300000000E+03 0. -1.
<mgrwt>
<rscale>  2 0.23543321E+03</rscale>
<asrwt>0</asrwt>
<pdfrwt beam="1">  1       21 0.21752615E+00 0.23543321E+03</pdfrwt>
<pdfrwt beam="2">  1       21 0.62058953E-02 0.23543321E+03</pdfrwt>
<totfact> 0.18776498E+04</totfact>
</mgrwt>
</event>
<event>
 4    1  0.4451819E+000  0.1982251E+03  0.7546771E-02  0.1151245E+00
         21   -1    0    0  501  502  0.00000000000E+00  0.00000000000E+00  0.60440054279E+03  0.60440054279E+03  0.00000000000E+00 0. -1.
         21   -1    0    0  502  503 -0.00000000000E+00 -0.00000000000E+00 -0.74696953604E+02  0.74696953604E+02  0.00000000000E+00 0. -1.
          6    1    1    2  501    0  0.83714092003E+02 -0.48540282144E+02  0.38711687133E+03  0.43491686591E+03  0.17300000000E+03 0. -1.
         -6    1    1    2    0  503 -0.83714092003E+02  0.48540282144E+02  0.14258671785E+03  0.24418063047E+03  0.17300000000E+03 0. -1.
<mgrwt>
<rscale>  2 0.19822515E+03</rscale>
<asrwt>0</asrwt>
<pdfrwt beam="1">  1       21 0.92984696E-01 0.19822515E+03</pdfrwt>
<pdfrwt beam="2">  1       21 0.11491839E-01 0.19822515E+03</pdfrwt>
<totfact> 0.61578409E+04</totfact>
</mgrwt>
</event>
<event>
 4    1  0.4451819E+000  0.2125719E+03  0.7546771E-02  0.1139545E+00
         21   -1    0    0  503  502  0.00000000000E+00  0.00000000000E+00  0.98714049390E+03  0.98714049390E+03  0.00000000000E+00 0. -1.
         21   -1    0    0  501  503 -0.00000000000E+00 -0.00000000000E+00 -0.10706300860E+03  0.10706300860E+03  0.00000000000E+00 0. -1.
          6    1    1    2  501    0  0.22078855824E+02  0.12153330705E+03  0.26101529723E+02  0.21416841609E+03  0.17300000000E+03 0. -1.
         -6    1    1    2    0  502 -0.22078855824E+02 -0.12153330705E+03  0.85397595558E+03  0.88003508641E+03  0.17300000000E+03 0. -1.
<mgrwt>
<rscale>  2 0.21257192E+03</rscale>
<asrwt>0</asrwt>
<pdfrwt beam="1">  1       21 0.15186776E+00 0.21257192E+03</pdfrwt>
<pdfrwt beam="2">  1       21 0.16471233E-01 0.21257192E+03</pdfrwt>
<totfact> 0.94228925E+03</totfact>
</mgrwt>
</event>
<event>
 4    1  0.4451819E+000  0.1810173E+03  0.7546771E-02  0.1166822E+00
         21   -1    0    0  503  502  0.00000000000E+00  0.00000000000E+00  0.15783796101E+03  0.15783796101E+03  0.00000000000E+00 0. -1.
         21   -1    0    0  501  503 -0.00000000000E+00 -0.00000000000E+00 -0.21041288205E+03  0.21041288205E+03  0.00000000000E+00 0. -1.
          6    1    1    2  501    0 -0.25961058924E+02 -0.46521765232E+02 -0.50007243509E+01  0.18108632876E+03  0.17300000000E+03 0. -1.
         -6    1    1    2    0  502  0.25961058924E+02  0.46521765232E+02 -0.47574196692E+02  0.18716451430E+03  0.17300000000E+03 0. -1.
<mgrwt>
<rscale>  2 0.18101727E+03</rscale>
<asrwt>0</asrwt>
<pdfrwt beam="1">  1       21 0.24282763E-01 0.18101727E+03</pdfrwt>
<pdfrwt beam="2">  1       21 0.32371213E-01 0.18101727E+03</pdfrwt>
<totfact> 0.14756277E+05</totfact>
</mgrwt>
</event>
<event>
 4    1  0.4451819E+000  0.1799562E+03  0.7546771E-02  0.1167845E+00
         21   -1    0    0  503  502  0.00000000000E+00  0.00000000000E+00  0.24927138967E+03  0.24927138967E+03  0.00000000000E+00 0.  1.
         21   -1    0    0  501  503 -0.00000000000E+00 -0.00000000000E+00 -0.16578729799E+03  0.16578729799E+03  0.00000000000E+00 0.  1.
          6    1    1    2  501    0 -0.45422894391E+02 -0.19798975104E+02 -0.54791872809E+02  0.18811270046E+03  0.17300000000E+03 0.  1.
         -6    1    1    2    0  502  0.45422894391E+02  0.19798975104E+02  0.13827596449E+03  0.22694598720E+03  0.17300000000E+03 0.  1.
<mgrwt>
<rscale>  2 0.17995621E+03</rscale>
<asrwt>0</asrwt>
<pdfrwt beam="1">  1       21 0.38349444E-01 0.17995621E+03</pdfrwt>
<pdfrwt beam="2">  1       21 0.25505738E-01 0.17995621E+03</pdfrwt>
<totfact> 0.96052154E+04</totfact>
</mgrwt>
</event>
<event>
 4    1  0.4451819E+000  0.2216853E+03  0.7546771E-02  0.1132633E+00
         21   -1    0    0  503  502  0.00000000000E+00  0.00000000000E+00  0.40841888857E+03  0.40841888857E+03  0.00000000000E+00 0.  1.
         21   -1    0    0  501  503 -0.00000000000E+00 -0.00000000000E+00 -0.29466304136E+03  0.29466304136E+03  0.00000000000E+00 0.  1.
          6    1    1    2  501    0  0.10767497964E+03  0.87300930372E+02 -0.21352106839E+03  0.30779148840E+03  0.17300000000E+03 0.  1.
         -6    1    1    2    0  502 -0.10767497964E+03 -0.87300930372E+02  0.32727691559E+03  0.39529044153E+03  0.17300000000E+03 0.  1.
<mgrwt>
<rscale>  2 0.22168526E+03</rscale>
<asrwt>0</asrwt>
<pdfrwt beam="1">  1       21 0.62833676E-01 0.22168526E+03</pdfrwt>
<pdfrwt beam="2">  1       21 0.45332775E-01 0.22168526E+03</pdfrwt>
<totfact> 0.10742667E+04</totfact>
</mgrwt>
</event>
<event>
 4    1  0.4451819E+000  0.1843454E+03  0.7546771E-02  0.1163663E+00
         21   -1    0    0  503  502  0.00000000000E+00  0.00000000000E+00  0.32749591670E+03  0.32749591670E+03  0.00000000000E+00 0.  1.
         21   -1    0    0  501  503 -0.00000000000E+00 -0.00000000000E+00 -0.10406039038E+03  0.10406039038E+03  0.00000000000E+00 0. -1.
          6    1    1    2  501    0 -0.24777703270E+02  0.58653919776E+02  0.12317829980E+03  0.22171177331E+03  0.17300000000E+03 0.  1.
         -6    1    1    2    0  502  0.24777703270E+02 -0.58653919776E+02  0.10025722653E+03  0.20984453377E+03  0.17300000000E+03 0. -1.
<mgrwt>
<rscale>  2 0.18434537E+03</rscale>
<asrwt>0</asrwt>
<pdfrwt beam="1">  1       21 0.50383987E-01 0.18434537E+03</pdfrwt>
<pdfrwt beam="2">  1       21 0.16009291E-01 0.18434537E+03</pdfrwt>
<totfact> 0.13099156E+05</totfact>
</mgrwt>
</event>
<event>
 4    1  0.4451819E+000  0.2113740E+03  0.7546771E-02  0.1140483E+00
         21   -1    0    0  503  502  0.00000000000E+00  0.00000000000E+00  0.98476615676E+03  0.98476615676E+03  0.00000000000E+00 0. -1.
         21   -1    0    0  501  503 -0.00000000000E+00 -0.00000000000E+00 -0.52913295287E+02  0.52913295287E+02  0.00000000000E+00 0.  1.
          6    1    1    2  501    0  0.11442682575E+03  0.40699807708E+02  0.27002955724E+03  0.34292117838E+03  0.17300000000E+03 0.  1.
         -6    1    1    2    0  502 -0.11442682575E+03 -0.40699807708E+02  0.66182330424E+03  0.69475827367E+03  0.17300000000E+03 0. -1.
<mgrwt>
<rscale>  2 0.21137401E+03</rscale>
<asrwt>0</asrwt>
<pdfrwt beam="1">  1       21 0.15150247E+00 0.21137401E+03</pdfrwt>
<pdfrwt beam="2">  1       21 0.81405077E-02 0.21137401E+03</pdfrwt>
<totfact> 0.33511773E+04</totfact>
</mgrwt>
</event>
<event>
 4    1  0.4451819E+000  0.1855286E+03  0.7546771E-02  0.1162557E+00
         21   -1    0    0  501  502  0.00000000000E+00  0.00000000000E+00  0.42938259194E+02  0.42938259194E+02  0.00000000000E+00 0.  1.
         21   -1    0    0  502  503 -0.00000000000E+00 -0.00000000000E+00 -0.11382390213E+04  0.11382390213E+04  0.00000000000E+00 0.  1.
          6    1    1    2  501    0 -0.66768448482E+02 -0.58178257533E+01 -0.22648621582E+03  0.29277445033E+03  0.17300000000E+03 0.  1.
         -6    1    1    2    0  503  0.66768448482E+02  0.58178257533E+01 -0.86881454631E+03  0.88840283019E+03  0.17300000000E+03 0.  1.
<mgrwt>
<rscale>  2 0.18552863E+03</rscale>
<asrwt>0</asrwt>
<pdfrwt beam="1">  1       21 0.66058854E-02 0.18552863E+03</pdfrwt>
<pdfrwt beam="2">  1       21 0.17511371E+00 0.18552863E+03</pdfrwt>
<totfact> 0.33011691E+04</totfact>
</mgrwt>
</event>
<event>
 4    1  0.4451819E+000  0.1882767E+03  0.7546771E-02  0.1160025E+00
         21   -1    0    0  501  502  0.00000000000E+00  0.00000000000E+00  0.96548439162E+03  0.96548439162E+03  0.00000000000E+00 0.  1.
         21   -1    0    0  502  503 -0.00000000000E+00 -0.00000000000E+00 -0.36720549434E+02  0.36720549434E+02  0.00000000000E+00 0.  1.
          6    1    1    2  501    0  0.73790629115E+02  0.86063444413E+01  0.47032761729E+03  0.50661246895E+03  0.17300000000E+03 0.  1.
         -6    1    1    2    0  503 -0.73790629115E+02 -0.86063444413E+01  0.45843622489E+03  0.49559247210E+03  0.17300000000E+03 0.  1.
<mgrwt>
<rscale>  2 0.18827673E+03</rscale>
<asrwt>0</asrwt>
<pdfrwt beam="1">  1       21 0.14853604E+00 0.18827673E+03</pdfrwt>
<pdfrwt beam="2">  1       21 0.56493160E-02 0.18827673E+03</pdfrwt>
<totfact> 0.67184238E+04</totfact>
</mgrwt>
</event>
<event>
 4    1  0.4451819E+000  0.1848794E+03  0.7546771E-02  0.1163163E+00
         21   -1    0    0  503  502  0.00000000000E+00  0.00000000000E+00  0.12077693112E+03  0.12077693112E+03  0.00000000000E+00 0. -1.
         21   -1    0    0  501  503 -0.00000000000E+00 -0.00000000000E+00 -0.31118369192E+03  0.31118369192E+03  0.00000000000E+00 0. -1.
          6    1    1    2  501    0 -0.58256391521E+02 -0.29284514944E+02 -0.16019713309E+03  0.24462933475E+03  0.17300000000E+03 0. -1.
         -6    1    1    2    0  502  0.58256391521E+02  0.29284514944E+02 -0.30209627715E+02  0.18733128830E+03  0.17300000000E+03 0. -1.
<mgrwt>
<rscale>  2 0.18487939E+03</rscale>
<asrwt>0</asrwt>
<pdfrwt beam="1">  1       21 0.18581067E-01 0.18487939E+03</pdfrwt>
<pdfrwt beam="2">  1       21 0.47874413E-01 0.18487939E+03</pdfrwt>
<totfact> 0.11071242E+05</totfact>
</mgrwt>
</event>
<event>
 4    1  0.4451819E+000  0.2054059E+03  0.7546771E-02  0.1145257E+00
         21   -1    0    0  501  502  0.00000000000E+00  0.00000000000E+00  0.42103663300E+03  0.42103663300E+03  0.00000000000E+00 0.  1.
         21   -1    0    0  502  503 -0.00000000000E+00 -0.00000000000E+00 -0.11762914819E+03  0.11762914819E+03  0.00000000000E+00 0.  1.
          6    1    1    2  501    0  0.29487133084E+02  0.10673837477E+03  0.25535162934E+03  0.32771332941E+03  0.17300000000E+03 0.  1.
         -6    1    1    2    0  503 -0.29487133084E+02 -0.10673837477E+03  0.48055855467E+02  0.21095245177E+03  0.17300000000E+03 0.  1.
<mgrwt>
<rscale>  2 0.20540587E+03</rscale>
<asrwt>0</asrwt>
<pdfrwt beam="1">  1       21 0.64774866E-01 0.20540587E+03</pdfrwt>
<pdfrwt beam="2">  1       21 0.18096792E-01 0.20540587E+03</pdfrwt>
<totfact> 0.60682202E+04</totfact>
</mgrwt>
</event>
<event>
 4    1  0.4451819E+000  0.1901083E+03  0.7546771E-02  0.1158364E+00
         21   -1    0    0  501  502  0.00000000000E+00  0.00000000000E+00  0.33638734772E+03  0.33638734772E+03  0.00000000000E+00 0.  1.
         21   -1    0    0  502  503 -0.00000000000E+00 -0.00000000000E+00 -0.19466858119E+03  0.19466858119E+03  0.00000000000E+00 0.  1.
          6    1    1    2  501    0 -0.45852380640E+02 -0.64106998273E+02  0.24860300386E+03  0.31296102244E+03  0.17300000000E+03 0.  1.
         -6    1    1    2    0  503  0.45852380640E+02  0.64106998273E+02 -0.10688423733E+03  0.21809490647E+03  0.17300000000E+03 0.  1.
<mgrwt>
<rscale>  2 0.19010825E+03</rscale>
<asrwt>0</asrwt>
<pdfrwt beam="1">  1       21 0.51751900E-01 0.19010825E+03</pdfrwt>
<pdfrwt beam="2">  1       21 0.29949012E-01 0.19010825E+03</pdfrwt>
<totfact> 0.37959392E+04</totfact>
</mgrwt>
</event>
<event>
 4    1  0.4451819E+000  0.1896186E+03  0.7546771E-02  0.1158806E+00
         21   -1    0    0  501  502  0.00000000000E+00  0.00000000000E+00  0.69368987396E+03  0.69368987396E+03  0.00000000000E+00 0.  1.
         21   -1    0    0  502  503 -0.00000000000E+00 -0.00000000000E+00 -0.83474729233E+02  0.83474729233E+02  0.00000000000E+00 0. -1.
          6    1    1    2  501    0  0.38676252926E+02 -0.67308011176E+02  0.54435296812E+03  0.57643332208E+03  0.17300000000E+03 0.  1.
         -6    1    1    2    0  503 -0.38676252926E+02  0.67308011176E+02  0.65862176610E+02  0.20073128111E+03  0.17300000000E+03 0. -1.
<mgrwt>
<rscale>  2 0.18961862E+03</rscale>
<asrwt>0</asrwt>
<pdfrwt beam="1">  1       21 0.10672151E+00 0.18961862E+03</pdfrwt>
<pdfrwt beam="2">  1       21 0.12842267E-01 0.18961862E+03</pdfrwt>
<totfact> 0.36567404E+04</totfact>
</mgrwt>
</event>
<event>
 4    1  0.4451819E+000  0.1780245E+03  0.7546771E-02  0.1169729E+00
         21   -1    0    0  501  502  0.00000000000E+00  0.00000000000E+00  0.11711146243E+04  0.11711146243E+04  0.00000000000E+00 0. -1.
         21   -1    0    0  502  503 -0.00000000000E+00 -0.00000000000E+00 -0.31143700151E+02  0.31143700151E+02  0.00000000000E+00 0. -1.
          6    1    1    2  501    0  0.18146665617E+02  0.37873779102E+02  0.78760721442E+03  0.80747622183E+03  0.17300000000E+03 0. -1.
         -6    1    1    2    0  503 -0.18146665617E+02 -0.37873779102E+02  0.35236370976E+03  0.39478210265E+03  0.17300000000E+03 0. -1.
<mgrwt>
<rscale>  2 0.17802451E+03</rscale>
<asrwt>0</asrwt>
<pdfrwt beam="1">  1       21 0.18017145E+00 0.17802451E+03</pdfrwt>
<pdfrwt beam="2">  1       21 0.47913394E-02 0.17802451E+03</pdfrwt>
<totfact> 0.52941051E+04</totfact>
</mgrwt>
</event>
<event>
 4    1  0.4451819E+000  0.2612436E+03  0.7546771E-02  0.1106398E+00
         21   -1    0    0  501  502  0.00000000000E+00  0.00000000000E+00  0.71215828630E+02  0.71215828630E+02  0.00000000000E+00 0.  1.
         21   -1    0    0  502  503 -0.00000000000E+00 -0.00000000000E+00 -0.10046112415E+04  0.10046112415E+04  0.00000000000E+00 0.  1.
          6    1    1    2  501    0  0.99353234175E+02 -0.16866573134E+03 -0.35124060987E+03  0.43774211597E+03  0.17300000000E+03 0.  1.
         -6    1    1    2    0  503 -0.99353234175E+02  0.16866573134E+03 -0.58215480301E+03  0.63808495417E+03  0.17300000000E+03 0.  1.
<mgrwt>
<rscale>  2 0.26124355E+03</rscale>
<asrwt>0</asrwt>
<pdfrwt beam="1">  1       21 0.10956280E-01 0.26124355E+03</pdfrwt>
<pdfrwt beam="2">  1       21 0.15455559E+00 0.26124355E+03</pdfrwt>
<totfact> 0.18278666E+04</totfact>
</mgrwt>
</event>
<event>
 4    1  0.4451819E+000  0.1960665E+03  0.7546771E-02  0.1153101E+00
         21   -1    0    0  503  502  0.00000000000E+00  0.00000000000E+00  0.14240786177E+03  0.14240786177E+03  0.00000000000E+00 0. -1.
         21   -1    0    0  501  503 -0.00000000000E+00 -0.00000000000E+00 -0.27004010711E+03  0.27004010711E+03  0.00000000000E+00 0. -1.
          6    1    1    2  501    0 -0.74044738281E+02 -0.55049374730E+02 -0.59912746293E+02  0.20501608252E+03  0.17300000000E+03 0. -1.
         -6    1    1    2    0  502  0.74044738281E+02  0.55049374730E+02 -0.67719499048E+02  0.20743188635E+03  0.17300000000E+03 0. -1.
<mgrwt>
<rscale>  2 0.19606646E+03</rscale>
<asrwt>0</asrwt>
<pdfrwt beam="1">  1       21 0.21908902E-01 0.19606646E+03</pdfrwt>
<pdfrwt beam="2">  1       21 0.41544632E-01 0.19606646E+03</pdfrwt>
<totfact> 0.10838558E+05</totfact>
</mgrwt>
</event>
<event>
 4    1  0.4451819E+000  0.1840841E+03  0.7546771E-02  0.1163908E+00
         21   -1    0    0  503  502  0.00000000000E+00  0.00000000000E+00  0.93648423034E+03  0.93648423034E+03  0.00000000000E+00 0. -1.
         21   -1    0    0  501  503 -0.00000000000E+00 -0.00000000000E+00 -0.53998665055E+02  0.53998665055E+02  0.00000000000E+00 0.  1.
          6    1    1    2  501    0 -0.62603404216E+02 -0.62257484655E+01  0.15679754061E+03  0.24181070056E+03  0.17300000000E+03 0.  1.
         -6    1    1    2    0  502  0.62603404216E+02  0.62257484655E+01  0.72568802468E+03  0.74867219484E+03  0.17300000000E+03 0. -1.
<mgrwt>
<rscale>  2 0.18408407E+03</rscale>
<asrwt>0</asrwt>
<pdfrwt beam="1">  1       21 0.14407448E+00 0.18408407E+03</pdfrwt>
<pdfrwt beam="2">  1       21 0.83074876E-02 0.18408407E+03</pdfrwt>
<totfact> 0.37512249E+04</totfact>
</mgrwt>
</event>
<event>
 4    1  0.4451819E+000  0.1855548E+03  0.7546771E-02  0.1162533E+00
         21   -1    0    0  501  502  0.00000000000E+00  0.00000000000E+00  0.18148290541E+03  0.18148290541E+03  0.00000000000E+00 0. -1.
         21   -1    0    0  502  503 -0.00000000000E+00 -0.00000000000E+00 -0.28778171813E+03  0.28778171813E+03  0.00000000000E+00 0. -1.
          6    1    1    2  501    0  0.39259507908E+02  0.54408568221E+02  0.83815738914E+02  0.20360667805E+03  0.17300000000E+03 0. -1.
         -6    1    1    2    0  503 -0.39259507908E+02 -0.54408568221E+02 -0.19011455164E+03  0.26565794549E+03  0.17300000000E+03 0. -1.
<mgrwt>
<rscale>  2 0.18555485E+03</rscale>
<asrwt>0</asrwt>
<pdfrwt beam="1">  1       21 0.27920447E-01 0.18555485E+03</pdfrwt>
<pdfrwt beam="2">  1       21 0.44274111E-01 0.18555485E+03</pdfrwt>
<totfact> 0.60209940E+04</totfact>
</mgrwt>
</event>
<event>
 4    1  0.4451819E+000  0.2937634E+03  0.7546771E-02  0.1088400E+00
         21   -1    0    0  503  502  0.00000000000E+00  0.00000000000E+00  0.24669147900E+03  0.24669147900E+03  0.00000000000E+00 0. -1.
         21   -1    0    0  501  503 -0.00000000000E+00 -0.00000000000E+00 -0.43807493955E+03  0.43807493955E+03  0.00000000000E+00 0.  1.
          6    1    1    2  501    0  0.18929782946E+03 -0.14329777814E+03  0.57987318417E+02  0.29943187966E+03  0.17300000000E+03 0. -1.
         -6    1    1    2    0  502 -0.18929782946E+03  0.14329777814E+03 -0.24937077897E+03  0.38533453889E+03  0.17300000000E+03 0.  1.
<mgrwt>
<rscale>  2 0.29376338E+03</rscale>
<asrwt>0</asrwt>
<pdfrwt beam="1">  1       21 0.37952535E-01 0.29376338E+03</pdfrwt>
<pdfrwt beam="2">  1       21 0.67396145E-01 0.29376338E+03</pdfrwt>
<totfact> 0.12759539E+04</totfact>
</mgrwt>
</event>
<event>
 4    1  0.4451819E+000  0.1951188E+03  0.7546771E-02  0.1153924E+00
         21   -1    0    0  503  502  0.00000000000E+00  0.00000000000E+00  0.14510914405E+03  0.14510914405E+03  0.00000000000E+00 0.  1.
         21   -1    0    0  501  503 -0.00000000000E+00 -0.00000000000E+00 -0.57076953561E+03  0.57076953561E+03  0.00000000000E+00 0.  1.
          6    1    1    2  501    0  0.57167342983E+02 -0.69815738052E+02 -0.47594208760E+03  0.51438527694E+03  0.17300000000E+03 0.  1.
         -6    1    1    2    0  502 -0.57167342983E+02  0.69815738052E+02  0.50281696041E+02  0.20149340272E+03  0.17300000000E+03 0.  1.
<mgrwt>
<rscale>  2 0.19511879E+03</rscale>
<asrwt>0</asrwt>
<pdfrwt beam="1">  1       21 0.22324484E-01 0.19511879E+03</pdfrwt>
<pdfrwt beam="2">  1       21 0.87810699E-01 0.19511879E+03</pdfrwt>
<totfact> 0.20850580E+04</totfact>
</mgrwt>
</event>
<event>
 4    1  0.4451819E+000  0.3450604E+03  0.7546771E-02  0.1064661E+00
         21   -1    0    0  503  502  0.00000000000E+00  0.00000000000E+00  0.33156943938E+03  0.33156943938E+03  0.00000000000E+00 0. -1.
         21   -1    0    0  501  503 -0.00000000000E+00 -0.00000000000E+00 -0.36105244125E+03  0.36105244125E+03  0.00000000000E+00 0.  1.
          6    1    1    2  501    0 -0.94822146647E+02  0.28310142962E+03 -0.40206606333E+02  0.34739491957E+03  0.17300000000E+03 0.  1.
         -6    1    1    2    0  502  0.94822146647E+02 -0.28310142962E+03  0.10723604466E+02  0.34522696106E+03  0.17300000000E+03 0.  1.
<mgrwt>
<rscale>  2 0.34506037E+03</rscale>
<asrwt>0</asrwt>
<pdfrwt beam="1">  1       21 0.51010683E-01 0.34506037E+03</pdfrwt>
<pdfrwt beam="2">  1       21 0.55546530E-01 0.34506037E+03</pdfrwt>
<totfact> 0.10319571E+04</totfact>
</mgrwt>
</event>
<event>
 4    1  0.4451819E+000  0.1857499E+03  0.7546771E-02  0.1162351E+00
         21   -1    0    0  501  502  0.00000000000E+00  0.00000000000E+00  0.45647132635E+03  0.45647132635E+03  0.00000000000E+00 0. -1.
         21   -1    0    0  502  503 -0.00000000000E+00 -0.00000000000E+00 -0.10515688643E+03  0.10515688643E+03  0.00000000000E+00 0.  1.
          6    1    1    2  501    0 -0.62944669412E+02  0.24738499012E+02  0.32456907973E+03  0.37396271507E+03  0.17300000000E+03 0. -1.
         -6    1    1    2    0  503  0.62944669412E+02 -0.24738499012E+02  0.26745360190E+02  0.18766549771E+03  0.17300000000E+03 0. -1.
<mgrwt>
<rscale>  2 0.18574990E+03</rscale>
<asrwt>0</asrwt>
<pdfrwt beam="1">  1       21 0.70226357E-01 0.18574990E+03</pdfrwt>
<pdfrwt beam="2">  1       21 0.16177983E-01 0.18574990E+03</pdfrwt>
<totfact> 0.63056301E+04</totfact>
</mgrwt>
</event>
<event>
 4    1  0.4451819E+000  0.1772885E+03  0.7546771E-02  0.1170453E+00
         21   -1    0    0  501  502  0.00000000000E+00  0.00000000000E+00  0.14244441560E+03  0.14244441560E+03  0.00000000000E+00 0.  1.
         21   -1    0    0  502  503 -0.00000000000E+00 -0.00000000000E+00 -0.31181211795E+03  0.31181211795E+03  0.00000000000E+00 0.  1.
          6    1    1    2  501    0 -0.47476687872E+01  0.38466404045E+02  0.38121637180E+02  0.18134073955E+03  0.17300000000E+03 0.  1.
         -6    1    1    2    0  503  0.47476687872E+01 -0.38466404045E+02 -0.20748933953E+03  0.27291579401E+03  0.17300000000E+03 0.  1.
<mgrwt>
<rscale>  2 0.17728848E+03</rscale>
<asrwt>0</asrwt>
<pdfrwt beam="1">  1       21 0.21914526E-01 0.17728848E+03</pdfrwt>
<pdfrwt beam="2">  1       21 0.47971094E-01 0.17728848E+03</pdfrwt>
<totfact> 0.81265658E+04</totfact>
</mgrwt>
</event>
<event>
 4    1  0.4451819E+000  0.2051331E+03  0.7546771E-02  0.1145479E+00
         21   -1    0    0  503  502  0.00000000000E+00  0.00000000000E+00  0.66294955951E+02  0.66294955951E+02  0.00000000000E+00 0.  1.
         21   -1    0    0  501  503 -0.00000000000E+00 -0.00000000000E+00 -0.71158489740E+03  0.71158489740E+03  0.00000000000E+00 0.  1.
          6    1    1    2  501    0  0.78047132857E+02  0.77841037571E+02 -0.19482548401E+03  0.28290731927E+03  0.17300000000E+03 0.  1.
         -6    1    1    2    0  502 -0.78047132857E+02 -0.77841037571E+02 -0.45046445744E+03  0.49497253408E+03  0.17300000000E+03 0.  1.
<mgrwt>
<rscale>  2 0.20513308E+03</rscale>
<asrwt>0</asrwt>
<pdfrwt beam="1">  1       21 0.10199224E-01 0.20513308E+03</pdfrwt>
<pdfrwt beam="2">  1       21 0.10947459E+00 0.20513308E+03</pdfrwt>
<totfact> 0.51443167E+04</totfact>
</mgrwt>
</event>
<event>
 4    1  0.4451819E+000  0.2664907E+03  0.7546771E-02  0.1103305E+00
         21   -1    0    0  503  502  0.00000000000E+00  0.00000000000E+00  0.39627560905E+03  0.39627560905E+03  0.00000000000E+00 0. -1.
         21   -1    0    0  501  503 -0.00000000000E+00 -0.00000000000E+00 -0.18711698727E+03  0.18711698727E+03  0.00000000000E+00 0.  1.
          6    1    1    2  501    0  0.17833631830E+03  0.96355975497E+02  0.16453450849E+03  0.31319150838E+03  0.17300000000E+03 0.  1.
         -6    1    1    2    0  502 -0.17833631830E+03 -0.96355975497E+02  0.44624113286E+02  0.27020108794E+03  0.17300000000E+03 0. -1.
<mgrwt>
<rscale>  2 0.26649074E+03</rscale>
<asrwt>0</asrwt>
<pdfrwt beam="1">  1       21 0.60965478E-01 0.26649074E+03</pdfrwt>
<pdfrwt beam="2">  1       21 0.28787229E-01 0.26649074E+03</pdfrwt>
<totfact> 0.27875956E+04</totfact>
</mgrwt>
</event>
<event>
 4    1  0.4451819E+000  0.1796239E+03  0.7546771E-02  0.1168168E+00
         21   -1    0    0  503  502  0.00000000000E+00  0.00000000000E+00  0.62858898815E+03  0.62858898815E+03  0.00000000000E+00 0. -1.
         21   -1    0    0  501  503 -0.00000000000E+00 -0.00000000000E+00 -0.81428162815E+02  0.81428162815E+02  0.00000000000E+00 0. -1.
          6    1    1    2  501    0 -0.42647984249E+02  0.22735382233E+02  0.57741454676E+02  0.18867650557E+03  0.17300000000E+03 0. -1.
         -6    1    1    2    0  502  0.42647984249E+02 -0.22735382233E+02  0.48941937066E+03  0.52134064540E+03  0.17300000000E+03 0. -1.
<mgrwt>
<rscale>  2 0.17962391E+03</rscale>
<asrwt>0</asrwt>
<pdfrwt beam="1">  1       21 0.96705995E-01 0.17962391E+03</pdfrwt>
<pdfrwt beam="2">  1       21 0.12527410E-01 0.17962391E+03</pdfrwt>
<totfact> 0.48585681E+04</totfact>
</mgrwt>
</event>
<event>
 4    1  0.4451819E+000  0.2068691E+03  0.7546771E-02  0.1144070E+00
         21   -1    0    0  501  502  0.00000000000E+00  0.00000000000E+00  0.98771354976E+03  0.98771354976E+03  0.00000000000E+00 0.  1.
         21   -1    0    0  502  503 -0.00000000000E+00 -0.00000000000E+00 -0.44236327118E+02  0.44236327118E+02  0.00000000000E+00 0.  1.
          6    1    1    2  501    0 -0.24607776907E+02 -0.11072615440E+03  0.54570947819E+03  0.58360402546E+03  0.17300000000E+03 0.  1.
         -6    1    1    2    0  503  0.24607776907E+02  0.11072615440E+03  0.39776774445E+03  0.44834585141E+03  0.17300000000E+03 0.  1.
<mgrwt>
<rscale>  2 0.20686910E+03</rscale>
<asrwt>0</asrwt>
<pdfrwt beam="1">  1       21 0.15195591E+00 0.20686910E+03</pdfrwt>
<pdfrwt beam="2">  1       21 0.68055895E-02 0.20686910E+03</pdfrwt>
<totfact> 0.45495725E+04</totfact>
</mgrwt>
</event>
<event>
 4    1  0.4451819E+000  0.2193751E+03  0.7546771E-02  0.1134350E+00
         21   -1    0    0  503  502  0.00000000000E+00  0.00000000000E+00  0.17012961382E+03  0.17012961382E+03  0.00000000000E+00 0. -1.
         21   -1    0    0  501  503 -0.00000000000E+00 -0.00000000000E+00 -0.32684601753E+03  0.32684601753E+03  0.00000000000E+00 0.  1.
          6    1    1    2  501    0  0.10358227423E+03  0.86412540319E+02 -0.16949982384E+03  0.27722843458E+03  0.17300000000E+03 0.  1.
         -6    1    1    2    0  502 -0.10358227423E+03 -0.86412540319E+02  0.12783420125E+02  0.21974719677E+03  0.17300000000E+03 0. -1.
<mgrwt>
<rscale>  2 0.21937505E+03</rscale>
<asrwt>0</asrwt>
<pdfrwt beam="1">  1       21 0.26173787E-01 0.21937505E+03</pdfrwt>
<pdfrwt beam="2">  1       21 0.50284002E-01 0.21937505E+03</pdfrwt>
<totfact> 0.51588934E+04</totfact>
</mgrwt>
</event>
<event>
 4    1  0.4451819E+000  0.1921851E+03  0.7546771E-02  0.1156505E+00
         21   -1    0    0  501  502  0.00000000000E+00  0.00000000000E+00  0.25901582967E+03  0.25901582967E+03  0.00000000000E+00 0. -1.
         21   -1    0    0  502  503 -0.00000000000E+00 -0.00000000000E+00 -0.18730791674E+03  0.18730791674E+03  0.00000000000E+00 0. -1.
          6    1    1    2  501    0  0.83455712019E+02  0.64224378623E+01  0.14488358474E+03  0.24067894944E+03  0.17300000000E+03 0. -1.
         -6    1    1    2    0  503 -0.83455712019E+02 -0.64224378623E+01 -0.73175671809E+02  0.20564479697E+03  0.17300000000E+03 0. -1.
<mgrwt>
<rscale>  2 0.19218508E+03</rscale>
<asrwt>0</asrwt>
<pdfrwt beam="1">  1       21 0.39848589E-01 0.19218508E+03</pdfrwt>
<pdfrwt beam="2">  1       21 0.28816603E-01 0.19218508E+03</pdfrwt>
<totfact> 0.69964614E+04</totfact>
</mgrwt>
</event>
<event>
 4    1  0.4451819E+000  0.1844128E+03  0.7546771E-02  0.1163599E+00
         21   -1    0    0  501  502  0.00000000000E+00  0.00000000000E+00  0.30018452546E+03  0.30018452546E+03  0.00000000000E+00 0.  1.
         21   -1    0    0  502  503 -0.00000000000E+00 -0.00000000000E+00 -0.24585110371E+03  0.24585110371E+03  0.00000000000E+00 0.  1.
          6    1    1    2  501    0  0.46972096316E+02  0.43274910931E+02  0.22764249415E+03  0.29296621118E+03  0.17300000000E+03 0.  1.
         -6    1    1    2    0  503 -0.46972096316E+02 -0.43274910931E+02 -0.17330907240E+03  0.25306941800E+03  0.17300000000E+03 0.  1.
<mgrwt>
<rscale>  2 0.18441284E+03</rscale>
<asrwt>0</asrwt>
<pdfrwt beam="1">  1       21 0.46182235E-01 0.18441284E+03</pdfrwt>
<pdfrwt beam="2">  1       21 0.37823247E-01 0.18441284E+03</pdfrwt>
<totfact> 0.30418736E+04</totfact>
</mgrwt>
</event>
<event>
 4    1  0.4451819E+000  0.1821663E+03  0.7546771E-02  0.1165723E+00
         21   -1    0    0  503  502  0.00000000000E+00  0.00000000000E+00  0.63239361231E+03  0.63239361231E+03  0.00000000000E+00 0. -1.
         21   -1    0    0  501  503 -0.00000000000E+00 -0.00000000000E+00 -0.56282358411E+02  0.56282358411E+02  0.00000000000E+00 0. -1.
          6    1    1    2  501    0 -0.53478933735E+02 -0.19888946336E+02  0.19849096985E+03  0.26941275332E+03  0.17300000000E+03 0.  1.
         -6    1    1    2    0  502  0.53478933735E+02  0.19888946336E+02  0.37762028405E+03  0.41926321740E+03  0.17300000000E+03 0.  1.
<mgrwt>
<rscale>  2 0.18216632E+03</rscale>
<asrwt>0</asrwt>
<pdfrwt beam="1">  1       21 0.97291320E-01 0.18216632E+03</pdfrwt>
<pdfrwt beam="2">  1       21 0.86588248E-02 0.18216632E+03</pdfrwt>
<totfact> 0.91959819E+04</totfact>
</mgrwt>
</event>
<event>
 4    1  0.4451819E+000  0.1747593E+03  0.7546771E-02  0.1172974E+00
         21   -1    0    0  503  502  0.00000000000E+00  0.00000000000E+00  0.24049206865E+03  0.24049206865E+03  0.00000000000E+00 0.  1.
         21   -1    0    0  501  503 -0.00000000000E+00 -0.00000000000E+00 -0.20676784456E+03  0.20676784456E+03  0.00000000000E+00 0.  1.
          6    1    1    2  501    0  0.19443030887E+02  0.15289948240E+02 -0.12204401721E+03  0.21315617773E+03  0.17300000000E+03 0.  1.
         -6    1    1    2    0  502 -0.19443030887E+02 -0.15289948240E+02  0.15576824130E+03  0.23410373548E+03  0.17300000000E+03 0.  1.
<mgrwt>
<rscale>  2 0.17475930E+03</rscale>
<asrwt>0</asrwt>
<pdfrwt beam="1">  1       21 0.36998780E-01 0.17475930E+03</pdfrwt>
<pdfrwt beam="2">  1       21 0.31810437E-01 0.17475930E+03</pdfrwt>
<totfact> 0.67469425E+04</totfact>
</mgrwt>
</event>
<event>
 4    1  0.4451819E+000  0.2031956E+03  0.7546771E-02  0.1147071E+00
         21   -1    0    0  501  502  0.00000000000E+00  0.00000000000E+00  0.21702710521E+03  0.21702710521E+03  0.00000000000E+00 0. -1.
         21   -1    0    0  502  503 -0.00000000000E+00 -0.00000000000E+00 -0.35022239556E+03  0.35022239556E+03  0.00000000000E+00 0. -1.
          6    1    1    2  501    0  0.10256024139E+03 -0.28997689079E+02  0.12509284078E+03  0.23861409828E+03  0.17300000000E+03 0. -1.
         -6    1    1    2    0  503 -0.10256024139E+03  0.28997689079E+02 -0.25828813113E+03  0.32863540249E+03  0.17300000000E+03 0. -1.
<mgrwt>
<rscale>  2 0.20319564E+03</rscale>
<asrwt>0</asrwt>
<pdfrwt beam="1">  1       21 0.33388785E-01 0.20319564E+03</pdfrwt>
<pdfrwt beam="2">  1       21 0.53880369E-01 0.20319564E+03</pdfrwt>
<totfact> 0.27976409E+04</totfact>
</mgrwt>
</event>
<event>
 4    1  0.4451819E+000  0.2076472E+03  0.7546771E-02  0.1143443E+00
         21   -1    0    0  503  502  0.00000000000E+00  0.00000000000E+00  0.63160547373E+02  0.63160547373E+02  0.00000000000E+00 0. -1.
         21   -1    0    0  501  503 -0.00000000000E+00 -0.00000000000E+00 -0.10443913172E+04  0.10443913172E+04  0.00000000000E+00 0. -1.
          6    1    1    2  501    0  0.59104543390E+02 -0.98463293854E+02 -0.81652240737E+03  0.84251184504E+03  0.17300000000E+03 0. -1.
         -6    1    1    2    0  502 -0.59104543390E+02  0.98463293854E+02 -0.16470836242E+03  0.26504001950E+03  0.17300000000E+03 0. -1.
<mgrwt>
<rscale>  2 0.20764722E+03</rscale>
<asrwt>0</asrwt>
<pdfrwt beam="1">  1       21 0.97170068E-02 0.20764722E+03</pdfrwt>
<pdfrwt beam="2">  1       21 0.16067559E+00 0.20764722E+03</pdfrwt>
<totfact> 0.21027374E+04</totfact>
</mgrwt>
</event>
<event>
 4    1  0.4451819E+000  0.1798861E+03  0.7546771E-02  0.1167913E+00
         21   -1    0    0  501  502  0.00000000000E+00  0.00000000000E+00  0.67671143710E+02  0.67671143710E+02  0.00000000000E+00 0. -1.
         21   -1    0    0  502  503 -0.00000000000E+00 -0.00000000000E+00 -0.52761972819E+03  0.52761972819E+03  0.00000000000E+00 0. -1.
          6    1    1    2  501    0  0.75813961122E+01 -0.48708731670E+02 -0.13886246317E+03  0.22724832626E+03  0.17300000000E+03 0. -1.
         -6    1    1    2    0  503 -0.75813961122E+01  0.48708731670E+02 -0.32108612130E+03  0.36804254564E+03  0.17300000000E+03 0. -1.
<mgrwt>
<rscale>  2 0.17988613E+03</rscale>
<asrwt>0</asrwt>
<pdfrwt beam="1">  1       21 0.10410945E-01 0.17988613E+03</pdfrwt>
<pdfrwt beam="2">  1       21 0.81172269E-01 0.17988613E+03</pdfrwt>
<totfact> 0.10106965E+05</totfact>
</mgrwt>
</event>
<event>
 4    1  0.4451819E+000  0.2450133E+03  0.7546771E-02  0.1116497E+00
         21   -1    0    0  501  502  0.00000000000E+00  0.00000000000E+00  0.20078959677E+03  0.20078959677E+03  0.00000000000E+00 0.  1.
         21   -1    0    0  502  503 -0.00000000000E+00 -0.00000000000E+00 -0.34539807628E+03  0.34539807628E+03  0.00000000000E+00 0.  1.
          6    1    1    2  501    0  0.76836831060E+02  0.15555903368E+03  0.27812939566E+02  0.24658684307E+03  0.17300000000E+03 0.  1.
         -6    1    1    2    0  503 -0.76836831060E+02 -0.15555903368E+03 -0.17242141908E+03  0.29960082998E+03  0.17300000000E+03 0.  1.
<mgrwt>
<rscale>  2 0.24501329E+03</rscale>
<asrwt>0</asrwt>
<pdfrwt beam="1">  1       21 0.30890707E-01 0.24501329E+03</pdfrwt>
<pdfrwt beam="2">  1       21 0.53138165E-01 0.24501329E+03</pdfrwt>
<totfact> 0.32893544E+04</totfact>
</mgrwt>
</event>
<event>
 4    1  0.4451819E+000  0.2096556E+03  0.7546771E-02  0.1141839E+00
         21   -1    0    0  503  502  0.00000000000E+00  0.00000000000E+00  0.83293529903E+02  0.83293529903E+02  0.00000000000E+00 0. -1.
         21   -1    0    0  501  503 -0.00000000000E+00 -0.00000000000E+00 -0.70902782306E+03  0.70902782306E+03  0.00000000000E+00 0.  1.
          6    1    1    2  501    0 -0.52032440066E+02 -0.10639122736E+03 -0.51319935567E+03  0.55437266052E+03  0.17300000000E+03 0.  1.
         -6    1    1    2    0  502  0.52032440066E+02  0.10639122736E+03 -0.11253493749E+03  0.23794869244E+03  0.17300000000E+03 0.  1.
<mgrwt>
<rscale>  2 0.20965559E+03</rscale>
<asrwt>0</asrwt>
<pdfrwt beam="1">  1       21 0.12814389E-01 0.20965559E+03</pdfrwt>
<pdfrwt beam="2">  1       21 0.10908121E+00 0.20965559E+03</pdfrwt>
<totfact> 0.34437359E+04</totfact>
</mgrwt>
</event>
<event>
 4    1  0.4451819E+000  0.1841185E+03  0.7546771E-02  0.1163876E+00
         21   -1    0    0  501  502  0.00000000000E+00  0.00000000000E+00  0.19470775884E+03  0.19470775884E+03  0.00000000000E+00 0. -1.
         21   -1    0    0  502  503 -0.00000000000E+00 -0.00000000000E+00 -0.21930697057E+03  0.21930697057E+03  0.00000000000E+00 0. -1.
          6    1    1    2  501    0  0.30323990068E+02 -0.55236659974E+02  0.81680798625E+02  0.20142339944E+03  0.17300000000E+03 0. -1.
         -6    1    1    2    0  503 -0.30323990068E+02  0.55236659974E+02 -0.10628001035E+03  0.21259132997E+03  0.17300000000E+03 0. -1.
<mgrwt>
<rscale>  2 0.18411853E+03</rscale>
<asrwt>0</asrwt>
<pdfrwt beam="1">  1       21 0.29955040E-01 0.18411853E+03</pdfrwt>
<pdfrwt beam="2">  1       21 0.33739534E-01 0.18411853E+03</pdfrwt>
<totfact> 0.90738593E+04</totfact>
</mgrwt>
</event>
<event>
 4    1  0.4451819E+000  0.2667781E+03  0.7546771E-02  0.1103138E+00
         21   -1    0    0  503  502  0.00000000000E+00  0.00000000000E+00  0.25862871760E+03  0.25862871760E+03  0.00000000000E+00 0. -1.
         21   -1    0    0  501  503 -0.00000000000E+00 -0.00000000000E+00 -0.72494582413E+03  0.72494582413E+03  0.00000000000E+00 0.  1.
          6    1    1    2  501    0 -0.14357158333E+03 -0.14362722683E+03 -0.62051931408E+03  0.67543674684E+03  0.17300000000E+03 0.  1.
         -6    1    1    2    0  502  0.14357158333E+03  0.14362722683E+03  0.15420220755E+03  0.30813779489E+03  0.17300000000E+03 0. -1.
<mgrwt>
<rscale>  2 0.26677815E+03</rscale>
<asrwt>0</asrwt>
<pdfrwt beam="1">  1       21 0.39789033E-01 0.26677815E+03</pdfrwt>
<pdfrwt beam="2">  1       21 0.11153013E+00 0.26677815E+03</pdfrwt>
<totfact> 0.36431961E+03</totfact>
</mgrwt>
</event>
<event>
 4    1  0.4451819E+000  0.1792287E+03  0.7546771E-02  0.1168552E+00
         21   -1    0    0  501  502  0.00000000000E+00  0.00000000000E+00  0.27129873945E+03  0.27129873945E+03  0.00000000000E+00 0.  1.
         21   -1    0    0  502  503 -0.00000000000E+00 -0.00000000000E+00 -0.18662570823E+03  0.18662570823E+03  0.00000000000E+00 0.  1.
          6    1    1    2  501    0 -0.45593242296E+02  0.10732097704E+02 -0.96096163510E+02  0.20336517476E+03  0.17300000000E+03 0.  1.
         -6    1    1    2    0  503  0.45593242296E+02 -0.10732097704E+02  0.18076919473E+03  0.25455927292E+03  0.17300000000E+03 0.  1.
<mgrwt>
<rscale>  2 0.17922869E+03</rscale>
<asrwt>0</asrwt>
<pdfrwt beam="1">  1       21 0.41738268E-01 0.17922869E+03</pdfrwt>
<pdfrwt beam="2">  1       21 0.28711647E-01 0.17922869E+03</pdfrwt>
<totfact> 0.64508642E+04</totfact>
</mgrwt>
</event>
<event>
 4    1  0.4451819E+000  0.2322806E+03  0.7546771E-02  0.1125045E+00
         21   -1    0    0  503  502  0.00000000000E+00  0.00000000000E+00  0.34470004297E+03  0.34470004297E+03  0.00000000000E+00 0.  1.
         21   -1    0    0  501  503 -0.00000000000E+00 -0.00000000000E+00 -0.15781743177E+03  0.15781743177E+03  0.00000000000E+00 0.  1.
          6    1    1    2  501    0 -0.15396394644E+03 -0.17898600765E+02  0.11617695117E+03  0.25971395938E+03  0.17300000000E+03 0.  1.
         -6    1    1    2    0  502  0.15396394644E+03  0.17898600765E+02  0.70705660027E+02  0.24280351536E+03  0.17300000000E+03 0.  1.
<mgrwt>
<rscale>  2 0.23228056E+03</rscale>
<asrwt>0</asrwt>
<pdfrwt beam="1">  1       21 0.53030776E-01 0.23228056E+03</pdfrwt>
<pdfrwt beam="2">  1       21 0.24279605E-01 0.23228056E+03</pdfrwt>
<totfact> 0.52980285E+04</totfact>
</mgrwt>
</event>
<event>
 4    1  0.4451819E+000  0.1857277E+03  0.7546771E-02  0.1162372E+00
         21   -1    0    0  501  502  0.00000000000E+00  0.00000000000E+00  0.53367544085E+03  0.53367544085E+03  0.00000000000E+00 0.  1.
         21   -1    0    0  502  503 -0.00000000000E+00 -0.00000000000E+00 -0.69245522999E+02  0.69245522999E+02  0.00000000000E+00 0.  1.
          6    1    1    2  501    0 -0.66485305717E+02 -0.12061135841E+02  0.30999207652E+03  0.36137218263E+03  0.17300000000E+03 0.  1.
         -6    1    1    2    0  503  0.66485305717E+02  0.12061135841E+02  0.15443784134E+03  0.24154878122E+03  0.17300000000E+03 0.  1.
<mgrwt>
<rscale>  2 0.18572767E+03</rscale>
<asrwt>0</asrwt>
<pdfrwt beam="1">  1       21 0.82103911E-01 0.18572767E+03</pdfrwt>
<pdfrwt beam="2">  1       21 0.10653158E-01 0.18572767E+03</pdfrwt>
<totfact> 0.94339014E+04</totfact>
</mgrwt>
</event>
<event>
 4    1  0.4451819E+000  0.1774856E+03  0.7546771E-02  0.1170259E+00
         21   -1    0    0  501  502  0.00000000000E+00  0.00000000000E+00  0.10467830213E+03  0.10467830213E+03  0.00000000000E+00 0. -1.
         21   -1    0    0  502  503 -0.00000000000E+00 -0.00000000000E+00 -0.51261615837E+03  0.51261615837E+03  0.00000000000E+00 0. -1.
          6    1    1    2  501    0  0.38114733373E+02  0.10927349558E+02 -0.56292771196E+01  0.17757485360E+03  0.17300000000E+03 0. -1.
         -6    1    1    2    0  503 -0.38114733373E+02 -0.10927349558E+02 -0.40230857912E+03  0.43971960691E+03  0.17300000000E+03 0. -1.
<mgrwt>
<rscale>  2 0.17748560E+03</rscale>
<asrwt>0</asrwt>
<pdfrwt beam="1">  1       21 0.16104354E-01 0.17748560E+03</pdfrwt>
<pdfrwt beam="2">  1       21 0.78864025E-01 0.17748560E+03</pdfrwt>
<totfact> 0.49306593E+04</totfact>
</mgrwt>
</event>
<event>
 4    1  0.4451819E+000  0.2467674E+03  0.7546771E-02  0.1115365E+00
         21   -1    0    0  501  502  0.00000000000E+00  0.00000000000E+00  0.41819474661E+03  0.41819474661E+03  0.00000000000E+00 0. -1.
         21   -1    0    0  502  503 -0.00000000000E+00 -0.00000000000E+00 -0.15961199599E+03  0.15961199599E+03  0.00000000000E+00 0.  1.
          6    1    1    2  501    0 -0.15474940755E+03 -0.83772024884E+02  0.21485424946E+03  0.32719486518E+03  0.17300000000E+03 0.  1.
         -6    1    1    2    0  503  0.15474940755E+03  0.83772024884E+02  0.43728501157E+02  0.25061187742E+03  0.17300000000E+03 0.  1.
<mgrwt>
<rscale>  2 0.24676736E+03</rscale>
<asrwt>0</asrwt>
<pdfrwt beam="1">  1       21 0.64337653E-01 0.24676736E+03</pdfrwt>
<pdfrwt beam="2">  1       21 0.24555692E-01 0.24676736E+03</pdfrwt>
<totfact> 0.34010041E+04</totfact>
</mgrwt>
</event>
<event>
 4    1  0.4451819E+000  0.2330688E+03  0.7546771E-02  0.1124498E+00
         21   -1    0    0  503  502  0.00000000000E+00  0.00000000000E+00  0.83676444197E+02  0.83676444197E+02  0.00000000000E+00 0. -1.
         21   -1    0    0  501  503 -0.00000000000E+00 -0.00000000000E+00 -0.75137682459E+03  0.75137682459E+03  0.00000000000E+00 0.  1.
          6    1    1    2  501    0  0.14297104744E+03  0.62859723659E+02 -0.48783369871E+03  0.54065033326E+03  0.17300000000E+03 0.  1.
         -6    1    1    2    0  502 -0.14297104744E+03 -0.62859723659E+02 -0.17986668168E+03  0.29440293552E+03  0.17300000000E+03 0.  1.
<mgrwt>
<rscale>  2 0.23306880E+03</rscale>
<asrwt>0</asrwt>
<pdfrwt beam="1">  1       21 0.12873300E-01 0.23306880E+03</pdfrwt>
<pdfrwt beam="2">  1       21 0.11559643E+00 0.23306880E+03</pdfrwt>
<totfact> 0.29283330E+04</totfact>
</mgrwt>
</event>
<event>
 4    1  0.4451819E+000  0.1924900E+03  0.7546771E-02  0.1156234E+00
         21   -1    0    0  503  502  0.00000000000E+00  0.00000000000E+00  0.10763363981E+03  0.10763363981E+03  0.00000000000E+00 0. -1.
         21   -1    0    0  501  503 -0.00000000000E+00 -0.00000000000E+00 -0.39241684332E+03  0.39241684332E+03  0.00000000000E+00 0. -1.
          6    1    1    2  501    0  0.11820503001E+02  0.83568476214E+02 -0.22999150884E+03  0.29991416880E+03  0.17300000000E+03 0. -1.
         -6    1    1    2    0  502 -0.11820503001E+02 -0.83568476214E+02 -0.54791694675E+02  0.20013631433E+03  0.17300000000E+03 0. -1.
<mgrwt>
<rscale>  2 0.19249004E+03</rscale>
<asrwt>0</asrwt>
<pdfrwt beam="1">  1       21 0.16559021E-01 0.19249004E+03</pdfrwt>
<pdfrwt beam="2">  1       21 0.60371823E-01 0.19249004E+03</pdfrwt>
<totfact> 0.83729938E+04</totfact>
</mgrwt>
</event>
<event>
 4    1  0.4451819E+000  0.2326243E+03  0.7546771E-02  0.1124806E+00
         21   -1    0    0  501  502  0.00000000000E+00  0.00000000000E+00  0.29068199908E+03  0.29068199908E+03  0.00000000000E+00 0.  1.
         21   -1    0    0  502  503 -0.00000000000E+00 -0.00000000000E+00 -0.27564407164E+03  0.27564407164E+03  0.00000000000E+00 0. -1.
          6    1    1    2  501    0  0.15444415848E+03 -0.18222195370E+02  0.16885425451E+03  0.28744704862E+03  0.17300000000E+03 0. -1.
         -6    1    1    2    0  503 -0.15444415848E+03  0.18222195370E+02 -0.15381632708E+03  0.27887902210E+03  0.17300000000E+03 0. -1.
<mgrwt>
<rscale>  2 0.23262426E+03</rscale>
<asrwt>0</asrwt>
<pdfrwt beam="1">  1       21 0.44720307E-01 0.23262426E+03</pdfrwt>
<pdfrwt beam="2">  1       21 0.42406781E-01 0.23262426E+03</pdfrwt>
<totfact> 0.25130913E+04</totfact>
</mgrwt>
</event>
<event>
 4    1  0.4451819E+000  0.1927452E+03  0.7546771E-02  0.1156008E+00
         21   -1    0    0  501  502  0.00000000000E+00  0.00000000000E+00  0.91936031927E+02  0.91936031927E+02  0.00000000000E+00 0. -1.
         21   -1    0    0  502  503 -0.00000000000E+00 -0.00000000000E+00 -0.51946803988E+03  0.51946803988E+03  0.00000000000E+00 0. -1.
          6    1    1    2  501    0 -0.84842601768E+02  0.48427864012E+01 -0.35783634579E+03  0.40644503936E+03  0.17300000000E+03 0. -1.
         -6    1    1    2    0  503  0.84842601768E+02 -0.48427864012E+01 -0.69695662162E+02  0.20495903244E+03  0.17300000000E+03 0. -1.
<mgrwt>
<rscale>  2 0.19274522E+03</rscale>
<asrwt>0</asrwt>
<pdfrwt beam="1">  1       21 0.14144005E-01 0.19274522E+03</pdfrwt>
<pdfrwt beam="2">  1       21 0.79918159E-01 0.19274522E+03</pdfrwt>
<totfact> 0.60170769E+04</totfact>
</mgrwt>
</event>
<event>
 4    1  0.4451819E+000  0.2138910E+03  0.7546771E-02  0.1138521E+00
         21   -1    0    0  503  502  0.00000000000E+00  0.00000000000E+00  0.10730853780E+04  0.10730853780E+04  0.00000000000E+00 0.  1.
         21   -1    0    0  501  503 -0.00000000000E+00 -0.00000000000E+00 -0.47042001178E+02  0.47042001178E+02  0.00000000000E+00 0. -1.
          6    1    1    2  501    0 -0.47721086666E+02 -0.11637470402E+03  0.34157048547E+03  0.40301336255E+03  0.17300000000E+03 0. -1.
         -6    1    1    2    0  502  0.47721086666E+02  0.11637470402E+03  0.68447289134E+03  0.71711401661E+03  0.17300000000E+03 0.  1.
<mgrwt>
<rscale>  2 0.21389103E+03</rscale>
<asrwt>0</asrwt>
<pdfrwt beam="1">  1       21 0.16509004E+00 0.21389103E+03</pdfrwt>
<pdfrwt beam="2">  1       21 0.72372318E-02 0.21389103E+03</pdfrwt>
<totfact> 0.32578233E+04</totfact>
</mgrwt>
</event>
<event>
 4    1  0.4451819E+000  0.1804195E+03  0.7546771E-02  0.1167398E+00
         21   -1    0    0  501  502  0.00000000000E+00  0.00000000000E+00  0.34998629951E+03  0.34998629951E+03  0.00000000000E+00 0. -1.
         21   -1    0    0  502  503 -0.00000000000E+00 -0.00000000000E+00 -0.23617725072E+03  0.23617725072E+03  0.00000000000E+00 0. -1.
          6    1    1    2  501    0  0.46971573852E+02  0.20393233401E+02  0.28509421234E+03  0.33738690346E+03  0.17300000000E+03 0. -1.
         -6    1    1    2    0  503 -0.46971573852E+02 -0.20393233401E+02 -0.17128516356E+03  0.24877664676E+03  0.17300000000E+03 0. -1.
<mgrwt>
<rscale>  2 0.18041955E+03</rscale>
<asrwt>0</asrwt>
<pdfrwt beam="1">  1       21 0.53844046E-01 0.18041955E+03</pdfrwt>
<pdfrwt beam="2">  1       21 0.36334962E-01 0.18041955E+03</pdfrwt>
<totfact> 0.23997054E+04</totfact>
</mgrwt>
</event>
<event>
 4    1  0.4451819E+000  0.2164873E+03  0.7546771E-02  0.1136529E+00
         21   -1    0    0  501  502  0.00000000000E+00  0.00000000000E+00  0.70009717276E+03  0.70009717276E+03  0.00000000000E+00 0. -1.
         21   -1    0    0  502  503 -0.00000000000E+00 -0.00000000000E+00 -0.74277269203E+02  0.74277269203E+02  0.00000000000E+00 0. -1.
          6    1    1    2  501    0 -0.13013115114E+03  0.19047969057E+01  0.43457492518E+03  0.48551221441E+03  0.17300000000E+03 0. -1.
         -6    1    1    2    0  503  0.13013115114E+03 -0.19047969057E+01  0.19124497837E+03  0.28886222755E+03  0.17300000000E+03 0. -1.
<mgrwt>
<rscale>  2 0.21648729E+03</rscale>
<asrwt>0</asrwt>
<pdfrwt beam="1">  1       21 0.10770725E+00 0.21648729E+03</pdfrwt>
<pdfrwt beam="2">  1       21 0.11427273E-01 0.21648729E+03</pdfrwt>
<totfact> 0.43460135E+04</totfact>
</mgrwt>
</event>
<event>
 4    1  0.4451819E+000  0.3532899E+03  0.7546771E-02  0.1061273E+00
         21   -1    0    0  501  502  0.00000000000E+00  0.00000000000E+00  0.33071828496E+03  0.33071828496E+03  0.00000000000E+00 0. -1.
         21   -1    0    0  502  503 -0.00000000000E+00 -0.00000000000E+00 -0.38133151128E+03  0.38133151128E+03  0.00000000000E+00 0.  1.
          6    1    1    2  501    0 -0.23652572789E+03  0.19733308075E+03  0.10833917765E+02  0.35345599229E+03  0.17300000000E+03 0. -1.
         -6    1    1    2    0  503  0.23652572789E+03 -0.19733308075E+03 -0.61447144090E+02  0.35859380395E+03  0.17300000000E+03 0.  1.
<mgrwt>
<rscale>  2 0.35328992E+03</rscale>
<asrwt>0</asrwt>
<pdfrwt beam="1">  1       21 0.50879736E-01 0.35328992E+03</pdfrwt>
<pdfrwt beam="2">  1       21 0.58666387E-01 0.35328992E+03</pdfrwt>
<totfact> 0.91916549E+03</totfact>
</mgrwt>
</event>
<event>
 4    1  0.4451819E+000  0.2100465E+03  0.7546771E-02  0.1141529E+00
         21   -1    0    0  501  502  0.00000000000E+00  0.00000000000E+00  0.31509750452E+02  0.31509750452E+02  0.00000000000E+00 0.  1.
         21   -1    0    0  502  503 -0.00000000000E+00 -0.00000000000E+00 -0.14472576235E+04  0.14472576235E+04  0.00000000000E+00 0.  1.
          6    1    1    2  501    0  0.45637841529E+02  0.11003507240E+03 -0.57452982184E+03  0.61172219669E+03  0.17300000000E+03 0.  1.
         -6    1    1    2    0  503 -0.45637841529E+02 -0.11003507240E+03 -0.84121805122E+03  0.86704517728E+03  0.17300000000E+03 0.  1.
<mgrwt>
<rscale>  2 0.21004649E+03</rscale>
<asrwt>0</asrwt>
<pdfrwt beam="1">  1       21 0.48476552E-02 0.21004649E+03</pdfrwt>
<pdfrwt beam="2">  1       21 0.22265496E+00 0.21004649E+03</pdfrwt>
<totfact> 0.27108443E+04</totfact>
</mgrwt>
</event>
<event>
 4    1  0.4451819E+000  0.1737083E+03  0.7546771E-02  0.1174035E+00
         21   -1    0    0  503  502  0.00000000000E+00  0.00000000000E+00  0.41137033740E+03  0.41137033740E+03  0.00000000000E+00 0. -1.
         21   -1    0    0  501  503 -0.00000000000E+00 -0.00000000000E+00 -0.14345350274E+03  0.14345350274E+03  0.00000000000E+00 0. -1.
          6    1    1    2  501    0  0.63835503031E+01 -0.14311196183E+02 -0.59967247514E+02  0.18376787212E+03  0.17300000000E+03 0. -1.
         -6    1    1    2    0  502 -0.63835503031E+01  0.14311196183E+02  0.32788408217E+03  0.37105596801E+03  0.17300000000E+03 0. -1.
<mgrwt>
<rscale>  2 0.17370826E+03</rscale>
<asrwt>0</asrwt>
<pdfrwt beam="1">  1       21 0.63287744E-01 0.17370826E+03</pdfrwt>
<pdfrwt beam="2">  1       21 0.22069770E-01 0.17370826E+03</pdfrwt>
<totfact> 0.44735976E+04</totfact>
</mgrwt>
</event>
<event>
 4    1  0.4451819E+000  0.1737450E+03  0.7546771E-02  0.1173998E+00
         21   -1    0    0  501  502  0.00000000000E+00  0.00000000000E+00  0.31356614143E+03  0.31356614143E+03  0.00000000000E+00 0. -1.
         21   -1    0    0  502  503 -0.00000000000E+00 -0.00000000000E+00 -0.98969101903E+02  0.98969101903E+02  0.00000000000E+00 0. -1.
          6    1    1    2  501    0  0.16922987764E+01  0.15983290341E+02  0.14135576657E+03  0.22398388823E+03  0.17300000000E+03 0. -1.
         -6    1    1    2    0  503 -0.16922987764E+01 -0.15983290341E+02  0.73241272957E+02  0.18855135510E+03  0.17300000000E+03 0. -1.
<mgrwt>
<rscale>  2 0.17374501E+03</rscale>
<asrwt>0</asrwt>
<pdfrwt beam="1">  1       21 0.48240944E-01 0.17374501E+03</pdfrwt>
<pdfrwt beam="2">  1       21 0.15226016E-01 0.17374501E+03</pdfrwt>
<totfact> 0.15766400E+05</totfact>
</mgrwt>
</event>
<event>
 4    1  0.4451819E+000  0.1943837E+03  0.7546771E-02  0.1154566E+00
         21   -1    0    0  501  502  0.00000000000E+00  0.00000000000E+00  0.48873750442E+03  0.48873750442E+03  0.00000000000E+00 0. -1.
         21   -1    0    0  502  503 -0.00000000000E+00 -0.00000000000E+00 -0.14935078202E+03  0.14935078202E+03  0.00000000000E+00 0. -1.
          6    1    1    2  501    0 -0.75100432148E+02  0.47073692466E+02  0.39127402065E+03  0.43689857709E+03  0.17300000000E+03 0. -1.
         -6    1    1    2    0  503  0.75100432148E+02 -0.47073692466E+02 -0.51887298243E+02  0.20118970935E+03  0.17300000000E+03 0. -1.
<mgrwt>
<rscale>  2 0.19438366E+03</rscale>
<asrwt>0</asrwt>
<pdfrwt beam="1">  1       21 0.75190384E-01 0.19438366E+03</pdfrwt>
<pdfrwt beam="2">  1       21 0.22977044E-01 0.19438366E+03</pdfrwt>
<totfact> 0.28086316E+04</totfact>
</mgrwt>
</event>
<event>
 4    1  0.4451819E+000  0.2291444E+03  0.7546771E-02  0.1127243E+00
         21   -1    0    0  503  502  0.00000000000E+00  0.00000000000E+00  0.29924352475E+03  0.29924352475E+03  0.00000000000E+00 0. -1.
         21   -1    0    0  501  503 -0.00000000000E+00 -0.00000000000E+00 -0.19639873978E+03  0.19639873978E+03  0.00000000000E+00 0. -1.
          6    1    1    2  501    0 -0.14369248633E+03  0.43939019033E+02  0.13232796412E+03  0.26460887761E+03  0.17300000000E+03 0. -1.
         -6    1    1    2    0  502  0.14369248633E+03 -0.43939019033E+02 -0.29483179148E+02  0.23103338692E+03  0.17300000000E+03 0. -1.
<mgrwt>
<rscale>  2 0.22914443E+03</rscale>
<asrwt>0</asrwt>
<pdfrwt beam="1">  1       21 0.46037466E-01 0.22914443E+03</pdfrwt>
<pdfrwt beam="2">  1       21 0.30215191E-01 0.22914443E+03</pdfrwt>
<totfact> 0.46703964E+04</totfact>
</mgrwt>
</event>
<event>
 4    1  0.4451819E+000  0.4656616E+03  0.7546771E-02  0.1023152E+00
         21   -1    0    0  503  502  0.00000000000E+00  0.00000000000E+00  0.10307860339E+04  0.10307860339E+04  0.00000000000E+00 0.  1.
         21   -1    0    0  501  503 -0.00000000000E+00 -0.00000000000E+00 -0.31453772706E+03  0.31453772706E+03  0.00000000000E+00 0.  1.
          6    1    1    2  501    0 -0.27777056080E+03 -0.33129331090E+03 -0.28989596778E+02  0.46656311365E+03  0.17300000000E+03 0.  1.
         -6    1    1    2    0  502  0.27777056080E+03  0.33129331090E+03  0.74523790364E+03  0.87876064734E+03  0.17300000000E+03 0.  1.
<mgrwt>
<rscale>  2 0.46566162E+03</rscale>
<asrwt>0</asrwt>
<pdfrwt beam="1">  1       21 0.15858246E+00 0.46566162E+03</pdfrwt>
<pdfrwt beam="2">  1       21 0.48390420E-01 0.46566162E+03</pdfrwt>
<totfact> 0.87849842E+02</totfact>
</mgrwt>
</event>
<event>
 4    1  0.4451819E+000  0.1884684E+03  0.7546771E-02  0.1159850E+00
         21   -1    0    0  503  502  0.00000000000E+00  0.00000000000E+00  0.12142962747E+04  0.12142962747E+04  0.00000000000E+00 0.  1.
         21   -1    0    0  501  503 -0.00000000000E+00 -0.00000000000E+00 -0.32081361419E+02  0.32081361419E+02  0.00000000000E+00 0.  1.
          6    1    1    2  501    0  0.43229842124E+02  0.61012538163E+02  0.40603022667E+03  0.44763924542E+03  0.17300000000E+03 0.  1.
         -6    1    1    2    0  502 -0.43229842124E+02 -0.61012538163E+02  0.77618468663E+03  0.79873839073E+03  0.17300000000E+03 0.  1.
<mgrwt>
<rscale>  2 0.18846843E+03</rscale>
<asrwt>0</asrwt>
<pdfrwt beam="1">  1       21 0.18681478E+00 0.18846843E+03</pdfrwt>
<pdfrwt beam="2">  1       21 0.49355950E-02 0.18846843E+03</pdfrwt>
<totfact> 0.45140084E+04</totfact>
</mgrwt>
</event>
<event>
 4    1  0.4451819E+000  0.3193560E+03  0.7546771E-02  0.1075946E+00
         21   -1    0    0  503  502  0.00000000000E+00  0.00000000000E+00  0.33440114075E+03  0.33440114075E+03  0.00000000000E+00 0.  1.
         21   -1    0    0  501  503 -0.00000000000E+00 -0.00000000000E+00 -0.34301842360E+03  0.34301842360E+03  0.00000000000E+00 0.  1.
          6    1    1    2  501    0 -0.10373214061E+03 -0.24758613988E+03 -0.11708965374E+03  0.34014444089E+03  0.17300000000E+03 0.  1.
         -6    1    1    2    0  502  0.10373214061E+03  0.24758613988E+03  0.10847237089E+03  0.33727512346E+03  0.17300000000E+03 0.  1.
<mgrwt>
<rscale>  2 0.31935600E+03</rscale>
<asrwt>0</asrwt>
<pdfrwt beam="1">  1       21 0.51446330E-01 0.31935600E+03</pdfrwt>
<pdfrwt beam="2">  1       21 0.52772065E-01 0.31935600E+03</pdfrwt>
<totfact> 0.11426012E+04</totfact>
</mgrwt>
</event>
<event>
 4    1  0.4451819E+000  0.2290413E+03  0.7546771E-02  0.1127316E+00
         21   -1    0    0  503  502  0.00000000000E+00  0.00000000000E+00  0.40260410026E+03  0.40260410026E+03  0.00000000000E+00 0.  1.
         21   -1    0    0  501  503 -0.00000000000E+00 -0.00000000000E+00 -0.17533448750E+03  0.17533448750E+03  0.00000000000E+00 0.  1.
          6    1    1    2  501    0  0.14366272805E+03  0.43496670852E+02 -0.32813091784E+02  0.23137985824E+03  0.17300000000E+03 0.  1.
         -6    1    1    2    0  502 -0.14366272805E+03 -0.43496670852E+02  0.26008270455E+03  0.34655872952E+03  0.17300000000E+03 0.  1.
<mgrwt>
<rscale>  2 0.22904135E+03</rscale>
<asrwt>0</asrwt>
<pdfrwt beam="1">  1       21 0.61939092E-01 0.22904135E+03</pdfrwt>
<pdfrwt beam="2">  1       21 0.26974537E-01 0.22904135E+03</pdfrwt>
<totfact> 0.31084446E+04</totfact>
</mgrwt>
</event>
<event>
 4    1  0.4451819E+000  0.1793707E+03  0.7546771E-02  0.1168413E+00
         21   -1    0    0  501  502  0.00000000000E+00  0.00000000000E+00  0.17243141531E+03  0.17243141531E+03  0.00000000000E+00 0.  1.
         21   -1    0    0  502  503 -0.00000000000E+00 -0.00000000000E+00 -0.19206755009E+03  0.19206755009E+03  0.00000000000E+00 0.  1.
          6    1    1    2  501    0  0.28762937058E+02  0.37650163348E+02  0.20961594846E+02  0.18059133370E+03  0.17300000000E+03 0.  1.
         -6    1    1    2    0  503 -0.28762937058E+02 -0.37650163348E+02 -0.40597729629E+02  0.18390763171E+03  0.17300000000E+03 0.  1.
<mgrwt>
<rscale>  2 0.17937068E+03</rscale>
<asrwt>0</asrwt>
<pdfrwt beam="1">  1       21 0.26527910E-01 0.17937068E+03</pdfrwt>
<pdfrwt beam="2">  1       21 0.29548854E-01 0.17937068E+03</pdfrwt>
<totfact> 0.14902331E+05</totfact>
</mgrwt>
</event>
<event>
 4    1  0.4451819E+000  0.1732954E+03  0.7546771E-02  0.1174454E+00
         21   -1    0    0  503  502  0.00000000000E+00  0.00000000000E+00  0.26221834580E+03  0.26221834580E+03  0.00000000000E+00 0. -1.
         21   -1    0    0  501  503 -0.00000000000E+00 -0.00000000000E+00 -0.11768911660E+03  0.11768911660E+03  0.00000000000E+00 0. -1.
          6    1    1    2  501    0  0.82781762276E+01 -0.58098447689E+01  0.41131991972E+02  0.17810986290E+03  0.17300000000E+03 0. -1.
         -6    1    1    2    0  502 -0.82781762276E+01  0.58098447689E+01  0.10339723723E+03  0.20179759950E+03  0.17300000000E+03 0. -1.
<mgrwt>
<rscale>  2 0.17329536E+03</rscale>
<asrwt>0</asrwt>
<pdfrwt beam="1">  1       21 0.40341284E-01 0.17329536E+03</pdfrwt>
<pdfrwt beam="2">  1       21 0.18106018E-01 0.17329536E+03</pdfrwt>
<totfact> 0.16543937E+05</totfact>
</mgrwt>
</event>
<event>
 4    1  0.4451819E+000  0.3278943E+03  0.7546771E-02  0.1072072E+00
         21   -1    0    0  503  502  0.00000000000E+00  0.00000000000E+00  0.18251915993E+04  0.18251915993E+04  0.00000000000E+00 0.  1.
         21   -1    0    0  501  503 -0.00000000000E+00 -0.00000000000E+00 -0.60550308430E+02  0.60550308430E+02  0.00000000000E+00 0. -1.
          6    1    1    2  501    0 -0.22498418501E+03  0.16421869847E+03  0.72694214628E+03  0.79747071951E+03  0.17300000000E+03 0. -1.
         -6    1    1    2    0  502  0.22498418501E+03 -0.16421869847E+03  0.10376991446E+04  0.10882711883E+04  0.17300000000E+03 0.  1.
<mgrwt>
<rscale>  2 0.32789429E+03</rscale>
<asrwt>0</asrwt>
<pdfrwt beam="1">  1       21 0.28079867E+00 0.32789429E+03</pdfrwt>
<pdfrwt beam="2">  1       21 0.93154335E-02 0.32789429E+03</pdfrwt>
<totfact> 0.35999540E+03</totfact>
</mgrwt>
</event>
<event>
 4    1  0.4451819E+000  0.1905812E+03  0.7546771E-02  0.1157938E+00
         21   -1    0    0  503  502  0.00000000000E+00  0.00000000000E+00  0.17552219978E+04  0.17552219978E+04  0.00000000000E+00 0.  1.
         21   -1    0    0  501  503 -0.00000000000E+00 -0.00000000000E+00 -0.27410539339E+02  0.27410539339E+02  0.00000000000E+00 0.  1.
          6    1    1    2  501    0 -0.52957729233E+02 -0.59897204941E+02  0.42266965022E+03  0.46364946830E+03  0.17300000000E+03 0.  1.
         -6    1    1    2    0  502  0.52957729233E+02  0.59897204941E+02  0.13051418083E+04  0.13189830689E+04  0.17300000000E+03 0.  1.
<mgrwt>
<rscale>  2 0.19058121E+03</rscale>
<asrwt>0</asrwt>
<pdfrwt beam="1">  1       21 0.27003407E+00 0.19058121E+03</pdfrwt>
<pdfrwt beam="2">  1       21 0.42170074E-02 0.19058121E+03</pdfrwt>
<totfact> 0.18256207E+04</totfact>
</mgrwt>
</event>
<event>
 4    1  0.4451819E+000  0.1858378E+03  0.7546771E-02  0.1162270E+00
         21   -1    0    0  501  502  0.00000000000E+00  0.00000000000E+00  0.44752178313E+02  0.44752178313E+02  0.00000000000E+00 0.  1.
         21   -1    0    0  502  503 -0.00000000000E+00 -0.00000000000E+00 -0.14676382122E+04  0.14676382122E+04  0.00000000000E+00 0.  1.
          6    1    1    2  501    0  0.38864909453E+02 -0.55643437462E+02 -0.19071992154E+03  0.26628886907E+03  0.17300000000E+03 0.  1.
         -6    1    1    2    0  503 -0.38864909453E+02  0.55643437462E+02 -0.12321661124E+04  0.12461015215E+04  0.17300000000E+03 0.  1.
<mgrwt>
<rscale>  2 0.18583776E+03</rscale>
<asrwt>0</asrwt>
<pdfrwt beam="1">  1       21 0.68849515E-02 0.18583776E+03</pdfrwt>
<pdfrwt beam="2">  1       21 0.22579046E+00 0.18583776E+03</pdfrwt>
<totfact> 0.14520142E+04</totfact>
</mgrwt>
</event>
<event>
 4    1  0.4451819E+000  0.1752307E+03  0.7546771E-02  0.1172500E+00
         21   -1    0    0  501  502  0.00000000000E+00  0.00000000000E+00  0.54555091746E+02  0.54555091746E+02  0.00000000000E+00 0. -1.
         21   -1    0    0  502  503 -0.00000000000E+00 -0.00000000000E+00 -0.60234214117E+03  0.60234214117E+03  0.00000000000E+00 0. -1.
          6    1    1    2  501    0  0.18403516633E+02 -0.20931305128E+02 -0.18978229106E+03  0.25830820149E+03  0.17300000000E+03 0.  1.
         -6    1    1    2    0  503 -0.18403516633E+02  0.20931305128E+02 -0.35800475837E+03  0.39858903142E+03  0.17300000000E+03 0.  1.
<mgrwt>
<rscale>  2 0.17523073E+03</rscale>
<asrwt>0</asrwt>
<pdfrwt beam="1">  1       21 0.83930916E-02 0.17523073E+03</pdfrwt>
<pdfrwt beam="2">  1       21 0.92668016E-01 0.17523073E+03</pdfrwt>
<totfact> 0.10910678E+05</totfact>
</mgrwt>
</event>
<event>
 4    1  0.4451819E+000  0.2486389E+03  0.7546771E-02  0.1114168E+00
         21   -1    0    0  503  502  0.00000000000E+00  0.00000000000E+00  0.89663201809E+03  0.89663201809E+03  0.00000000000E+00 0. -1.
         21   -1    0    0  501  503 -0.00000000000E+00 -0.00000000000E+00 -0.69329987000E+02  0.69329987000E+02  0.00000000000E+00 0. -1.
          6    1    1    2  501    0 -0.11930522722E+03 -0.13288549933E+03  0.37781679871E+03  0.45229064390E+03  0.17300000000E+03 0. -1.
         -6    1    1    2    0  502  0.11930522722E+03  0.13288549933E+03  0.44948523238E+03  0.51367136119E+03  0.17300000000E+03 0. -1.
<mgrwt>
<rscale>  2 0.24863888E+03</rscale>
<asrwt>0</asrwt>
<pdfrwt beam="1">  1       21 0.13794338E+00 0.24863888E+03</pdfrwt>
<pdfrwt beam="2">  1       21 0.10666152E-01 0.24863888E+03</pdfrwt>
<totfact> 0.26064015E+04</totfact>
</mgrwt>
</event>
<event>
 4    1  0.4451819E+000  0.2548466E+03  0.7546771E-02  0.1110280E+00
         21   -1    0    0  503  502  0.00000000000E+00  0.00000000000E+00  0.45315033048E+03  0.45315033048E+03  0.00000000000E+00 0. -1.
         21   -1    0    0  501  503 -0.00000000000E+00 -0.00000000000E+00 -0.16692557828E+03  0.16692557828E+03  0.00000000000E+00 0.  1.
          6    1    1    2  501    0 -0.18708004303E+03  0.43436114281E+01  0.26529634196E+02  0.25622379076E+03  0.17300000000E+03 0.  1.
         -6    1    1    2    0  502  0.18708004303E+03 -0.43436114281E+01  0.25969511800E+03  0.36385211800E+03  0.17300000000E+03 0. -1.
<mgrwt>
<rscale>  2 0.25484664E+03</rscale>
<asrwt>0</asrwt>
<pdfrwt beam="1">  1       21 0.69715435E-01 0.25484664E+03</pdfrwt>
<pdfrwt beam="2">  1       21 0.25680858E-01 0.25484664E+03</pdfrwt>
<totfact> 0.26052877E+04</totfact>
</mgrwt>
</event>
<event>
 4    1  0.4451819E+000  0.1802523E+03  0.7546771E-02  0.1167559E+00
         21   -1    0    0  501  502  0.00000000000E+00  0.00000000000E+00  0.24188793684E+02  0.24188793684E+02  0.00000000000E+00 0.  1.
         21   -1    0    0  502  503 -0.00000000000E+00 -0.00000000000E+00 -0.13546554176E+04  0.13546554176E+04  0.00000000000E+00 0.  1.
          6    1    1    2  501    0  0.28720504498E+02  0.41677420888E+02 -0.60189096073E+03  0.62830215932E+03  0.17300000000E+03 0.  1.
         -6    1    1    2    0  503 -0.28720504498E+02 -0.41677420888E+02 -0.72857566321E+03  0.75054205199E+03  0.17300000000E+03 0.  1.
<mgrwt>
<rscale>  2 0.18025225E+03</rscale>
<asrwt>0</asrwt>
<pdfrwt beam="1">  1       21 0.37213523E-02 0.18025225E+03</pdfrwt>
<pdfrwt beam="2">  1       21 0.20840856E+00 0.18025225E+03</pdfrwt>
<totfact> 0.52944045E+04</totfact>
</mgrwt>
</event>
<event>
 4    1  0.4451819E+000  0.2390128E+03  0.7546771E-02  0.1120452E+00
         21   -1    0    0  503  502  0.00000000000E+00  0.00000000000E+00  0.12842489375E+04  0.12842489375E+04  0.00000000000E+00 0.  1.
         21   -1    0    0  501  503 -0.00000000000E+00 -0.00000000000E+00 -0.51486124133E+02  0.51486124133E+02  0.00000000000E+00 0. -1.
          6    1    1    2  501    0  0.14778802923E+03  0.73190352599E+02  0.37006465536E+03  0.44053941758E+03  0.17300000000E+03 0. -1.
         -6    1    1    2    0  502 -0.14778802923E+03 -0.73190352599E+02  0.86269815797E+03  0.89519564402E+03  0.17300000000E+03 0.  1.
<mgrwt>
<rscale>  2 0.23901282E+03</rscale>
<asrwt>0</asrwt>
<pdfrwt beam="1">  1       21 0.19757674E+00 0.23901282E+03</pdfrwt>
<pdfrwt beam="2">  1       21 0.79209431E-02 0.23901282E+03</pdfrwt>
<totfact> 0.16435155E+04</totfact>
</mgrwt>
</event>
<event>
 4    1  0.4451819E+000  0.2373916E+03  0.7546771E-02  0.1121543E+00
         21   -1    0    0  501  502  0.00000000000E+00  0.00000000000E+00  0.15842437831E+03  0.15842437831E+03  0.00000000000E+00 0.  1.
         21   -1    0    0  502  503 -0.00000000000E+00 -0.00000000000E+00 -0.65827183837E+03  0.65827183837E+03  0.00000000000E+00 0.  1.
          6    1    1    2  501    0 -0.92851411885E+02 -0.13343305150E+03  0.26915484631E+02  0.23891255144E+03  0.17300000000E+03 0.  1.
         -6    1    1    2    0  503  0.92851411885E+02  0.13343305150E+03 -0.52676294469E+03  0.57778366524E+03  0.17300000000E+03 0.  1.
<mgrwt>
<rscale>  2 0.23739158E+03</rscale>
<asrwt>0</asrwt>
<pdfrwt beam="1">  1       21 0.24372981E-01 0.23739158E+03</pdfrwt>
<pdfrwt beam="2">  1       21 0.10127259E+00 0.23739158E+03</pdfrwt>
<totfact> 0.12310345E+04</totfact>
</mgrwt>
</event>
<event>
 4    1  0.4451819E+000  0.2363724E+03  0.7546771E-02  0.1122233E+00
         21   -1    0    0  501  502  0.00000000000E+00  0.00000000000E+00  0.36917713280E+03  0.36917713280E+03  0.00000000000E+00 0. -1.
         21   -1    0    0  502  503 -0.00000000000E+00 -0.00000000000E+00 -0.20839589025E+03  0.20839589025E+03  0.00000000000E+00 0. -1.
          6    1    1    2  501    0 -0.13343195873E+03  0.90215429496E+02  0.23149461150E+03  0.33084991535E+03  0.17300000000E+03 0. -1.
         -6    1    1    2    0  503  0.13343195873E+03 -0.90215429496E+02 -0.70713368951E+02  0.24672310771E+03  0.17300000000E+03 0. -1.
<mgrwt>
<rscale>  2 0.23637240E+03</rscale>
<asrwt>0</asrwt>
<pdfrwt beam="1">  1       21 0.56796482E-01 0.23637240E+03</pdfrwt>
<pdfrwt beam="2">  1       21 0.32060906E-01 0.23637240E+03</pdfrwt>
<totfact> 0.26638808E+04</totfact>
</mgrwt>
</event>
<event>
 4    1  0.4451819E+000  0.1873841E+03  0.7546771E-02  0.1160842E+00
         21   -1    0    0  503  502  0.00000000000E+00  0.00000000000E+00  0.31611999656E+02  0.31611999656E+02  0.00000000000E+00 0.  1.
         21   -1    0    0  501  503 -0.00000000000E+00 -0.00000000000E+00 -0.13350110737E+04  0.13350110737E+04  0.00000000000E+00 0.  1.
          6    1    1    2  501    0  0.71741909033E+02  0.60741292185E+01 -0.93176552863E+03  0.95042085252E+03  0.17300000000E+03 0.  1.
         -6    1    1    2    0  502 -0.71741909033E+02 -0.60741292185E+01 -0.37163354546E+03  0.41620222088E+03  0.17300000000E+03 0.  1.
<mgrwt>
<rscale>  2 0.18738409E+03</rscale>
<asrwt>0</asrwt>
<pdfrwt beam="1">  1       21 0.48633848E-02 0.18738409E+03</pdfrwt>
<pdfrwt beam="2">  1       21 0.20538631E+00 0.18738409E+03</pdfrwt>
<totfact> 0.35106099E+04</totfact>
</mgrwt>
</event>
<event>
 4    1  0.4451819E+000  0.1880585E+03  0.7546771E-02  0.1160224E+00
         21   -1    0    0  501  502  0.00000000000E+00  0.00000000000E+00  0.97242810543E+03  0.97242810543E+03  0.00000000000E+00 0. -1.
         21   -1    0    0  502  503 -0.00000000000E+00 -0.00000000000E+00 -0.36702338961E+02  0.36702338961E+02  0.00000000000E+00 0. -1.
          6    1    1    2  501    0 -0.21383171207E+02  0.70567318490E+02  0.51596694766E+03  0.54917017174E+03  0.17300000000E+03 0.  1.
         -6    1    1    2    0  503  0.21383171207E+02 -0.70567318490E+02  0.41975881881E+03  0.45996027265E+03  0.17300000000E+03 0.  1.
<mgrwt>
<rscale>  2 0.18805847E+03</rscale>
<asrwt>0</asrwt>
<pdfrwt beam="1">  1       21 0.14960430E+00 0.18805847E+03</pdfrwt>
<pdfrwt beam="2">  1       21 0.56465144E-02 0.18805847E+03</pdfrwt>
<totfact> 0.65995392E+04</totfact>
</mgrwt>
</event>
<event>
 4    1  0.4451819E+000  0.1753181E+03  0.7546771E-02  0.1172413E+00
         21   -1    0    0  503  502  0.00000000000E+00  0.00000000000E+00  0.43324923424E+02  0.43324923424E+02  0.00000000000E+00 0. -1.
         21   -1    0    0  501  503 -0.00000000000E+00 -0.00000000000E+00 -0.72129984169E+03  0.72129984169E+03  0.00000000000E+00 0. -1.
          6    1    1    2  501    0 -0.26886280407E+02 -0.91953796209E+01 -0.38801077450E+03  0.42578021115E+03  0.17300000000E+03 0.  1.
         -6    1    1    2    0  502  0.26886280407E+02  0.91953796209E+01 -0.28996414377E+03  0.33884455397E+03  0.17300000000E+03 0.  1.
<mgrwt>
<rscale>  2 0.17531807E+03</rscale>
<asrwt>0</asrwt>
<pdfrwt beam="1">  1       21 0.66653726E-02 0.17531807E+03</pdfrwt>
<pdfrwt beam="2">  1       21 0.11096921E+00 0.17531807E+03</pdfrwt>
<totfact> 0.10600942E+05</totfact>
</mgrwt>
</event>
<event>
 4    1  0.4451819E+000  0.1824074E+03  0.7546771E-02  0.1165493E+00
         21   -1    0    0  503  502  0.00000000000E+00  0.00000000000E+00  0.35747997315E+02  0.35747997315E+02  0.00000000000E+00 0.  1.
         21   -1    0    0  501  503 -0.00000000000E+00 -0.00000000000E+00 -0.13002231062E+04  0.13002231062E+04  0.00000000000E+00 0.  1.
          6    1    1    2  501    0  0.20483647649E+02  0.54073024816E+02 -0.98831884999E+03  0.10050107567E+04  0.17300000000E+03 0.  1.
         -6    1    1    2    0  502 -0.20483647649E+02 -0.54073024816E+02 -0.27615625885E+03  0.33096034678E+03  0.17300000000E+03 0.  1.
<mgrwt>
<rscale>  2 0.18240743E+03</rscale>
<asrwt>0</asrwt>
<pdfrwt beam="1">  1       21 0.54996920E-02 0.18240743E+03</pdfrwt>
<pdfrwt beam="2">  1       21 0.20003432E+00 0.18240743E+03</pdfrwt>
<totfact> 0.30929042E+04</totfact>
</mgrwt>
</event>
<event>
 4    1  0.4451819E+000  0.2688009E+03  0.7546771E-02  0.1101968E+00
         21   -1    0    0  501  502  0.00000000000E+00  0.00000000000E+00  0.11472072832E+04  0.11472072832E+04  0.00000000000E+00 0.  1.
         21   -1    0    0  502  503 -0.00000000000E+00 -0.00000000000E+00 -0.63346012675E+02  0.63346012675E+02  0.00000000000E+00 0.  1.
          6    1    1    2  501    0 -0.88602477669E+01  0.20553932688E+03  0.58778569764E+03  0.64633268928E+03  0.17300000000E+03 0.  1.
         -6    1    1    2    0  503  0.88602477669E+01 -0.20553932688E+03  0.49607557285E+03  0.56422060656E+03  0.17300000000E+03 0.  1.
<mgrwt>
<rscale>  2 0.26880089E+03</rscale>
<asrwt>0</asrwt>
<pdfrwt beam="1">  1       21 0.17649341E+00 0.26880089E+03</pdfrwt>
<pdfrwt beam="2">  1       21 0.97455413E-02 0.26880089E+03</pdfrwt>
<totfact> 0.15544750E+04</totfact>
</mgrwt>
</event>
<event>
 4    1  0.4451819E+000  0.1813742E+03  0.7546771E-02  0.1166480E+00
         21   -1    0    0  503  502  0.00000000000E+00  0.00000000000E+00  0.51169615795E+02  0.51169615795E+02  0.00000000000E+00 0.  1.
         21   -1    0    0  501  503 -0.00000000000E+00 -0.00000000000E+00 -0.67063607224E+03  0.67063607224E+03  0.00000000000E+00 0. -1.
          6    1    1    2  501    0 -0.16670077726E+02  0.51862500735E+02 -0.38313738578E+03  0.42389959526E+03  0.17300000000E+03 0. -1.
         -6    1    1    2    0  502  0.16670077726E+02 -0.51862500735E+02 -0.23632907066E+03  0.29790609277E+03  0.17300000000E+03 0.  1.
<mgrwt>
<rscale>  2 0.18137423E+03</rscale>
<asrwt>0</asrwt>
<pdfrwt beam="1">  1       21 0.78722493E-02 0.18137423E+03</pdfrwt>
<pdfrwt beam="2">  1       21 0.10317477E+00 0.18137423E+03</pdfrwt>
<totfact> 0.94483853E+04</totfact>
</mgrwt>
</event>
<event>
 4    1  0.4451819E+000  0.1920667E+03  0.7546771E-02  0.1156610E+00
         21   -1    0    0  503  502  0.00000000000E+00  0.00000000000E+00  0.56153700702E+02  0.56153700702E+02  0.00000000000E+00 0. -1.
         21   -1    0    0  501  503 -0.00000000000E+00 -0.00000000000E+00 -0.67604148153E+03  0.67604148153E+03  0.00000000000E+00 0.  1.
          6    1    1    2  501    0  0.82512156755E+02  0.12344070925E+02 -0.37148136713E+03  0.41819617194E+03  0.17300000000E+03 0.  1.
         -6    1    1    2    0  502 -0.82512156755E+02 -0.12344070925E+02 -0.24840641370E+03  0.31399901029E+03  0.17300000000E+03 0. -1.
<mgrwt>
<rscale>  2 0.19206674E+03</rscale>
<asrwt>0</asrwt>
<pdfrwt beam="1">  1       21 0.86390306E-02 0.19206674E+03</pdfrwt>
<pdfrwt beam="2">  1       21 0.10400638E+00 0.19206674E+03</pdfrwt>
<totfact> 0.78465725E+04</totfact>
</mgrwt>
</event>
<event>
 4    1  0.4451819E+000  0.2074932E+03  0.7546771E-02  0.1143567E+00
         21   -1    0    0  501  502  0.00000000000E+00  0.00000000000E+00  0.73084605384E+03  0.73084605384E+03  0.00000000000E+00 0.  1.
         21   -1    0    0  502  503 -0.00000000000E+00 -0.00000000000E+00 -0.59172239258E+02  0.59172239258E+02  0.00000000000E+00 0.  1.
          6    1    1    2  501    0 -0.35706124112E+02  0.10885547195E+03  0.30949248900E+03  0.37261111339E+03  0.17300000000E+03 0.  1.
         -6    1    1    2    0  503  0.35706124112E+02 -0.10885547195E+03  0.36218132558E+03  0.41740717971E+03  0.17300000000E+03 0.  1.
<mgrwt>
<rscale>  2 0.20749323E+03</rscale>
<asrwt>0</asrwt>
<pdfrwt beam="1">  1       21 0.11243785E+00 0.20749323E+03</pdfrwt>
<pdfrwt beam="2">  1       21 0.91034219E-02 0.20749323E+03</pdfrwt>
<totfact> 0.58853467E+04</totfact>
</mgrwt>
</event>
<event>
 4    1  0.4451819E+000  0.2134847E+03  0.7546771E-02  0.1138836E+00
         21   -1    0    0  501  502  0.00000000000E+00  0.00000000000E+00  0.96595343704E+03  0.96595343704E+03  0.00000000000E+00 0.  1.
         21   -1    0    0  502  503 -0.00000000000E+00 -0.00000000000E+00 -0.67824062486E+02  0.67824062486E+02  0.00000000000E+00 0. -1.
          6    1    1    2  501    0 -0.99099363198E+02 -0.76328488187E+02  0.73421940479E+03  0.76462661232E+03  0.17300000000E+03 0.  1.
         -6    1    1    2    0  503  0.99099363198E+02  0.76328488187E+02  0.16390996976E+03  0.26915088720E+03  0.17300000000E+03 0. -1.
<mgrwt>
<rscale>  2 0.21348471E+03</rscale>
<asrwt>0</asrwt>
<pdfrwt beam="1">  1       21 0.14860821E+00 0.21348471E+03</pdfrwt>
<pdfrwt beam="2">  1       21 0.10434472E-01 0.21348471E+03</pdfrwt>
<totfact> 0.22746815E+04</totfact>
</mgrwt>
</event>
<event>
 4    1  0.4451819E+000  0.1879051E+03  0.7546771E-02  0.1160364E+00
         21   -1    0    0  503  502  0.00000000000E+00  0.00000000000E+00  0.11244115444E+04  0.11244115444E+04  0.00000000000E+00 0. -1.
         21   -1    0    0  501  503 -0.00000000000E+00 -0.00000000000E+00 -0.86661077421E+02  0.86661077421E+02  0.00000000000E+00 0. -1.
          6    1    1    2  501    0 -0.28737117312E+02 -0.67479637045E+02  0.35336209902E+02  0.19119877368E+03  0.17300000000E+03 0. -1.
         -6    1    1    2    0  502  0.28737117312E+02  0.67479637045E+02  0.10024142571E+04  0.10198738482E+04  0.17300000000E+03 0. -1.
<mgrwt>
<rscale>  2 0.18790509E+03</rscale>
<asrwt>0</asrwt>
<pdfrwt beam="1">  1       21 0.17298638E+00 0.18790509E+03</pdfrwt>
<pdfrwt beam="2">  1       21 0.13332474E-01 0.18790509E+03</pdfrwt>
<totfact> 0.99148535E+03</totfact>
</mgrwt>
</event>
<event>
 4    1  0.4451819E+000  0.1872879E+03  0.7546771E-02  0.1160930E+00
         21   -1    0    0  503  502  0.00000000000E+00  0.00000000000E+00  0.37940342007E+03  0.37940342007E+03  0.00000000000E+00 0. -1.
         21   -1    0    0  501  503 -0.00000000000E+00 -0.00000000000E+00 -0.12760429390E+03  0.12760429390E+03  0.00000000000E+00 0. -1.
          6    1    1    2  501    0  0.31567103715E+01 -0.71678358354E+02 -0.71539576043E+01  0.18742446742E+03  0.17300000000E+03 0. -1.
         -6    1    1    2    0  502 -0.31567103715E+01  0.71678358354E+02  0.25895308378E+03  0.31958324655E+03  0.17300000000E+03 0. -1.
<mgrwt>
<rscale>  2 0.18728789E+03</rscale>
<asrwt>0</asrwt>
<pdfrwt beam="1">  1       21 0.58369757E-01 0.18728789E+03</pdfrwt>
<pdfrwt beam="2">  1       21 0.19631430E-01 0.18728789E+03</pdfrwt>
<totfact> 0.65843900E+04</totfact>
</mgrwt>
</event>
<event>
 4    1  0.4451819E+000  0.1951139E+03  0.7546771E-02  0.1153928E+00
         21   -1    0    0  501  502  0.00000000000E+00  0.00000000000E+00  0.81958122194E+02  0.81958122194E+02  0.00000000000E+00 0.  1.
         21   -1    0    0  502  503 -0.00000000000E+00 -0.00000000000E+00 -0.10229982647E+04  0.10229982647E+04  0.00000000000E+00 0.  1.
          6    1    1    2  501    0 -0.57520256017E+02 -0.69511512603E+02 -0.62304878590E+02  0.20482023370E+03  0.17300000000E+03 0.  1.
         -6    1    1    2    0  503  0.57520256017E+02  0.69511512603E+02 -0.87873526387E+03  0.90013615315E+03  0.17300000000E+03 0.  1.
<mgrwt>
<rscale>  2 0.19511389E+03</rscale>
<asrwt>0</asrwt>
<pdfrwt beam="1">  1       21 0.12608942E-01 0.19511389E+03</pdfrwt>
<pdfrwt beam="2">  1       21 0.15738435E+00 0.19511389E+03</pdfrwt>
<totfact> 0.14103874E+04</totfact>
</mgrwt>
</event>
<event>
 4    1  0.4451819E+000  0.2178845E+03  0.7546771E-02  0.1135470E+00
         21   -1    0    0  501  502  0.00000000000E+00  0.00000000000E+00  0.38209933036E+03  0.38209933036E+03  0.00000000000E+00 0. -1.
         21   -1    0    0  502  503 -0.00000000000E+00 -0.00000000000E+00 -0.12460897985E+03  0.12460897985E+03  0.00000000000E+00 0. -1.
          6    1    1    2  501    0  0.38647131675E+01  0.13239984147E+03  0.11503874007E+03  0.24638905363E+03  0.17300000000E+03 0. -1.
         -6    1    1    2    0  503 -0.38647131675E+01 -0.13239984147E+03  0.14245161044E+03  0.26031925658E+03  0.17300000000E+03 0. -1.
<mgrwt>
<rscale>  2 0.21788450E+03</rscale>
<asrwt>0</asrwt>
<pdfrwt beam="1">  1       21 0.58784512E-01 0.21788450E+03</pdfrwt>
<pdfrwt beam="2">  1       21 0.19170613E-01 0.21788450E+03</pdfrwt>
<totfact> 0.66874765E+04</totfact>
</mgrwt>
</event>
<event>
 4    1  0.4451819E+000  0.1807810E+03  0.7546771E-02  0.1167049E+00
         21   -1    0    0  503  502  0.00000000000E+00  0.00000000000E+00  0.12893388121E+03  0.12893388121E+03  0.00000000000E+00 0.  1.
         21   -1    0    0  501  503 -0.00000000000E+00 -0.00000000000E+00 -0.53164212249E+03  0.53164212249E+03  0.00000000000E+00 0.  1.
          6    1    1    2  501    0 -0.30020748989E+02  0.43029547357E+02 -0.44026413784E+03  0.47593518296E+03  0.17300000000E+03 0.  1.
         -6    1    1    2    0  502  0.30020748989E+02 -0.43029547357E+02  0.37555896554E+02  0.18464082073E+03  0.17300000000E+03 0.  1.
<mgrwt>
<rscale>  2 0.18078105E+03</rscale>
<asrwt>0</asrwt>
<pdfrwt beam="1">  1       21 0.19835982E-01 0.18078105E+03</pdfrwt>
<pdfrwt beam="2">  1       21 0.81791095E-01 0.18078105E+03</pdfrwt>
<totfact> 0.30862427E+04</totfact>
</mgrwt>
</event>
<event>
 4    1  0.4451819E+000  0.2053698E+03  0.7546771E-02  0.1145286E+00
         21   -1    0    0  501  502  0.00000000000E+00  0.00000000000E+00  0.43504760163E+03  0.43504760163E+03  0.00000000000E+00 0. -1.
         21   -1    0    0  502  503 -0.00000000000E+00 -0.00000000000E+00 -0.98410812006E+02  0.98410812006E+02  0.00000000000E+00 0.  1.
          6    1    1    2  501    0  0.38011879583E+02  0.10393675909E+03  0.13579274484E+03  0.24620402603E+03  0.17300000000E+03 0.  1.
         -6    1    1    2    0  503 -0.38011879583E+02 -0.10393675909E+03  0.20084404478E+03  0.28725438761E+03  0.17300000000E+03 0.  1.
<mgrwt>
<rscale>  2 0.20536980E+03</rscale>
<asrwt>0</asrwt>
<pdfrwt beam="1">  1       21 0.66930399E-01 0.20536980E+03</pdfrwt>
<pdfrwt beam="2">  1       21 0.15140125E-01 0.20536980E+03</pdfrwt>
<totfact> 0.78422322E+04</totfact>
</mgrwt>
</event>
<event>
 4    1  0.4451819E+000  0.2894098E+03  0.7546771E-02  0.1090658E+00
         21   -1    0    0  503  502  0.00000000000E+00  0.00000000000E+00  0.55317254699E+03  0.55317254699E+03  0.00000000000E+00 0. -1.
         21   -1    0    0  501  503 -0.00000000000E+00 -0.00000000000E+00 -0.16120437537E+03  0.16120437537E+03  0.00000000000E+00 0.  1.
          6    1    1    2  501    0 -0.33714086263E+02 -0.22954822203E+03  0.10795820670E+03  0.30888994844E+03  0.17300000000E+03 0. -1.
         -6    1    1    2    0  502  0.33714086263E+02  0.22954822203E+03  0.28400996492E+03  0.40548697392E+03  0.17300000000E+03 0.  1.
<mgrwt>
<rscale>  2 0.28940979E+03</rscale>
<asrwt>0</asrwt>
<pdfrwt beam="1">  1       21 0.85103468E-01 0.28940979E+03</pdfrwt>
<pdfrwt beam="2">  1       21 0.24800673E-01 0.28940979E+03</pdfrwt>
<totfact> 0.17466619E+04</totfact>
</mgrwt>
</event>
<event>
 4    1  0.4451819E+000  0.1863234E+03  0.7546771E-02  0.1161820E+00
         21   -1    0    0  501  502  0.00000000000E+00  0.00000000000E+00  0.35974278313E+03  0.35974278313E+03  0.00000000000E+00 0. -1.
         21   -1    0    0  502  503 -0.00000000000E+00 -0.00000000000E+00 -0.32467180775E+03  0.32467180775E+03  0.00000000000E+00 0. -1.
          6    1    1    2  501    0  0.50735972031E+02 -0.47045491912E+02  0.30441179983E+03  0.35690749648E+03  0.17300000000E+03 0. -1.
         -6    1    1    2    0  503 -0.50735972031E+02  0.47045491912E+02 -0.26934082445E+03  0.32750709440E+03  0.17300000000E+03 0. -1.
<mgrwt>
<rscale>  2 0.18632342E+03</rscale>
<asrwt>0</asrwt>
<pdfrwt beam="1">  1       21 0.55345044E-01 0.18632342E+03</pdfrwt>
<pdfrwt beam="2">  1       21 0.49949509E-01 0.18632342E+03</pdfrwt>
<totfact> 0.11803334E+04</totfact>
</mgrwt>
</event>
<event>
 4    1  0.4451819E+000  0.1837719E+03  0.7546771E-02  0.1164202E+00
         21   -1    0    0  503  502  0.00000000000E+00  0.00000000000E+00  0.57384805513E+02  0.57384805513E+02  0.00000000000E+00 0. -1.
         21   -1    0    0  501  503 -0.00000000000E+00 -0.00000000000E+00 -0.63659874430E+03  0.63659874430E+03  0.00000000000E+00 0. -1.
          6    1    1    2  501    0  0.57183973221E+02  0.23939723924E+02 -0.19424791193E+03  0.26740300758E+03  0.17300000000E+03 0. -1.
         -6    1    1    2    0  502 -0.57183973221E+02 -0.23939723924E+02 -0.38496602686E+03  0.42658054223E+03  0.17300000000E+03 0. -1.
<mgrwt>
<rscale>  2 0.18377192E+03</rscale>
<asrwt>0</asrwt>
<pdfrwt beam="1">  1       21 0.88284320E-02 0.18377192E+03</pdfrwt>
<pdfrwt beam="2">  1       21 0.97938264E-01 0.18377192E+03</pdfrwt>
<totfact> 0.87459344E+04</totfact>
</mgrwt>
</event>
<event>
 4    1  0.4451819E+000  0.1898923E+03  0.7546771E-02  0.1158559E+00
         21   -1    0    0  503  502  0.00000000000E+00  0.00000000000E+00  0.24309383897E+03  0.24309383897E+03  0.00000000000E+00 0. -1.
         21   -1    0    0  501  503 -0.00000000000E+00 -0.00000000000E+00 -0.45483921864E+03  0.45483921864E+03  0.00000000000E+00 0. -1.
          6    1    1    2  501    0 -0.47007426560E+02  0.62613019515E+02 -0.39233912114E+03  0.43587736158E+03  0.17300000000E+03 0. -1.
         -6    1    1    2    0  502  0.47007426560E+02 -0.62613019515E+02  0.18059374147E+03  0.26205569603E+03  0.17300000000E+03 0. -1.
<mgrwt>
<rscale>  2 0.18989231E+03</rscale>
<asrwt>0</asrwt>
<pdfrwt beam="1">  1       21 0.37399052E-01 0.18989231E+03</pdfrwt>
<pdfrwt beam="2">  1       21 0.69975264E-01 0.18989231E+03</pdfrwt>
<totfact> 0.12809815E+04</totfact>
</mgrwt>
</event>
<event>
 4    1  0.4451819E+000  0.1972604E+03  0.7546771E-02  0.1152071E+00
         21   -1    0    0  501  502  0.00000000000E+00  0.00000000000E+00  0.68488155192E+03  0.68488155192E+03  0.00000000000E+00 0. -1.
         21   -1    0    0  502  503 -0.00000000000E+00 -0.00000000000E+00 -0.70023120372E+02  0.70023120372E+02  0.00000000000E+00 0. -1.
          6    1    1    2  501    0  0.93369647072E+00 -0.94772387102E+02  0.47135932702E+03  0.51097093099E+03  0.17300000000E+03 0. -1.
         -6    1    1    2    0  503 -0.93369647072E+00  0.94772387102E+02  0.14349910453E+03  0.24393374130E+03  0.17300000000E+03 0. -1.
<mgrwt>
<rscale>  2 0.19726043E+03</rscale>
<asrwt>0</asrwt>
<pdfrwt beam="1">  1       21 0.10536639E+00 0.19726043E+03</pdfrwt>
<pdfrwt beam="2">  1       21 0.10772788E-01 0.19726043E+03</pdfrwt>
<totfact> 0.51408557E+04</totfact>
</mgrwt>
</event>
<event>
 4    1  0.4451819E+000  0.2299426E+03  0.7546771E-02  0.1126680E+00
         21   -1    0    0  503  502  0.00000000000E+00  0.00000000000E+00  0.19003310349E+04  0.19003310349E+04  0.00000000000E+00 0.  1.
         21   -1    0    0  501  503 -0.00000000000E+00 -0.00000000000E+00 -0.32111174142E+02  0.32111174142E+02  0.00000000000E+00 0. -1.
          6    1    1    2  501    0 -0.32946951177E+00  0.15147433040E+03  0.58103510429E+03  0.62488028752E+03  0.17300000000E+03 0. -1.
         -6    1    1    2    0  502  0.32946951177E+00 -0.15147433040E+03  0.12871847564E+04  0.13075619215E+04  0.17300000000E+03 0.  1.
<mgrwt>
<rscale>  2 0.22994256E+03</rscale>
<asrwt>0</asrwt>
<pdfrwt beam="1">  1       21 0.29235853E+00 0.22994256E+03</pdfrwt>
<pdfrwt beam="2">  1       21 0.49401821E-02 0.22994256E+03</pdfrwt>
<totfact> 0.99951662E+03</totfact>
</mgrwt>
</event>
<event>
 4    1  0.4451819E+000  0.1905614E+03  0.7546771E-02  0.1157956E+00
         21   -1    0    0  501  502  0.00000000000E+00  0.00000000000E+00  0.84717928209E+02  0.84717928209E+02  0.00000000000E+00 0. -1.
         21   -1    0    0  502  503 -0.00000000000E+00 -0.00000000000E+00 -0.46762724944E+03  0.46762724944E+03  0.00000000000E+00 0. -1.
          6    1    1    2  501    0 -0.29559378097E+02  0.74235300577E+02 -0.27119581177E+03  0.33145256826E+03  0.17300000000E+03 0. -1.
         -6    1    1    2    0  503  0.29559378097E+02 -0.74235300577E+02 -0.11171350945E+03  0.22089260938E+03  0.17300000000E+03 0. -1.
<mgrwt>
<rscale>  2 0.19056137E+03</rscale>
<asrwt>0</asrwt>
<pdfrwt beam="1">  1       21 0.13033528E-01 0.19056137E+03</pdfrwt>
<pdfrwt beam="2">  1       21 0.71942652E-01 0.19056137E+03</pdfrwt>
<totfact> 0.88322548E+04</totfact>
</mgrwt>
</event>
<event>
 4    1  0.4451819E+000  0.1969005E+03  0.7546771E-02  0.1152381E+00
         21   -1    0    0  503  502  0.00000000000E+00  0.00000000000E+00  0.15952984134E+03  0.15952984134E+03  0.00000000000E+00 0. -1.
         21   -1    0    0  501  503 -0.00000000000E+00 -0.00000000000E+00 -0.55297377835E+03  0.55297377835E+03  0.00000000000E+00 0.  1.
          6    1    1    2  501    0  0.87011002501E+02  0.35635635217E+02 -0.46343820396E+03  0.50353230477E+03  0.17300000000E+03 0.  1.
         -6    1    1    2    0  502 -0.87011002501E+02 -0.35635635217E+02  0.69994266946E+02  0.20897131492E+03  0.17300000000E+03 0. -1.
<mgrwt>
<rscale>  2 0.19690052E+03</rscale>
<asrwt>0</asrwt>
<pdfrwt beam="1">  1       21 0.24543052E-01 0.19690052E+03</pdfrwt>
<pdfrwt beam="2">  1       21 0.85072890E-01 0.19690052E+03</pdfrwt>
<totfact> 0.18713615E+04</totfact>
</mgrwt>
</event>
<event>
 4    1  0.4451819E+000  0.1768389E+03  0.7546771E-02  0.1170898E+00
         21   -1    0    0  501  502  0.00000000000E+00  0.00000000000E+00  0.56288631043E+02  0.56288631043E+02  0.00000000000E+00 0.  1.
         21   -1    0    0  502  503 -0.00000000000E+00 -0.00000000000E+00 -0.11506441483E+04  0.11506441483E+04  0.00000000000E+00 0.  1.
          6    1    1    2  501    0 -0.32309317105E+01 -0.36504313283E+02 -0.11319760563E+03  0.20996595373E+03  0.17300000000E+03 0.  1.
         -6    1    1    2    0  503  0.32309317105E+01  0.36504313283E+02 -0.98115791162E+03  0.99696682560E+03  0.17300000000E+03 0.  1.
<mgrwt>
<rscale>  2 0.17683892E+03</rscale>
<asrwt>0</asrwt>
<pdfrwt beam="1">  1       21 0.86597903E-02 0.17683892E+03</pdfrwt>
<pdfrwt beam="2">  1       21 0.17702216E+00 0.17683892E+03</pdfrwt>
<totfact> 0.20159655E+04</totfact>
</mgrwt>
</event>
<event>
 4    1  0.4451819E+000  0.1734619E+03  0.7546771E-02  0.1174285E+00
         21   -1    0    0  503  502  0.00000000000E+00  0.00000000000E+00  0.62574197178E+02  0.62574197178E+02  0.00000000000E+00 0.  1.
         21   -1    0    0  501  503 -0.00000000000E+00 -0.00000000000E+00 -0.66611842727E+03  0.66611842727E+03  0.00000000000E+00 0.  1.
          6    1    1    2  501    0 -0.69800453994E+01  0.10549907804E+02 -0.49391984664E+03  0.52349387436E+03  0.17300000000E+03 0.  1.
         -6    1    1    2    0  502  0.69800453994E+01 -0.10549907804E+02 -0.10962438345E+03  0.20519875008E+03  0.17300000000E+03 0.  1.
<mgrwt>
<rscale>  2 0.17346187E+03</rscale>
<asrwt>0</asrwt>
<pdfrwt beam="1">  1       21 0.96268004E-02 0.17346187E+03</pdfrwt>
<pdfrwt beam="2">  1       21 0.10247975E+00 0.17346187E+03</pdfrwt>
<totfact> 0.67807858E+04</totfact>
</mgrwt>
</event>
<event>
 4    1  0.4451819E+000  0.1832870E+03  0.7546771E-02  0.1164659E+00
         21   -1    0    0  501  502  0.00000000000E+00  0.00000000000E+00  0.12156272761E+03  0.12156272761E+03  0.00000000000E+00 0. -1.
         21   -1    0    0  502  503 -0.00000000000E+00 -0.00000000000E+00 -0.27679469412E+03  0.27679469412E+03  0.00000000000E+00 0. -1.
          6    1    1    2  501    0 -0.14516841137E+02 -0.58773978723E+02 -0.69651640880E+02  0.19607516500E+03  0.17300000000E+03 0.  1.
         -6    1    1    2    0  503  0.14516841137E+02  0.58773978723E+02 -0.85580325634E+02  0.20228225673E+03  0.17300000000E+03 0.  1.
<mgrwt>
<rscale>  2 0.18328699E+03</rscale>
<asrwt>0</asrwt>
<pdfrwt beam="1">  1       21 0.18701958E-01 0.18328699E+03</pdfrwt>
<pdfrwt beam="2">  1       21 0.42583799E-01 0.18328699E+03</pdfrwt>
<totfact> 0.13918610E+05</totfact>
</mgrwt>
</event>
<event>
 4    1  0.4451819E+000  0.2146204E+03  0.7546771E-02  0.1137958E+00
         21   -1    0    0  501  502  0.00000000000E+00  0.00000000000E+00  0.85436412803E+02  0.85436412803E+02  0.00000000000E+00 0.  1.
         21   -1    0    0  502  503 -0.00000000000E+00 -0.00000000000E+00 -0.83410286955E+03  0.83410286955E+03  0.00000000000E+00 0.  1.
          6    1    1    2  501    0 -0.11065799867E+03 -0.62351782178E+02 -0.10092202008E+03  0.23716490370E+03  0.17300000000E+03 0.  1.
         -6    1    1    2    0  503  0.11065799867E+03  0.62351782178E+02 -0.64774443666E+03  0.68237437865E+03  0.17300000000E+03 0.  1.
<mgrwt>
<rscale>  2 0.21462045E+03</rscale>
<asrwt>0</asrwt>
<pdfrwt beam="1">  1       21 0.13144063E-01 0.21462045E+03</pdfrwt>
<pdfrwt beam="2">  1       21 0.12832352E+00 0.21462045E+03</pdfrwt>
<totfact> 0.21953455E+04</totfact>
</mgrwt>
</event>
<event>
 4    1  0.4451819E+000  0.1875071E+03  0.7546771E-02  0.1160729E+00
         21   -1    0    0  501  502  0.00000000000E+00  0.00000000000E+00  0.27649551273E+03  0.27649551273E+03  0.00000000000E+00 0. -1.
         21   -1    0    0  502  503 -0.00000000000E+00 -0.00000000000E+00 -0.43295104506E+03  0.43295104506E+03  0.00000000000E+00 0. -1.
          6    1    1    2  501    0 -0.70127483483E+01  0.71977367476E+02  0.21988688196E+03  0.28897951644E+03  0.17300000000E+03 0. -1.
         -6    1    1    2    0  503  0.70127483483E+01 -0.71977367476E+02 -0.37634241428E+03  0.42046704134E+03  0.17300000000E+03 0. -1.
<mgrwt>
<rscale>  2 0.18750712E+03</rscale>
<asrwt>0</asrwt>
<pdfrwt beam="1">  1       21 0.42537771E-01 0.18750712E+03</pdfrwt>
<pdfrwt beam="2">  1       21 0.66607853E-01 0.18750712E+03</pdfrwt>
<totfact> 0.11024622E+04</totfact>
</mgrwt>
</event>
<event>
 4    1  0.4451819E+000  0.2053122E+03  0.7546771E-02  0.1145333E+00
         21   -1    0    0  501  502  0.00000000000E+00  0.00000000000E+00  0.83343178583E+02  0.83343178583E+02  0.00000000000E+00 0. -1.
         21   -1    0    0  502  503 -0.00000000000E+00 -0.00000000000E+00 -0.10433339069E+04  0.10433339069E+04  0.00000000000E+00 0. -1.
          6    1    1    2  501    0 -0.77196807830E+02  0.79150104129E+02 -0.75633755599E+02  0.21880025390E+03  0.17300000000E+03 0. -1.
         -6    1    1    2    0  503  0.77196807830E+02 -0.79150104129E+02 -0.88435697272E+03  0.90787683158E+03  0.17300000000E+03 0. -1.
<mgrwt>
<rscale>  2 0.20531217E+03</rscale>
<asrwt>0</asrwt>
<pdfrwt beam="1">  1       21 0.12822028E-01 0.20531217E+03</pdfrwt>
<pdfrwt beam="2">  1       21 0.16051290E+00 0.20531217E+03</pdfrwt>
<totfact> 0.12881575E+04</totfact>
</mgrwt>
</event>
<event>
 4    1  0.4451819E+000  0.2048452E+03  0.7546771E-02  0.1145714E+00
         21   -1    0    0  503  502  0.00000000000E+00  0.00000000000E+00  0.14510505638E+03  0.14510505638E+03  0.00000000000E+00 0.  1.
         21   -1    0    0  501  503 -0.00000000000E+00 -0.00000000000E+00 -0.29887543781E+03  0.29887543781E+03  0.00000000000E+00 0.  1.
          6    1    1    2  501    0  0.10894702162E+03 -0.12771739229E+02 -0.11686663738E+03  0.23583761738E+03  0.17300000000E+03 0.  1.
         -6    1    1    2    0  502 -0.10894702162E+03  0.12771739229E+02 -0.36903744059E+02  0.20814287681E+03  0.17300000000E+03 0.  1.
<mgrwt>
<rscale>  2 0.20484524E+03</rscale>
<asrwt>0</asrwt>
<pdfrwt beam="1">  1       21 0.22323855E-01 0.20484524E+03</pdfrwt>
<pdfrwt beam="2">  1       21 0.45980836E-01 0.20484524E+03</pdfrwt>
<totfact> 0.84685097E+04</totfact>
</mgrwt>
</event>
<event>
 4    1  0.4451819E+000  0.1834187E+03  0.7546771E-02  0.1164535E+00
         21   -1    0    0  503  502  0.00000000000E+00  0.00000000000E+00  0.36524263116E+03  0.36524263116E+03  0.00000000000E+00 0.  1.
         21   -1    0    0  501  503 -0.00000000000E+00 -0.00000000000E+00 -0.12579876916E+03  0.12579876916E+03  0.00000000000E+00 0.  1.
          6    1    1    2  501    0  0.48456004086E+02  0.36951994399E+02 -0.73336155936E+01  0.18356529122E+03  0.17300000000E+03 0.  1.
         -6    1    1    2    0  502 -0.48456004086E+02 -0.36951994399E+02  0.24677747759E+03  0.30747610910E+03  0.17300000000E+03 0.  1.
<mgrwt>
<rscale>  2 0.18341874E+03</rscale>
<asrwt>0</asrwt>
<pdfrwt beam="1">  1       21 0.56191174E-01 0.18341874E+03</pdfrwt>
<pdfrwt beam="2">  1       21 0.19353657E-01 0.18341874E+03</pdfrwt>
<totfact> 0.73435574E+04</totfact>
</mgrwt>
</event>
<event>
 4    1  0.4451819E+000  0.1798661E+03  0.7546771E-02  0.1167933E+00
         21   -1    0    0  501  502  0.00000000000E+00  0.00000000000E+00  0.26565566101E+03  0.26565566101E+03  0.00000000000E+00 0. -1.
         21   -1    0    0  502  503 -0.00000000000E+00 -0.00000000000E+00 -0.15046837439E+03  0.15046837439E+03  0.00000000000E+00 0. -1.
          6    1    1    2  501    0  0.48240722098E+02 -0.97795424487E+01  0.14844172135E+03  0.23320967252E+03  0.17300000000E+03 0. -1.
         -6    1    1    2    0  503 -0.48240722098E+02  0.97795424487E+01 -0.33254434734E+02  0.18291436288E+03  0.17300000000E+03 0. -1.
<mgrwt>
<rscale>  2 0.17986608E+03</rscale>
<asrwt>0</asrwt>
<pdfrwt beam="1">  1       21 0.40870102E-01 0.17986608E+03</pdfrwt>
<pdfrwt beam="2">  1       21 0.23148981E-01 0.17986608E+03</pdfrwt>
<totfact> 0.10159395E+05</totfact>
</mgrwt>
</event>
<event>
 4    1  0.4451819E+000  0.1798264E+03  0.7546771E-02  0.1167971E+00
         21   -1    0    0  503  502  0.00000000000E+00  0.00000000000E+00  0.39629955880E+03  0.39629955880E+03  0.00000000000E+00 0. -1.
         21   -1    0    0  501  503 -0.00000000000E+00 -0.00000000000E+00 -0.14265694779E+03  0.14265694779E+03  0.00000000000E+00 0. -1.
          6    1    1    2  501    0 -0.28891302374E+02 -0.39671476895E+02 -0.49477506906E+02  0.18650886607E+03  0.17300000000E+03 0. -1.
         -6    1    1    2    0  502  0.28891302374E+02  0.39671476895E+02  0.30312011792E+03  0.35244764053E+03  0.17300000000E+03 0. -1.
<mgrwt>
<rscale>  2 0.17982640E+03</rscale>
<asrwt>0</asrwt>
<pdfrwt beam="1">  1       21 0.60969163E-01 0.17982640E+03</pdfrwt>
<pdfrwt beam="2">  1       21 0.21947223E-01 0.17982640E+03</pdfrwt>
<totfact> 0.48842118E+04</totfact>
</mgrwt>
</event>
<event>
 4    1  0.4451819E+000  0.2063795E+03  0.7546771E-02  0.1144466E+00
         21   -1    0    0  503  502  0.00000000000E+00  0.00000000000E+00  0.76467091080E+02  0.76467091080E+02  0.00000000000E+00 0. -1.
         21   -1    0    0  501  503 -0.00000000000E+00 -0.00000000000E+00 -0.55702728787E+03  0.55702728787E+03  0.00000000000E+00 0.  1.
          6    1    1    2  501    0 -0.11174860366E+03 -0.13256244853E+02 -0.23823369223E+03  0.31519481367E+03  0.17300000000E+03 0.  1.
         -6    1    1    2    0  502  0.11174860366E+03  0.13256244853E+02 -0.24232650456E+03  0.31829956528E+03  0.17300000000E+03 0.  1.
<mgrwt>
<rscale>  2 0.20637945E+03</rscale>
<asrwt>0</asrwt>
<pdfrwt beam="1">  1       21 0.11764168E-01 0.20637945E+03</pdfrwt>
<pdfrwt beam="2">  1       21 0.85696508E-01 0.20637945E+03</pdfrwt>
<totfact> 0.71056907E+04</totfact>
</mgrwt>
</event>
<event>
 4    1  0.4451819E+000  0.1857141E+03  0.7546771E-02  0.1162385E+00
         21   -1    0    0  501  502  0.00000000000E+00  0.00000000000E+00  0.21982685827E+03  0.21982685827E+03  0.00000000000E+00 0. -1.
         21   -1    0    0  502  503 -0.00000000000E+00 -0.00000000000E+00 -0.27190709386E+03  0.27190709386E+03  0.00000000000E+00 0. -1.
          6    1    1    2  501    0 -0.60082492891E+02  0.30835126925E+02  0.13386482608E+03  0.22893121820E+03  0.17300000000E+03 0. -1.
         -6    1    1    2    0  503  0.60082492891E+02 -0.30835126925E+02 -0.18594506166E+03  0.26280273393E+03  0.17300000000E+03 0. -1.
<mgrwt>
<rscale>  2 0.18571406E+03</rscale>
<asrwt>0</asrwt>
<pdfrwt beam="1">  1       21 0.33819517E-01 0.18571406E+03</pdfrwt>
<pdfrwt beam="2">  1       21 0.41831860E-01 0.18571406E+03</pdfrwt>
<totfact> 0.46486515E+04</totfact>
</mgrwt>
</event>
<event>
 4    1  0.4451819E+000  0.2362768E+03  0.7546771E-02  0.1122298E+00
         21   -1    0    0  503  502  0.00000000000E+00  0.00000000000E+00  0.74784331166E+02  0.74784331166E+02  0.00000000000E+00 0.  1.
         21   -1    0    0  501  503 -0.00000000000E+00 -0.00000000000E+00 -0.84762427352E+03  0.84762427352E+03  0.00000000000E+00 0.  1.
          6    1    1    2  501    0  0.11268039446E+03  0.11489504837E+03 -0.54571875750E+03  0.59467277197E+03  0.17300000000E+03 0.  1.
         -6    1    1    2    0  502 -0.11268039446E+03 -0.11489504837E+03 -0.22712118485E+03  0.32773583271E+03  0.17300000000E+03 0.  1.
<mgrwt>
<rscale>  2 0.23627684E+03</rscale>
<asrwt>0</asrwt>
<pdfrwt beam="1">  1       21 0.11505282E-01 0.23627684E+03</pdfrwt>
<pdfrwt beam="2">  1       21 0.13040373E+00 0.23627684E+03</pdfrwt>
<totfact> 0.26457925E+04</totfact>
</mgrwt>
</event>
<event>
 4    1  0.4451819E+000  0.2153767E+03  0.7546771E-02  0.1137378E+00
         21   -1    0    0  503  502  0.00000000000E+00  0.00000000000E+00  0.20233688914E+03  0.20233688914E+03  0.00000000000E+00 0. -1.
         21   -1    0    0  501  503 -0.00000000000E+00 -0.00000000000E+00 -0.38968237346E+03  0.38968237346E+03  0.00000000000E+00 0. -1.
          6    1    1    2  501    0  0.12478293223E+03 -0.29788632966E+02 -0.28359988127E+03  0.35611239165E+03  0.17300000000E+03 0. -1.
         -6    1    1    2    0  502 -0.12478293223E+03  0.29788632966E+02  0.96254396945E+02  0.23590687095E+03  0.17300000000E+03 0. -1.
<mgrwt>
<rscale>  2 0.21537675E+03</rscale>
<asrwt>0</asrwt>
<pdfrwt beam="1">  1       21 0.31128752E-01 0.21537675E+03</pdfrwt>
<pdfrwt beam="2">  1       21 0.59951134E-01 0.21537675E+03</pdfrwt>
<totfact> 0.25409617E+04</totfact>
</mgrwt>
</event>
<event>
 4    1  0.4451819E+000  0.1973917E+03  0.7546771E-02  0.1151958E+00
         21   -1    0    0  503  502  0.00000000000E+00  0.00000000000E+00  0.15685130850E+04  0.15685130850E+04  0.00000000000E+00 0.  1.
         21   -1    0    0  501  503 -0.00000000000E+00 -0.00000000000E+00 -0.31727978118E+02  0.31727978118E+02  0.00000000000E+00 0.  1.
          6    1    1    2  501    0  0.95049208963E+02  0.36029500733E+00  0.39561685301E+03  0.44212687808E+03  0.17300000000E+03 0.  1.
         -6    1    1    2    0  502 -0.95049208963E+02 -0.36029500733E+00  0.11411682538E+04  0.11581141850E+04  0.17300000000E+03 0.  1.
<mgrwt>
<rscale>  2 0.19739170E+03</rscale>
<asrwt>0</asrwt>
<pdfrwt beam="1">  1       21 0.24130964E+00 0.19739170E+03</pdfrwt>
<pdfrwt beam="2">  1       21 0.48812286E-02 0.19739170E+03</pdfrwt>
<totfact> 0.20882837E+04</totfact>
</mgrwt>
</event>
<event>
 4    1  0.4451819E+000  0.2337833E+03  0.7546771E-02  0.1124005E+00
         21   -1    0    0  501  502  0.00000000000E+00  0.00000000000E+00  0.37177731354E+03  0.37177731354E+03  0.00000000000E+00 0.  1.
         21   -1    0    0  502  503 -0.00000000000E+00 -0.00000000000E+00 -0.14704558934E+03  0.14704558934E+03  0.00000000000E+00 0. -1.
          6    1    1    2  501    0  0.60261469216E+02  0.14523834847E+03  0.10827553987E+03  0.25763970011E+03  0.17300000000E+03 0. -1.
         -6    1    1    2    0  503 -0.60261469216E+02 -0.14523834847E+03  0.11645618433E+03  0.26118320277E+03  0.17300000000E+03 0.  1.
<mgrwt>
<rscale>  2 0.23378328E+03</rscale>
<asrwt>0</asrwt>
<pdfrwt beam="1">  1       21 0.57196509E-01 0.23378328E+03</pdfrwt>
<pdfrwt beam="2">  1       21 0.22622399E-01 0.23378328E+03</pdfrwt>
<totfact> 0.51583145E+04</totfact>
</mgrwt>
</event>
<event>
 4    1  0.4451819E+000  0.1923282E+03  0.7546771E-02  0.1156378E+00
         21   -1    0    0  503  502  0.00000000000E+00  0.00000000000E+00  0.30541966048E+03  0.30541966048E+03  0.00000000000E+00 0. -1.
         21   -1    0    0  501  503 -0.00000000000E+00 -0.00000000000E+00 -0.16162184165E+03  0.16162184165E+03  0.00000000000E+00 0. -1.
          6    1    1    2  501    0  0.82358637490E+02  0.16678945889E+02  0.18880931174E+03  0.26951639765E+03  0.17300000000E+03 0. -1.
         -6    1    1    2    0  502 -0.82358637490E+02 -0.16678945889E+02 -0.45011492907E+02  0.19752510448E+03  0.17300000000E+03 0. -1.
<mgrwt>
<rscale>  2 0.19232819E+03</rscale>
<asrwt>0</asrwt>
<pdfrwt beam="1">  1       21 0.46987640E-01 0.19232819E+03</pdfrwt>
<pdfrwt beam="2">  1       21 0.24864899E-01 0.19232819E+03</pdfrwt>
<totfact> 0.66356741E+04</totfact>
</mgrwt>
</event>
<event>
 4    1  0.4451819E+000  0.3299875E+03  0.7546771E-02  0.1071142E+00
         21   -1    0    0  503  502  0.00000000000E+00  0.00000000000E+00  0.78056787569E+02  0.78056787569E+02  0.00000000000E+00 0.  1.
         21   -1    0    0  501  503 -0.00000000000E+00 -0.00000000000E+00 -0.13951308643E+04  0.13951308643E+04  0.00000000000E+00 0.  1.
          6    1    1    2  501    0  0.24866618971E+03  0.13087356356E+03 -0.65235528332E+03  0.73106715097E+03  0.17300000000E+03 0.  1.
         -6    1    1    2    0  502 -0.24866618971E+03 -0.13087356356E+03 -0.66471879338E+03  0.74212050087E+03  0.17300000000E+03 0.  1.
<mgrwt>
<rscale>  2 0.32998752E+03</rscale>
<asrwt>0</asrwt>
<pdfrwt beam="1">  1       21 0.12008737E-01 0.32998752E+03</pdfrwt>
<pdfrwt beam="2">  1       21 0.21463551E+00 0.32998752E+03</pdfrwt>
<totfact> 0.57667828E+03</totfact>
</mgrwt>
</event>
<event>
 4    1  0.4451819E+000  0.2688011E+03  0.7546771E-02  0.1101968E+00
         21   -1    0    0  503  502  0.00000000000E+00  0.00000000000E+00  0.46190246527E+03  0.46190246527E+03  0.00000000000E+00 0. -1.
         21   -1    0    0  501  503 -0.00000000000E+00 -0.00000000000E+00 -0.20065554198E+03  0.20065554198E+03  0.00000000000E+00 0.  1.
          6    1    1    2  501    0  0.14123887550E+03 -0.14958815661E+03 -0.24908423024E+02  0.26995271084E+03  0.17300000000E+03 0.  1.
         -6    1    1    2    0  502 -0.14123887550E+03  0.14958815661E+03  0.28615534632E+03  0.39260529642E+03  0.17300000000E+03 0. -1.
<mgrwt>
<rscale>  2 0.26880111E+03</rscale>
<asrwt>0</asrwt>
<pdfrwt beam="1">  1       21 0.71061918E-01 0.26880111E+03</pdfrwt>
<pdfrwt beam="2">  1       21 0.30870083E-01 0.26880111E+03</pdfrwt>
<totfact> 0.17331058E+04</totfact>
</mgrwt>
</event>
<event>
 4    1  0.4451819E+000  0.2214232E+03  0.7546771E-02  0.1132826E+00
         21   -1    0    0  501  502  0.00000000000E+00  0.00000000000E+00  0.11852745803E+03  0.11852745803E+03  0.00000000000E+00 0.  1.
         21   -1    0    0  502  503 -0.00000000000E+00 -0.00000000000E+00 -0.50315578158E+03  0.50315578158E+03  0.00000000000E+00 0. -1.
          6    1    1    2  501    0 -0.18949479276E+00 -0.13819979461E+03 -0.61206804798E+02  0.22972699470E+03  0.17300000000E+03 0. -1.
         -6    1    1    2    0  503  0.18949479276E+00  0.13819979461E+03 -0.32342151875E+03  0.39195624492E+03  0.17300000000E+03 0.  1.
<mgrwt>
<rscale>  2 0.22142317E+03</rscale>
<asrwt>0</asrwt>
<pdfrwt beam="1">  1       21 0.18234994E-01 0.22142317E+03</pdfrwt>
<pdfrwt beam="2">  1       21 0.77408581E-01 0.22142317E+03</pdfrwt>
<totfact> 0.40012810E+04</totfact>
</mgrwt>
</event>
<event>
 4    1  0.4451819E+000  0.2743872E+03  0.7546771E-02  0.1098795E+00
         21   -1    0    0  503  502  0.00000000000E+00  0.00000000000E+00  0.11962261629E+03  0.11962261629E+03  0.00000000000E+00 0.  1.
         21   -1    0    0  501  503 -0.00000000000E+00 -0.00000000000E+00 -0.75808629180E+03  0.75808629180E+03  0.00000000000E+00 0. -1.
          6    1    1    2  501    0  0.15840245163E+03 -0.14236574400E+03 -0.50005639800E+03  0.57038999196E+03  0.17300000000E+03 0. -1.
         -6    1    1    2    0  502 -0.15840245163E+03  0.14236574400E+03 -0.13840727751E+03  0.30731891613E+03  0.17300000000E+03 0.  1.
<mgrwt>
<rscale>  2 0.27438721E+03</rscale>
<asrwt>0</asrwt>
<pdfrwt beam="1">  1       21 0.18403479E-01 0.27438721E+03</pdfrwt>
<pdfrwt beam="2">  1       21 0.11662866E+00 0.27438721E+03</pdfrwt>
<totfact> 0.14558406E+04</totfact>
</mgrwt>
</event>
<event>
 4    1  0.4451819E+000  0.2381084E+03  0.7546771E-02  0.1121059E+00
         21   -1    0    0  501  502  0.00000000000E+00  0.00000000000E+00  0.56646095287E+03  0.56646095287E+03  0.00000000000E+00 0. -1.
         21   -1    0    0  502  503 -0.00000000000E+00 -0.00000000000E+00 -0.11707347957E+03  0.11707347957E+03  0.00000000000E+00 0. -1.
          6    1    1    2  501    0  0.16294559880E+03 -0.14675319244E+02  0.94512900634E+02  0.25618025207E+03  0.17300000000E+03 0. -1.
         -6    1    1    2    0  503 -0.16294559880E+03  0.14675319244E+02  0.35487457266E+03  0.42735418038E+03  0.17300000000E+03 0. -1.
<mgrwt>
<rscale>  2 0.23810845E+03</rscale>
<asrwt>0</asrwt>
<pdfrwt beam="1">  1       21 0.87147837E-01 0.23810845E+03</pdfrwt>
<pdfrwt beam="2">  1       21 0.18011305E-01 0.23810845E+03</pdfrwt>
<totfact> 0.30987972E+04</totfact>
</mgrwt>
</event>
<event>
 4    1  0.4451819E+000  0.1784078E+03  0.7546771E-02  0.1169353E+00
         21   -1    0    0  503  502  0.00000000000E+00  0.00000000000E+00  0.21252036676E+03  0.21252036676E+03  0.00000000000E+00 0.  1.
         21   -1    0    0  501  503 -0.00000000000E+00 -0.00000000000E+00 -0.20844606812E+03  0.20844606812E+03  0.00000000000E+00 0.  1.
          6    1    1    2  501    0  0.19364006156E+02  0.39055985143E+02 -0.10963589268E+03  0.20940239653E+03  0.17300000000E+03 0.  1.
         -6    1    1    2    0  502 -0.19364006156E+02 -0.39055985143E+02  0.11371019132E+03  0.21156403834E+03  0.17300000000E+03 0.  1.
<mgrwt>
<rscale>  2 0.17840778E+03</rscale>
<asrwt>0</asrwt>
<pdfrwt beam="1">  1       21 0.32695441E-01 0.17840778E+03</pdfrwt>
<pdfrwt beam="2">  1       21 0.32068626E-01 0.17840778E+03</pdfrwt>
<totfact> 0.84688670E+04</totfact>
</mgrwt>
</event>
<event>
 4    1  0.4451819E+000  0.1753224E+03  0.7546771E-02  0.1172408E+00
         21   -1    0    0  503  502  0.00000000000E+00  0.00000000000E+00  0.56233948363E+03  0.56233948363E+03  0.00000000000E+00 0.  1.
         21   -1    0    0  501  503 -0.00000000000E+00 -0.00000000000E+00 -0.60363598792E+02  0.60363598792E+02  0.00000000000E+00 0.  1.
          6    1    1    2  501    0 -0.60607978981E+01  0.27788916293E+02  0.15528938813E+03  0.23420664210E+03  0.17300000000E+03 0.  1.
         -6    1    1    2    0  502  0.60607978981E+01 -0.27788916293E+02  0.34668649671E+03  0.38849644032E+03  0.17300000000E+03 0.  1.
<mgrwt>
<rscale>  2 0.17532244E+03</rscale>
<asrwt>0</asrwt>
<pdfrwt beam="1">  1       21 0.86513763E-01 0.17532244E+03</pdfrwt>
<pdfrwt beam="2">  1       21 0.92867079E-02 0.17532244E+03</pdfrwt>
<totfact> 0.10711316E+05</totfact>
</mgrwt>
</event>
<event>
 4    1  0.4451819E+000  0.2131027E+03  0.7546771E-02  0.1139132E+00
         21   -1    0    0  503  502  0.00000000000E+00  0.00000000000E+00  0.58219620048E+03  0.58219620048E+03  0.00000000000E+00 0.  1.
         21   -1    0    0  501  503 -0.00000000000E+00 -0.00000000000E+00 -0.14553461310E+03  0.14553461310E+03  0.00000000000E+00 0.  1.
          6    1    1    2  501    0  0.11237743793E+03  0.53432834050E+02 -0.29532836389E+02  0.21513936119E+03  0.17300000000E+03 0.  1.
         -6    1    1    2    0  502 -0.11237743793E+03 -0.53432834050E+02  0.46619442377E+03  0.51259145239E+03  0.17300000000E+03 0.  1.
<mgrwt>
<rscale>  2 0.21310269E+03</rscale>
<asrwt>0</asrwt>
<pdfrwt beam="1">  1       21 0.89568645E-01 0.21310269E+03</pdfrwt>
<pdfrwt beam="2">  1       21 0.22389941E-01 0.21310269E+03</pdfrwt>
<totfact> 0.19593195E+04</totfact>
</mgrwt>
</event>
<event>
 4    1  0.4451819E+000  0.2060909E+03  0.7546771E-02  0.1144699E+00
         21   -1    0    0  501  502  0.00000000000E+00  0.00000000000E+00  0.48815146502E+02  0.48815146502E+02  0.00000000000E+00 0.  1.
         21   -1    0    0  502  503 -0.00000000000E+00 -0.00000000000E+00 -0.13433037013E+04  0.13433037013E+04  0.00000000000E+00 0.  1.
          6    1    1    2  501    0  0.10453739084E+03  0.40204482520E+02 -0.23411226550E+03  0.31190065623E+03  0.17300000000E+03 0.  1.
         -6    1    1    2    0  503 -0.10453739084E+03 -0.40204482520E+02 -0.10603762893E+04  0.10802181915E+04  0.17300000000E+03 0.  1.
<mgrwt>
<rscale>  2 0.20609092E+03</rscale>
<asrwt>0</asrwt>
<pdfrwt beam="1">  1       21 0.75100227E-02 0.20609092E+03</pdfrwt>
<pdfrwt beam="2">  1       21 0.20666210E+00 0.20609092E+03</pdfrwt>
<totfact> 0.16138272E+04</totfact>
</mgrwt>
</event>
<event>
 4    1  0.4451819E+000  0.1906244E+03  0.7546771E-02  0.1157899E+00
         21   -1    0    0  501  502  0.00000000000E+00  0.00000000000E+00  0.13205780983E+03  0.13205780983E+03  0.00000000000E+00 0.  1.
         21   -1    0    0  502  503 -0.00000000000E+00 -0.00000000000E+00 -0.29136565283E+03  0.29136565283E+03  0.00000000000E+00 0.  1.
          6    1    1    2  501    0 -0.74583648654E+02  0.29084794942E+02 -0.29731436389E+02  0.19292901351E+03  0.17300000000E+03 0.  1.
         -6    1    1    2    0  503  0.74583648654E+02 -0.29084794942E+02 -0.12957640661E+03  0.23049444916E+03  0.17300000000E+03 0.  1.
<mgrwt>
<rscale>  2 0.19062436E+03</rscale>
<asrwt>0</asrwt>
<pdfrwt beam="1">  1       21 0.20316586E-01 0.19062436E+03</pdfrwt>
<pdfrwt beam="2">  1       21 0.44825485E-01 0.19062436E+03</pdfrwt>
<totfact> 0.10715238E+05</totfact>
</mgrwt>
</event>
<event>
 4    1  0.4451819E+000  0.2489674E+03  0.7546771E-02  0.1113959E+00
         21   -1    0    0  503  502  0.00000000000E+00  0.00000000000E+00  0.12346141992E+03  0.12346141992E+03  0.00000000000E+00 0. -1.
         21   -1    0    0  501  503 -0.00000000000E+00 -0.00000000000E+00 -0.53930630116E+03  0.53930630116E+03  0.00000000000E+00 0. -1.
          6    1    1    2  501    0  0.89564576141E+02  0.15502885245E+03 -0.12083239834E+03  0.27674036005E+03  0.17300000000E+03 0. -1.
         -6    1    1    2    0  502 -0.89564576141E+02 -0.15502885245E+03 -0.29501248290E+03  0.38602736103E+03  0.17300000000E+03 0. -1.
<mgrwt>
<rscale>  2 0.24896738E+03</rscale>
<asrwt>0</asrwt>
<pdfrwt beam="1">  1       21 0.18994065E-01 0.24896738E+03</pdfrwt>
<pdfrwt beam="2">  1       21 0.82970201E-01 0.24896738E+03</pdfrwt>
<totfact> 0.31271896E+04</totfact>
</mgrwt>
</event>
<event>
 4    1  0.4451819E+000  0.2114952E+03  0.7546771E-02  0.1140387E+00
         21   -1    0    0  501  502  0.00000000000E+00  0.00000000000E+00  0.16986952367E+03  0.16986952367E+03  0.00000000000E+00 0.  1.
         21   -1    0    0  502  503 -0.00000000000E+00 -0.00000000000E+00 -0.26991701027E+03  0.26991701027E+03  0.00000000000E+00 0. -1.
          6    1    1    2  501    0 -0.76136340598E+02  0.94891850165E+02 -0.84398439766E+02  0.22771320169E+03  0.17300000000E+03 0. -1.
         -6    1    1    2    0  503  0.76136340598E+02 -0.94891850165E+02 -0.15649046834E+02  0.21207333226E+03  0.17300000000E+03 0.  1.
<mgrwt>
<rscale>  2 0.21149517E+03</rscale>
<asrwt>0</asrwt>
<pdfrwt beam="1">  1       21 0.26133773E-01 0.21149517E+03</pdfrwt>
<pdfrwt beam="2">  1       21 0.41525693E-01 0.21149517E+03</pdfrwt>
<totfact> 0.77065839E+04</totfact>
</mgrwt>
</event>
<event>
 4    1  0.4451819E+000  0.2025538E+03  0.7546771E-02  0.1147602E+00
         21   -1    0    0  501  502  0.00000000000E+00  0.00000000000E+00  0.13396711732E+03  0.13396711732E+03  0.00000000000E+00 0. -1.
         21   -1    0    0  502  503 -0.00000000000E+00 -0.00000000000E+00 -0.37905197525E+03  0.37905197525E+03  0.00000000000E+00 0. -1.
          6    1    1    2  501    0 -0.30785437427E+02  0.10075356560E+03 -0.10130475216E+02  0.20280692953E+03  0.17300000000E+03 0. -1.
         -6    1    1    2    0  503  0.30785437427E+02 -0.10075356560E+03 -0.23495438272E+03  0.31021216304E+03  0.17300000000E+03 0. -1.
<mgrwt>
<rscale>  2 0.20255376E+03</rscale>
<asrwt>0</asrwt>
<pdfrwt beam="1">  1       21 0.20610326E-01 0.20255376E+03</pdfrwt>
<pdfrwt beam="2">  1       21 0.58315688E-01 0.20255376E+03</pdfrwt>
<totfact> 0.59820080E+04</totfact>
</mgrwt>
</event>
<event>
 4    1  0.4451819E+000  0.1731869E+03  0.7546771E-02  0.1174565E+00
         21   -1    0    0  501  502  0.00000000000E+00  0.00000000000E+00  0.95886794098E+03  0.95886794098E+03  0.00000000000E+00 0. -1.
         21   -1    0    0  502  503 -0.00000000000E+00 -0.00000000000E+00 -0.52057576775E+02  0.52057576775E+02  0.00000000000E+00 0. -1.
          6    1    1    2  501    0 -0.72482747166E+01 -0.34892256165E+01  0.77273620842E+03  0.79190590349E+03  0.17300000000E+03 0. -1.
         -6    1    1    2    0  503  0.72482747166E+01  0.34892256165E+01  0.13407415578E+03  0.21901961426E+03  0.17300000000E+03 0. -1.
<mgrwt>
<rscale>  2 0.17318693E+03</rscale>
<asrwt>0</asrwt>
<pdfrwt beam="1">  1       21 0.14751813E+00 0.17318693E+03</pdfrwt>
<pdfrwt beam="2">  1       21 0.80088587E-02 0.17318693E+03</pdfrwt>
<totfact> 0.37843903E+04</totfact>
</mgrwt>
</event>
<event>
 4    1  0.4451819E+000  0.1764613E+03  0.7546771E-02  0.1171272E+00
         21   -1    0    0  503  502  0.00000000000E+00  0.00000000000E+00  0.44948665582E+03  0.44948665582E+03  0.00000000000E+00 0.  1.
         21   -1    0    0  501  503 -0.00000000000E+00 -0.00000000000E+00 -0.69552042416E+02  0.69552042416E+02  0.00000000000E+00 0.  1.
          6    1    1    2  501    0 -0.20935181824E+02 -0.27772532808E+02  0.17361509630E+03  0.24754958510E+03  0.17300000000E+03 0. -1.
         -6    1    1    2    0  502  0.20935181824E+02  0.27772532808E+02  0.20631951710E+03  0.27148911314E+03  0.17300000000E+03 0. -1.
<mgrwt>
<rscale>  2 0.17646131E+03</rscale>
<asrwt>0</asrwt>
<pdfrwt beam="1">  1       21 0.69151791E-01 0.17646131E+03</pdfrwt>
<pdfrwt beam="2">  1       21 0.10700315E-01 0.17646131E+03</pdfrwt>
<totfact> 0.13777698E+05</totfact>
</mgrwt>
</event>
<event>
 4    1  0.4451819E+000  0.1788722E+03  0.7546771E-02  0.1168899E+00
         21   -1    0    0  501  502  0.00000000000E+00  0.00000000000E+00  0.37099238758E+03  0.37099238758E+03  0.00000000000E+00 0. -1.
         21   -1    0    0  502  503 -0.00000000000E+00 -0.00000000000E+00 -0.70679405254E+03  0.70679405254E+03  0.00000000000E+00 0. -1.
          6    1    1    2  501    0  0.37240654357E+02 -0.26065128337E+02  0.33704554444E+03  0.38156907144E+03  0.17300000000E+03 0. -1.
         -6    1    1    2    0  503 -0.37240654357E+02  0.26065128337E+02 -0.67284720940E+03  0.69621736868E+03  0.17300000000E+03 0. -1.
<mgrwt>
<rscale>  2 0.17887218E+03</rscale>
<asrwt>0</asrwt>
<pdfrwt beam="1">  1       21 0.57075752E-01 0.17887218E+03</pdfrwt>
<pdfrwt beam="2">  1       21 0.10873755E+00 0.17887218E+03</pdfrwt>
<totfact> 0.19618496E+03</totfact>
</mgrwt>
</event>
<event>
 4    1  0.4451819E+000  0.4067753E+03  0.7546771E-02  0.1041459E+00
         21   -1    0    0  503  502  0.00000000000E+00  0.00000000000E+00  0.15904558578E+04  0.15904558578E+04  0.00000000000E+00 0.  1.
         21   -1    0    0  501  503 -0.00000000000E+00 -0.00000000000E+00 -0.11277767736E+03  0.11277767736E+03  0.00000000000E+00 0. -1.
          6    1    1    2  501    0 -0.22749141865E+03 -0.28945604045E+03  0.50175254299E+03  0.64592705417E+03  0.17300000000E+03 0.  1.
         -6    1    1    2    0  502  0.22749141865E+03  0.28945604045E+03  0.97592563744E+03  0.10573064810E+04  0.17300000000E+03 0.  1.
<mgrwt>
<rscale>  2 0.40677530E+03</rscale>
<asrwt>0</asrwt>
<pdfrwt beam="1">  1       21 0.24468550E+00 0.40677530E+03</pdfrwt>
<pdfrwt beam="2">  1       21 0.17350413E-01 0.40677530E+03</pdfrwt>
<totfact> 0.18243977E+03</totfact>
</mgrwt>
</event>
<event>
 4    1  0.4451819E+000  0.2188930E+03  0.7546771E-02  0.1134711E+00
         21   -1    0    0  501  502  0.00000000000E+00  0.00000000000E+00  0.10586971956E+04  0.10586971956E+04  0.00000000000E+00 0.  1.
         21   -1    0    0  502  503 -0.00000000000E+00 -0.00000000000E+00 -0.88762689768E+02  0.88762689768E+02  0.00000000000E+00 0.  1.
          6    1    1    2  501    0  0.12332301106E+03 -0.52693356486E+02  0.88663044700E+03  0.91325117269E+03  0.17300000000E+03 0.  1.
         -6    1    1    2    0  503 -0.12332301106E+03  0.52693356486E+02  0.83304058829E+02  0.23420871267E+03  0.17300000000E+03 0.  1.
<mgrwt>
<rscale>  2 0.21889302E+03</rscale>
<asrwt>0</asrwt>
<pdfrwt beam="1">  1       21 0.16287648E+00 0.21889302E+03</pdfrwt>
<pdfrwt beam="2">  1       21 0.13655799E-01 0.21889302E+03</pdfrwt>
<totfact> 0.10941469E+04</totfact>
</mgrwt>
</event>
<event>
 4    1  0.4451819E+000  0.2021458E+03  0.7546771E-02  0.1147941E+00
         21   -1    0    0  503  502  0.00000000000E+00  0.00000000000E+00  0.76449744354E+02  0.76449744354E+02  0.00000000000E+00 0.  1.
         21   -1    0    0  501  503 -0.00000000000E+00 -0.00000000000E+00 -0.64149718012E+03  0.64149718012E+03  0.00000000000E+00 0.  1.
          6    1    1    2  501    0 -0.94613665648E+02 -0.44521481703E+02 -0.13592258132E+03  0.24359362917E+03  0.17300000000E+03 0.  1.
         -6    1    1    2    0  502  0.94613665648E+02  0.44521481703E+02 -0.42912485444E+03  0.47435329530E+03  0.17300000000E+03 0.  1.
<mgrwt>
<rscale>  2 0.20214576E+03</rscale>
<asrwt>0</asrwt>
<pdfrwt beam="1">  1       21 0.11761499E-01 0.20214576E+03</pdfrwt>
<pdfrwt beam="2">  1       21 0.98691872E-01 0.20214576E+03</pdfrwt>
<totfact> 0.51267032E+04</totfact>
</mgrwt>
</event>
<event>
 4    1  0.4451819E+000  0.1817629E+03  0.7546771E-02  0.1166108E+00
         21   -1    0    0  501  502  0.00000000000E+00  0.00000000000E+00  0.19612951214E+03  0.19612951214E+03  0.00000000000E+00 0. -1.
         21   -1    0    0  502  503 -0.00000000000E+00 -0.00000000000E+00 -0.13072412695E+04  0.13072412695E+04  0.00000000000E+00 0. -1.
          6    1    1    2  501    0 -0.58351347322E+01  0.55450051075E+02  0.14602953515E+03  0.23315741914E+03  0.17300000000E+03 0. -1.
         -6    1    1    2    0  503  0.58351347322E+01 -0.55450051075E+02 -0.12571412925E+04  0.12702133625E+04  0.17300000000E+03 0. -1.
<mgrwt>
<rscale>  2 0.18176291E+03</rscale>
<asrwt>0</asrwt>
<pdfrwt beam="1">  1       21 0.30173771E-01 0.18176291E+03</pdfrwt>
<pdfrwt beam="2">  1       21 0.20111404E+00 0.18176291E+03</pdfrwt>
<totfact> 0.14087271E+03</totfact>
</mgrwt>
</event>
<event>
 4    1  0.4451819E+000  0.1900139E+03  0.7546771E-02  0.1158449E+00
         21   -1    0    0  501  502  0.00000000000E+00  0.00000000000E+00  0.55459817154E+02  0.55459817154E+02  0.00000000000E+00 0.  1.
         21   -1    0    0  502  503 -0.00000000000E+00 -0.00000000000E+00 -0.65139734976E+03  0.65139734976E+03  0.00000000000E+00 0.  1.
          6    1    1    2  501    0 -0.67747692020E+02  0.39831089800E+02 -0.28942482011E+03  0.34622534855E+03  0.17300000000E+03 0.  1.
         -6    1    1    2    0  503  0.67747692020E+02 -0.39831089800E+02 -0.30651271250E+03  0.36063181836E+03  0.17300000000E+03 0.  1.
<mgrwt>
<rscale>  2 0.19001386E+03</rscale>
<asrwt>0</asrwt>
<pdfrwt beam="1">  1       21 0.85322794E-02 0.19001386E+03</pdfrwt>
<pdfrwt beam="2">  1       21 0.10021498E+00 0.19001386E+03</pdfrwt>
<totfact> 0.87700645E+04</totfact>
</mgrwt>
</event>
<event>
 4    1  0.4451819E+000  0.5052771E+03  0.7546771E-02  0.1012411E+00
         21   -1    0    0  503  502  0.00000000000E+00  0.00000000000E+00  0.29582129092E+03  0.29582129092E+03  0.00000000000E+00 0. -1.
         21   -1    0    0  501  503 -0.00000000000E+00 -0.00000000000E+00 -0.21755361011E+04  0.21755361011E+04  0.00000000000E+00 0.  1.
          6    1    1    2  501    0  0.35927130960E+02  0.47337634385E+03 -0.18996376490E+04  0.19656876963E+04  0.17300000000E+03 0.  1.
         -6    1    1    2    0  502 -0.35927130960E+02 -0.47337634385E+03  0.19922838894E+02  0.50566969571E+03  0.17300000000E+03 0. -1.
<mgrwt>
<rscale>  2 0.50527707E+03</rscale>
<asrwt>0</asrwt>
<pdfrwt beam="1">  1       21 0.45510966E-01 0.50527707E+03</pdfrwt>
<pdfrwt beam="2">  1       21 0.33469788E+00 0.50527707E+03</pdfrwt>
<totfact> 0.73066623E+01</totfact>
</mgrwt>
</event>
<event>
 4    1  0.4451819E+000  0.3635161E+03  0.7546771E-02  0.1057200E+00
         21   -1    0    0  503  502  0.00000000000E+00  0.00000000000E+00  0.90907679758E+02  0.90907679758E+02  0.00000000000E+00 0.  1.
         21   -1    0    0  501  503 -0.00000000000E+00 -0.00000000000E+00 -0.14883215032E+04  0.14883215032E+04  0.00000000000E+00 0. -1.
          6    1    1    2  501    0  0.22436886568E+03  0.22775772755E+03 -0.81930128162E+03  0.89632503056E+03  0.17300000000E+03 0.  1.
         -6    1    1    2    0  502 -0.22436886568E+03 -0.22775772755E+03 -0.57811254180E+03  0.68290415238E+03  0.17300000000E+03 0. -1.
<mgrwt>
<rscale>  2 0.36351612E+03</rscale>
<asrwt>0</asrwt>
<pdfrwt beam="1">  1       21 0.13985798E-01 0.36351612E+03</pdfrwt>
<pdfrwt beam="2">  1       21 0.22897252E+00 0.36351612E+03</pdfrwt>
<totfact> 0.34839104E+03</totfact>
</mgrwt>
</event>
<event>
 4    1  0.4451819E+000  0.2091104E+03  0.7546771E-02  0.1142272E+00
         21   -1    0    0  503  502  0.00000000000E+00  0.00000000000E+00  0.30322479964E+02  0.30322479964E+02  0.00000000000E+00 0. -1.
         21   -1    0    0  501  503 -0.00000000000E+00 -0.00000000000E+00 -0.16832126558E+04  0.16832126558E+04  0.00000000000E+00 0.  1.
          6    1    1    2  501    0 -0.70400321214E+02  0.94031746602E+02 -0.11507320420E+04  0.11695774481E+04  0.17300000000E+03 0.  1.
         -6    1    1    2    0  502  0.70400321214E+02 -0.94031746602E+02 -0.50215813375E+03  0.54395768759E+03  0.17300000000E+03 0. -1.
<mgrwt>
<rscale>  2 0.20911044E+03</rscale>
<asrwt>0</asrwt>
<pdfrwt beam="1">  1       21 0.46649974E-02 0.20911044E+03</pdfrwt>
<pdfrwt beam="2">  1       21 0.25895577E+00 0.20911044E+03</pdfrwt>
<totfact> 0.17566839E+04</totfact>
</mgrwt>
</event>
<event>
 4    1  0.4451819E+000  0.2364211E+03  0.7546771E-02  0.1122200E+00
         21   -1    0    0  501  502  0.00000000000E+00  0.00000000000E+00  0.11307538561E+03  0.11307538561E+03  0.00000000000E+00 0.  1.
         21   -1    0    0  502  503 -0.00000000000E+00 -0.00000000000E+00 -0.59366302705E+03  0.59366302705E+03  0.00000000000E+00 0.  1.
          6    1    1    2  501    0 -0.15986702748E+03  0.20210644805E+02 -0.95737586089E+02  0.25506983755E+03  0.17300000000E+03 0.  1.
         -6    1    1    2    0  503  0.15986702748E+03 -0.20210644805E+02 -0.38485005535E+03  0.45166857511E+03  0.17300000000E+03 0.  1.
<mgrwt>
<rscale>  2 0.23642110E+03</rscale>
<asrwt>0</asrwt>
<pdfrwt beam="1">  1       21 0.17396213E-01 0.23642110E+03</pdfrwt>
<pdfrwt beam="2">  1       21 0.91332773E-01 0.23642110E+03</pdfrwt>
<totfact> 0.29661657E+04</totfact>
</mgrwt>
</event>
<event>
 4    1  0.4451819E+000  0.1760147E+03  0.7546771E-02  0.1171717E+00
         21   -1    0    0  503  502  0.00000000000E+00  0.00000000000E+00  0.24252023819E+03  0.24252023819E+03  0.00000000000E+00 0.  1.
         21   -1    0    0  501  503 -0.00000000000E+00 -0.00000000000E+00 -0.13349349726E+03  0.13349349726E+03  0.00000000000E+00 0.  1.
          6    1    1    2  501    0 -0.64523472693E+01  0.31788890857E+02  0.15505196410E+02  0.17669628599E+03  0.17300000000E+03 0.  1.
         -6    1    1    2    0  502  0.64523472693E+01 -0.31788890857E+02  0.93521544521E+02  0.19931744945E+03  0.17300000000E+03 0.  1.
<mgrwt>
<rscale>  2 0.17601468E+03</rscale>
<asrwt>0</asrwt>
<pdfrwt beam="1">  1       21 0.37310806E-01 0.17601468E+03</pdfrwt>
<pdfrwt beam="2">  1       21 0.20537461E-01 0.17601468E+03</pdfrwt>
<totfact> 0.15299756E+05</totfact>
</mgrwt>
</event>
<event>
 4    1  0.4451819E+000  0.1925407E+03  0.7546771E-02  0.1156190E+00
         21   -1    0    0  503  502  0.00000000000E+00  0.00000000000E+00  0.15244888346E+03  0.15244888346E+03  0.00000000000E+00 0.  1.
         21   -1    0    0  501  503 -0.00000000000E+00 -0.00000000000E+00 -0.28740514446E+03  0.28740514446E+03  0.00000000000E+00 0.  1.
          6    1    1    2  501    0  0.62944363317E+01 -0.84281151674E+02 -0.15375310604E+03  0.24639795063E+03  0.17300000000E+03 0.  1.
         -6    1    1    2    0  502 -0.62944363317E+01  0.84281151674E+02  0.18796845042E+02  0.19345607729E+03  0.17300000000E+03 0.  1.
<mgrwt>
<rscale>  2 0.19254073E+03</rscale>
<asrwt>0</asrwt>
<pdfrwt beam="1">  1       21 0.23453674E-01 0.19254073E+03</pdfrwt>
<pdfrwt beam="2">  1       21 0.44216176E-01 0.19254073E+03</pdfrwt>
<totfact> 0.84031028E+04</totfact>
</mgrwt>
</event>
<event>
 4    1  0.4451819E+000  0.2035282E+03  0.7546771E-02  0.1146796E+00
         21   -1    0    0  501  502  0.00000000000E+00  0.00000000000E+00  0.17370322496E+04  0.17370322496E+04  0.00000000000E+00 0. -1.
         21   -1    0    0  502  503 -0.00000000000E+00 -0.00000000000E+00 -0.27739459446E+02  0.27739459446E+02  0.00000000000E+00 0. -1.
          6    1    1    2  501    0 -0.62461779264E+02  0.87139354256E+02  0.11851666282E+04  0.12025155623E+04  0.17300000000E+03 0. -1.
         -6    1    1    2    0  503  0.62461779264E+02 -0.87139354256E+02  0.52412616194E+03  0.56225614675E+03  0.17300000000E+03 0. -1.
<mgrwt>
<rscale>  2 0.20352823E+03</rscale>
<asrwt>0</asrwt>
<pdfrwt beam="1">  1       21 0.26723565E+00 0.20352823E+03</pdfrwt>
<pdfrwt beam="2">  1       21 0.42676105E-02 0.20352823E+03</pdfrwt>
<totfact> 0.18355977E+04</totfact>
</mgrwt>
</event>
<event>
 4    1  0.4451819E+000  0.1736315E+03  0.7546771E-02  0.1174113E+00
         21   -1    0    0  501  502  0.00000000000E+00  0.00000000000E+00  0.12114044262E+03  0.12114044262E+03  0.00000000000E+00 0. -1.
         21   -1    0    0  502  503 -0.00000000000E+00 -0.00000000000E+00 -0.34904282751E+03  0.34904282751E+03  0.00000000000E+00 0. -1.
          6    1    1    2  501    0 -0.10092322554E+02 -0.10817915325E+02  0.11993207660E+02  0.17404516453E+03  0.17300000000E+03 0. -1.
         -6    1    1    2    0  503  0.10092322554E+02  0.10817915325E+02 -0.23989559255E+03  0.29613810560E+03  0.17300000000E+03 0. -1.
<mgrwt>
<rscale>  2 0.17363146E+03</rscale>
<asrwt>0</asrwt>
<pdfrwt beam="1">  1       21 0.18636991E-01 0.17363146E+03</pdfrwt>
<pdfrwt beam="2">  1       21 0.53698896E-01 0.17363146E+03</pdfrwt>
<totfact> 0.87035226E+04</totfact>
</mgrwt>
</event>
<event>
 4    1  0.4451819E+000  0.3201345E+03  0.7546771E-02  0.1075587E+00
         21   -1    0    0  501  502  0.00000000000E+00  0.00000000000E+00  0.36042759465E+03  0.36042759465E+03  0.00000000000E+00 0.  1.
         21   -1    0    0  502  503 -0.00000000000E+00 -0.00000000000E+00 -0.28467835215E+03  0.28467835215E+03  0.00000000000E+00 0. -1.
          6    1    1    2  501    0  0.26274206134E+03  0.59360663836E+02  0.48898692060E+02  0.32384743521E+03  0.17300000000E+03 0.  1.
         -6    1    1    2    0  503 -0.26274206134E+03 -0.59360663836E+02  0.26850550448E+02  0.32125851159E+03  0.17300000000E+03 0.  1.
<mgrwt>
<rscale>  2 0.32013447E+03</rscale>
<asrwt>0</asrwt>
<pdfrwt beam="1">  1       21 0.55450399E-01 0.32013447E+03</pdfrwt>
<pdfrwt beam="2">  1       21 0.43796669E-01 0.32013447E+03</pdfrwt>
<totfact> 0.14397733E+04</totfact>
</mgrwt>
</event>
<event>
 4    1  0.4451819E+000  0.1821264E+03  0.7546771E-02  0.1165761E+00
         21   -1    0    0  501  502  0.00000000000E+00  0.00000000000E+00  0.58123594882E+02  0.58123594882E+02  0.00000000000E+00 0.  1.
         21   -1    0    0  502  503 -0.00000000000E+00 -0.00000000000E+00 -0.83347828833E+03  0.83347828833E+03  0.00000000000E+00 0.  1.
          6    1    1    2  501    0  0.32261785833E+02  0.46906220635E+02 -0.63800249806E+03  0.66348866146E+03  0.17300000000E+03 0.  1.
         -6    1    1    2    0  503 -0.32261785833E+02 -0.46906220635E+02 -0.13735219539E+03  0.22811322175E+03  0.17300000000E+03 0.  1.
<mgrwt>
<rscale>  2 0.18212637E+03</rscale>
<asrwt>0</asrwt>
<pdfrwt beam="1">  1       21 0.89420918E-02 0.18212637E+03</pdfrwt>
<pdfrwt beam="2">  1       21 0.12822742E+00 0.18212637E+03</pdfrwt>
<totfact> 0.44460788E+04</totfact>
</mgrwt>
</event>
<event>
 4    1  0.4451819E+000  0.1738479E+03  0.7546771E-02  0.1173894E+00
         21   -1    0    0  501  502  0.00000000000E+00  0.00000000000E+00  0.66632572704E+02  0.66632572704E+02  0.00000000000E+00 0.  1.
         21   -1    0    0  502  503 -0.00000000000E+00 -0.00000000000E+00 -0.48289267691E+03  0.48289267691E+03  0.00000000000E+00 0.  1.
          6    1    1    2  501    0  0.71372827973E+01  0.15593041098E+02 -0.14043245225E+03  0.22348234244E+03  0.17300000000E+03 0.  1.
         -6    1    1    2    0  503 -0.71372827973E+01 -0.15593041098E+02 -0.27582765195E+03  0.32604290717E+03  0.17300000000E+03 0.  1.
<mgrwt>
<rscale>  2 0.17384788E+03</rscale>
<asrwt>0</asrwt>
<pdfrwt beam="1">  1       21 0.10251165E-01 0.17384788E+03</pdfrwt>
<pdfrwt beam="2">  1       21 0.74291183E-01 0.17384788E+03</pdfrwt>
<totfact> 0.12698822E+05</totfact>
</mgrwt>
</event>
<event>
 4    1  0.4451819E+000  0.2049363E+03  0.7546771E-02  0.1145640E+00
         21   -1    0    0  503  502  0.00000000000E+00  0.00000000000E+00  0.11222956381E+03  0.11222956381E+03  0.00000000000E+00 0.  1.
         21   -1    0    0  501  503 -0.00000000000E+00 -0.00000000000E+00 -0.45793581125E+03  0.45793581125E+03  0.00000000000E+00 0.  1.
          6    1    1    2  501    0  0.81907787915E+01 -0.10955731602E+03 -0.29474205414E+03  0.35898714856E+03  0.17300000000E+03 0.  1.
         -6    1    1    2    0  502 -0.81907787915E+01  0.10955731602E+03 -0.50964193308E+02  0.21117822650E+03  0.17300000000E+03 0.  1.
<mgrwt>
<rscale>  2 0.20493632E+03</rscale>
<asrwt>0</asrwt>
<pdfrwt beam="1">  1       21 0.17266086E-01 0.20493632E+03</pdfrwt>
<pdfrwt beam="2">  1       21 0.70451665E-01 0.20493632E+03</pdfrwt>
<totfact> 0.55056889E+04</totfact>
</mgrwt>
</event>
<event>
 4    1  0.4451819E+000  0.2468043E+03  0.7546771E-02  0.1115341E+00
         21   -1    0    0  501  502  0.00000000000E+00  0.00000000000E+00  0.78067781853E+02  0.78067781853E+02  0.00000000000E+00 0. -1.
         21   -1    0    0  502  503 -0.00000000000E+00 -0.00000000000E+00 -0.86546125941E+03  0.86546125941E+03  0.00000000000E+00 0. -1.
          6    1    1    2  501    0 -0.16955317844E+03 -0.47276545297E+02 -0.24566627962E+03  0.34823020116E+03  0.17300000000E+03 0. -1.
         -6    1    1    2    0  503  0.16955317844E+03  0.47276545297E+02 -0.54172719794E+03  0.59529884011E+03  0.17300000000E+03 0. -1.
<mgrwt>
<rscale>  2 0.24680428E+03</rscale>
<asrwt>0</asrwt>
<pdfrwt beam="1">  1       21 0.12010427E-01 0.24680428E+03</pdfrwt>
<pdfrwt beam="2">  1       21 0.13314789E+00 0.24680428E+03</pdfrwt>
<totfact> 0.23100407E+04</totfact>
</mgrwt>
</event>
<event>
 4    1  0.4451819E+000  0.1995945E+03  0.7546771E-02  0.1150082E+00
         21   -1    0    0  503  502  0.00000000000E+00  0.00000000000E+00  0.46693972834E+03  0.46693972834E+03  0.00000000000E+00 0. -1.
         21   -1    0    0  501  503 -0.00000000000E+00 -0.00000000000E+00 -0.86361657493E+02  0.86361657493E+02  0.00000000000E+00 0. -1.
          6    1    1    2  501    0 -0.51317416656E+02  0.85296503967E+02  0.15986440735E+03  0.25572367818E+03  0.17300000000E+03 0. -1.
         -6    1    1    2    0  502  0.51317416656E+02 -0.85296503967E+02  0.22071366349E+03  0.29757770765E+03  0.17300000000E+03 0. -1.
<mgrwt>
<rscale>  2 0.19959452E+03</rscale>
<asrwt>0</asrwt>
<pdfrwt beam="1">  1       21 0.71836880E-01 0.19959452E+03</pdfrwt>
<pdfrwt beam="2">  1       21 0.13286409E-01 0.19959452E+03</pdfrwt>
<totfact> 0.85263297E+04</totfact>
</mgrwt>
</event>
<event>
 4    1  0.4451819E+000  0.1915982E+03  0.7546771E-02  0.1157028E+00
         21   -1    0    0  501  502  0.00000000000E+00  0.00000000000E+00  0.39339138738E+03  0.39339138738E+03  0.00000000000E+00 0. -1.
         21   -1    0    0  502  503 -0.00000000000E+00 -0.00000000000E+00 -0.10634983169E+03  0.10634983169E+03  0.00000000000E+00 0. -1.
          6    1    1    2  501    0 -0.77489880636E+02 -0.27860075220E+02  0.23099423192E+03  0.30011364610E+03  0.17300000000E+03 0. -1.
         -6    1    1    2    0  503  0.77489880636E+02  0.27860075220E+02  0.56047323768E+02  0.19962757298E+03  0.17300000000E+03 0. -1.
<mgrwt>
<rscale>  2 0.19159819E+03</rscale>
<asrwt>0</asrwt>
<pdfrwt beam="1">  1       21 0.60521751E-01 0.19159819E+03</pdfrwt>
<pdfrwt beam="2">  1       21 0.16361513E-01 0.19159819E+03</pdfrwt>
<totfact> 0.85167945E+04</totfact>
</mgrwt>
</event>
<event>
 4    1  0.4451819E+000  0.1732423E+03  0.7546771E-02  0.1174508E+00
         21   -1    0    0  503  502  0.00000000000E+00  0.00000000000E+00  0.10541961643E+03  0.10541961643E+03  0.00000000000E+00 0.  1.
         21   -1    0    0  501  503 -0.00000000000E+00 -0.00000000000E+00 -0.61216600937E+03  0.61216600937E+03  0.00000000000E+00 0.  1.
          6    1    1    2  501    0 -0.39702308454E+01 -0.82546211301E+01 -0.51579060415E+03  0.54410738723E+03  0.17300000000E+03 0.  1.
         -6    1    1    2    0  502  0.39702308454E+01  0.82546211301E+01  0.90442112181E+01  0.17347823858E+03  0.17300000000E+03 0.  1.
<mgrwt>
<rscale>  2 0.17324232E+03</rscale>
<asrwt>0</asrwt>
<pdfrwt beam="1">  1       21 0.16218403E-01 0.17324232E+03</pdfrwt>
<pdfrwt beam="2">  1       21 0.94179384E-01 0.17324232E+03</pdfrwt>
<totfact> 0.32504450E+04</totfact>
</mgrwt>
</event>
<event>
 4    1  0.4451819E+000  0.2296480E+03  0.7546771E-02  0.1126888E+00
         21   -1    0    0  503  502  0.00000000000E+00  0.00000000000E+00  0.39053183194E+03  0.39053183194E+03  0.00000000000E+00 0.  1.
         21   -1    0    0  501  503 -0.00000000000E+00 -0.00000000000E+00 -0.14079959194E+03  0.14079959194E+03  0.00000000000E+00 0.  1.
          6    1    1    2  501    0  0.56325494138E+02  0.14013079581E+03  0.71143758299E+02  0.24041554769E+03  0.17300000000E+03 0.  1.
         -6    1    1    2    0  502 -0.56325494138E+02 -0.14013079581E+03  0.17858848170E+03  0.29091587619E+03  0.17300000000E+03 0.  1.
<mgrwt>
<rscale>  2 0.22964799E+03</rscale>
<asrwt>0</asrwt>
<pdfrwt beam="1">  1       21 0.60081820E-01 0.22964799E+03</pdfrwt>
<pdfrwt beam="2">  1       21 0.21661476E-01 0.22964799E+03</pdfrwt>
<totfact> 0.50471632E+04</totfact>
</mgrwt>
</event>
<event>
 4    1  0.4451819E+000  0.1732328E+03  0.7546771E-02  0.1174518E+00
         21   -1    0    0  501  502  0.00000000000E+00  0.00000000000E+00  0.17363499829E+03  0.17363499829E+03  0.00000000000E+00 0.  1.
         21   -1    0    0  502  503 -0.00000000000E+00 -0.00000000000E+00 -0.30526979670E+03  0.30526979670E+03  0.00000000000E+00 0.  1.
          6    1    1    2  501    0  0.43079666581E+01 -0.78778651885E+01  0.91901542877E+02  0.19610077236E+03  0.17300000000E+03 0.  1.
         -6    1    1    2    0  503 -0.43079666581E+01  0.78778651885E+01 -0.22353634129E+03  0.28280402263E+03  0.17300000000E+03 0.  1.
<mgrwt>
<rscale>  2 0.17323285E+03</rscale>
<asrwt>0</asrwt>
<pdfrwt beam="1">  1       21 0.26713077E-01 0.17323285E+03</pdfrwt>
<pdfrwt beam="2">  1       21 0.46964584E-01 0.17323285E+03</pdfrwt>
<totfact> 0.58405539E+04</totfact>
</mgrwt>
</event>
<event>
 4    1  0.4451819E+000  0.1861249E+03  0.7546771E-02  0.1162004E+00
         21   -1    0    0  503  502  0.00000000000E+00  0.00000000000E+00  0.13890523652E+03  0.13890523652E+03  0.00000000000E+00 0. -1.
         21   -1    0    0  501  503 -0.00000000000E+00 -0.00000000000E+00 -0.27868926818E+03  0.27868926818E+03  0.00000000000E+00 0. -1.
          6    1    1    2  501    0 -0.58692212177E+02 -0.35618926210E+02 -0.13758515563E+03  0.23145660225E+03  0.17300000000E+03 0. -1.
         -6    1    1    2    0  502  0.58692212177E+02  0.35618926210E+02 -0.21988760261E+01  0.18613790246E+03  0.17300000000E+03 0. -1.
<mgrwt>
<rscale>  2 0.18612491E+03</rscale>
<asrwt>0</asrwt>
<pdfrwt beam="1">  1       21 0.21370037E-01 0.18612491E+03</pdfrwt>
<pdfrwt beam="2">  1       21 0.42875271E-01 0.18612491E+03</pdfrwt>
<totfact> 0.10692100E+05</totfact>
</mgrwt>
</event>
<event>
 4    1  0.4451819E+000  0.2475775E+03  0.7546771E-02  0.1114845E+00
         21   -1    0    0  501  502  0.00000000000E+00  0.00000000000E+00  0.38161154219E+03  0.38161154219E+03  0.00000000000E+00 0.  1.
         21   -1    0    0  502  503 -0.00000000000E+00 -0.00000000000E+00 -0.16156680774E+03  0.16156680774E+03  0.00000000000E+00 0.  1.
          6    1    1    2  501    0  0.14682474517E+03  0.99035809468E+02  0.89236112377E+02  0.26316854125E+03  0.17300000000E+03 0.  1.
         -6    1    1    2    0  503 -0.14682474517E+03 -0.99035809468E+02  0.13080862207E+03  0.28000980869E+03  0.17300000000E+03 0.  1.
<mgrwt>
<rscale>  2 0.24757746E+03</rscale>
<asrwt>0</asrwt>
<pdfrwt beam="1">  1       21 0.58709468E-01 0.24757746E+03</pdfrwt>
<pdfrwt beam="2">  1       21 0.24856432E-01 0.24757746E+03</pdfrwt>
<totfact> 0.40511388E+04</totfact>
</mgrwt>
</event>
<event>
 4    1  0.4451819E+000  0.2463088E+03  0.7546771E-02  0.1115660E+00
         21   -1    0    0  503  502  0.00000000000E+00  0.00000000000E+00  0.32822730808E+03  0.32822730808E+03  0.00000000000E+00 0. -1.
         21   -1    0    0  501  503 -0.00000000000E+00 -0.00000000000E+00 -0.25285400093E+03  0.25285400093E+03  0.00000000000E+00 0.  1.
          6    1    1    2  501    0 -0.32157860492E+01  0.17529594004E+03 -0.11300389611E+03  0.27099425900E+03  0.17300000000E+03 0.  1.
         -6    1    1    2    0  502  0.32157860492E+01 -0.17529594004E+03  0.18837720325E+03  0.31008705001E+03  0.17300000000E+03 0. -1.
<mgrwt>
<rscale>  2 0.24630877E+03</rscale>
<asrwt>0</asrwt>
<pdfrwt beam="1">  1       21 0.50496509E-01 0.24630877E+03</pdfrwt>
<pdfrwt beam="2">  1       21 0.38900615E-01 0.24630877E+03</pdfrwt>
<totfact> 0.23112468E+04</totfact>
</mgrwt>
</event>
<event>
 4    1  0.4451819E+000  0.1870154E+03  0.7546771E-02  0.1161181E+00
         21   -1    0    0  501  502  0.00000000000E+00  0.00000000000E+00  0.57738472279E+02  0.57738472279E+02  0.00000000000E+00 0.  1.
         21   -1    0    0  502  503 -0.00000000000E+00 -0.00000000000E+00 -0.12020900903E+04  0.12020900903E+04  0.00000000000E+00 0.  1.
          6    1    1    2  501    0  0.52836333138E+02 -0.47477156281E+02 -0.12850385668E+03  0.22690967289E+03  0.17300000000E+03 0.  1.
         -6    1    1    2    0  503 -0.52836333138E+02  0.47477156281E+02 -0.10158477614E+04  0.10329188897E+04  0.17300000000E+03 0.  1.
<mgrwt>
<rscale>  2 0.18701540E+03</rscale>
<asrwt>0</asrwt>
<pdfrwt beam="1">  1       21 0.88828417E-02 0.18701540E+03</pdfrwt>
<pdfrwt beam="2">  1       21 0.18493694E+00 0.18701540E+03</pdfrwt>
<totfact> 0.16915967E+04</totfact>
</mgrwt>
</event>
<event>
 4    1  0.4451819E+000  0.2109899E+03  0.7546771E-02  0.1140784E+00
         21   -1    0    0  503  502  0.00000000000E+00  0.00000000000E+00  0.37226804331E+02  0.37226804331E+02  0.00000000000E+00 0. -1.
         21   -1    0    0  501  503 -0.00000000000E+00 -0.00000000000E+00 -0.12150384180E+04  0.12150384180E+04  0.00000000000E+00 0. -1.
          6    1    1    2  501    0 -0.11992395766E+03  0.14352559531E+02 -0.66764140199E+03  0.70018697020E+03  0.17300000000E+03 0. -1.
         -6    1    1    2    0  502  0.11992395766E+03 -0.14352559531E+02 -0.51017021163E+03  0.55207825208E+03  0.17300000000E+03 0. -1.
<mgrwt>
<rscale>  2 0.21098993E+03</rscale>
<asrwt>0</asrwt>
<pdfrwt beam="1">  1       21 0.57272003E-02 0.21098993E+03</pdfrwt>
<pdfrwt beam="2">  1       21 0.18692900E+00 0.21098993E+03</pdfrwt>
<totfact> 0.34474952E+04</totfact>
</mgrwt>
</event>
<event>
 4    1  0.4451819E+000  0.1991502E+03  0.7546771E-02  0.1150458E+00
         21   -1    0    0  503  502  0.00000000000E+00  0.00000000000E+00  0.40570225655E+03  0.40570225655E+03  0.00000000000E+00 0. -1.
         21   -1    0    0  501  503 -0.00000000000E+00 -0.00000000000E+00 -0.10498915976E+03  0.10498915976E+03  0.00000000000E+00 0. -1.
          6    1    1    2  501    0 -0.92239072824E+02  0.34982409258E+02  0.83345346403E+02  0.21588715173E+03  0.17300000000E+03 0. -1.
         -6    1    1    2    0  502  0.92239072824E+02 -0.34982409258E+02  0.21736775038E+03  0.29480426459E+03  0.17300000000E+03 0. -1.
<mgrwt>
<rscale>  2 0.19915023E+03</rscale>
<asrwt>0</asrwt>
<pdfrwt beam="1">  1       21 0.62415731E-01 0.19915023E+03</pdfrwt>
<pdfrwt beam="2">  1       21 0.16152179E-01 0.19915023E+03</pdfrwt>
<totfact> 0.81329427E+04</totfact>
</mgrwt>
</event>
<event>
 4    1  0.4451819E+000  0.2366755E+03  0.7546771E-02  0.1122028E+00
         21   -1    0    0  503  502  0.00000000000E+00  0.00000000000E+00  0.24947721983E+03  0.24947721983E+03  0.00000000000E+00 0.  1.
         21   -1    0    0  501  503 -0.00000000000E+00 -0.00000000000E+00 -0.22776517131E+03  0.22776517131E+03  0.00000000000E+00 0.  1.
          6    1    1    2  501    0  0.13878361221E+03  0.82616078089E+02  0.39291704890E+02  0.23991487126E+03  0.17300000000E+03 0. -1.
         -6    1    1    2    0  502 -0.13878361221E+03 -0.82616078089E+02 -0.17579656375E+02  0.23732751989E+03  0.17300000000E+03 0. -1.
<mgrwt>
<rscale>  2 0.23667553E+03</rscale>
<asrwt>0</asrwt>
<pdfrwt beam="1">  1       21 0.38381111E-01 0.23667553E+03</pdfrwt>
<pdfrwt beam="2">  1       21 0.35040795E-01 0.23667553E+03</pdfrwt>
<totfact> 0.50374880E+04</totfact>
</mgrwt>
</event>
<event>
 4    1  0.4451819E+000  0.1892403E+03  0.7546771E-02  0.1159148E+00
         21   -1    0    0  503  502  0.00000000000E+00  0.00000000000E+00  0.13944193417E+04  0.13944193417E+04  0.00000000000E+00 0. -1.
         21   -1    0    0  501  503 -0.00000000000E+00 -0.00000000000E+00 -0.67089385764E+02  0.67089385764E+02  0.00000000000E+00 0. -1.
          6    1    1    2  501    0  0.59372325575E+02  0.48557422659E+02  0.89572520956E+02  0.20936841416E+03  0.17300000000E+03 0. -1.
         -6    1    1    2    0  502 -0.59372325575E+02 -0.48557422659E+02  0.12377574350E+04  0.12521403133E+04  0.17300000000E+03 0. -1.
<mgrwt>
<rscale>  2 0.18924031E+03</rscale>
<asrwt>0</asrwt>
<pdfrwt beam="1">  1       21 0.21452603E+00 0.18924031E+03</pdfrwt>
<pdfrwt beam="2">  1       21 0.10321445E-01 0.18924031E+03</pdfrwt>
<totfact> 0.83689672E+03</totfact>
</mgrwt>
</event>
<event>
 4    1  0.4451819E+000  0.2232733E+03  0.7546771E-02  0.1131466E+00
         21   -1    0    0  501  502  0.00000000000E+00  0.00000000000E+00  0.18919223122E+02  0.18919223122E+02  0.00000000000E+00 0.  1.
         21   -1    0    0  502  503 -0.00000000000E+00 -0.00000000000E+00 -0.34912121665E+04  0.34912121665E+04  0.00000000000E+00 0.  1.
          6    1    1    2  501    0  0.71747761371E+01 -0.14096266529E+03 -0.86696177214E+03  0.89525061562E+03  0.17300000000E+03 0.  1.
         -6    1    1    2    0  503 -0.71747761371E+01  0.14096266529E+03 -0.26053311712E+04  0.26148807740E+04  0.17300000000E+03 0.  1.
<mgrwt>
<rscale>  2 0.22327326E+03</rscale>
<asrwt>0</asrwt>
<pdfrwt beam="1">  1       21 0.29106512E-02 0.22327326E+03</pdfrwt>
<pdfrwt beam="2">  1       21 0.53710929E+00 0.22327326E+03</pdfrwt>
<totfact> 0.64989831E+02</totfact>
</mgrwt>
</event>
<event>
 4    1  0.4451819E+000  0.1788288E+03  0.7546771E-02  0.1168941E+00
         21   -1    0    0  503  502  0.00000000000E+00  0.00000000000E+00  0.61755136233E+03  0.61755136233E+03  0.00000000000E+00 0. -1.
         21   -1    0    0  501  503 -0.00000000000E+00 -0.00000000000E+00 -0.11297112684E+03  0.11297112684E+03  0.00000000000E+00 0. -1.
          6    1    1    2  501    0  0.39290711333E+02  0.22516063778E+02 -0.16521038585E+02  0.17959030553E+03  0.17300000000E+03 0. -1.
         -6    1    1    2    0  502 -0.39290711333E+02 -0.22516063778E+02  0.52110127407E+03  0.55093218363E+03  0.17300000000E+03 0. -1.
<mgrwt>
<rscale>  2 0.17882878E+03</rscale>
<asrwt>0</asrwt>
<pdfrwt beam="1">  1       21 0.95007900E-01 0.17882878E+03</pdfrwt>
<pdfrwt beam="2">  1       21 0.17380174E-01 0.17882878E+03</pdfrwt>
<totfact> 0.27960855E+04</totfact>
</mgrwt>
</event>
<event>
 4    1  0.4451819E+000  0.1977815E+03  0.7546771E-02  0.1151624E+00
         21   -1    0    0  503  502  0.00000000000E+00  0.00000000000E+00  0.30073313450E+02  0.30073313450E+02  0.00000000000E+00 0.  1.
         21   -1    0    0  501  503 -0.00000000000E+00 -0.00000000000E+00 -0.14624002214E+04  0.14624002214E+04  0.00000000000E+00 0. -1.
          6    1    1    2  501    0 -0.36214131789E+02  0.88752887554E+02 -0.96427452780E+03  0.98434897437E+03  0.17300000000E+03 0. -1.
         -6    1    1    2    0  502  0.36214131789E+02 -0.88752887554E+02 -0.46805238011E+03  0.50812456043E+03  0.17300000000E+03 0.  1.
<mgrwt>
<rscale>  2 0.19778154E+03</rscale>
<asrwt>0</asrwt>
<pdfrwt beam="1">  1       21 0.46266635E-02 0.19778154E+03</pdfrwt>
<pdfrwt beam="2">  1       21 0.22498466E+00 0.19778154E+03</pdfrwt>
<totfact> 0.28654143E+04</totfact>
</mgrwt>
</event>
<event>
 4    1  0.4451819E+000  0.2020735E+03  0.7546771E-02  0.1148001E+00
         21   -1    0    0  503  502  0.00000000000E+00  0.00000000000E+00  0.31942037809E+03  0.31942037809E+03  0.00000000000E+00 0. -1.
         21   -1    0    0  501  503 -0.00000000000E+00 -0.00000000000E+00 -0.13250476201E+03  0.13250476201E+03  0.00000000000E+00 0. -1.
          6    1    1    2  501    0 -0.60067721505E+02 -0.85419918299E+02  0.51046439203E+02  0.20842128626E+03  0.17300000000E+03 0. -1.
         -6    1    1    2    0  502  0.60067721505E+02  0.85419918299E+02  0.13586917688E+03  0.24350385384E+03  0.17300000000E+03 0. -1.
<mgrwt>
<rscale>  2 0.20207349E+03</rscale>
<asrwt>0</asrwt>
<pdfrwt beam="1">  1       21 0.49141596E-01 0.20207349E+03</pdfrwt>
<pdfrwt beam="2">  1       21 0.20385348E-01 0.20207349E+03</pdfrwt>
<totfact> 0.87641533E+04</totfact>
</mgrwt>
</event>
<event>
 4    1  0.4451819E+000  0.1803546E+03  0.7546771E-02  0.1167460E+00
         21   -1    0    0  503  502  0.00000000000E+00  0.00000000000E+00  0.53281550379E+03  0.53281550379E+03  0.00000000000E+00 0. -1.
         21   -1    0    0  501  503 -0.00000000000E+00 -0.00000000000E+00 -0.10042876230E+03  0.10042876230E+03  0.00000000000E+00 0. -1.
          6    1    1    2  501    0  0.15638295031E+02  0.48520534436E+02  0.17926874793E+02  0.18124340367E+03  0.17300000000E+03 0. -1.
         -6    1    1    2    0  502 -0.15638295031E+02 -0.48520534436E+02  0.41445986670E+03  0.45200086243E+03  0.17300000000E+03 0. -1.
<mgrwt>
<rscale>  2 0.18035465E+03</rscale>
<asrwt>0</asrwt>
<pdfrwt beam="1">  1       21 0.81971614E-01 0.18035465E+03</pdfrwt>
<pdfrwt beam="2">  1       21 0.15450579E-01 0.18035465E+03</pdfrwt>
<totfact> 0.48667201E+04</totfact>
</mgrwt>
</event>
<event>
 4    1  0.4451819E+000  0.2012590E+03  0.7546771E-02  0.1148681E+00
         21   -1    0    0  503  502  0.00000000000E+00  0.00000000000E+00  0.66808298460E+02  0.66808298460E+02  0.00000000000E+00 0. -1.
         21   -1    0    0  501  503 -0.00000000000E+00 -0.00000000000E+00 -0.61200300279E+03  0.61200300279E+03  0.00000000000E+00 0.  1.
          6    1    1    2  501    0  0.78455708275E+02  0.66489637144E+02 -0.23980342448E+03  0.31306684973E+03  0.17300000000E+03 0. -1.
         -6    1    1    2    0  502 -0.78455708275E+02 -0.66489637144E+02 -0.30539127986E+03  0.36574445152E+03  0.17300000000E+03 0.  1.
<mgrwt>
<rscale>  2 0.20125896E+03</rscale>
<asrwt>0</asrwt>
<pdfrwt beam="1">  1       21 0.10278199E-01 0.20125896E+03</pdfrwt>
<pdfrwt beam="2">  1       21 0.94154312E-01 0.20125896E+03</pdfrwt>
<totfact> 0.72829358E+04</totfact>
</mgrwt>
</event>
<event>
 4    1  0.4451819E+000  0.2597351E+03  0.7546771E-02  0.1107302E+00
         21   -1    0    0  501  502  0.00000000000E+00  0.00000000000E+00  0.15935624497E+03  0.15935624497E+03  0.00000000000E+00 0. -1.
         21   -1    0    0  502  503 -0.00000000000E+00 -0.00000000000E+00 -0.12419246473E+04  0.12419246473E+04  0.00000000000E+00 0. -1.
          6    1    1    2  501    0  0.56905053220E+02 -0.18518951963E+03  0.27540694203E+02  0.26119118113E+03  0.17300000000E+03 0. -1.
         -6    1    1    2    0  503 -0.56905053220E+02  0.18518951963E+03 -0.11101090965E+04  0.11400897111E+04  0.17300000000E+03 0. -1.
<mgrwt>
<rscale>  2 0.25973514E+03</rscale>
<asrwt>0</asrwt>
<pdfrwt beam="1">  1       21 0.24516344E-01 0.25973514E+03</pdfrwt>
<pdfrwt beam="2">  1       21 0.19106534E+00 0.25973514E+03</pdfrwt>
<totfact> 0.22748066E+03</totfact>
</mgrwt>
</event>
<event>
 4    1  0.4451819E+000  0.2380161E+03  0.7546771E-02  0.1121122E+00
         21   -1    0    0  501  502  0.00000000000E+00  0.00000000000E+00  0.19771558349E+03  0.19771558349E+03  0.00000000000E+00 0.  1.
         21   -1    0    0  502  503 -0.00000000000E+00 -0.00000000000E+00 -0.32099576758E+03  0.32099576758E+03  0.00000000000E+00 0.  1.
          6    1    1    2  501    0 -0.14248896353E+03 -0.80122172750E+02  0.23343098741E+02  0.23915803886E+03  0.17300000000E+03 0.  1.
         -6    1    1    2    0  503  0.14248896353E+03  0.80122172750E+02 -0.14662328283E+03  0.27955331220E+03  0.17300000000E+03 0.  1.
<mgrwt>
<rscale>  2 0.23801611E+03</rscale>
<asrwt>0</asrwt>
<pdfrwt beam="1">  1       21 0.30417782E-01 0.23801611E+03</pdfrwt>
<pdfrwt beam="2">  1       21 0.49383964E-01 0.23801611E+03</pdfrwt>
<totfact> 0.39680239E+04</totfact>
</mgrwt>
</event>
<event>
 4    1  0.4451819E+000  0.2172482E+03  0.7546771E-02  0.1135951E+00
         21   -1    0    0  501  502  0.00000000000E+00  0.00000000000E+00  0.10578788591E+03  0.10578788591E+03  0.00000000000E+00 0. -1.
         21   -1    0    0  502  503 -0.00000000000E+00 -0.00000000000E+00 -0.11417344808E+04  0.11417344808E+04  0.00000000000E+00 0.  1.
          6    1    1    2  501    0  0.74480022272E+02 -0.10826134532E+03 -0.31104296925E+02  0.21946359583E+03  0.17300000000E+03 0. -1.
         -6    1    1    2    0  503 -0.74480022272E+02  0.10826134532E+03 -0.10048422980E+04  0.10280587709E+04  0.17300000000E+03 0.  1.
<mgrwt>
<rscale>  2 0.21724823E+03</rscale>
<asrwt>0</asrwt>
<pdfrwt beam="1">  1       21 0.16275060E-01 0.21724823E+03</pdfrwt>
<pdfrwt beam="2">  1       21 0.17565145E+00 0.21724823E+03</pdfrwt>
<totfact> 0.64547732E+03</totfact>
</mgrwt>
</event>
<event>
 4    1  0.4451819E+000  0.1819221E+03  0.7546771E-02  0.1165956E+00
         21   -1    0    0  501  502  0.00000000000E+00  0.00000000000E+00  0.69053747403E+03  0.69053747403E+03  0.00000000000E+00 0. -1.
         21   -1    0    0  502  503 -0.00000000000E+00 -0.00000000000E+00 -0.13492485697E+03  0.13492485697E+03  0.00000000000E+00 0. -1.
          6    1    1    2  501    0 -0.12559979149E+02  0.54853445420E+02  0.60922317265E+03  0.63580541649E+03  0.17300000000E+03 0. -1.
         -6    1    1    2    0  503  0.12559979149E+02 -0.54853445420E+02 -0.53610555594E+02  0.18965691451E+03  0.17300000000E+03 0. -1.
<mgrwt>
<rscale>  2 0.18192211E+03</rscale>
<asrwt>0</asrwt>
<pdfrwt beam="1">  1       21 0.10623653E+00 0.18192211E+03</pdfrwt>
<pdfrwt beam="2">  1       21 0.20757671E-01 0.18192211E+03</pdfrwt>
<totfact> 0.15402978E+04</totfact>
</mgrwt>
</event>
<event>
 4    1  0.4451819E+000  0.2163626E+03  0.7546771E-02  0.1136624E+00
         21   -1    0    0  501  502  0.00000000000E+00  0.00000000000E+00  0.16513255463E+03  0.16513255463E+03  0.00000000000E+00 0.  1.
         21   -1    0    0  502  503 -0.00000000000E+00 -0.00000000000E+00 -0.29847797293E+03  0.29847797293E+03  0.00000000000E+00 0.  1.
          6    1    1    2  501    0  0.83606771252E+02 -0.99467033132E+02 -0.14721556746E+02  0.21686287629E+03  0.17300000000E+03 0.  1.
         -6    1    1    2    0  503 -0.83606771252E+02  0.99467033132E+02 -0.11862386155E+03  0.24674765127E+03  0.17300000000E+03 0.  1.
<mgrwt>
<rscale>  2 0.21636262E+03</rscale>
<asrwt>0</asrwt>
<pdfrwt beam="1">  1       21 0.25405009E-01 0.21636262E+03</pdfrwt>
<pdfrwt beam="2">  1       21 0.45919688E-01 0.21636262E+03</pdfrwt>
<totfact> 0.66067987E+04</totfact>
</mgrwt>
</event>
<event>
 4    1  0.4451819E+000  0.2608933E+03  0.7546771E-02  0.1106608E+00
         21   -1    0    0  503  502  0.00000000000E+00  0.00000000000E+00  0.65319982105E+03  0.65319982105E+03  0.00000000000E+00 0. -1.
         21   -1    0    0  501  503 -0.00000000000E+00 -0.00000000000E+00 -0.15063331430E+03  0.15063331430E+03  0.00000000000E+00 0.  1.
          6    1    1    2  501    0  0.17801750708E+03  0.80287481064E+02  0.28143630196E+02  0.26240689084E+03  0.17300000000E+03 0.  1.
         -6    1    1    2    0  502 -0.17801750708E+03 -0.80287481064E+02  0.47442287656E+03  0.54142624451E+03  0.17300000000E+03 0. -1.
<mgrwt>
<rscale>  2 0.26089330E+03</rscale>
<asrwt>0</asrwt>
<pdfrwt beam="1">  1       21 0.10049228E+00 0.26089330E+03</pdfrwt>
<pdfrwt beam="2">  1       21 0.23174356E-01 0.26089330E+03</pdfrwt>
<totfact> 0.13636028E+04</totfact>
</mgrwt>
</event>
<event>
 4    1  0.4451819E+000  0.1790913E+03  0.7546771E-02  0.1168685E+00
         21   -1    0    0  503  502  0.00000000000E+00  0.00000000000E+00  0.37124352770E+03  0.37124352770E+03  0.00000000000E+00 0. -1.
         21   -1    0    0  501  503 -0.00000000000E+00 -0.00000000000E+00 -0.86618958762E+02  0.86618958762E+02  0.00000000000E+00 0. -1.
          6    1    1    2  501    0  0.57806801748E+01  0.45948645365E+02  0.13067917206E+03  0.22169966235E+03  0.17300000000E+03 0.  1.
         -6    1    1    2    0  502 -0.57806801748E+01 -0.45948645365E+02  0.15394539687E+03  0.23616282411E+03  0.17300000000E+03 0.  1.
<mgrwt>
<rscale>  2 0.17909130E+03</rscale>
<asrwt>0</asrwt>
<pdfrwt beam="1">  1       21 0.57114388E-01 0.17909130E+03</pdfrwt>
<pdfrwt beam="2">  1       21 0.13325994E-01 0.17909130E+03</pdfrwt>
<totfact> 0.14060700E+05</totfact>
</mgrwt>
</event>
<event>
 4    1  0.4451819E+000  0.2306530E+03  0.7546771E-02  0.1126181E+00
         21   -1    0    0  503  502  0.00000000000E+00  0.00000000000E+00  0.13234984877E+04  0.13234984877E+04  0.00000000000E+00 0.  1.
         21   -1    0    0  501  503 -0.00000000000E+00 -0.00000000000E+00 -0.64680996064E+02  0.64680996064E+02  0.00000000000E+00 0.  1.
          6    1    1    2  501    0  0.14536998762E+03 -0.46253203586E+02  0.20236968663E+03  0.30684569772E+03  0.17300000000E+03 0.  1.
         -6    1    1    2    0  502 -0.14536998762E+03  0.46253203586E+02  0.10564478050E+04  0.10813337861E+04  0.17300000000E+03 0.  1.
<mgrwt>
<rscale>  2 0.23065297E+03</rscale>
<asrwt>0</asrwt>
<pdfrwt beam="1">  1       21 0.20361513E+00 0.23065297E+03</pdfrwt>
<pdfrwt beam="2">  1       21 0.99509235E-02 0.23065297E+03</pdfrwt>
<totfact> 0.10109750E+04</totfact>
</mgrwt>
</event>
<event>
 4    1  0.4451819E+000  0.2508546E+03  0.7546771E-02  0.1112766E+00
         21   -1    0    0  501  502  0.00000000000E+00  0.00000000000E+00  0.22775156249E+03  0.22775156249E+03  0.00000000000E+00 0. -1.
         21   -1    0    0  502  503 -0.00000000000E+00 -0.00000000000E+00 -0.46309011493E+03  0.46309011493E+03  0.00000000000E+00 0. -1.
          6    1    1    2  501    0 -0.47177511635E+01  0.18159513974E+03  0.10170778615E+03  0.27068898337E+03  0.17300000000E+03 0. -1.
         -6    1    1    2    0  503  0.47177511635E+01 -0.18159513974E+03 -0.33704633860E+03  0.42015269405E+03  0.17300000000E+03 0. -1.
<mgrwt>
<rscale>  2 0.25085464E+03</rscale>
<asrwt>0</asrwt>
<pdfrwt beam="1">  1       21 0.35038702E-01 0.25085464E+03</pdfrwt>
<pdfrwt beam="2">  1       21 0.71244633E-01 0.25085464E+03</pdfrwt>
<totfact> 0.13520997E+04</totfact>
</mgrwt>
</event>
<event>
 4    1  0.4451819E+000  0.1940429E+03  0.7546771E-02  0.1154865E+00
         21   -1    0    0  503  502  0.00000000000E+00  0.00000000000E+00  0.24785242288E+02  0.24785242288E+02  0.00000000000E+00 0.  1.
         21   -1    0    0  501  503 -0.00000000000E+00 -0.00000000000E+00 -0.16525291177E+04  0.16525291177E+04  0.00000000000E+00 0.  1.
          6    1    1    2  501    0 -0.38717957937E+02 -0.78896012313E+02 -0.10521276412E+04  0.10698715971E+04  0.17300000000E+03 0.  1.
         -6    1    1    2    0  502  0.38717957937E+02  0.78896012313E+02 -0.57561623420E+03  0.60744276281E+03  0.17300000000E+03 0.  1.
<mgrwt>
<rscale>  2 0.19404294E+03</rscale>
<asrwt>0</asrwt>
<pdfrwt beam="1">  1       21 0.38131151E-02 0.19404294E+03</pdfrwt>
<pdfrwt beam="2">  1       21 0.25423519E+00 0.19404294E+03</pdfrwt>
<totfact> 0.26627056E+04</totfact>
</mgrwt>
</event>
<event>
 4    1  0.4451819E+000  0.1901819E+03  0.7546771E-02  0.1158297E+00
         21   -1    0    0  503  502  0.00000000000E+00  0.00000000000E+00  0.45422451788E+03  0.45422451788E+03  0.00000000000E+00 0. -1.
         21   -1    0    0  501  503 -0.00000000000E+00 -0.00000000000E+00 -0.12796373727E+03  0.12796373727E+03  0.00000000000E+00 0.  1.
          6    1    1    2  501    0  0.75840723511E+02  0.22098203901E+02 -0.15774666733E+02  0.19083497077E+03  0.17300000000E+03 0.  1.
         -6    1    1    2    0  502 -0.75840723511E+02 -0.22098203901E+02  0.34203544734E+03  0.39135328438E+03  0.17300000000E+03 0. -1.
<mgrwt>
<rscale>  2 0.19018188E+03</rscale>
<asrwt>0</asrwt>
<pdfrwt beam="1">  1       21 0.69880694E-01 0.19018188E+03</pdfrwt>
<pdfrwt beam="2">  1       21 0.19686729E-01 0.19018188E+03</pdfrwt>
<totfact> 0.44270836E+04</totfact>
</mgrwt>
</event>
<event>
 4    1  0.4451819E+000  0.1817376E+03  0.7546771E-02  0.1166132E+00
         21   -1    0    0  503  502  0.00000000000E+00  0.00000000000E+00  0.56238444235E+03  0.56238444235E+03  0.00000000000E+00 0. -1.
         21   -1    0    0  501  503 -0.00000000000E+00 -0.00000000000E+00 -0.84091267406E+02  0.84091267406E+02  0.00000000000E+00 0. -1.
          6    1    1    2  501    0 -0.44753522361E+02 -0.33115942793E+02  0.61630902424E+02  0.19190339123E+03  0.17300000000E+03 0.  1.
         -6    1    1    2    0  502  0.44753522361E+02  0.33115942793E+02  0.41666227252E+03  0.45457231853E+03  0.17300000000E+03 0.  1.
<mgrwt>
<rscale>  2 0.18173757E+03</rscale>
<asrwt>0</asrwt>
<pdfrwt beam="1">  1       21 0.86520681E-01 0.18173757E+03</pdfrwt>
<pdfrwt beam="2">  1       21 0.12937118E-01 0.18173757E+03</pdfrwt>
<totfact> 0.59295760E+04</totfact>
</mgrwt>
</event>
<event>
 4    1  0.4451819E+000  0.2627470E+03  0.7546771E-02  0.1105504E+00
         21   -1    0    0  501  502  0.00000000000E+00  0.00000000000E+00  0.42730437569E+03  0.42730437569E+03  0.00000000000E+00 0.  1.
         21   -1    0    0  502  503 -0.00000000000E+00 -0.00000000000E+00 -0.16242037171E+03  0.16242037171E+03  0.00000000000E+00 0. -1.
          6    1    1    2  501    0 -0.18473807077E+03 -0.70560866006E+02  0.15388230323E+03  0.30449261707E+03  0.17300000000E+03 0.  1.
         -6    1    1    2    0  503  0.18473807077E+03  0.70560866006E+02  0.11100170075E+03  0.28523213033E+03  0.17300000000E+03 0. -1.
<mgrwt>
<rscale>  2 0.26274701E+03</rscale>
<asrwt>0</asrwt>
<pdfrwt beam="1">  1       21 0.65739135E-01 0.26274701E+03</pdfrwt>
<pdfrwt beam="2">  1       21 0.24987750E-01 0.26274701E+03</pdfrwt>
<totfact> 0.31157971E+04</totfact>
</mgrwt>
</event>
<event>
 4    1  0.4451819E+000  0.2830399E+03  0.7546771E-02  0.1094040E+00
         21   -1    0    0  503  502  0.00000000000E+00  0.00000000000E+00  0.10191528775E+04  0.10191528775E+04  0.00000000000E+00 0.  1.
         21   -1    0    0  501  503 -0.00000000000E+00 -0.00000000000E+00 -0.87789622801E+02  0.87789622801E+02  0.00000000000E+00 0. -1.
          6    1    1    2  501    0  0.11962864226E+03  0.18939788209E+03  0.28667067792E+03  0.40285437489E+03  0.17300000000E+03 0. -1.
         -6    1    1    2    0  502 -0.11962864226E+03 -0.18939788209E+03  0.64469257681E+03  0.70408812544E+03  0.17300000000E+03 0.  1.
<mgrwt>
<rscale>  2 0.28303987E+03</rscale>
<asrwt>0</asrwt>
<pdfrwt beam="1">  1       21 0.15679274E+00 0.28303987E+03</pdfrwt>
<pdfrwt beam="2">  1       21 0.13506097E-01 0.28303987E+03</pdfrwt>
<totfact> 0.11912784E+04</totfact>
</mgrwt>
</event>
<event>
 4    1  0.4451819E+000  0.2116923E+03  0.7546771E-02  0.1140233E+00
         21   -1    0    0  503  502  0.00000000000E+00  0.00000000000E+00  0.48449277411E+03  0.48449277411E+03  0.00000000000E+00 0. -1.
         21   -1    0    0  501  503 -0.00000000000E+00 -0.00000000000E+00 -0.12909907969E+03  0.12909907969E+03  0.00000000000E+00 0. -1.
          6    1    1    2  501    0  0.37911567055E+02  0.11596264935E+03  0.14336336226E+02  0.21217717478E+03  0.17300000000E+03 0. -1.
         -6    1    1    2    0  502 -0.37911567055E+02 -0.11596264935E+03  0.34105735819E+03  0.40141467902E+03  0.17300000000E+03 0. -1.
<mgrwt>
<rscale>  2 0.21169228E+03</rscale>
<asrwt>0</asrwt>
<pdfrwt beam="1">  1       21 0.74537349E-01 0.21169228E+03</pdfrwt>
<pdfrwt beam="2">  1       21 0.19861397E-01 0.21169228E+03</pdfrwt>
<totfact> 0.37322224E+04</totfact>
</mgrwt>
</event>
<event>
 4    1  0.4451819E+000  0.2750275E+03  0.7546771E-02  0.1098436E+00
         21   -1    0    0  503  502  0.00000000000E+00  0.00000000000E+00  0.40689147525E+03  0.40689147525E+03  0.00000000000E+00 0. -1.
         21   -1    0    0  501  503 -0.00000000000E+00 -0.00000000000E+00 -0.19325570648E+03  0.19325570648E+03  0.00000000000E+00 0.  1.
          6    1    1    2  501    0  0.12420570403E+03  0.17402314670E+03  0.16537063104E+03  0.32091674639E+03  0.17300000000E+03 0. -1.
         -6    1    1    2    0  502 -0.12420570403E+03 -0.17402314670E+03  0.48265137731E+02  0.27923043534E+03  0.17300000000E+03 0.  1.
<mgrwt>
<rscale>  2 0.27502748E+03</rscale>
<asrwt>0</asrwt>
<pdfrwt beam="1">  1       21 0.62598688E-01 0.27502748E+03</pdfrwt>
<pdfrwt beam="2">  1       21 0.29731647E-01 0.27502748E+03</pdfrwt>
<totfact> 0.24615497E+04</totfact>
</mgrwt>
</event>
<event>
 4    1  0.4451819E+000  0.1851181E+03  0.7546771E-02  0.1162940E+00
         21   -1    0    0  501  502  0.00000000000E+00  0.00000000000E+00  0.46950229638E+03  0.46950229638E+03  0.00000000000E+00 0. -1.
         21   -1    0    0  502  503 -0.00000000000E+00 -0.00000000000E+00 -0.27445898251E+03  0.27445898251E+03  0.00000000000E+00 0. -1.
          6    1    1    2  501    0 -0.53950597593E+02 -0.37802659108E+02  0.41622477771E+03  0.45553460197E+03  0.17300000000E+03 0. -1.
         -6    1    1    2    0  503  0.53950597593E+02  0.37802659108E+02 -0.22118146383E+03  0.28842667692E+03  0.17300000000E+03 0. -1.
<mgrwt>
<rscale>  2 0.18511809E+03</rscale>
<asrwt>0</asrwt>
<pdfrwt beam="1">  1       21 0.72231122E-01 0.18511809E+03</pdfrwt>
<pdfrwt beam="2">  1       21 0.42224459E-01 0.18511809E+03</pdfrwt>
<totfact> 0.93798575E+03</totfact>
</mgrwt>
</event>
<event>
 4    1  0.4451819E+000  0.1744533E+03  0.7546771E-02  0.1173282E+00
         21   -1    0    0  501  502  0.00000000000E+00  0.00000000000E+00  0.13248913773E+04  0.13248913773E+04  0.00000000000E+00 0. -1.
         21   -1    0    0  502  503 -0.00000000000E+00 -0.00000000000E+00 -0.41537945163E+02  0.41537945163E+02  0.00000000000E+00 0. -1.
          6    1    1    2  501    0 -0.15993308113E+02 -0.15785087070E+02  0.10984555836E+04  0.11122223807E+04  0.17300000000E+03 0. -1.
         -6    1    1    2    0  503  0.15993308113E+02  0.15785087070E+02  0.18489784858E+03  0.25420694186E+03  0.17300000000E+03 0. -1.
<mgrwt>
<rscale>  2 0.17445330E+03</rscale>
<asrwt>0</asrwt>
<pdfrwt beam="1">  1       21 0.20382941E+00 0.17445330E+03</pdfrwt>
<pdfrwt beam="2">  1       21 0.63904541E-02 0.17445330E+03</pdfrwt>
<totfact> 0.22779119E+04</totfact>
</mgrwt>
</event>
<event>
 4    1  0.4451819E+000  0.2994932E+03  0.7546771E-02  0.1085494E+00
         21   -1    0    0  501  502  0.00000000000E+00  0.00000000000E+00  0.75843375367E+03  0.75843375367E+03  0.00000000000E+00 0. -1.
         21   -1    0    0  502  503 -0.00000000000E+00 -0.00000000000E+00 -0.66367844546E+03  0.66367844546E+03  0.00000000000E+00 0.  1.
          6    1    1    2  501    0 -0.15197033344E+03 -0.19149992611E+03  0.69197410604E+03  0.75400554864E+03  0.17300000000E+03 0. -1.
         -6    1    1    2    0  503  0.15197033344E+03  0.19149992611E+03 -0.59721879783E+03  0.66810665049E+03  0.17300000000E+03 0.  1.
<mgrwt>
<rscale>  2 0.29949325E+03</rscale>
<asrwt>0</asrwt>
<pdfrwt beam="1">  1       21 0.11668212E+00 0.29949325E+03</pdfrwt>
<pdfrwt beam="2">  1       21 0.10210438E+00 0.29949325E+03</pdfrwt>
<totfact> 0.40074860E+02</totfact>
</mgrwt>
</event>
<event>
 4    1  0.4451819E+000  0.2748773E+03  0.7546771E-02  0.1098520E+00
         21   -1    0    0  503  502  0.00000000000E+00  0.00000000000E+00  0.28905028396E+03  0.28905028396E+03  0.00000000000E+00 0.  1.
         21   -1    0    0  501  503 -0.00000000000E+00 -0.00000000000E+00 -0.28269758548E+03  0.28269758548E+03  0.00000000000E+00 0. -1.
          6    1    1    2  501    0 -0.13157540969E+03 -0.16827489113E+03  0.81643221570E+02  0.28674578122E+03  0.17300000000E+03 0.  1.
         -6    1    1    2    0  502  0.13157540969E+03  0.16827489113E+03 -0.75290523087E+02  0.28500208822E+03  0.17300000000E+03 0. -1.
<mgrwt>
<rscale>  2 0.27487730E+03</rscale>
<asrwt>0</asrwt>
<pdfrwt beam="1">  1       21 0.44469274E-01 0.27487730E+03</pdfrwt>
<pdfrwt beam="2">  1       21 0.43491936E-01 0.27487730E+03</pdfrwt>
<totfact> 0.23679211E+04</totfact>
</mgrwt>
</event>
<event>
 4    1  0.4451819E+000  0.2706058E+03  0.7546771E-02  0.1100933E+00
         21   -1    0    0  503  502  0.00000000000E+00  0.00000000000E+00  0.46125623867E+03  0.46125623867E+03  0.00000000000E+00 0. -1.
         21   -1    0    0  501  503 -0.00000000000E+00 -0.00000000000E+00 -0.16818246056E+03  0.16818246056E+03  0.00000000000E+00 0. -1.
          6    1    1    2  501    0 -0.19221559677E+03 -0.79697455742E+02  0.72030896185E+02  0.28002851658E+03  0.17300000000E+03 0. -1.
         -6    1    1    2    0  502  0.19221559677E+03  0.79697455742E+02  0.22104288193E+03  0.34941018265E+03  0.17300000000E+03 0. -1.
<mgrwt>
<rscale>  2 0.27060584E+03</rscale>
<asrwt>0</asrwt>
<pdfrwt beam="1">  1       21 0.70962498E-01 0.27060584E+03</pdfrwt>
<pdfrwt beam="2">  1       21 0.25874225E-01 0.27060584E+03</pdfrwt>
<totfact> 0.24514741E+04</totfact>
</mgrwt>
</event>
<event>
 4    1  0.4451819E+000  0.2422436E+03  0.7546771E-02  0.1118307E+00
         21   -1    0    0  501  502  0.00000000000E+00  0.00000000000E+00  0.95027038628E+03  0.95027038628E+03  0.00000000000E+00 0. -1.
         21   -1    0    0  502  503 -0.00000000000E+00 -0.00000000000E+00 -0.64262218001E+02  0.64262218001E+02  0.00000000000E+00 0. -1.
          6    1    1    2  501    0 -0.11563303685E+03 -0.12402402357E+03  0.54324280316E+03  0.59480643980E+03  0.17300000000E+03 0. -1.
         -6    1    1    2    0  503  0.11563303685E+03  0.12402402357E+03  0.34276536512E+03  0.41972616449E+03  0.17300000000E+03 0. -1.
<mgrwt>
<rscale>  2 0.24224359E+03</rscale>
<asrwt>0</asrwt>
<pdfrwt beam="1">  1       21 0.14619543E+00 0.24224359E+03</pdfrwt>
<pdfrwt beam="2">  1       21 0.98864958E-02 0.24224359E+03</pdfrwt>
<totfact> 0.25708917E+04</totfact>
</mgrwt>
</event>
<event>
 4    1  0.4451819E+000  0.1920572E+03  0.7546771E-02  0.1156619E+00
         21   -1    0    0  501  502  0.00000000000E+00  0.00000000000E+00  0.56460517380E+03  0.56460517380E+03  0.00000000000E+00 0.  1.
         21   -1    0    0  502  503 -0.00000000000E+00 -0.00000000000E+00 -0.98552439542E+02  0.98552439542E+02  0.00000000000E+00 0.  1.
          6    1    1    2  501    0 -0.83390780020E+02  0.17196526132E+01  0.42554159634E+03  0.46687431886E+03  0.17300000000E+03 0.  1.
         -6    1    1    2    0  503  0.83390780020E+02 -0.17196526132E+01  0.40511137921E+02  0.19628329448E+03  0.17300000000E+03 0.  1.
<mgrwt>
<rscale>  2 0.19205723E+03</rscale>
<asrwt>0</asrwt>
<pdfrwt beam="1">  1       21 0.86862332E-01 0.19205723E+03</pdfrwt>
<pdfrwt beam="2">  1       21 0.15161914E-01 0.19205723E+03</pdfrwt>
<totfact> 0.43875930E+04</totfact>
</mgrwt>
</event>
<event>
 4    1  0.4451819E+000  0.1906778E+03  0.7546771E-02  0.1157851E+00
         21   -1    0    0  503  502  0.00000000000E+00  0.00000000000E+00  0.14356210337E+04  0.14356210337E+04  0.00000000000E+00 0.  1.
         21   -1    0    0  501  503 -0.00000000000E+00 -0.00000000000E+00 -0.25367917496E+02  0.25367917496E+02  0.00000000000E+00 0.  1.
          6    1    1    2  501    0  0.34324125083E+02  0.72462810416E+02  0.67530089977E+03  0.70170457437E+03  0.17300000000E+03 0.  1.
         -6    1    1    2    0  502 -0.34324125083E+02 -0.72462810416E+02  0.73495221639E+03  0.75928437678E+03  0.17300000000E+03 0.  1.
<mgrwt>
<rscale>  2 0.19067775E+03</rscale>
<asrwt>0</asrwt>
<pdfrwt beam="1">  1       21 0.22086471E+00 0.19067775E+03</pdfrwt>
<pdfrwt beam="2">  1       21 0.39027577E-02 0.19067775E+03</pdfrwt>
<totfact> 0.40638523E+04</totfact>
</mgrwt>
</event>
<event>
 4    1  0.4451819E+000  0.1773112E+03  0.7546771E-02  0.1170431E+00
         21   -1    0    0  501  502  0.00000000000E+00  0.00000000000E+00  0.57360710570E+02  0.57360710570E+02  0.00000000000E+00 0. -1.
         21   -1    0    0  502  503 -0.00000000000E+00 -0.00000000000E+00 -0.55169543837E+03  0.55169543837E+03  0.00000000000E+00 0. -1.
          6    1    1    2  501    0  0.35795262660E+02 -0.15131130882E+02 -0.22257415842E+03  0.28456722922E+03  0.17300000000E+03 0. -1.
         -6    1    1    2    0  503 -0.35795262660E+02  0.15131130882E+02 -0.27176056938E+03  0.32448891972E+03  0.17300000000E+03 0. -1.
<mgrwt>
<rscale>  2 0.17731117E+03</rscale>
<asrwt>0</asrwt>
<pdfrwt beam="1">  1       21 0.88247248E-02 0.17731117E+03</pdfrwt>
<pdfrwt beam="2">  1       21 0.84876221E-01 0.17731117E+03</pdfrwt>
<totfact> 0.12225817E+05</totfact>
</mgrwt>
</event>
<event>
 4    1  0.4451819E+000  0.1875532E+03  0.7546771E-02  0.1160687E+00
         21   -1    0    0  503  502  0.00000000000E+00  0.00000000000E+00  0.19445031655E+03  0.19445031655E+03  0.00000000000E+00 0.  1.
         21   -1    0    0  501  503 -0.00000000000E+00 -0.00000000000E+00 -0.20199712266E+03  0.20199712266E+03  0.00000000000E+00 0.  1.
          6    1    1    2  501    0  0.72024166745E+02  0.77284442145E+01 -0.67833391031E+02  0.19944317081E+03  0.17300000000E+03 0.  1.
         -6    1    1    2    0  502 -0.72024166745E+02 -0.77284442145E+01  0.60286584917E+02  0.19700426840E+03  0.17300000000E+03 0.  1.
<mgrwt>
<rscale>  2 0.18755322E+03</rscale>
<asrwt>0</asrwt>
<pdfrwt beam="1">  1       21 0.29915433E-01 0.18755322E+03</pdfrwt>
<pdfrwt beam="2">  1       21 0.31076480E-01 0.18755322E+03</pdfrwt>
<totfact> 0.10678371E+05</totfact>
</mgrwt>
</event>
<event>
 4    1  0.4451819E+000  0.1840552E+03  0.7546771E-02  0.1163935E+00
         21   -1    0    0  503  502  0.00000000000E+00  0.00000000000E+00  0.36401453542E+03  0.36401453542E+03  0.00000000000E+00 0. -1.
         21   -1    0    0  501  503 -0.00000000000E+00 -0.00000000000E+00 -0.14056064524E+03  0.14056064524E+03  0.00000000000E+00 0. -1.
          6    1    1    2  501    0  0.57466815584E+02 -0.25394239851E+02  0.25838294534E+03  0.31723500556E+03  0.17300000000E+03 0. -1.
         -6    1    1    2    0  502 -0.57466815584E+02  0.25394239851E+02 -0.34929055159E+02  0.18734017510E+03  0.17300000000E+03 0. -1.
<mgrwt>
<rscale>  2 0.18405516E+03</rscale>
<asrwt>0</asrwt>
<pdfrwt beam="1">  1       21 0.56002236E-01 0.18405516E+03</pdfrwt>
<pdfrwt beam="2">  1       21 0.21624715E-01 0.18405516E+03</pdfrwt>
<totfact> 0.60088360E+04</totfact>
</mgrwt>
</event>
<event>
 4    1  0.4451819E+000  0.2134709E+03  0.7546771E-02  0.1138847E+00
         21   -1    0    0  503  502  0.00000000000E+00  0.00000000000E+00  0.31475894076E+03  0.31475894076E+03  0.00000000000E+00 0.  1.
         21   -1    0    0  501  503 -0.00000000000E+00 -0.00000000000E+00 -0.21166438418E+03  0.21166438418E+03  0.00000000000E+00 0. -1.
          6    1    1    2  501    0 -0.56400229176E+02  0.11162365840E+03 -0.96415893150E+02  0.23423460764E+03  0.17300000000E+03 0. -1.
         -6    1    1    2    0  502  0.56400229176E+02 -0.11162365840E+03  0.19951044973E+03  0.29218871730E+03  0.17300000000E+03 0.  1.
<mgrwt>
<rscale>  2 0.21347090E+03</rscale>
<asrwt>0</asrwt>
<pdfrwt beam="1">  1       21 0.48424452E-01 0.21347090E+03</pdfrwt>
<pdfrwt beam="2">  1       21 0.32563752E-01 0.21347090E+03</pdfrwt>
<totfact> 0.36566335E+04</totfact>
</mgrwt>
</event>
<event>
 4    1  0.4451819E+000  0.2000956E+03  0.7546771E-02  0.1149658E+00
         21   -1    0    0  503  502  0.00000000000E+00  0.00000000000E+00  0.54284760785E+02  0.54284760785E+02  0.00000000000E+00 0.  1.
         21   -1    0    0  501  503 -0.00000000000E+00 -0.00000000000E+00 -0.13729011209E+04  0.13729011209E+04  0.00000000000E+00 0. -1.
          6    1    1    2  501    0 -0.99162998047E+02  0.16611409213E+02 -0.11447470866E+04  0.11621033222E+04  0.17300000000E+03 0. -1.
         -6    1    1    2    0  502  0.99162998047E+02 -0.16611409213E+02 -0.17386927355E+03  0.26508255956E+03  0.17300000000E+03 0.  1.
<mgrwt>
<rscale>  2 0.20009557E+03</rscale>
<asrwt>0</asrwt>
<pdfrwt beam="1">  1       21 0.83515023E-02 0.20009557E+03</pdfrwt>
<pdfrwt beam="2">  1       21 0.21121554E+00 0.20009557E+03</pdfrwt>
<totfact> 0.12616568E+04</totfact>
</mgrwt>
</event>
<event>
 4    1  0.4451819E+000  0.2459629E+03  0.7546771E-02  0.1115883E+00
         21   -1    0    0  501  502  0.00000000000E+00  0.00000000000E+00  0.12803279748E+04  0.12803279748E+04  0.00000000000E+00 0.  1.
         21   -1    0    0  502  503 -0.00000000000E+00 -0.00000000000E+00 -0.69315690276E+02  0.69315690276E+02  0.00000000000E+00 0.  1.
          6    1    1    2  501    0 -0.17337713535E+03  0.22563990316E+02  0.98623401751E+03  0.10164424735E+04  0.17300000000E+03 0.  1.
         -6    1    1    2    0  503  0.17337713535E+03 -0.22563990316E+02  0.22477826702E+03  0.33320119154E+03  0.17300000000E+03 0.  1.
<mgrwt>
<rscale>  2 0.24596293E+03</rscale>
<asrwt>0</asrwt>
<pdfrwt beam="1">  1       21 0.19697352E+00 0.24596293E+03</pdfrwt>
<pdfrwt beam="2">  1       21 0.10663953E-01 0.24596293E+03</pdfrwt>
<totfact> 0.97656252E+03</totfact>
</mgrwt>
</event>
<event>
 4    1  0.4451819E+000  0.2918665E+03  0.7546771E-02  0.1089379E+00
         21   -1    0    0  501  502  0.00000000000E+00  0.00000000000E+00  0.26954149103E+03  0.26954149103E+03  0.00000000000E+00 0.  1.
         21   -1    0    0  502  503 -0.00000000000E+00 -0.00000000000E+00 -0.31964743192E+03  0.31964743192E+03  0.00000000000E+00 0. -1.
          6    1    1    2  501    0  0.14107970348E+03 -0.18802551371E+03 -0.56345956610E+02  0.29725568685E+03  0.17300000000E+03 0. -1.
         -6    1    1    2    0  503 -0.14107970348E+03  0.18802551371E+03  0.62400157201E+01  0.29193323609E+03  0.17300000000E+03 0. -1.
<mgrwt>
<rscale>  2 0.29186654E+03</rscale>
<asrwt>0</asrwt>
<pdfrwt beam="1">  1       21 0.41467922E-01 0.29186654E+03</pdfrwt>
<pdfrwt beam="2">  1       21 0.49176528E-01 0.29186654E+03</pdfrwt>
<totfact> 0.21027972E+04</totfact>
</mgrwt>
</event>
<event>
 4    1  0.4451819E+000  0.1797882E+03  0.7546771E-02  0.1168008E+00
         21   -1    0    0  501  502  0.00000000000E+00  0.00000000000E+00  0.79474225914E+03  0.79474225914E+03  0.00000000000E+00 0.  1.
         21   -1    0    0  502  503 -0.00000000000E+00 -0.00000000000E+00 -0.41158226008E+02  0.41158226008E+02  0.00000000000E+00 0.  1.
          6    1    1    2  501    0  0.45278080434E+02  0.18565411876E+02  0.33136616983E+03  0.37699776868E+03  0.17300000000E+03 0.  1.
         -6    1    1    2    0  503 -0.45278080434E+02 -0.18565411876E+02  0.42221786331E+03  0.45890271647E+03  0.17300000000E+03 0.  1.
<mgrwt>
<rscale>  2 0.17978815E+03</rscale>
<asrwt>0</asrwt>
<pdfrwt beam="1">  1       21 0.12226803E+00 0.17978815E+03</pdfrwt>
<pdfrwt beam="2">  1       21 0.63320353E-02 0.17978815E+03</pdfrwt>
<totfact> 0.91150080E+04</totfact>
</mgrwt>
</event>
<event>
 4    1  0.4451819E+000  0.2239042E+03  0.7546771E-02  0.1131005E+00
         21   -1    0    0  503  502  0.00000000000E+00  0.00000000000E+00  0.16506823164E+03  0.16506823164E+03  0.00000000000E+00 0. -1.
         21   -1    0    0  501  503 -0.00000000000E+00 -0.00000000000E+00 -0.31225001937E+03  0.31225001937E+03  0.00000000000E+00 0. -1.
          6    1    1    2  501    0  0.45317024503E+02  0.13472369970E+03 -0.34125178336E+02  0.22648981383E+03  0.17300000000E+03 0. -1.
         -6    1    1    2    0  502 -0.45317024503E+02 -0.13472369970E+03 -0.11305660940E+03  0.25082843718E+03  0.17300000000E+03 0. -1.
<mgrwt>
<rscale>  2 0.22390424E+03</rscale>
<asrwt>0</asrwt>
<pdfrwt beam="1">  1       21 0.25395112E-01 0.22390424E+03</pdfrwt>
<pdfrwt beam="2">  1       21 0.48038465E-01 0.22390424E+03</pdfrwt>
<totfact> 0.60023176E+04</totfact>
</mgrwt>
</event>
<event>
 4    1  0.4451819E+000  0.1766228E+03  0.7546771E-02  0.1171112E+00
         21   -1    0    0  503  502  0.00000000000E+00  0.00000000000E+00  0.15712652503E+03  0.15712652503E+03  0.00000000000E+00 0. -1.
         21   -1    0    0  501  503 -0.00000000000E+00 -0.00000000000E+00 -0.25823802072E+03  0.25823802072E+03  0.00000000000E+00 0. -1.
          6    1    1    2  501    0  0.33308257927E+02  0.12536362137E+02 -0.15041222571E+03  0.23199016803E+03  0.17300000000E+03 0.  1.
         -6    1    1    2    0  502 -0.33308257927E+02 -0.12536362137E+02  0.49300730024E+02  0.18337437772E+03  0.17300000000E+03 0.  1.
<mgrwt>
<rscale>  2 0.17662276E+03</rscale>
<asrwt>0</asrwt>
<pdfrwt beam="1">  1       21 0.24173312E-01 0.17662276E+03</pdfrwt>
<pdfrwt beam="2">  1       21 0.39728926E-01 0.17662276E+03</pdfrwt>
<totfact> 0.99222429E+04</totfact>
</mgrwt>
</event>
<event>
 4    1  0.4451819E+000  0.2287175E+03  0.7546771E-02  0.1127546E+00
         21   -1    0    0  503  502  0.00000000000E+00  0.00000000000E+00  0.19543307085E+04  0.19543307085E+04  0.00000000000E+00 0.  1.
         21   -1    0    0  501  503 -0.00000000000E+00 -0.00000000000E+00 -0.55084241719E+02  0.55084241719E+02  0.00000000000E+00 0.  1.
          6    1    1    2  501    0  0.14056550768E+03  0.51225216842E+02  0.22926094398E+03  0.32383987591E+03  0.17300000000E+03 0.  1.
         -6    1    1    2    0  502 -0.14056550768E+03 -0.51225216842E+02  0.16699855228E+04  0.16855750743E+04  0.17300000000E+03 0.  1.
<mgrwt>
<rscale>  2 0.22871748E+03</rscale>
<asrwt>0</asrwt>
<pdfrwt beam="1">  1       21 0.30066621E+00 0.22871748E+03</pdfrwt>
<pdfrwt beam="2">  1       21 0.84745002E-02 0.22871748E+03</pdfrwt>
<totfact> 0.35271524E+03</totfact>
</mgrwt>
</event>
<event>
 4    1  0.4451819E+000  0.1795221E+03  0.7546771E-02  0.1168266E+00
         21   -1    0    0  503  502  0.00000000000E+00  0.00000000000E+00  0.68773630541E+02  0.68773630541E+02  0.00000000000E+00 0.  1.
         21   -1    0    0  501  503 -0.00000000000E+00 -0.00000000000E+00 -0.50650237157E+03  0.50650237157E+03  0.00000000000E+00 0.  1.
          6    1    1    2  501    0  0.32653542151E+02 -0.35113049817E+02 -0.29753585140E+03  0.34749929921E+03  0.17300000000E+03 0.  1.
         -6    1    1    2    0  502 -0.32653542151E+02  0.35113049817E+02 -0.14019288963E+03  0.22777670290E+03  0.17300000000E+03 0.  1.
<mgrwt>
<rscale>  2 0.17952209E+03</rscale>
<asrwt>0</asrwt>
<pdfrwt beam="1">  1       21 0.10580558E-01 0.17952209E+03</pdfrwt>
<pdfrwt beam="2">  1       21 0.77923445E-01 0.17952209E+03</pdfrwt>
<totfact> 0.10770481E+05</totfact>
</mgrwt>
</event>
<event>
 4    1  0.4451819E+000  0.2237219E+03  0.7546771E-02  0.1131138E+00
         21   -1    0    0  501  502  0.00000000000E+00  0.00000000000E+00  0.42711804958E+03  0.42711804958E+03  0.00000000000E+00 0. -1.
         21   -1    0    0  502  503 -0.00000000000E+00 -0.00000000000E+00 -0.19620805023E+03  0.19620805023E+03  0.00000000000E+00 0.  1.
          6    1    1    2  501    0 -0.99840929552E+02  0.10076846969E+03  0.31324573353E+03  0.38493426098E+03  0.17300000000E+03 0. -1.
         -6    1    1    2    0  503  0.99840929552E+02 -0.10076846969E+03 -0.82335734181E+02  0.23839183883E+03  0.17300000000E+03 0.  1.
<mgrwt>
<rscale>  2 0.22372192E+03</rscale>
<asrwt>0</asrwt>
<pdfrwt beam="1">  1       21 0.65710469E-01 0.22372192E+03</pdfrwt>
<pdfrwt beam="2">  1       21 0.30185854E-01 0.22372192E+03</pdfrwt>
<totfact> 0.22017052E+04</totfact>
</mgrwt>
</event>
<event>
 4    1  0.4451819E+000  0.2438104E+03  0.7546771E-02  0.1117280E+00
         21   -1    0    0  503  502  0.00000000000E+00  0.00000000000E+00  0.12266889293E+04  0.12266889293E+04  0.00000000000E+00 0.  1.
         21   -1    0    0  501  503 -0.00000000000E+00 -0.00000000000E+00 -0.52996888684E+02  0.52996888684E+02  0.00000000000E+00 0. -1.
          6    1    1    2  501    0 -0.16227622134E+03  0.56399871155E+02  0.39960605578E+03  0.46811165045E+03  0.17300000000E+03 0. -1.
         -6    1    1    2    0  502  0.16227622134E+03 -0.56399871155E+02  0.77408598483E+03  0.81157416752E+03  0.17300000000E+03 0. -1.
<mgrwt>
<rscale>  2 0.24381041E+03</rscale>
<asrwt>0</asrwt>
<pdfrwt beam="1">  1       21 0.18872135E+00 0.24381041E+03</pdfrwt>
<pdfrwt beam="2">  1       21 0.81533684E-02 0.24381041E+03</pdfrwt>
<totfact> 0.17824100E+04</totfact>
</mgrwt>
</event>
<event>
 4    1  0.4451819E+000  0.1899310E+03  0.7546771E-02  0.1158524E+00
         21   -1    0    0  503  502  0.00000000000E+00  0.00000000000E+00  0.40119779749E+02  0.40119779749E+02  0.00000000000E+00 0. -1.
         21   -1    0    0  501  503 -0.00000000000E+00 -0.00000000000E+00 -0.12227713230E+04  0.12227713230E+04  0.00000000000E+00 0. -1.
          6    1    1    2  501    0  0.59506433688E+02  0.51027282156E+02 -0.91617376667E+03  0.93565387292E+03  0.17300000000E+03 0. -1.
         -6    1    1    2    0  502 -0.59506433688E+02 -0.51027282156E+02 -0.26647777658E+03  0.32723722983E+03  0.17300000000E+03 0. -1.
<mgrwt>
<rscale>  2 0.18993104E+03</rscale>
<asrwt>0</asrwt>
<pdfrwt beam="1">  1       21 0.61722746E-02 0.18993104E+03</pdfrwt>
<pdfrwt beam="2">  1       21 0.18811864E+00 0.18993104E+03</pdfrwt>
<totfact> 0.30205412E+04</totfact>
</mgrwt>
</event>
<event>
 4    1  0.4451819E+000  0.1770185E+03  0.7546771E-02  0.1170720E+00
         21   -1    0    0  503  502  0.00000000000E+00  0.00000000000E+00  0.42505727415E+02  0.42505727415E+02  0.00000000000E+00 0.  1.
         21   -1    0    0  501  503 -0.00000000000E+00 -0.00000000000E+00 -0.75212408304E+03  0.75212408304E+03  0.00000000000E+00 0.  1.
          6    1    1    2  501    0  0.29620161982E+02  0.23004184722E+02 -0.41076211805E+03  0.44728186207E+03  0.17300000000E+03 0. -1.
         -6    1    1    2    0  502 -0.29620161982E+02 -0.23004184722E+02 -0.29885623757E+03  0.34734794838E+03  0.17300000000E+03 0. -1.
<mgrwt>
<rscale>  2 0.17701849E+03</rscale>
<asrwt>0</asrwt>
<pdfrwt beam="1">  1       21 0.65393430E-02 0.17701849E+03</pdfrwt>
<pdfrwt beam="2">  1       21 0.11571139E+00 0.17701849E+03</pdfrwt>
<totfact> 0.98899071E+04</totfact>
</mgrwt>
</event>
<event>
 4    1  0.4451819E+000  0.2797192E+03  0.7546771E-02  0.1095842E+00
         21   -1    0    0  501  502  0.00000000000E+00  0.00000000000E+00  0.86338667423E+02  0.86338667423E+02  0.00000000000E+00 0.  1.
         21   -1    0    0  502  503 -0.00000000000E+00 -0.00000000000E+00 -0.91642868626E+03  0.91642868626E+03  0.00000000000E+00 0. -1.
          6    1    1    2  501    0  0.21919270619E+03  0.16382375806E+02 -0.36215667439E+03  0.45760275512E+03  0.17300000000E+03 0.  1.
         -6    1    1    2    0  503 -0.21919270619E+03 -0.16382375806E+02 -0.46793334444E+03  0.54516459856E+03  0.17300000000E+03 0.  1.
<mgrwt>
<rscale>  2 0.27971919E+03</rscale>
<asrwt>0</asrwt>
<pdfrwt beam="1">  1       21 0.13282872E-01 0.27971919E+03</pdfrwt>
<pdfrwt beam="2">  1       21 0.14098903E+00 0.27971919E+03</pdfrwt>
<totfact> 0.16327548E+04</totfact>
</mgrwt>
</event>
<event>
 4    1  0.4451819E+000  0.3094112E+03  0.7546771E-02  0.1080628E+00
         21   -1    0    0  501  502  0.00000000000E+00  0.00000000000E+00  0.92809076312E+03  0.92809076312E+03  0.00000000000E+00 0.  1.
         21   -1    0    0  502  503 -0.00000000000E+00 -0.00000000000E+00 -0.12675498901E+03  0.12675498901E+03  0.00000000000E+00 0. -1.
          6    1    1    2  501    0 -0.17726691348E+03  0.18542575683E+03  0.62825700504E+03  0.70031573900E+03  0.17300000000E+03 0.  1.
         -6    1    1    2    0  503  0.17726691348E+03 -0.18542575683E+03  0.17307876906E+03  0.35453001313E+03  0.17300000000E+03 0. -1.
<mgrwt>
<rscale>  2 0.30941117E+03</rscale>
<asrwt>0</asrwt>
<pdfrwt beam="1">  1       21 0.14278319E+00 0.30941117E+03</pdfrwt>
<pdfrwt beam="2">  1       21 0.19500768E-01 0.30941117E+03</pdfrwt>
<totfact> 0.76503673E+03</totfact>
</mgrwt>
</event>
<event>
 4    1  0.4451819E+000  0.1757309E+03  0.7546771E-02  0.1172000E+00
         21   -1    0    0  501  502  0.00000000000E+00  0.00000000000E+00  0.25109167076E+03  0.25109167076E+03  0.00000000000E+00 0.  1.
         21   -1    0    0  502  503 -0.00000000000E+00 -0.00000000000E+00 -0.16772845496E+03  0.16772845496E+03  0.00000000000E+00 0.  1.
          6    1    1    2  501    0  0.30753738146E+02 -0.25605995138E+01  0.14983563539E+03  0.23093736534E+03  0.17300000000E+03 0.  1.
         -6    1    1    2    0  503 -0.30753738146E+02  0.25605995138E+01 -0.66472419587E+02  0.18788276037E+03  0.17300000000E+03 0.  1.
<mgrwt>
<rscale>  2 0.17573090E+03</rscale>
<asrwt>0</asrwt>
<pdfrwt beam="1">  1       21 0.38629488E-01 0.17573090E+03</pdfrwt>
<pdfrwt beam="2">  1       21 0.25804378E-01 0.17573090E+03</pdfrwt>
<totfact> 0.92734309E+04</totfact>
</mgrwt>
</event>
<event>
 4    1  0.4451819E+000  0.2033827E+03  0.7546771E-02  0.1146916E+00
         21   -1    0    0  501  502  0.00000000000E+00  0.00000000000E+00  0.89556257117E+02  0.89556257117E+02  0.00000000000E+00 0.  1.
         21   -1    0    0  502  503 -0.00000000000E+00 -0.00000000000E+00 -0.48932498548E+03  0.48932498548E+03  0.00000000000E+00 0.  1.
          6    1    1    2  501    0  0.94527603257E+02  0.50000551223E+02 -0.13134064742E+03  0.24210511883E+03  0.17300000000E+03 0.  1.
         -6    1    1    2    0  503 -0.94527603257E+02 -0.50000551223E+02 -0.26842808094E+03  0.33677612376E+03  0.17300000000E+03 0.  1.
<mgrwt>
<rscale>  2 0.20338270E+03</rscale>
<asrwt>0</asrwt>
<pdfrwt beam="1">  1       21 0.13777886E-01 0.20338270E+03</pdfrwt>
<pdfrwt beam="2">  1       21 0.75280767E-01 0.20338270E+03</pdfrwt>
<totfact> 0.71814696E+04</totfact>
</mgrwt>
</event>
<event>
 4    1  0.4451819E+000  0.2384418E+03  0.7546771E-02  0.1120835E+00
         21   -1    0    0  503  502  0.00000000000E+00  0.00000000000E+00  0.11324040558E+04  0.11324040558E+04  0.00000000000E+00 0. -1.
         21   -1    0    0  501  503 -0.00000000000E+00 -0.00000000000E+00 -0.56590972914E+02  0.56590972914E+02  0.00000000000E+00 0.  1.
          6    1    1    2  501    0 -0.17300502342E+01  0.16408080115E+03  0.33823083650E+03  0.41382919319E+03  0.17300000000E+03 0.  1.
         -6    1    1    2    0  502  0.17300502342E+01 -0.16408080115E+03  0.73758224642E+03  0.77516583556E+03  0.17300000000E+03 0. -1.
<mgrwt>
<rscale>  2 0.23844182E+03</rscale>
<asrwt>0</asrwt>
<pdfrwt beam="1">  1       21 0.17421599E+00 0.23844182E+03</pdfrwt>
<pdfrwt beam="2">  1       21 0.87063043E-02 0.23844182E+03</pdfrwt>
<totfact> 0.20027696E+04</totfact>
</mgrwt>
</event>
<event>
 4    1  0.4451819E+000  0.3214268E+03  0.7546771E-02  0.1074995E+00
         21   -1    0    0  501  502  0.00000000000E+00  0.00000000000E+00  0.34332264769E+03  0.34332264769E+03  0.00000000000E+00 0.  1.
         21   -1    0    0  502  503 -0.00000000000E+00 -0.00000000000E+00 -0.30495480668E+03  0.30495480668E+03  0.00000000000E+00 0. -1.
          6    1    1    2  501    0 -0.26966988889E+03 -0.25774884346E+02  0.56433864523E+02  0.32634333868E+03  0.17300000000E+03 0.  1.
         -6    1    1    2    0  503  0.26966988889E+03  0.25774884346E+02 -0.18066023516E+02  0.32193411569E+03  0.17300000000E+03 0. -1.
<mgrwt>
<rscale>  2 0.32142681E+03</rscale>
<asrwt>0</asrwt>
<pdfrwt beam="1">  1       21 0.52818869E-01 0.32142681E+03</pdfrwt>
<pdfrwt beam="2">  1       21 0.46916124E-01 0.32142681E+03</pdfrwt>
<totfact> 0.13835724E+04</totfact>
</mgrwt>
</event>
<event>
 4    1  0.4451819E+000  0.1926376E+03  0.7546771E-02  0.1156104E+00
         21   -1    0    0  503  502  0.00000000000E+00  0.00000000000E+00  0.60841022721E+03  0.60841022721E+03  0.00000000000E+00 0. -1.
         21   -1    0    0  501  503 -0.00000000000E+00 -0.00000000000E+00 -0.10286052884E+03  0.10286052884E+03  0.00000000000E+00 0. -1.
          6    1    1    2  501    0 -0.27684230969E+02 -0.80086315353E+02  0.47966479013E+03  0.51690187216E+03  0.17300000000E+03 0. -1.
         -6    1    1    2    0  502  0.27684230969E+02  0.80086315353E+02  0.25884908239E+02  0.19436888389E+03  0.17300000000E+03 0. -1.
<mgrwt>
<rscale>  2 0.19263757E+03</rscale>
<asrwt>0</asrwt>
<pdfrwt beam="1">  1       21 0.93601572E-01 0.19263757E+03</pdfrwt>
<pdfrwt beam="2">  1       21 0.15824697E-01 0.19263757E+03</pdfrwt>
<totfact> 0.34122430E+04</totfact>
</mgrwt>
</event>
<event>
 4    1  0.4451819E+000  0.2182884E+03  0.7546771E-02  0.1135166E+00
         21   -1    0    0  503  502  0.00000000000E+00  0.00000000000E+00  0.17360593814E+04  0.17360593814E+04  0.00000000000E+00 0.  1.
         21   -1    0    0  501  503 -0.00000000000E+00 -0.00000000000E+00 -0.31458740116E+02  0.31458740116E+02  0.00000000000E+00 0.  1.
          6    1    1    2  501    0  0.13187306783E+03  0.18174173870E+02  0.53670987172E+03  0.57940253108E+03  0.17300000000E+03 0.  1.
         -6    1    1    2    0  502 -0.13187306783E+03 -0.18174173870E+02  0.11678907695E+04  0.11881155904E+04  0.17300000000E+03 0.  1.
<mgrwt>
<rscale>  2 0.21828836E+03</rscale>
<asrwt>0</asrwt>
<pdfrwt beam="1">  1       21 0.26708598E+00 0.21828836E+03</pdfrwt>
<pdfrwt beam="2">  1       21 0.48398075E-02 0.21828836E+03</pdfrwt>
<totfact> 0.14676104E+04</totfact>
</mgrwt>
</event>
<event>
 4    1  0.4451819E+000  0.2116181E+03  0.7546771E-02  0.1140291E+00
         21   -1    0    0  501  502  0.00000000000E+00  0.00000000000E+00  0.10846549059E+04  0.10846549059E+04  0.00000000000E+00 0. -1.
         21   -1    0    0  502  503 -0.00000000000E+00 -0.00000000000E+00 -0.52001019065E+02  0.52001019065E+02  0.00000000000E+00 0.  1.
          6    1    1    2  501    0  0.10146489987E+03 -0.67513511427E+02  0.25835747210E+03  0.33396224865E+03  0.17300000000E+03 0.  1.
         -6    1    1    2    0  503 -0.10146489987E+03  0.67513511427E+02  0.77429641477E+03  0.80269367635E+03  0.17300000000E+03 0. -1.
<mgrwt>
<rscale>  2 0.21161805E+03</rscale>
<asrwt>0</asrwt>
<pdfrwt beam="1">  1       21 0.16686997E+00 0.21161805E+03</pdfrwt>
<pdfrwt beam="2">  1       21 0.80001576E-02 0.21161805E+03</pdfrwt>
<totfact> 0.26611008E+04</totfact>
</mgrwt>
</event>
<event>
 4    1  0.4451819E+000  0.1921500E+03  0.7546771E-02  0.1156536E+00
         21   -1    0    0  501  502  0.00000000000E+00  0.00000000000E+00  0.92831261603E+02  0.92831261603E+02  0.00000000000E+00 0.  1.
         21   -1    0    0  502  503 -0.00000000000E+00 -0.00000000000E+00 -0.45118710554E+03  0.45118710554E+03  0.00000000000E+00 0.  1.
          6    1    1    2  501    0 -0.31108762024E+02  0.77619950472E+02 -0.85547882575E+02  0.21033319281E+03  0.17300000000E+03 0.  1.
         -6    1    1    2    0  503  0.31108762024E+02 -0.77619950472E+02 -0.27280796136E+03  0.33368517433E+03  0.17300000000E+03 0.  1.
<mgrwt>
<rscale>  2 0.19214997E+03</rscale>
<asrwt>0</asrwt>
<pdfrwt beam="1">  1       21 0.14281732E-01 0.19214997E+03</pdfrwt>
<pdfrwt beam="2">  1       21 0.69413401E-01 0.19214997E+03</pdfrwt>
<totfact> 0.80974295E+04</totfact>
</mgrwt>
</event>
<event>
 4    1  0.4451819E+000  0.1800234E+03  0.7546771E-02  0.1167780E+00
         21   -1    0    0  503  502  0.00000000000E+00  0.00000000000E+00  0.44243250438E+03  0.44243250438E+03  0.00000000000E+00 0. -1.
         21   -1    0    0  501  503 -0.00000000000E+00 -0.00000000000E+00 -0.13764095476E+03  0.13764095476E+03  0.00000000000E+00 0. -1.
          6    1    1    2  501    0  0.89766144481E+01 -0.48977979659E+02 -0.45980511292E+02  0.18580266284E+03  0.17300000000E+03 0. -1.
         -6    1    1    2    0  502 -0.89766144481E+01  0.48977979659E+02  0.35077206091E+03  0.39427079630E+03  0.17300000000E+03 0. -1.
<mgrwt>
<rscale>  2 0.18002339E+03</rscale>
<asrwt>0</asrwt>
<pdfrwt beam="1">  1       21 0.68066538E-01 0.18002339E+03</pdfrwt>
<pdfrwt beam="2">  1       21 0.21175532E-01 0.18002339E+03</pdfrwt>
<totfact> 0.41134631E+04</totfact>
</mgrwt>
</event>
<event>
 4    1  0.4451819E+000  0.1854885E+03  0.7546771E-02  0.1162594E+00
         21   -1    0    0  503  502  0.00000000000E+00  0.00000000000E+00  0.20998066277E+03  0.20998066277E+03  0.00000000000E+00 0. -1.
         21   -1    0    0  501  503 -0.00000000000E+00 -0.00000000000E+00 -0.16575731923E+03  0.16575731923E+03  0.00000000000E+00 0. -1.
          6    1    1    2  501    0 -0.59791050653E+02  0.30033716481E+02  0.19757707829E+01  0.18549904995E+03  0.17300000000E+03 0. -1.
         -6    1    1    2    0  502  0.59791050653E+02 -0.30033716481E+02  0.42247572758E+02  0.19023893205E+03  0.17300000000E+03 0. -1.
<mgrwt>
<rscale>  2 0.18548853E+03</rscale>
<asrwt>0</asrwt>
<pdfrwt beam="1">  1       21 0.32304717E-01 0.18548853E+03</pdfrwt>
<pdfrwt beam="2">  1       21 0.25501126E-01 0.18548853E+03</pdfrwt>
<totfact> 0.13476308E+05</totfact>
</mgrwt>
</event>
<event>
 4    1  0.4451819E+000  0.1911620E+03  0.7546771E-02  0.1157417E+00
         21   -1    0    0  503  502  0.00000000000E+00  0.00000000000E+00  0.43648445446E+03  0.43648445446E+03  0.00000000000E+00 0.  1.
         21   -1    0    0  501  503 -0.00000000000E+00 -0.00000000000E+00 -0.18136845432E+03  0.18136845432E+03  0.00000000000E+00 0.  1.
          6    1    1    2  501    0  0.80568903898E+02 -0.11071255501E+02 -0.99117538631E+02  0.21533046101E+03  0.17300000000E+03 0.  1.
         -6    1    1    2    0  502 -0.80568903898E+02  0.11071255501E+02  0.35423353877E+03  0.40252244777E+03  0.17300000000E+03 0.  1.
<mgrwt>
<rscale>  2 0.19116203E+03</rscale>
<asrwt>0</asrwt>
<pdfrwt beam="1">  1       21 0.67151454E-01 0.19116203E+03</pdfrwt>
<pdfrwt beam="2">  1       21 0.27902839E-01 0.19116203E+03</pdfrwt>
<totfact> 0.24920939E+04</totfact>
</mgrwt>
</event>
<event>
 4    1  0.4451819E+000  0.1864023E+03  0.7546771E-02  0.1161747E+00
         21   -1    0    0  501  502  0.00000000000E+00  0.00000000000E+00  0.80001035049E+03  0.80001035049E+03  0.00000000000E+00 0. -1.
         21   -1    0    0  502  503 -0.00000000000E+00 -0.00000000000E+00 -0.55473412119E+02  0.55473412119E+02  0.00000000000E+00 0. -1.
          6    1    1    2  501    0 -0.14816887828E+02 -0.67803264678E+02  0.17297954849E+03  0.25429853925E+03  0.17300000000E+03 0. -1.
         -6    1    1    2    0  503  0.14816887828E+02  0.67803264678E+02  0.57155738988E+03  0.60118522337E+03  0.17300000000E+03 0. -1.
<mgrwt>
<rscale>  2 0.18640231E+03</rscale>
<asrwt>0</asrwt>
<pdfrwt beam="1">  1       21 0.12307851E+00 0.18640231E+03</pdfrwt>
<pdfrwt beam="2">  1       21 0.85343717E-02 0.18640231E+03</pdfrwt>
<totfact> 0.53327239E+04</totfact>
</mgrwt>
</event>
<event>
 4    1  0.4451819E+000  0.1852363E+03  0.7546771E-02  0.1162829E+00
         21   -1    0    0  501  502  0.00000000000E+00  0.00000000000E+00  0.19824764404E+03  0.19824764404E+03  0.00000000000E+00 0.  1.
         21   -1    0    0  502  503 -0.00000000000E+00 -0.00000000000E+00 -0.29205508045E+03  0.29205508045E+03  0.00000000000E+00 0.  1.
          6    1    1    2  501    0 -0.57309769669E+02 -0.33152299015E+02  0.10956658892E+03  0.21521459532E+03  0.17300000000E+03 0.  1.
         -6    1    1    2    0  503  0.57309769669E+02  0.33152299015E+02 -0.20337402534E+03  0.27508812917E+03  0.17300000000E+03 0.  1.
<mgrwt>
<rscale>  2 0.18523629E+03</rscale>
<asrwt>0</asrwt>
<pdfrwt beam="1">  1       21 0.30499637E-01 0.18523629E+03</pdfrwt>
<pdfrwt beam="2">  1       21 0.44931551E-01 0.18523629E+03</pdfrwt>
<totfact> 0.49218986E+04</totfact>
</mgrwt>
</event>
<event>
 4    1  0.4451819E+000  0.1813949E+03  0.7546771E-02  0.1166460E+00
         21   -1    0    0  503  502  0.00000000000E+00  0.00000000000E+00  0.90303888578E+03  0.90303888578E+03  0.00000000000E+00 0.  1.
         21   -1    0    0  501  503 -0.00000000000E+00 -0.00000000000E+00 -0.13535099088E+03  0.13535099088E+03  0.00000000000E+00 0.  1.
          6    1    1    2  501    0  0.13164790456E+02 -0.52932053466E+02 -0.59998038976E+02  0.19105988243E+03  0.17300000000E+03 0.  1.
         -6    1    1    2    0  502 -0.13164790456E+02  0.52932053466E+02  0.82768593388E+03  0.84732999424E+03  0.17300000000E+03 0.  1.
<mgrwt>
<rscale>  2 0.18139491E+03</rscale>
<asrwt>0</asrwt>
<pdfrwt beam="1">  1       21 0.13892906E+00 0.18139491E+03</pdfrwt>
<pdfrwt beam="2">  1       21 0.20823230E-01 0.18139491E+03</pdfrwt>
<totfact> 0.78816528E+03</totfact>
</mgrwt>
</event>
<event>
 4    1  0.4451819E+000  0.3390556E+03  0.7546771E-02  0.1067199E+00
         21   -1    0    0  503  502  0.00000000000E+00  0.00000000000E+00  0.57646586064E+03  0.57646586064E+03  0.00000000000E+00 0. -1.
         21   -1    0    0  501  503 -0.00000000000E+00 -0.00000000000E+00 -0.45395152895E+03  0.45395152895E+03  0.00000000000E+00 0.  1.
          6    1    1    2  501    0 -0.56116618941E+02  0.28614786605E+03 -0.32453148816E+03  0.46933928343E+03  0.17300000000E+03 0.  1.
         -6    1    1    2    0  502  0.56116618941E+02 -0.28614786605E+03  0.44704581984E+03  0.56107810616E+03  0.17300000000E+03 0. -1.
<mgrwt>
<rscale>  2 0.33905557E+03</rscale>
<asrwt>0</asrwt>
<pdfrwt beam="1">  1       21 0.88687055E-01 0.33905557E+03</pdfrwt>
<pdfrwt beam="2">  1       21 0.69838697E-01 0.33905557E+03</pdfrwt>
<totfact> 0.18298890E+03</totfact>
</mgrwt>
</event>
<event>
 4    1  0.4451819E+000  0.2445921E+03  0.7546771E-02  0.1116771E+00
         21   -1    0    0  501  502  0.00000000000E+00  0.00000000000E+00  0.29926104091E+02  0.29926104091E+02  0.00000000000E+00 0.  1.
         21   -1    0    0  502  503 -0.00000000000E+00 -0.00000000000E+00 -0.20199570530E+04  0.20199570530E+04  0.00000000000E+00 0. -1.
          6    1    1    2  501    0  0.14644279802E+03 -0.91928161332E+02 -0.89086705347E+03  0.92383406892E+03  0.17300000000E+03 0.  1.
         -6    1    1    2    0  503 -0.14644279802E+03  0.91928161332E+02 -0.10991638954E+04  0.11260490882E+04  0.17300000000E+03 0. -1.
<mgrwt>
<rscale>  2 0.24459207E+03</rscale>
<asrwt>0</asrwt>
<pdfrwt beam="1">  1       21 0.46040152E-02 0.24459207E+03</pdfrwt>
<pdfrwt beam="2">  1       21 0.31076268E+00 0.24459207E+03</pdfrwt>
<totfact> 0.86888448E+03</totfact>
</mgrwt>
</event>
<event>
 4    1  0.4451819E+000  0.2062721E+03  0.7546771E-02  0.1144553E+00
         21   -1    0    0  503  502  0.00000000000E+00  0.00000000000E+00  0.33618640412E+03  0.33618640412E+03  0.00000000000E+00 0. -1.
         21   -1    0    0  501  503 -0.00000000000E+00 -0.00000000000E+00 -0.23753468955E+03  0.23753468955E+03  0.00000000000E+00 0.  1.
          6    1    1    2  501    0 -0.84798224088E+02 -0.73677910834E+02 -0.14674670009E+03  0.25314574328E+03  0.17300000000E+03 0.  1.
         -6    1    1    2    0  502  0.84798224088E+02  0.73677910834E+02  0.24539841466E+03  0.32057535038E+03  0.17300000000E+03 0. -1.
<mgrwt>
<rscale>  2 0.20627209E+03</rscale>
<asrwt>0</asrwt>
<pdfrwt beam="1">  1       21 0.51720985E-01 0.20627209E+03</pdfrwt>
<pdfrwt beam="2">  1       21 0.36543799E-01 0.20627209E+03</pdfrwt>
<totfact> 0.25440110E+04</totfact>
</mgrwt>
</event>
<event>
 4    1  0.4451819E+000  0.2362998E+03  0.7546771E-02  0.1122283E+00
         21   -1    0    0  503  502  0.00000000000E+00  0.00000000000E+00  0.25759109378E+03  0.25759109378E+03  0.00000000000E+00 0.  1.
         21   -1    0    0  501  503 -0.00000000000E+00 -0.00000000000E+00 -0.22319687307E+03  0.22319687307E+03  0.00000000000E+00 0. -1.
          6    1    1    2  501    0 -0.11826322069E+03  0.10918981671E+03 -0.23600427629E+02  0.23747544215E+03  0.17300000000E+03 0.  1.
         -6    1    1    2    0  502  0.11826322069E+03 -0.10918981671E+03  0.57994648339E+02  0.24331252470E+03  0.17300000000E+03 0.  1.
<mgrwt>
<rscale>  2 0.23629982E+03</rscale>
<asrwt>0</asrwt>
<pdfrwt beam="1">  1       21 0.39629399E-01 0.23629982E+03</pdfrwt>
<pdfrwt beam="2">  1       21 0.34337981E-01 0.23629982E+03</pdfrwt>
<totfact> 0.49170054E+04</totfact>
</mgrwt>
</event>
<event>
 4    1  0.4451819E+000  0.1906651E+03  0.7546771E-02  0.1157863E+00
         21   -1    0    0  503  502  0.00000000000E+00  0.00000000000E+00  0.47883301286E+02  0.47883301286E+02  0.00000000000E+00 0. -1.
         21   -1    0    0  501  503 -0.00000000000E+00 -0.00000000000E+00 -0.12304979342E+04  0.12304979342E+04  0.00000000000E+00 0.  1.
          6    1    1    2  501    0 -0.60480483623E+02  0.52595614392E+02 -0.98688878008E+03  0.10051381257E+04  0.17300000000E+03 0.  1.
         -6    1    1    2    0  502  0.60480483623E+02 -0.52595614392E+02 -0.19572585278E+03  0.27324310970E+03  0.17300000000E+03 0. -1.
<mgrwt>
<rscale>  2 0.19066512E+03</rscale>
<asrwt>0</asrwt>
<pdfrwt beam="1">  1       21 0.73666625E-02 0.19066512E+03</pdfrwt>
<pdfrwt beam="2">  1       21 0.18930735E+00 0.19066512E+03</pdfrwt>
<totfact> 0.21859049E+04</totfact>
</mgrwt>
</event>
<event>
 4    1  0.4451819E+000  0.3064715E+03  0.7546771E-02  0.1082050E+00
         21   -1    0    0  501  502  0.00000000000E+00  0.00000000000E+00  0.19800126284E+03  0.19800126284E+03  0.00000000000E+00 0. -1.
         21   -1    0    0  502  503 -0.00000000000E+00 -0.00000000000E+00 -0.48086731473E+03  0.48086731473E+03  0.00000000000E+00 0. -1.
          6    1    1    2  501    0 -0.24935732858E+03  0.42622455286E+02 -0.18090573946E+03  0.35588149374E+03  0.17300000000E+03 0. -1.
         -6    1    1    2    0  503  0.24935732858E+03 -0.42622455286E+02 -0.10196031243E+03  0.32298708383E+03  0.17300000000E+03 0. -1.
<mgrwt>
<rscale>  2 0.30647145E+03</rscale>
<asrwt>0</asrwt>
<pdfrwt beam="1">  1       21 0.30461733E-01 0.30647145E+03</pdfrwt>
<pdfrwt beam="2">  1       21 0.73979586E-01 0.30647145E+03</pdfrwt>
<totfact> 0.15993970E+04</totfact>
</mgrwt>
</event>
<event>
 4    1  0.4451819E+000  0.2746696E+03  0.7546771E-02  0.1098636E+00
         21   -1    0    0  501  502  0.00000000000E+00  0.00000000000E+00  0.17074740744E+03  0.17074740744E+03  0.00000000000E+00 0.  1.
         21   -1    0    0  502  503 -0.00000000000E+00 -0.00000000000E+00 -0.61421514672E+03  0.61421514672E+03  0.00000000000E+00 0. -1.
          6    1    1    2  501    0  0.13393205077E+02  0.21292019335E+03 -0.13815237624E+02  0.27501681307E+03  0.17300000000E+03 0.  1.
         -6    1    1    2    0  503 -0.13393205077E+02 -0.21292019335E+03 -0.42965250166E+03  0.50994574109E+03  0.17300000000E+03 0. -1.
<mgrwt>
<rscale>  2 0.27466960E+03</rscale>
<asrwt>0</asrwt>
<pdfrwt beam="1">  1       21 0.26268832E-01 0.27466960E+03</pdfrwt>
<pdfrwt beam="2">  1       21 0.94494637E-01 0.27466960E+03</pdfrwt>
<totfact> 0.12321005E+04</totfact>
</mgrwt>
</event>
<event>
 4    1  0.4451819E+000  0.2066814E+03  0.7546771E-02  0.1144221E+00
         21   -1    0    0  501  502  0.00000000000E+00  0.00000000000E+00  0.67248699084E+03  0.67248699084E+03  0.00000000000E+00 0. -1.
         21   -1    0    0  502  503 -0.00000000000E+00 -0.00000000000E+00 -0.13992451470E+03  0.13992451470E+03  0.00000000000E+00 0.  1.
          6    1    1    2  501    0 -0.19155769795E+02 -0.11145070155E+03  0.56644286687E+03  0.60297157796E+03  0.17300000000E+03 0. -1.
         -6    1    1    2    0  503  0.19155769795E+02  0.11145070155E+03 -0.33880390727E+02  0.20943992759E+03  0.17300000000E+03 0.  1.
<mgrwt>
<rscale>  2 0.20668140E+03</rscale>
<asrwt>0</asrwt>
<pdfrwt beam="1">  1       21 0.10345953E+00 0.20668140E+03</pdfrwt>
<pdfrwt beam="2">  1       21 0.21526849E-01 0.20668140E+03</pdfrwt>
<totfact> 0.15083356E+04</totfact>
</mgrwt>
</event>
<event>
 4    1  0.4451819E+000  0.1818421E+03  0.7546771E-02  0.1166032E+00
         21   -1    0    0  501  502  0.00000000000E+00  0.00000000000E+00  0.16011192078E+02  0.16011192078E+02  0.00000000000E+00 0. -1.
         21   -1    0    0  502  503 -0.00000000000E+00 -0.00000000000E+00 -0.20689247235E+04  0.20689247235E+04  0.00000000000E+00 0.  1.
          6    1    1    2  501    0  0.53214621867E+02  0.17485729455E+02 -0.10706024188E+04  0.10859355809E+04  0.17300000000E+03 0.  1.
         -6    1    1    2    0  503 -0.53214621867E+02 -0.17485729455E+02 -0.98231111260E+03  0.99900033466E+03  0.17300000000E+03 0. -1.
<mgrwt>
<rscale>  2 0.18184209E+03</rscale>
<asrwt>0</asrwt>
<pdfrwt beam="1">  1       21 0.24632605E-02 0.18184209E+03</pdfrwt>
<pdfrwt beam="2">  1       21 0.31829609E+00 0.18184209E+03</pdfrwt>
<totfact> 0.23711914E+04</totfact>
</mgrwt>
</event>
<event>
 4    1  0.4451819E+000  0.2195012E+03  0.7546771E-02  0.1134255E+00
         21   -1    0    0  503  502  0.00000000000E+00  0.00000000000E+00  0.10524879244E+03  0.10524879244E+03  0.00000000000E+00 0.  1.
         21   -1    0    0  501  503 -0.00000000000E+00 -0.00000000000E+00 -0.61466763876E+03  0.61466763876E+03  0.00000000000E+00 0.  1.
          6    1    1    2  501    0 -0.11202732962E+03  0.75509271280E+02 -0.43656496347E+03  0.48864070641E+03  0.17300000000E+03 0.  1.
         -6    1    1    2    0  502  0.11202732962E+03 -0.75509271280E+02 -0.72853882847E+02  0.23127572479E+03  0.17300000000E+03 0.  1.
<mgrwt>
<rscale>  2 0.21950119E+03</rscale>
<asrwt>0</asrwt>
<pdfrwt beam="1">  1       21 0.16192122E-01 0.21950119E+03</pdfrwt>
<pdfrwt beam="2">  1       21 0.94564251E-01 0.21950119E+03</pdfrwt>
<totfact> 0.31477415E+04</totfact>
</mgrwt>
</event>
<event>
 4    1  0.4451819E+000  0.2842294E+03  0.7546771E-02  0.1093401E+00
         21   -1    0    0  503  502  0.00000000000E+00  0.00000000000E+00  0.74454843666E+02  0.74454843666E+02  0.00000000000E+00 0.  1.
         21   -1    0    0  501  503 -0.00000000000E+00 -0.00000000000E+00 -0.13042886614E+04  0.13042886614E+04  0.00000000000E+00 0. -1.
          6    1    1    2  501    0  0.90992564235E+02 -0.20634370088E+03 -0.89755885539E+03  0.94148726413E+03  0.17300000000E+03 0. -1.
         -6    1    1    2    0  502 -0.90992564235E+02  0.20634370088E+03 -0.33227496238E+03  0.43725624097E+03  0.17300000000E+03 0.  1.
<mgrwt>
<rscale>  2 0.28422943E+03</rscale>
<asrwt>0</asrwt>
<pdfrwt beam="1">  1       21 0.11454591E-01 0.28422943E+03</pdfrwt>
<pdfrwt beam="2">  1       21 0.20065980E+00 0.28422943E+03</pdfrwt>
<totfact> 0.79314745E+03</totfact>
</mgrwt>
</event>
<event>
 4    1  0.4451819E+000  0.1738861E+03  0.7546771E-02  0.1173855E+00
         21   -1    0    0  501  502  0.00000000000E+00  0.00000000000E+00  0.67258287545E+03  0.67258287545E+03  0.00000000000E+00 0. -1.
         21   -1    0    0  502  503 -0.00000000000E+00 -0.00000000000E+00 -0.46850782100E+02  0.46850782100E+02  0.00000000000E+00 0.  1.
          6    1    1    2  501    0 -0.11439047166E+02 -0.13286764613E+02  0.38521360097E+03  0.42264158371E+03  0.17300000000E+03 0. -1.
         -6    1    1    2    0  503  0.11439047166E+02  0.13286764613E+02  0.24051849239E+03  0.29679207384E+03  0.17300000000E+03 0.  1.
<mgrwt>
<rscale>  2 0.17388614E+03</rscale>
<asrwt>0</asrwt>
<pdfrwt beam="1">  1       21 0.10347428E+00 0.17388614E+03</pdfrwt>
<pdfrwt beam="2">  1       21 0.72078131E-02 0.17388614E+03</pdfrwt>
<totfact> 0.10965624E+05</totfact>
</mgrwt>
</event>
<event>
 4    1  0.4451819E+000  0.1844253E+03  0.7546771E-02  0.1163588E+00
         21   -1    0    0  501  502  0.00000000000E+00  0.00000000000E+00  0.83351042137E+03  0.83351042137E+03  0.00000000000E+00 0. -1.
         21   -1    0    0  502  503 -0.00000000000E+00 -0.00000000000E+00 -0.47680088862E+02  0.47680088862E+02  0.00000000000E+00 0. -1.
          6    1    1    2  501    0  0.41668129119E+02 -0.48450425541E+02  0.56020200947E+03  0.58977874506E+03  0.17300000000E+03 0. -1.
         -6    1    1    2    0  503 -0.41668129119E+02  0.48450425541E+02  0.22562832304E+03  0.29141176517E+03  0.17300000000E+03 0. -1.
<mgrwt>
<rscale>  2 0.18442526E+03</rscale>
<asrwt>0</asrwt>
<pdfrwt beam="1">  1       21 0.12823236E+00 0.18442526E+03</pdfrwt>
<pdfrwt beam="2">  1       21 0.73353989E-02 0.18442526E+03</pdfrwt>
<totfact> 0.62674161E+04</totfact>
</mgrwt>
</event>
<event>
 4    1  0.4451819E+000  0.1950129E+03  0.7546771E-02  0.1154016E+00
         21   -1    0    0  503  502  0.00000000000E+00  0.00000000000E+00  0.24921859527E+04  0.24921859527E+04  0.00000000000E+00 0. -1.
         21   -1    0    0  501  503 -0.00000000000E+00 -0.00000000000E+00 -0.15408604753E+02  0.15408604753E+02  0.00000000000E+00 0.  1.
          6    1    1    2  501    0 -0.89127772794E+02 -0.12540379970E+02  0.11151368115E+04  0.11320601262E+04  0.17300000000E+03 0.  1.
         -6    1    1    2    0  502  0.89127772794E+02  0.12540379970E+02  0.13616405364E+04  0.13755344312E+04  0.17300000000E+03 0. -1.
<mgrwt>
<rscale>  2 0.19501287E+03</rscale>
<asrwt>0</asrwt>
<pdfrwt beam="1">  1       21 0.38341290E+00 0.19501287E+03</pdfrwt>
<pdfrwt beam="2">  1       21 0.23705566E-02 0.19501287E+03</pdfrwt>
<totfact> 0.10248216E+04</totfact>
</mgrwt>
</event>
<event>
 4    1  0.4451819E+000  0.2452122E+03  0.7546771E-02  0.1116369E+00
         21   -1    0    0  501  502  0.00000000000E+00  0.00000000000E+00  0.13865392377E+04  0.13865392377E+04  0.00000000000E+00 0. -1.
         21   -1    0    0  502  503 -0.00000000000E+00 -0.00000000000E+00 -0.54395852981E+02  0.54395852981E+02  0.00000000000E+00 0.  1.
          6    1    1    2  501    0 -0.25177923946E+02 -0.17194795125E+03  0.99049436865E+03  0.10203960604E+04  0.17300000000E+03 0. -1.
         -6    1    1    2    0  503  0.25177923946E+02  0.17194795125E+03  0.34164901608E+03  0.42053903028E+03  0.17300000000E+03 0.  1.
<mgrwt>
<rscale>  2 0.24521221E+03</rscale>
<asrwt>0</asrwt>
<pdfrwt beam="1">  1       21 0.21331370E+00 0.24521221E+03</pdfrwt>
<pdfrwt beam="2">  1       21 0.83685938E-02 0.24521221E+03</pdfrwt>
<totfact> 0.11786461E+04</totfact>
</mgrwt>
</event>
<event>
 4    1  0.4451819E+000  0.1795627E+03  0.7546771E-02  0.1168227E+00
         21   -1    0    0  501  502  0.00000000000E+00  0.00000000000E+00  0.45445441780E+02  0.45445441780E+02  0.00000000000E+00 0. -1.
         21   -1    0    0  502  503 -0.00000000000E+00 -0.00000000000E+00 -0.71719922639E+03  0.71719922639E+03  0.00000000000E+00 0. -1.
          6    1    1    2  501    0  0.17769671715E+02  0.44699052353E+02 -0.37542957695E+03  0.41616118724E+03  0.17300000000E+03 0.  1.
         -6    1    1    2    0  503 -0.17769671715E+02 -0.44699052353E+02 -0.29632420766E+03  0.34648348094E+03  0.17300000000E+03 0.  1.
<mgrwt>
<rscale>  2 0.17956271E+03</rscale>
<asrwt>0</asrwt>
<pdfrwt beam="1">  1       21 0.69916068E-02 0.17956271E+03</pdfrwt>
<pdfrwt beam="2">  1       21 0.11033834E+00 0.17956271E+03</pdfrwt>
<totfact> 0.98811035E+04</totfact>
</mgrwt>
</event>
<event>
 4    1  0.4451819E+000  0.2153209E+03  0.7546771E-02  0.1137420E+00
         21   -1    0    0  503  502  0.00000000000E+00  0.00000000000E+00  0.42920834831E+02  0.42920834831E+02  0.00000000000E+00 0.  1.
         21   -1    0    0  501  503 -0.00000000000E+00 -0.00000000000E+00 -0.19063066606E+04  0.19063066606E+04  0.00000000000E+00 0. -1.
          6    1    1    2  501    0 -0.10699775943E+03  0.70608487023E+02 -0.15732779903E+04  0.15879441784E+04  0.17300000000E+03 0. -1.
         -6    1    1    2    0  502  0.10699775943E+03 -0.70608487023E+02 -0.29010783548E+03  0.36128331704E+03  0.17300000000E+03 0.  1.
<mgrwt>
<rscale>  2 0.21532087E+03</rscale>
<asrwt>0</asrwt>
<pdfrwt beam="1">  1       21 0.66032074E-02 0.21532087E+03</pdfrwt>
<pdfrwt beam="2">  1       21 0.29327786E+00 0.21532087E+03</pdfrwt>
<totfact> 0.60926700E+03</totfact>
</mgrwt>
</event>
<event>
 4    1  0.4451819E+000  0.1758949E+03  0.7546771E-02  0.1171836E+00
         21   -1    0    0  501  502  0.00000000000E+00  0.00000000000E+00  0.14396747771E+03  0.14396747771E+03  0.00000000000E+00 0.  1.
         21   -1    0    0  502  503 -0.00000000000E+00 -0.00000000000E+00 -0.24013519572E+03  0.24013519572E+03  0.00000000000E+00 0.  1.
          6    1    1    2  501    0  0.30894034803E+02  0.74551854513E+01  0.14170281881E+02  0.17646477854E+03  0.17300000000E+03 0.  1.
         -6    1    1    2    0  503 -0.30894034803E+02 -0.74551854513E+01 -0.11033799988E+03  0.20763789489E+03  0.17300000000E+03 0.  1.
<mgrwt>
<rscale>  2 0.17589492E+03</rscale>
<asrwt>0</asrwt>
<pdfrwt beam="1">  1       21 0.22148843E-01 0.17589492E+03</pdfrwt>
<pdfrwt beam="2">  1       21 0.36943876E-01 0.17589492E+03</pdfrwt>
<totfact> 0.13544237E+05</totfact>
</mgrwt>
</event>
<event>
 4    1  0.4451819E+000  0.2241750E+03  0.7546771E-02  0.1130808E+00
         21   -1    0    0  501  502  0.00000000000E+00  0.00000000000E+00  0.62137219703E+03  0.62137219703E+03  0.00000000000E+00 0. -1.
         21   -1    0    0  502  503 -0.00000000000E+00 -0.00000000000E+00 -0.88475672412E+02  0.88475672412E+02  0.00000000000E+00 0. -1.
          6    1    1    2  501    0 -0.11076892608E+03  0.89753385354E+02  0.37046559996E+03  0.43301176188E+03  0.17300000000E+03 0. -1.
         -6    1    1    2    0  503  0.11076892608E+03 -0.89753385354E+02  0.16243092465E+03  0.27683610756E+03  0.17300000000E+03 0. -1.
<mgrwt>
<rscale>  2 0.22417499E+03</rscale>
<asrwt>0</asrwt>
<pdfrwt beam="1">  1       21 0.95595720E-01 0.22417499E+03</pdfrwt>
<pdfrwt beam="2">  1       21 0.13611642E-01 0.22417499E+03</pdfrwt>
<totfact> 0.42027803E+04</totfact>
</mgrwt>
</event>
<event>
 4    1  0.4451819E+000  0.2221275E+03  0.7546771E-02  0.1132307E+00
         21   -1    0    0  501  502  0.00000000000E+00  0.00000000000E+00  0.34955008648E+03  0.34955008648E+03  0.00000000000E+00 0.  1.
         21   -1    0    0  502  503 -0.00000000000E+00 -0.00000000000E+00 -0.14635300239E+03  0.14635300239E+03  0.00000000000E+00 0. -1.
          6    1    1    2  501    0  0.13335655632E+03  0.40343951591E+02  0.14832906046E+03  0.26709944912E+03  0.17300000000E+03 0.  1.
         -6    1    1    2    0  503 -0.13335655632E+03 -0.40343951591E+02  0.54868023636E+02  0.22880363975E+03  0.17300000000E+03 0. -1.
<mgrwt>
<rscale>  2 0.22212745E+03</rscale>
<asrwt>0</asrwt>
<pdfrwt beam="1">  1       21 0.53776936E-01 0.22212745E+03</pdfrwt>
<pdfrwt beam="2">  1       21 0.22515847E-01 0.22212745E+03</pdfrwt>
<totfact> 0.59635186E+04</totfact>
</mgrwt>
</event>
<event>
 4    1  0.4451819E+000  0.2251436E+03  0.7546771E-02  0.1130105E+00
         21   -1    0    0  503  502  0.00000000000E+00  0.00000000000E+00  0.45576843888E+03  0.45576843888E+03  0.00000000000E+00 0.  1.
         21   -1    0    0  501  503 -0.00000000000E+00 -0.00000000000E+00 -0.11210329274E+03  0.11210329274E+03  0.00000000000E+00 0.  1.
          6    1    1    2  501    0  0.33454691900E+02  0.14014794423E+03  0.14660067190E+03  0.26866600024E+03  0.17300000000E+03 0.  1.
         -6    1    1    2    0  502 -0.33454691900E+02 -0.14014794423E+03  0.19706447425E+03  0.29920573138E+03  0.17300000000E+03 0.  1.
<mgrwt>
<rscale>  2 0.22514365E+03</rscale>
<asrwt>0</asrwt>
<pdfrwt beam="1">  1       21 0.70118221E-01 0.22514365E+03</pdfrwt>
<pdfrwt beam="2">  1       21 0.17246661E-01 0.22514365E+03</pdfrwt>
<totfact> 0.55243542E+04</totfact>
</mgrwt>
</event>
<event>
 4    1  0.4451819E+000  0.2126457E+03  0.7546771E-02  0.1139488E+00
         21   -1    0    0  501  502  0.00000000000E+00  0.00000000000E+00  0.65139426231E+03  0.65139426231E+03  0.00000000000E+00 0.  1.
         21   -1    0    0  502  503 -0.00000000000E+00 -0.00000000000E+00 -0.11607995464E+03  0.11607995464E+03  0.00000000000E+00 0.  1.
          6    1    1    2  501    0 -0.65608866649E+02  0.10480786298E+03  0.51095519635E+03  0.55343782325E+03  0.17300000000E+03 0.  1.
         -6    1    1    2    0  503  0.65608866649E+02 -0.10480786298E+03  0.24359111326E+02  0.21403639371E+03  0.17300000000E+03 0.  1.
<mgrwt>
<rscale>  2 0.21264574E+03</rscale>
<asrwt>0</asrwt>
<pdfrwt beam="1">  1       21 0.10021450E+00 0.21264574E+03</pdfrwt>
<pdfrwt beam="2">  1       21 0.17858455E-01 0.21264574E+03</pdfrwt>
<totfact> 0.22993971E+04</totfact>
</mgrwt>
</event>
<event>
 4    1  0.4451819E+000  0.1898943E+03  0.7546771E-02  0.1158557E+00
         21   -1    0    0  503  502  0.00000000000E+00  0.00000000000E+00  0.27858468196E+03  0.27858468196E+03  0.00000000000E+00 0.  1.
         21   -1    0    0  501  503 -0.00000000000E+00 -0.00000000000E+00 -0.13337997492E+03  0.13337997492E+03  0.00000000000E+00 0.  1.
          6    1    1    2  501    0 -0.41126417136E+02 -0.66629359328E+02  0.37197682852E+02  0.19350328504E+03  0.17300000000E+03 0.  1.
         -6    1    1    2    0  502  0.41126417136E+02  0.66629359328E+02  0.10800702419E+03  0.21846137184E+03  0.17300000000E+03 0.  1.
<mgrwt>
<rscale>  2 0.18989432E+03</rscale>
<asrwt>0</asrwt>
<pdfrwt beam="1">  1       21 0.42859182E-01 0.18989432E+03</pdfrwt>
<pdfrwt beam="2">  1       21 0.20519996E-01 0.18989432E+03</pdfrwt>
<totfact> 0.11530956E+05</totfact>
</mgrwt>
</event>
<event>
 4    1  0.4451819E+000  0.2166938E+03  0.7546771E-02  0.1136372E+00
         21   -1    0    0  501  502  0.00000000000E+00  0.00000000000E+00  0.31848919570E+03  0.31848919570E+03  0.00000000000E+00 0. -1.
         21   -1    0    0  502  503 -0.00000000000E+00 -0.00000000000E+00 -0.15285720437E+03  0.15285720437E+03  0.00000000000E+00 0. -1.
          6    1    1    2  501    0 -0.75504091854E+02 -0.10642526700E+03  0.38425855147E+02  0.22007442306E+03  0.17300000000E+03 0. -1.
         -6    1    1    2    0  503  0.75504091854E+02  0.10642526700E+03  0.12720613619E+03  0.25127197700E+03  0.17300000000E+03 0. -1.
<mgrwt>
<rscale>  2 0.21669381E+03</rscale>
<asrwt>0</asrwt>
<pdfrwt beam="1">  1       21 0.48998337E-01 0.21669381E+03</pdfrwt>
<pdfrwt beam="2">  1       21 0.23516493E-01 0.21669381E+03</pdfrwt>
<totfact> 0.66914935E+04</totfact>
</mgrwt>
</event>
<event>
 4    1  0.4451819E+000  0.2572802E+03  0.7546771E-02  0.1108788E+00
         21   -1    0    0  501  502  0.00000000000E+00  0.00000000000E+00  0.93660643984E+02  0.93660643984E+02  0.00000000000E+00 0.  1.
         21   -1    0    0  502  503 -0.00000000000E+00 -0.00000000000E+00 -0.96725539310E+03  0.96725539310E+03  0.00000000000E+00 0. -1.
          6    1    1    2  501    0  0.18250766520E+03 -0.54360205515E+02 -0.71209525159E+03  0.75714775779E+03  0.17300000000E+03 0. -1.
         -6    1    1    2    0  503 -0.18250766520E+03  0.54360205515E+02 -0.16149949753E+03  0.30376827929E+03  0.17300000000E+03 0.  1.
<mgrwt>
<rscale>  2 0.25728016E+03</rscale>
<asrwt>0</asrwt>
<pdfrwt beam="1">  1       21 0.14409330E-01 0.25728016E+03</pdfrwt>
<pdfrwt beam="2">  1       21 0.14880852E+00 0.25728016E+03</pdfrwt>
<totfact> 0.12351600E+04</totfact>
</mgrwt>
</event>
<event>
 4    1  0.4451819E+000  0.2286896E+03  0.7546771E-02  0.1127566E+00
         21   -1    0    0  501  502  0.00000000000E+00  0.00000000000E+00  0.12741852620E+04  0.12741852620E+04  0.00000000000E+00 0. -1.
         21   -1    0    0  502  503 -0.00000000000E+00 -0.00000000000E+00 -0.73695015905E+02  0.73695015905E+02  0.00000000000E+00 0.  1.
          6    1    1    2  501    0 -0.12022692728E+03  0.88968543770E+02  0.10488294115E+04  0.10734719607E+04  0.17300000000E+03 0. -1.
         -6    1    1    2    0  503  0.12022692728E+03 -0.88968543770E+02  0.15166083452E+03  0.27440831720E+03  0.17300000000E+03 0.  1.
<mgrwt>
<rscale>  2 0.22868956E+03</rscale>
<asrwt>0</asrwt>
<pdfrwt beam="1">  1       21 0.19602849E+00 0.22868956E+03</pdfrwt>
<pdfrwt beam="2">  1       21 0.11337696E-01 0.22868956E+03</pdfrwt>
<totfact> 0.89868214E+03</totfact>
</mgrwt>
</event>
<event>
 4    1  0.4451819E+000  0.2850967E+03  0.7546771E-02  0.1092937E+00
         21   -1    0    0  503  502  0.00000000000E+00  0.00000000000E+00  0.97506333391E+03  0.97506333391E+03  0.00000000000E+00 0. -1.
         21   -1    0    0  501  503 -0.00000000000E+00 -0.00000000000E+00 -0.83691382428E+02  0.83691382428E+02  0.00000000000E+00 0. -1.
          6    1    1    2  501    0  0.21912612843E+03  0.57748278180E+02  0.41231529781E+03  0.50128238409E+03  0.17300000000E+03 0. -1.
         -6    1    1    2    0  502 -0.21912612843E+03 -0.57748278180E+02  0.47905665368E+03  0.55747233225E+03  0.17300000000E+03 0. -1.
<mgrwt>
<rscale>  2 0.28509669E+03</rscale>
<asrwt>0</asrwt>
<pdfrwt beam="1">  1       21 0.15000974E+00 0.28509669E+03</pdfrwt>
<pdfrwt beam="2">  1       21 0.12875598E-01 0.28509669E+03</pdfrwt>
<totfact> 0.14622904E+04</totfact>
</mgrwt>
</event>
<event>
 4    1  0.4451819E+000  0.1896217E+03  0.7546771E-02  0.1158803E+00
         21   -1    0    0  503  502  0.00000000000E+00  0.00000000000E+00  0.19595506399E+02  0.19595506399E+02  0.00000000000E+00 0. -1.
         21   -1    0    0  501  503 -0.00000000000E+00 -0.00000000000E+00 -0.29072533977E+04  0.29072533977E+04  0.00000000000E+00 0. -1.
          6    1    1    2  501    0 -0.38403188232E+02 -0.67472968294E+02 -0.23326032897E+04  0.23402979540E+04  0.17300000000E+03 0. -1.
         -6    1    1    2    0  502  0.38403188232E+02  0.67472968294E+02 -0.55505460158E+03  0.58655095009E+03  0.17300000000E+03 0. -1.
<mgrwt>
<rscale>  2 0.18962175E+03</rscale>
<asrwt>0</asrwt>
<pdfrwt beam="1">  1       21 0.30146926E-02 0.18962175E+03</pdfrwt>
<pdfrwt beam="2">  1       21 0.44726986E+00 0.18962175E+03</pdfrwt>
<totfact> 0.27347362E+03</totfact>
</mgrwt>
</event>
<event>
 4    1  0.4451819E+000  0.1737625E+03  0.7546771E-02  0.1173980E+00
         21   -1    0    0  503  502  0.00000000000E+00  0.00000000000E+00  0.11750384601E+04  0.11750384601E+04  0.00000000000E+00 0. -1.
         21   -1    0    0  501  503 -0.00000000000E+00 -0.00000000000E+00 -0.32243733489E+02  0.32243733489E+02  0.00000000000E+00 0. -1.
          6    1    1    2  501    0  0.16140093863E+02  0.19781782707E+01  0.29937027889E+03  0.34614444918E+03  0.17300000000E+03 0. -1.
         -6    1    1    2    0  502 -0.16140093863E+02 -0.19781782707E+01  0.84342444768E+03  0.86113774436E+03  0.17300000000E+03 0. -1.
<mgrwt>
<rscale>  2 0.17376253E+03</rscale>
<asrwt>0</asrwt>
<pdfrwt beam="1">  1       21 0.18077511E+00 0.17376253E+03</pdfrwt>
<pdfrwt beam="2">  1       21 0.49605753E-02 0.17376253E+03</pdfrwt>
<totfact> 0.49592940E+04</totfact>
</mgrwt>
</event>
<event>
 4    1  0.4451819E+000  0.2109284E+03  0.7546771E-02  0.1140833E+00
         21   -1    0    0  501  502  0.00000000000E+00  0.00000000000E+00  0.27224324478E+03  0.27224324478E+03  0.00000000000E+00 0. -1.
         21   -1    0    0  502  503 -0.00000000000E+00 -0.00000000000E+00 -0.16458735150E+03  0.16458735150E+03  0.00000000000E+00 0. -1.
          6    1    1    2  501    0 -0.14553210125E+02 -0.11979154367E+03  0.35457256949E+02  0.21388788402E+03  0.17300000000E+03 0. -1.
         -6    1    1    2    0  503  0.14553210125E+02  0.11979154367E+03  0.72198636334E+02  0.22294271226E+03  0.17300000000E+03 0. -1.
<mgrwt>
<rscale>  2 0.21092845E+03</rscale>
<asrwt>0</asrwt>
<pdfrwt beam="1">  1       21 0.41883576E-01 0.21092845E+03</pdfrwt>
<pdfrwt beam="2">  1       21 0.25321131E-01 0.21092845E+03</pdfrwt>
<totfact> 0.80482302E+04</totfact>
</mgrwt>
</event>
<event>
 4    1  0.4451819E+000  0.1878572E+03  0.7546771E-02  0.1160408E+00
         21   -1    0    0  501  502  0.00000000000E+00  0.00000000000E+00  0.30927468540E+03  0.30927468540E+03  0.00000000000E+00 0. -1.
         21   -1    0    0  502  503 -0.00000000000E+00 -0.00000000000E+00 -0.21310897751E+03  0.21310897751E+03  0.00000000000E+00 0. -1.
          6    1    1    2  501    0 -0.52751865390E+02  0.50779704615E+02  0.22610791394E+03  0.29396449862E+03  0.17300000000E+03 0. -1.
         -6    1    1    2    0  503  0.52751865390E+02 -0.50779704615E+02 -0.12994220605E+03  0.22841916429E+03  0.17300000000E+03 0. -1.
<mgrwt>
<rscale>  2 0.18785723E+03</rscale>
<asrwt>0</asrwt>
<pdfrwt beam="1">  1       21 0.47580721E-01 0.18785723E+03</pdfrwt>
<pdfrwt beam="2">  1       21 0.32785997E-01 0.18785723E+03</pdfrwt>
<totfact> 0.37916093E+04</totfact>
</mgrwt>
</event>
<event>
 4    1  0.4451819E+000  0.2099091E+03  0.7546771E-02  0.1141638E+00
         21   -1    0    0  501  502  0.00000000000E+00  0.00000000000E+00  0.28949065457E+03  0.28949065457E+03  0.00000000000E+00 0. -1.
         21   -1    0    0  502  503 -0.00000000000E+00 -0.00000000000E+00 -0.21614487103E+03  0.21614487103E+03  0.00000000000E+00 0.  1.
          6    1    1    2  501    0 -0.67370686445E+02  0.97949084786E+02  0.17417902815E+03  0.27276393905E+03  0.17300000000E+03 0. -1.
         -6    1    1    2    0  503  0.67370686445E+02 -0.97949084786E+02 -0.10083324460E+03  0.23287158654E+03  0.17300000000E+03 0. -1.
<mgrwt>
<rscale>  2 0.20990911E+03</rscale>
<asrwt>0</asrwt>
<pdfrwt beam="1">  1       21 0.44537024E-01 0.20990911E+03</pdfrwt>
<pdfrwt beam="2">  1       21 0.33253057E-01 0.20990911E+03</pdfrwt>
<totfact> 0.41785871E+04</totfact>
</mgrwt>
</event>
<event>
 4    1  0.4451819E+000  0.2248564E+03  0.7546771E-02  0.1130313E+00
         21   -1    0    0  501  502  0.00000000000E+00  0.00000000000E+00  0.10892078488E+03  0.10892078488E+03  0.00000000000E+00 0.  1.
         21   -1    0    0  502  503 -0.00000000000E+00 -0.00000000000E+00 -0.48615656690E+03  0.48615656690E+03  0.00000000000E+00 0.  1.
          6    1    1    2  501    0 -0.14316415303E+03 -0.11636980894E+02 -0.12537741183E+03  0.25744880935E+03  0.17300000000E+03 0.  1.
         -6    1    1    2    0  503  0.14316415303E+03  0.11636980894E+02 -0.25185837018E+03  0.33762854243E+03  0.17300000000E+03 0.  1.
<mgrwt>
<rscale>  2 0.22485639E+03</rscale>
<asrwt>0</asrwt>
<pdfrwt beam="1">  1       21 0.16757043E-01 0.22485639E+03</pdfrwt>
<pdfrwt beam="2">  1       21 0.74793320E-01 0.22485639E+03</pdfrwt>
<totfact> 0.50464748E+04</totfact>
</mgrwt>
</event>
<event>
 4    1  0.4451819E+000  0.1886320E+03  0.7546771E-02  0.1159701E+00
         21   -1    0    0  501  502  0.00000000000E+00  0.00000000000E+00  0.12185915784E+04  0.12185915784E+04  0.00000000000E+00 0. -1.
         21   -1    0    0  502  503 -0.00000000000E+00 -0.00000000000E+00 -0.33179261332E+02  0.33179261332E+02  0.00000000000E+00 0. -1.
          6    1    1    2  501    0 -0.72570014350E+02  0.19662883661E+02  0.37593562963E+03  0.42060626910E+03  0.17300000000E+03 0. -1.
         -6    1    1    2    0  503  0.72570014350E+02 -0.19662883661E+02  0.80947668747E+03  0.83116457067E+03  0.17300000000E+03 0. -1.
<mgrwt>
<rscale>  2 0.18863201E+03</rscale>
<asrwt>0</asrwt>
<pdfrwt beam="1">  1       21 0.18747559E+00 0.18863201E+03</pdfrwt>
<pdfrwt beam="2">  1       21 0.51045027E-02 0.18863201E+03</pdfrwt>
<totfact> 0.42204652E+04</totfact>
</mgrwt>
</event>
<event>
 4    1  0.4451819E+000  0.2297888E+03  0.7546771E-02  0.1126789E+00
         21   -1    0    0  503  502  0.00000000000E+00  0.00000000000E+00  0.89210012273E+02  0.89210012273E+02  0.00000000000E+00 0.  1.
         21   -1    0    0  501  503 -0.00000000000E+00 -0.00000000000E+00 -0.75927463722E+03  0.75927463722E+03  0.00000000000E+00 0. -1.
          6    1    1    2  501    0  0.76787730343E+02 -0.13029783921E+03 -0.53422206393E+03  0.58154629740E+03  0.17300000000E+03 0.  1.
         -6    1    1    2    0  502 -0.76787730343E+02  0.13029783921E+03 -0.13584256102E+03  0.26693835209E+03  0.17300000000E+03 0.  1.
<mgrwt>
<rscale>  2 0.22978878E+03</rscale>
<asrwt>0</asrwt>
<pdfrwt beam="1">  1       21 0.13724617E-01 0.22978878E+03</pdfrwt>
<pdfrwt beam="2">  1       21 0.11681149E+00 0.22978878E+03</pdfrwt>
<totfact> 0.25458663E+04</totfact>
</mgrwt>
</event>
<event>
 4    1  0.4451819E+000  0.2356474E+03  0.7546771E-02  0.1122727E+00
         21   -1    0    0  503  502  0.00000000000E+00  0.00000000000E+00  0.59259841102E+03  0.59259841102E+03  0.00000000000E+00 0.  1.
         21   -1    0    0  501  503 -0.00000000000E+00 -0.00000000000E+00 -0.96400037256E+02  0.96400037256E+02  0.00000000000E+00 0.  1.
          6    1    1    2  501    0 -0.16892345731E+01  0.15999330192E+03  0.19050289886E+03  0.30301990800E+03  0.17300000000E+03 0.  1.
         -6    1    1    2    0  502  0.16892345731E+01 -0.15999330192E+03  0.30569547490E+03  0.38597854027E+03  0.17300000000E+03 0.  1.
<mgrwt>
<rscale>  2 0.23564743E+03</rscale>
<asrwt>0</asrwt>
<pdfrwt beam="1">  1       21 0.91168984E-01 0.23564743E+03</pdfrwt>
<pdfrwt beam="2">  1       21 0.14830775E-01 0.23564743E+03</pdfrwt>
<totfact> 0.39962944E+04</totfact>
</mgrwt>
</event>
<event>
 4    1  0.4451819E+000  0.1871423E+03  0.7546771E-02  0.1161064E+00
         21   -1    0    0  501  502  0.00000000000E+00  0.00000000000E+00  0.68188157881E+02  0.68188157881E+02  0.00000000000E+00 0.  1.
         21   -1    0    0  502  503 -0.00000000000E+00 -0.00000000000E+00 -0.53907335815E+03  0.53907335815E+03  0.00000000000E+00 0.  1.
          6    1    1    2  501    0  0.57302282027E+02 -0.42540615925E+02 -0.16945494599E+03  0.25246234224E+03  0.17300000000E+03 0.  1.
         -6    1    1    2    0  503 -0.57302282027E+02  0.42540615925E+02 -0.30143025428E+03  0.35479917379E+03  0.17300000000E+03 0.  1.
<mgrwt>
<rscale>  2 0.18714234E+03</rscale>
<asrwt>0</asrwt>
<pdfrwt beam="1">  1       21 0.10490486E-01 0.18714234E+03</pdfrwt>
<pdfrwt beam="2">  1       21 0.82934362E-01 0.18714234E+03</pdfrwt>
<totfact> 0.94701905E+04</totfact>
</mgrwt>
</event>
<event>
 4    1  0.4451819E+000  0.1843053E+03  0.7546771E-02  0.1163700E+00
         21   -1    0    0  503  502  0.00000000000E+00  0.00000000000E+00  0.37216524013E+03  0.37216524013E+03  0.00000000000E+00 0.  1.
         21   -1    0    0  501  503 -0.00000000000E+00 -0.00000000000E+00 -0.22105197800E+03  0.22105197800E+03  0.00000000000E+00 0.  1.
          6    1    1    2  501    0  0.54068153910E+02 -0.33407855153E+02 -0.15171203835E+03  0.23871529619E+03  0.17300000000E+03 0.  1.
         -6    1    1    2    0  502 -0.54068153910E+02  0.33407855153E+02  0.30282530048E+03  0.35450192194E+03  0.17300000000E+03 0.  1.
<mgrwt>
<rscale>  2 0.18430532E+03</rscale>
<asrwt>0</asrwt>
<pdfrwt beam="1">  1       21 0.57256190E-01 0.18430532E+03</pdfrwt>
<pdfrwt beam="2">  1       21 0.34007997E-01 0.18430532E+03</pdfrwt>
<totfact> 0.23973323E+04</totfact>
</mgrwt>
</event>
<event>
 4    1  0.4451819E+000  0.1858231E+03  0.7546771E-02  0.1162283E+00
         21   -1    0    0  501  502  0.00000000000E+00  0.00000000000E+00  0.52822837344E+03  0.52822837344E+03  0.00000000000E+00 0.  1.
         21   -1    0    0  502  503 -0.00000000000E+00 -0.00000000000E+00 -0.53876786881E+03  0.53876786881E+03  0.00000000000E+00 0.  1.
          6    1    1    2  501    0 -0.11669409060E+02  0.66821089524E+02  0.49481688751E+03  0.52855840290E+03  0.17300000000E+03 0.  1.
         -6    1    1    2    0  503  0.11669409060E+02 -0.66821089524E+02 -0.50535638288E+03  0.53843783934E+03  0.17300000000E+03 0.  1.
<mgrwt>
<rscale>  2 0.18582312E+03</rscale>
<asrwt>0</asrwt>
<pdfrwt beam="1">  1       21 0.81265904E-01 0.18582312E+03</pdfrwt>
<pdfrwt beam="2">  1       21 0.82887364E-01 0.18582312E+03</pdfrwt>
<totfact> 0.16953957E+03</totfact>
</mgrwt>
</event>
<event>
 4    1  0.4451819E+000  0.1928510E+03  0.7546771E-02  0.1155915E+00
         21   -1    0    0  503  502  0.00000000000E+00  0.00000000000E+00  0.22971564423E+02  0.22971564423E+02  0.00000000000E+00 0.  1.
         21   -1    0    0  501  503 -0.00000000000E+00 -0.00000000000E+00 -0.18841754507E+04  0.18841754507E+04  0.00000000000E+00 0.  1.
          6    1    1    2  501    0  0.54116744171E+02  0.65832265233E+02 -0.12883198555E+04  0.13026740034E+04  0.17300000000E+03 0.  1.
         -6    1    1    2    0  502 -0.54116744171E+02 -0.65832265233E+02 -0.57288403086E+03  0.60447301177E+03  0.17300000000E+03 0.  1.
<mgrwt>
<rscale>  2 0.19285100E+03</rscale>
<asrwt>0</asrwt>
<pdfrwt beam="1">  1       21 0.35340871E-02 0.19285100E+03</pdfrwt>
<pdfrwt beam="2">  1       21 0.28987312E+00 0.19285100E+03</pdfrwt>
<totfact> 0.18811659E+04</totfact>
</mgrwt>
</event>
<event>
 4    1  0.4451819E+000  0.1910740E+03  0.7546771E-02  0.1157496E+00
         21   -1    0    0  503  502  0.00000000000E+00  0.00000000000E+00  0.38822522703E+03  0.38822522703E+03  0.00000000000E+00 0.  1.
         21   -1    0    0  501  503 -0.00000000000E+00 -0.00000000000E+00 -0.21967845261E+03  0.21967845261E+03  0.00000000000E+00 0. -1.
          6    1    1    2  501    0 -0.81021968123E+02 -0.39658845295E+01 -0.14558995727E+03  0.24022015573E+03  0.17300000000E+03 0. -1.
         -6    1    1    2    0  502  0.81021968123E+02  0.39658845295E+01  0.31413673169E+03  0.36768352391E+03  0.17300000000E+03 0.  1.
<mgrwt>
<rscale>  2 0.19107404E+03</rscale>
<asrwt>0</asrwt>
<pdfrwt beam="1">  1       21 0.59726958E-01 0.19107404E+03</pdfrwt>
<pdfrwt beam="2">  1       21 0.33796685E-01 0.19107404E+03</pdfrwt>
<totfact> 0.22090286E+04</totfact>
</mgrwt>
</event>
<event>
 4    1  0.4451819E+000  0.2379887E+03  0.7546771E-02  0.1121140E+00
         21   -1    0    0  503  502  0.00000000000E+00  0.00000000000E+00  0.31140531497E+03  0.31140531497E+03  0.00000000000E+00 0. -1.
         21   -1    0    0  501  503 -0.00000000000E+00 -0.00000000000E+00 -0.19017434634E+03  0.19017434634E+03  0.00000000000E+00 0.  1.
          6    1    1    2  501    0 -0.16320561219E+03  0.85764043305E+01  0.11298829485E+03  0.26344825172E+03  0.17300000000E+03 0. -1.
         -6    1    1    2    0  502  0.16320561219E+03 -0.85764043305E+01  0.82426737764E+01  0.23813140959E+03  0.17300000000E+03 0.  1.
<mgrwt>
<rscale>  2 0.23798871E+03</rscale>
<asrwt>0</asrwt>
<pdfrwt beam="1">  1       21 0.47908510E-01 0.23798871E+03</pdfrwt>
<pdfrwt beam="2">  1       21 0.29257592E-01 0.23798871E+03</pdfrwt>
<totfact> 0.45618808E+04</totfact>
</mgrwt>
</event>
<event>
 4    1  0.4451819E+000  0.2872617E+03  0.7546771E-02  0.1091788E+00
         21   -1    0    0  501  502  0.00000000000E+00  0.00000000000E+00  0.47977986436E+03  0.47977986436E+03  0.00000000000E+00 0. -1.
         21   -1    0    0  502  503 -0.00000000000E+00 -0.00000000000E+00 -0.17349262886E+03  0.17349262886E+03  0.00000000000E+00 0. -1.
          6    1    1    2  501    0  0.22845422855E+03 -0.19973351516E+02  0.18350122151E+03  0.34086942898E+03  0.17300000000E+03 0. -1.
         -6    1    1    2    0  503 -0.22845422855E+03  0.19973351516E+02  0.12278601399E+03  0.31240306424E+03  0.17300000000E+03 0. -1.
<mgrwt>
<rscale>  2 0.28726167E+03</rscale>
<asrwt>0</asrwt>
<pdfrwt beam="1">  1       21 0.73812286E-01 0.28726167E+03</pdfrwt>
<pdfrwt beam="2">  1       21 0.26691174E-01 0.28726167E+03</pdfrwt>
<totfact> 0.20986237E+04</totfact>
</mgrwt>
</event>
<event>
 4    1  0.4451819E+000  0.1919087E+03  0.7546771E-02  0.1156751E+00
         21   -1    0    0  503  502  0.00000000000E+00  0.00000000000E+00  0.44510220417E+03  0.44510220417E+03  0.00000000000E+00 0.  1.
         21   -1    0    0  501  503 -0.00000000000E+00 -0.00000000000E+00 -0.13951684329E+03  0.13951684329E+03  0.00000000000E+00 0.  1.
          6    1    1    2  501    0  0.78716412575E+02  0.26526521551E+02 -0.33675692647E+02  0.19484091518E+03  0.17300000000E+03 0.  1.
         -6    1    1    2    0  502 -0.78716412575E+02 -0.26526521551E+02  0.33926105353E+03  0.38977813227E+03  0.17300000000E+03 0.  1.
<mgrwt>
<rscale>  2 0.19190865E+03</rscale>
<asrwt>0</asrwt>
<pdfrwt beam="1">  1       21 0.68477262E-01 0.19190865E+03</pdfrwt>
<pdfrwt beam="2">  1       21 0.21464130E-01 0.19190865E+03</pdfrwt>
<totfact> 0.39341271E+04</totfact>
</mgrwt>
</event>
<event>
 4    1  0.4451819E+000  0.2111093E+03  0.7546771E-02  0.1140691E+00
         21   -1    0    0  503  502  0.00000000000E+00  0.00000000000E+00  0.61180793799E+02  0.61180793799E+02  0.00000000000E+00 0. -1.
         21   -1    0    0  501  503 -0.00000000000E+00 -0.00000000000E+00 -0.11030782191E+04  0.11030782191E+04  0.00000000000E+00 0.  1.
          6    1    1    2  501    0  0.13461512698E+02  0.12023698478E+03 -0.86019628141E+03  0.88572274860E+03  0.17300000000E+03 0.  1.
         -6    1    1    2    0  502 -0.13461512698E+02 -0.12023698478E+03 -0.18170114386E+03  0.27853626427E+03  0.17300000000E+03 0. -1.
<mgrwt>
<rscale>  2 0.21110932E+03</rscale>
<asrwt>0</asrwt>
<pdfrwt beam="1">  1       21 0.94124294E-02 0.21110932E+03</pdfrwt>
<pdfrwt beam="2">  1       21 0.16970435E+00 0.21110932E+03</pdfrwt>
<totfact> 0.19110094E+04</totfact>
</mgrwt>
</event>
<event>
 4    1  0.4451819E+000  0.2217234E+03  0.7546771E-02  0.1132605E+00
         21   -1    0    0  501  502  0.00000000000E+00  0.00000000000E+00  0.68277478828E+02  0.68277478828E+02  0.00000000000E+00 0.  1.
         21   -1    0    0  502  503 -0.00000000000E+00 -0.00000000000E+00 -0.75844804486E+03  0.75844804486E+03  0.00000000000E+00 0.  1.
          6    1    1    2  501    0  0.25703681406E+02  0.13627763149E+03 -0.25204254161E+03  0.33568841932E+03  0.17300000000E+03 0.  1.
         -6    1    1    2    0  503 -0.25703681406E+02 -0.13627763149E+03 -0.43812802442E+03  0.49103710437E+03  0.17300000000E+03 0.  1.
<mgrwt>
<rscale>  2 0.22172341E+03</rscale>
<asrwt>0</asrwt>
<pdfrwt beam="1">  1       21 0.10504228E-01 0.22172341E+03</pdfrwt>
<pdfrwt beam="2">  1       21 0.11668431E+00 0.22172341E+03</pdfrwt>
<totfact> 0.41439646E+04</totfact>
</mgrwt>
</event>
<event>
 4    1  0.4451819E+000  0.1905892E+03  0.7546771E-02  0.1157931E+00
         21   -1    0    0  501  502  0.00000000000E+00  0.00000000000E+00  0.13107908116E+03  0.13107908116E+03  0.00000000000E+00 0. -1.
         21   -1    0    0  502  503 -0.00000000000E+00 -0.00000000000E+00 -0.54098964171E+03  0.54098964171E+03  0.00000000000E+00 0.  1.
          6    1    1    2  501    0 -0.76619685207E+02 -0.22905369759E+02  0.29730327283E+02  0.19289407582E+03  0.17300000000E+03 0. -1.
         -6    1    1    2    0  503  0.76619685207E+02  0.22905369759E+02 -0.43964088783E+03  0.47917464705E+03  0.17300000000E+03 0.  1.
<mgrwt>
<rscale>  2 0.19058917E+03</rscale>
<asrwt>0</asrwt>
<pdfrwt beam="1">  1       21 0.20166013E-01 0.19058917E+03</pdfrwt>
<pdfrwt beam="2">  1       21 0.83229174E-01 0.19058917E+03</pdfrwt>
<totfact> 0.28609994E+04</totfact>
</mgrwt>
</event>
<event>
 4    1  0.4451819E+000  0.2125126E+03  0.7546771E-02  0.1139592E+00
         21   -1    0    0  503  502  0.00000000000E+00  0.00000000000E+00  0.16998521285E+04  0.16998521285E+04  0.00000000000E+00 0.  1.
         21   -1    0    0  501  503 -0.00000000000E+00 -0.00000000000E+00 -0.55507085475E+02  0.55507085475E+02  0.00000000000E+00 0. -1.
          6    1    1    2  501    0 -0.12317196993E+03  0.78271589328E+01  0.18844215483E+03  0.28402824562E+03  0.17300000000E+03 0. -1.
         -6    1    1    2    0  502  0.12317196993E+03 -0.78271589328E+01  0.14559028882E+04  0.14713309684E+04  0.17300000000E+03 0.  1.
<mgrwt>
<rscale>  2 0.21251258E+03</rscale>
<asrwt>0</asrwt>
<pdfrwt beam="1">  1       21 0.26151567E+00 0.21251258E+03</pdfrwt>
<pdfrwt beam="2">  1       21 0.85395529E-02 0.21251258E+03</pdfrwt>
<totfact> 0.59769605E+03</totfact>
</mgrwt>
</event>
<event>
 4    1  0.4451819E+000  0.1805189E+03  0.7546771E-02  0.1167302E+00
         21   -1    0    0  501  502  0.00000000000E+00  0.00000000000E+00  0.97332506522E+02  0.97332506522E+02  0.00000000000E+00 0.  1.
         21   -1    0    0  502  503 -0.00000000000E+00 -0.00000000000E+00 -0.38957008611E+03  0.38957008611E+03  0.00000000000E+00 0.  1.
          6    1    1    2  501    0  0.37805593050E+01 -0.51417694133E+02 -0.54836832283E+02  0.18866411973E+03  0.17300000000E+03 0.  1.
         -6    1    1    2    0  503 -0.37805593050E+01  0.51417694133E+02 -0.23740074731E+03  0.29823847290E+03  0.17300000000E+03 0.  1.
<mgrwt>
<rscale>  2 0.18051890E+03</rscale>
<asrwt>0</asrwt>
<pdfrwt beam="1">  1       21 0.14974232E-01 0.18051890E+03</pdfrwt>
<pdfrwt beam="2">  1       21 0.59933859E-01 0.18051890E+03</pdfrwt>
<totfact> 0.10268000E+05</totfact>
</mgrwt>
</event>
<event>
 4    1  0.4451819E+000  0.2316822E+03  0.7546771E-02  0.1125461E+00
         21   -1    0    0  503  502  0.00000000000E+00  0.00000000000E+00  0.42722759028E+03  0.42722759028E+03  0.00000000000E+00 0. -1.
         21   -1    0    0  501  503 -0.00000000000E+00 -0.00000000000E+00 -0.21468972839E+03  0.21468972839E+03  0.00000000000E+00 0. -1.
          6    1    1    2  501    0  0.11644160707E+03 -0.10094047097E+03 -0.10044092225E+03  0.25251733683E+03  0.17300000000E+03 0. -1.
         -6    1    1    2    0  502 -0.11644160707E+03  0.10094047097E+03  0.31297878414E+03  0.38939998185E+03  0.17300000000E+03 0. -1.
<mgrwt>
<rscale>  2 0.23168217E+03</rscale>
<asrwt>0</asrwt>
<pdfrwt beam="1">  1       21 0.65727321E-01 0.23168217E+03</pdfrwt>
<pdfrwt beam="2">  1       21 0.33029189E-01 0.23168217E+03</pdfrwt>
<totfact> 0.18352976E+04</totfact>
</mgrwt>
</event>
<event>
 4    1  0.4451819E+000  0.2698746E+03  0.7546771E-02  0.1101351E+00
         21   -1    0    0  501  502  0.00000000000E+00  0.00000000000E+00  0.20850819934E+04  0.20850819934E+04  0.00000000000E+00 0. -1.
         21   -1    0    0  502  503 -0.00000000000E+00 -0.00000000000E+00 -0.38235593548E+02  0.38235593548E+02  0.00000000000E+00 0. -1.
          6    1    1    2  501    0  0.20582373910E+03  0.23235848900E+02  0.13355730256E+04  0.13625665573E+04  0.17300000000E+03 0. -1.
         -6    1    1    2    0  503 -0.20582373910E+03 -0.23235848900E+02  0.71127337427E+03  0.76075102971E+03  0.17300000000E+03 0. -1.
<mgrwt>
<rscale>  2 0.26987463E+03</rscale>
<asrwt>0</asrwt>
<pdfrwt beam="1">  1       21 0.32078176E+00 0.26987463E+03</pdfrwt>
<pdfrwt beam="2">  1       21 0.58824006E-02 0.26987463E+03</pdfrwt>
<totfact> 0.48827481E+03</totfact>
</mgrwt>
</event>
<event>
 4    1  0.4451819E+000  0.3207303E+03  0.7546771E-02  0.1075314E+00
         21   -1    0    0  501  502  0.00000000000E+00  0.00000000000E+00  0.26059061921E+03  0.26059061921E+03  0.00000000000E+00 0. -1.
         21   -1    0    0  502  503 -0.00000000000E+00 -0.00000000000E+00 -0.48104306285E+03  0.48104306285E+03  0.00000000000E+00 0.  1.
          6    1    1    2  501    0 -0.83205584506E+02  0.25693533631E+03 -0.26728327599E+03  0.41750243828E+03  0.17300000000E+03 0.  1.
         -6    1    1    2    0  503  0.83205584506E+02 -0.25693533631E+03  0.46830832352E+02  0.32413124379E+03  0.17300000000E+03 0. -1.
<mgrwt>
<rscale>  2 0.32073032E+03</rscale>
<asrwt>0</asrwt>
<pdfrwt beam="1">  1       21 0.40090865E-01 0.32073032E+03</pdfrwt>
<pdfrwt beam="2">  1       21 0.74006625E-01 0.32073032E+03</pdfrwt>
<totfact> 0.91507089E+03</totfact>
</mgrwt>
</event>
<event>
 4    1  0.4451819E+000  0.1754118E+03  0.7546771E-02  0.1172319E+00
         21   -1    0    0  501  502  0.00000000000E+00  0.00000000000E+00  0.30684038183E+03  0.30684038183E+03  0.00000000000E+00 0. -1.
         21   -1    0    0  502  503 -0.00000000000E+00 -0.00000000000E+00 -0.13099242181E+03  0.13099242181E+03  0.00000000000E+00 0. -1.
          6    1    1    2  501    0 -0.28871148253E+02  0.25998174306E+01  0.19392920033E+03  0.26149156199E+03  0.17300000000E+03 0. -1.
         -6    1    1    2    0  503  0.28871148253E+02 -0.25998174306E+01 -0.18081240318E+02  0.17634124164E+03  0.17300000000E+03 0. -1.
<mgrwt>
<rscale>  2 0.17541181E+03</rscale>
<asrwt>0</asrwt>
<pdfrwt beam="1">  1       21 0.47206213E-01 0.17541181E+03</pdfrwt>
<pdfrwt beam="2">  1       21 0.20152680E-01 0.17541181E+03</pdfrwt>
<totfact> 0.98359525E+04</totfact>
</mgrwt>
</event>
<event>
 4    1  0.4451819E+000  0.2227393E+03  0.7546771E-02  0.1131857E+00
         21   -1    0    0  503  502  0.00000000000E+00  0.00000000000E+00  0.28314786931E+03  0.28314786931E+03  0.00000000000E+00 0. -1.
         21   -1    0    0  501  503 -0.00000000000E+00 -0.00000000000E+00 -0.20966952964E+03  0.20966952964E+03  0.00000000000E+00 0. -1.
          6    1    1    2  501    0 -0.20672925404E+02 -0.13876745605E+03 -0.63143184839E+02  0.23151638926E+03  0.17300000000E+03 0. -1.
         -6    1    1    2    0  502  0.20672925404E+02  0.13876745605E+03  0.13662152451E+03  0.26130100969E+03  0.17300000000E+03 0. -1.
<mgrwt>
<rscale>  2 0.22273926E+03</rscale>
<asrwt>0</asrwt>
<pdfrwt beam="1">  1       21 0.43561211E-01 0.22273926E+03</pdfrwt>
<pdfrwt beam="2">  1       21 0.32256851E-01 0.22273926E+03</pdfrwt>
<totfact> 0.46158148E+04</totfact>
</mgrwt>
</event>
<event>
 4    1  0.4451819E+000  0.2788279E+03  0.7546771E-02  0.1096331E+00
         21   -1    0    0  501  502  0.00000000000E+00  0.00000000000E+00  0.92724635324E+02  0.92724635324E+02  0.00000000000E+00 0.  1.
         21   -1    0    0  502  503 -0.00000000000E+00 -0.00000000000E+00 -0.10882654417E+04  0.10882654417E+04  0.00000000000E+00 0. -1.
          6    1    1    2  501    0  0.81653052574E+02  0.20285165470E+03 -0.78068676083E+03  0.82898542409E+03  0.17300000000E+03 0. -1.
         -6    1    1    2    0  503 -0.81653052574E+02 -0.20285165470E+03 -0.21485404558E+03  0.35200465297E+03  0.17300000000E+03 0.  1.
<mgrwt>
<rscale>  2 0.27882793E+03</rscale>
<asrwt>0</asrwt>
<pdfrwt beam="1">  1       21 0.14265328E-01 0.27882793E+03</pdfrwt>
<pdfrwt beam="2">  1       21 0.16742546E+00 0.27882793E+03</pdfrwt>
<totfact> 0.90215793E+03</totfact>
</mgrwt>
</event>
<event>
 4    1  0.4451819E+000  0.1895155E+03  0.7546771E-02  0.1158899E+00
         21   -1    0    0  501  502  0.00000000000E+00  0.00000000000E+00  0.15323599878E+03  0.15323599878E+03  0.00000000000E+00 0. -1.
         21   -1    0    0  502  503 -0.00000000000E+00 -0.00000000000E+00 -0.25059772925E+03  0.25059772925E+03  0.00000000000E+00 0. -1.
          6    1    1    2  501    0 -0.52355009805E+02 -0.56974298264E+02  0.26786593376E+01  0.18953441094E+03  0.17300000000E+03 0. -1.
         -6    1    1    2    0  503  0.52355009805E+02  0.56974298264E+02 -0.10004038981E+03  0.21429931710E+03  0.17300000000E+03 0. -1.
<mgrwt>
<rscale>  2 0.18951548E+03</rscale>
<asrwt>0</asrwt>
<pdfrwt beam="1">  1       21 0.23574769E-01 0.18951548E+03</pdfrwt>
<pdfrwt beam="2">  1       21 0.38553497E-01 0.18951548E+03</pdfrwt>
<totfact> 0.11000805E+05</totfact>
</mgrwt>
</event>
<event>
 4    1  0.4451819E+000  0.2070714E+03  0.7546771E-02  0.1143906E+00
         21   -1    0    0  503  502  0.00000000000E+00  0.00000000000E+00  0.16408340187E+03  0.16408340187E+03  0.00000000000E+00 0. -1.
         21   -1    0    0  501  503 -0.00000000000E+00 -0.00000000000E+00 -0.26558506572E+03  0.26558506572E+03  0.00000000000E+00 0. -1.
          6    1    1    2  501    0 -0.12872841153E+02 -0.11306575392E+03 -0.23531882028E+02  0.20840423273E+03  0.17300000000E+03 0. -1.
         -6    1    1    2    0  502  0.12872841153E+02  0.11306575392E+03 -0.77969781822E+02  0.22126423485E+03  0.17300000000E+03 0. -1.
<mgrwt>
<rscale>  2 0.20707142E+03</rscale>
<asrwt>0</asrwt>
<pdfrwt beam="1">  1       21 0.25243601E-01 0.20707142E+03</pdfrwt>
<pdfrwt beam="2">  1       21 0.40859240E-01 0.20707142E+03</pdfrwt>
<totfact> 0.85273401E+04</totfact>
</mgrwt>
</event>
<event>
 4    1  0.4451819E+000  0.2260992E+03  0.7546771E-02  0.1129416E+00
         21   -1    0    0  501  502  0.00000000000E+00  0.00000000000E+00  0.11045197426E+03  0.11045197426E+03  0.00000000000E+00 0.  1.
         21   -1    0    0  502  503 -0.00000000000E+00 -0.00000000000E+00 -0.46927271051E+03  0.46927271051E+03  0.00000000000E+00 0. -1.
          6    1    1    2  501    0  0.21650778447E+02 -0.14395514836E+03 -0.21336550598E+03  0.31087888331E+03  0.17300000000E+03 0. -1.
         -6    1    1    2    0  503 -0.21650778447E+02  0.14395514836E+03 -0.14545523027E+03  0.26884580146E+03  0.17300000000E+03 0.  1.
<mgrwt>
<rscale>  2 0.22609918E+03</rscale>
<asrwt>0</asrwt>
<pdfrwt beam="1">  1       21 0.16992612E-01 0.22609918E+03</pdfrwt>
<pdfrwt beam="2">  1       21 0.72195800E-01 0.22609918E+03</pdfrwt>
<totfact> 0.53192403E+04</totfact>
</mgrwt>
</event>
<event>
 4    1  0.4451819E+000  0.1733226E+03  0.7546771E-02  0.1174427E+00
         21   -1    0    0  501  502  0.00000000000E+00  0.00000000000E+00  0.24785877275E+02  0.24785877275E+02  0.00000000000E+00 0. -1.
         21   -1    0    0  502  503 -0.00000000000E+00 -0.00000000000E+00 -0.15711158619E+04  0.15711158619E+04  0.00000000000E+00 0. -1.
          6    1    1    2  501    0 -0.97202576746E+01  0.41536424618E+01 -0.11546550026E+04  0.11675910719E+04  0.17300000000E+03 0. -1.
         -6    1    1    2    0  503  0.97202576746E+01 -0.41536424618E+01 -0.39167498202E+03  0.42831066727E+03  0.17300000000E+03 0. -1.
<mgrwt>
<rscale>  2 0.17332264E+03</rscale>
<asrwt>0</asrwt>
<pdfrwt beam="1">  1       21 0.38132104E-02 0.17332264E+03</pdfrwt>
<pdfrwt beam="2">  1       21 0.24171023E+00 0.17332264E+03</pdfrwt>
<totfact> 0.32105307E+04</totfact>
</mgrwt>
</event>
<event>
 4    1  0.4451819E+000  0.2481237E+03  0.7546771E-02  0.1114496E+00
         21   -1    0    0  503  502  0.00000000000E+00  0.00000000000E+00  0.11105585099E+03  0.11105585099E+03  0.00000000000E+00 0. -1.
         21   -1    0    0  501  503 -0.00000000000E+00 -0.00000000000E+00 -0.14508636766E+04  0.14508636766E+04  0.00000000000E+00 0.  1.
          6    1    1    2  501    0  0.14752716569E+03 -0.99358527692E+02 -0.12837936725E+04  0.13075517486E+04  0.17300000000E+03 0.  1.
         -6    1    1    2    0  502 -0.14752716569E+03  0.99358527692E+02 -0.56014153067E+02  0.25436777898E+03  0.17300000000E+03 0. -1.
<mgrwt>
<rscale>  2 0.24812372E+03</rscale>
<asrwt>0</asrwt>
<pdfrwt beam="1">  1       21 0.17085517E-01 0.24812372E+03</pdfrwt>
<pdfrwt beam="2">  1       21 0.22320978E+00 0.24812372E+03</pdfrwt>
<totfact> 0.28220413E+03</totfact>
</mgrwt>
</event>
<event>
 4    1  0.4451819E+000  0.2180565E+03  0.7546771E-02  0.1135340E+00
         21   -1    0    0  503  502  0.00000000000E+00  0.00000000000E+00  0.34232306069E+02  0.34232306069E+02  0.00000000000E+00 0.  1.
         21   -1    0    0  501  503 -0.00000000000E+00 -0.00000000000E+00 -0.14231186039E+04  0.14231186039E+04  0.00000000000E+00 0.  1.
          6    1    1    2  501    0 -0.13271997819E+03  0.22462454670E+01 -0.58161545609E+03  0.62114827295E+03  0.17300000000E+03 0. -1.
         -6    1    1    2    0  502  0.13271997819E+03 -0.22462454670E+01 -0.80727084179E+03  0.83620263706E+03  0.17300000000E+03 0. -1.
<mgrwt>
<rscale>  2 0.21805650E+03</rscale>
<asrwt>0</asrwt>
<pdfrwt beam="1">  1       21 0.52665098E-02 0.21805650E+03</pdfrwt>
<pdfrwt beam="2">  1       21 0.21894127E+00 0.21805650E+03</pdfrwt>
<totfact> 0.24675316E+04</totfact>
</mgrwt>
</event>
<event>
 4    1  0.4451819E+000  0.2240704E+03  0.7546771E-02  0.1130884E+00
         21   -1    0    0  503  502  0.00000000000E+00  0.00000000000E+00  0.17249764361E+03  0.17249764361E+03  0.00000000000E+00 0. -1.
         21   -1    0    0  501  503 -0.00000000000E+00 -0.00000000000E+00 -0.38861142052E+03  0.38861142052E+03  0.00000000000E+00 0.  1.
          6    1    1    2  501    0 -0.10057746530E+03 -0.10081030872E+03 -0.24862001053E+03  0.33469307508E+03  0.17300000000E+03 0. -1.
         -6    1    1    2    0  502  0.10057746530E+03  0.10081030872E+03  0.32506233617E+02  0.22641598905E+03  0.17300000000E+03 0. -1.
<mgrwt>
<rscale>  2 0.22407040E+03</rscale>
<asrwt>0</asrwt>
<pdfrwt beam="1">  1       21 0.26538099E-01 0.22407040E+03</pdfrwt>
<pdfrwt beam="2">  1       21 0.59786373E-01 0.22407040E+03</pdfrwt>
<totfact> 0.34710825E+04</totfact>
</mgrwt>
</event>
<event>
 4    1  0.4451819E+000  0.2480796E+03  0.7546771E-02  0.1114524E+00
         21   -1    0    0  503  502  0.00000000000E+00  0.00000000000E+00  0.21578502475E+03  0.21578502475E+03  0.00000000000E+00 0. -1.
         21   -1    0    0  501  503 -0.00000000000E+00 -0.00000000000E+00 -0.82472696449E+03  0.82472696449E+03  0.00000000000E+00 0.  1.
          6    1    1    2  501    0  0.68025840641E+02  0.16427719180E+03 -0.72526110386E+03  0.76651626174E+03  0.17300000000E+03 0.  1.
         -6    1    1    2    0  502 -0.68025840641E+02 -0.16427719180E+03  0.11631916412E+03  0.27399572749E+03  0.17300000000E+03 0. -1.
<mgrwt>
<rscale>  2 0.24807965E+03</rscale>
<asrwt>0</asrwt>
<pdfrwt beam="1">  1       21 0.33197696E-01 0.24807965E+03</pdfrwt>
<pdfrwt beam="2">  1       21 0.12688107E+00 0.24807965E+03</pdfrwt>
<totfact> 0.38480473E+03</totfact>
</mgrwt>
</event>
<event>
 4    1  0.4451819E+000  0.2519142E+03  0.7546771E-02  0.1112101E+00
         21   -1    0    0  503  502  0.00000000000E+00  0.00000000000E+00  0.22399166785E+03  0.22399166785E+03  0.00000000000E+00 0. -1.
         21   -1    0    0  501  503 -0.00000000000E+00 -0.00000000000E+00 -0.30460993859E+03  0.30460993859E+03  0.00000000000E+00 0. -1.
          6    1    1    2  501    0  0.99119454376E+02 -0.15397111643E+03 -0.11018683879E+03  0.27495801565E+03  0.17300000000E+03 0. -1.
         -6    1    1    2    0  502 -0.99119454376E+02  0.15397111643E+03  0.29568568061E+02  0.25364359079E+03  0.17300000000E+03 0. -1.
<mgrwt>
<rscale>  2 0.25191421E+03</rscale>
<asrwt>0</asrwt>
<pdfrwt beam="1">  1       21 0.34460257E-01 0.25191421E+03</pdfrwt>
<pdfrwt beam="2">  1       21 0.46863067E-01 0.25191421E+03</pdfrwt>
<totfact> 0.34376315E+04</totfact>
</mgrwt>
</event>
<event>
 4    1  0.4451819E+000  0.2473055E+03  0.7546771E-02  0.1115020E+00
         21   -1    0    0  503  502  0.00000000000E+00  0.00000000000E+00  0.55131929937E+03  0.55131929937E+03  0.00000000000E+00 0. -1.
         21   -1    0    0  501  503 -0.00000000000E+00 -0.00000000000E+00 -0.22539740906E+03  0.22539740906E+03  0.00000000000E+00 0.  1.
          6    1    1    2  501    0 -0.17196096620E+03 -0.40748718893E+02 -0.11379159143E+03  0.27222887111E+03  0.17300000000E+03 0.  1.
         -6    1    1    2    0  502  0.17196096620E+03  0.40748718893E+02  0.43971348173E+03  0.50448783732E+03  0.17300000000E+03 0. -1.
<mgrwt>
<rscale>  2 0.24730554E+03</rscale>
<asrwt>0</asrwt>
<pdfrwt beam="1">  1       21 0.84818354E-01 0.24730554E+03</pdfrwt>
<pdfrwt beam="2">  1       21 0.34676525E-01 0.24730554E+03</pdfrwt>
<totfact> 0.93195541E+03</totfact>
</mgrwt>
</event>
<event>
 4    1  0.4451819E+000  0.2526046E+03  0.7546771E-02  0.1111670E+00
         21   -1    0    0  503  502  0.00000000000E+00  0.00000000000E+00  0.24680512536E+03  0.24680512536E+03  0.00000000000E+00 0. -1.
         21   -1    0    0  501  503 -0.00000000000E+00 -0.00000000000E+00 -0.41566373179E+03  0.41566373179E+03  0.00000000000E+00 0. -1.
          6    1    1    2  501    0 -0.16839052142E+03  0.74328518311E+02 -0.28807945681E+03  0.38314340628E+03  0.17300000000E+03 0. -1.
         -6    1    1    2    0  502  0.16839052142E+03 -0.74328518311E+02  0.11922085038E+03  0.27932545087E+03  0.17300000000E+03 0. -1.
<mgrwt>
<rscale>  2 0.25260462E+03</rscale>
<asrwt>0</asrwt>
<pdfrwt beam="1">  1       21 0.37970020E-01 0.25260462E+03</pdfrwt>
<pdfrwt beam="2">  1       21 0.63948265E-01 0.25260462E+03</pdfrwt>
<totfact> 0.14590498E+04</totfact>
</mgrwt>
</event>
<event>
 4    1  0.4451819E+000  0.2064173E+03  0.7546771E-02  0.1144435E+00
         21   -1    0    0  501  502  0.00000000000E+00  0.00000000000E+00  0.17639862527E+03  0.17639862527E+03  0.00000000000E+00 0. -1.
         21   -1    0    0  502  503 -0.00000000000E+00 -0.00000000000E+00 -0.25024707923E+03  0.25024707923E+03  0.00000000000E+00 0.  1.
          6    1    1    2  501    0 -0.86074944870E+02 -0.72596255796E+02 -0.76705402197E+02  0.22020860841E+03  0.17300000000E+03 0.  1.
         -6    1    1    2    0  503  0.86074944870E+02  0.72596255796E+02  0.28569482359E+01  0.20643709609E+03  0.17300000000E+03 0. -1.
<mgrwt>
<rscale>  2 0.20641733E+03</rscale>
<asrwt>0</asrwt>
<pdfrwt beam="1">  1       21 0.27138250E-01 0.20641733E+03</pdfrwt>
<pdfrwt beam="2">  1       21 0.38499550E-01 0.20641733E+03</pdfrwt>
<totfact> 0.83705295E+04</totfact>
</mgrwt>
</event>
<event>
 4    1  0.4451819E+000  0.1731170E+03  0.7546771E-02  0.1174636E+00
         21   -1    0    0  501  502  0.00000000000E+00  0.00000000000E+00  0.58445174211E+03  0.58445174211E+03  0.00000000000E+00 0. -1.
         21   -1    0    0  502  503 -0.00000000000E+00 -0.00000000000E+00 -0.10598414740E+03  0.10598414740E+03  0.00000000000E+00 0. -1.
          6    1    1    2  501    0  0.63540382802E+01 -0.35239718235E+00  0.48725630742E+03  0.51709593608E+03  0.17300000000E+03 0. -1.
         -6    1    1    2    0  503 -0.63540382802E+01  0.35239718235E+00 -0.87887127034E+01  0.17333995344E+03  0.17300000000E+03 0. -1.
<mgrwt>
<rscale>  2 0.17311701E+03</rscale>
<asrwt>0</asrwt>
<pdfrwt beam="1">  1       21 0.89915651E-01 0.17311701E+03</pdfrwt>
<pdfrwt beam="2">  1       21 0.16305254E-01 0.17311701E+03</pdfrwt>
<totfact> 0.35840257E+04</totfact>
</mgrwt>
</event>
<event>
 4    1  0.4451819E+000  0.2009361E+03  0.7546771E-02  0.1148952E+00
         21   -1    0    0  501  502  0.00000000000E+00  0.00000000000E+00  0.55104898377E+02  0.55104898377E+02  0.00000000000E+00 0.  1.
         21   -1    0    0  502  503 -0.00000000000E+00 -0.00000000000E+00 -0.81937460832E+03  0.81937460832E+03  0.00000000000E+00 0.  1.
          6    1    1    2  501    0 -0.14190761535E+02 -0.10121731240E+03 -0.23992620424E+03  0.31295351975E+03  0.17300000000E+03 0.  1.
         -6    1    1    2    0  503  0.14190761535E+02  0.10121731240E+03 -0.52434350570E+03  0.56152598695E+03  0.17300000000E+03 0.  1.
<mgrwt>
<rscale>  2 0.20093611E+03</rscale>
<asrwt>0</asrwt>
<pdfrwt beam="1">  1       21 0.84776769E-02 0.20093611E+03</pdfrwt>
<pdfrwt beam="2">  1       21 0.12605763E+00 0.20093611E+03</pdfrwt>
<totfact> 0.50432151E+04</totfact>
</mgrwt>
</event>
<event>
 4    1  0.4451819E+000  0.2381224E+03  0.7546771E-02  0.1121050E+00
         21   -1    0    0  503  502  0.00000000000E+00  0.00000000000E+00  0.21263228296E+03  0.21263228296E+03  0.00000000000E+00 0.  1.
         21   -1    0    0  501  503 -0.00000000000E+00 -0.00000000000E+00 -0.42848511464E+03  0.42848511464E+03  0.00000000000E+00 0. -1.
          6    1    1    2  501    0 -0.14179807870E+03 -0.81649138016E+02 -0.30491978143E+03  0.38688286337E+03  0.17300000000E+03 0. -1.
         -6    1    1    2    0  502  0.14179807870E+03  0.81649138016E+02  0.89066949749E+02  0.25423453424E+03  0.17300000000E+03 0.  1.
<mgrwt>
<rscale>  2 0.23812240E+03</rscale>
<asrwt>0</asrwt>
<pdfrwt beam="1">  1       21 0.32712659E-01 0.23812240E+03</pdfrwt>
<pdfrwt beam="2">  1       21 0.65920786E-01 0.23812240E+03</pdfrwt>
<totfact> 0.18523662E+04</totfact>
</mgrwt>
</event>
<event>
 4    1  0.4451819E+000  0.1888423E+03  0.7546771E-02  0.1159510E+00
         21   -1    0    0  501  502  0.00000000000E+00  0.00000000000E+00  0.13728949551E+03  0.13728949551E+03  0.00000000000E+00 0.  1.
         21   -1    0    0  502  503 -0.00000000000E+00 -0.00000000000E+00 -0.27343168836E+03  0.27343168836E+03  0.00000000000E+00 0.  1.
          6    1    1    2  501    0  0.74721398185E+02 -0.12211046339E+02 -0.22139616214E+02  0.19013563476E+03  0.17300000000E+03 0.  1.
         -6    1    1    2    0  503 -0.74721398185E+02  0.12211046339E+02 -0.11400257663E+03  0.22058554911E+03  0.17300000000E+03 0.  1.
<mgrwt>
<rscale>  2 0.18884225E+03</rscale>
<asrwt>0</asrwt>
<pdfrwt beam="1">  1       21 0.21121461E-01 0.18884225E+03</pdfrwt>
<pdfrwt beam="2">  1       21 0.42066413E-01 0.18884225E+03</pdfrwt>
<totfact> 0.11350635E+05</totfact>
</mgrwt>
</event>
<event>
 4    1  0.4451819E+000  0.1848510E+03  0.7546771E-02  0.1163189E+00
         21   -1    0    0  503  502  0.00000000000E+00  0.00000000000E+00  0.15567220532E+03  0.15567220532E+03  0.00000000000E+00 0.  1.
         21   -1    0    0  501  503 -0.00000000000E+00 -0.00000000000E+00 -0.59944640332E+03  0.59944640332E+03  0.00000000000E+00 0.  1.
          6    1    1    2  501    0  0.58828381860E+02  0.27930330528E+02 -0.52247519706E+03  0.55421134364E+03  0.17300000000E+03 0.  1.
         -6    1    1    2    0  502 -0.58828381860E+02 -0.27930330528E+02  0.78700999060E+02  0.20090726500E+03  0.17300000000E+03 0.  1.
<mgrwt>
<rscale>  2 0.18485097E+03</rscale>
<asrwt>0</asrwt>
<pdfrwt beam="1">  1       21 0.23949570E-01 0.18485097E+03</pdfrwt>
<pdfrwt beam="2">  1       21 0.92222522E-01 0.18485097E+03</pdfrwt>
<totfact> 0.16399479E+04</totfact>
</mgrwt>
</event>
<event>
 4    1  0.4451819E+000  0.2192330E+03  0.7546771E-02  0.1134456E+00
         21   -1    0    0  503  502  0.00000000000E+00  0.00000000000E+00  0.20573806020E+03  0.20573806020E+03  0.00000000000E+00 0.  1.
         21   -1    0    0  501  503 -0.00000000000E+00 -0.00000000000E+00 -0.62067217977E+03  0.62067217977E+03  0.00000000000E+00 0.  1.
          6    1    1    2  501    0  0.18817773586E+02 -0.13334162423E+03 -0.53377166861E+03  0.57704011261E+03  0.17300000000E+03 0.  1.
         -6    1    1    2    0  502 -0.18817773586E+02  0.13334162423E+03  0.11883754904E+03  0.24937012735E+03  0.17300000000E+03 0.  1.
<mgrwt>
<rscale>  2 0.21923298E+03</rscale>
<asrwt>0</asrwt>
<pdfrwt beam="1">  1       21 0.31652009E-01 0.21923298E+03</pdfrwt>
<pdfrwt beam="2">  1       21 0.95488028E-01 0.21923298E+03</pdfrwt>
<totfact> 0.86216996E+03</totfact>
</mgrwt>
</event>
<event>
 4    1  0.4451819E+000  0.2860272E+03  0.7546771E-02  0.1092442E+00
         21   -1    0    0  503  502  0.00000000000E+00  0.00000000000E+00  0.78317973565E+03  0.78317973565E+03  0.00000000000E+00 0.  1.
         21   -1    0    0  501  503 -0.00000000000E+00 -0.00000000000E+00 -0.12853078248E+03  0.12853078248E+03  0.00000000000E+00 0. -1.
          6    1    1    2  501    0 -0.22770411713E+03 -0.57795087197E+01  0.52459465741E+03  0.59750407719E+03  0.17300000000E+03 0.  1.
         -6    1    1    2    0  502  0.22770411713E+03  0.57795087197E+01  0.13005429576E+03  0.31420644094E+03  0.17300000000E+03 0. -1.
<mgrwt>
<rscale>  2 0.28602721E+03</rscale>
<asrwt>0</asrwt>
<pdfrwt beam="1">  1       21 0.12048919E+00 0.28602721E+03</pdfrwt>
<pdfrwt beam="2">  1       21 0.19773967E-01 0.28602721E+03</pdfrwt>
<totfact> 0.11664518E+04</totfact>
</mgrwt>
</event>
<event>
 4    1  0.4451819E+000  0.1915056E+03  0.7546771E-02  0.1157110E+00
         21   -1    0    0  503  502  0.00000000000E+00  0.00000000000E+00  0.14968605269E+04  0.14968605269E+04  0.00000000000E+00 0.  1.
         21   -1    0    0  501  503 -0.00000000000E+00 -0.00000000000E+00 -0.86434166647E+02  0.86434166647E+02  0.00000000000E+00 0. -1.
          6    1    1    2  501    0  0.76602669149E+02 -0.29621679365E+02  0.35095509605E+02  0.19469490903E+03  0.17300000000E+03 0. -1.
         -6    1    1    2    0  502 -0.76602669149E+02  0.29621679365E+02  0.13753308506E+04  0.13885997845E+04  0.17300000000E+03 0.  1.
<mgrwt>
<rscale>  2 0.19150565E+03</rscale>
<asrwt>0</asrwt>
<pdfrwt beam="1">  1       21 0.23028622E+00 0.19150565E+03</pdfrwt>
<pdfrwt beam="2">  1       21 0.13297565E-01 0.19150565E+03</pdfrwt>
<totfact> 0.42558031E+03</totfact>
</mgrwt>
</event>
<event>
 4    1  0.4451819E+000  0.1769983E+03  0.7546771E-02  0.1170740E+00
         21   -1    0    0  503  502  0.00000000000E+00  0.00000000000E+00  0.66831494280E+02  0.66831494280E+02  0.00000000000E+00 0.  1.
         21   -1    0    0  501  503 -0.00000000000E+00 -0.00000000000E+00 -0.53050552917E+03  0.53050552917E+03  0.00000000000E+00 0. -1.
          6    1    1    2  501    0 -0.16312480569E+02  0.33664635681E+02 -0.33372484989E+03  0.37775743560E+03  0.17300000000E+03 0. -1.
         -6    1    1    2    0  502  0.16312480569E+02 -0.33664635681E+02 -0.12994918500E+03  0.21957958785E+03  0.17300000000E+03 0.  1.
<mgrwt>
<rscale>  2 0.17699832E+03</rscale>
<asrwt>0</asrwt>
<pdfrwt beam="1">  1       21 0.10281768E-01 0.17699832E+03</pdfrwt>
<pdfrwt beam="2">  1       21 0.81616237E-01 0.17699832E+03</pdfrwt>
<totfact> 0.10217636E+05</totfact>
</mgrwt>
</event>
<event>
 4    1  0.4451819E+000  0.2235147E+03  0.7546771E-02  0.1131290E+00
         21   -1    0    0  503  502  0.00000000000E+00  0.00000000000E+00  0.15342253876E+03  0.15342253876E+03  0.00000000000E+00 0.  1.
         21   -1    0    0  501  503 -0.00000000000E+00 -0.00000000000E+00 -0.58273928748E+03  0.58273928748E+03  0.00000000000E+00 0. -1.
          6    1    1    2  501    0 -0.12468640738E+03  0.66956063671E+02 -0.45915110336E+03  0.51066481215E+03  0.17300000000E+03 0. -1.
         -6    1    1    2    0  502  0.12468640738E+03 -0.66956063671E+02  0.29834354642E+02  0.22549701409E+03  0.17300000000E+03 0.  1.
<mgrwt>
<rscale>  2 0.22351469E+03</rscale>
<asrwt>0</asrwt>
<pdfrwt beam="1">  1       21 0.23603467E-01 0.22351469E+03</pdfrwt>
<pdfrwt beam="2">  1       21 0.89652199E-01 0.22351469E+03</pdfrwt>
<totfact> 0.17580771E+04</totfact>
</mgrwt>
</event>
<event>
 4    1  0.4451819E+000  0.2068986E+03  0.7546771E-02  0.1144046E+00
         21   -1    0    0  501  502  0.00000000000E+00  0.00000000000E+00  0.13502187784E+04  0.13502187784E+04  0.00000000000E+00 0.  1.
         21   -1    0    0  502  503 -0.00000000000E+00 -0.00000000000E+00 -0.32837869073E+02  0.32837869073E+02  0.00000000000E+00 0.  1.
          6    1    1    2  501    0  0.95455441693E+02  0.61370079281E+02  0.78720362846E+03  0.81393892931E+03  0.17300000000E+03 0.  1.
         -6    1    1    2    0  503 -0.95455441693E+02 -0.61370079281E+02  0.53017728082E+03  0.56911771812E+03  0.17300000000E+03 0.  1.
<mgrwt>
<rscale>  2 0.20689859E+03</rscale>
<asrwt>0</asrwt>
<pdfrwt beam="1">  1       21 0.20772592E+00 0.20689859E+03</pdfrwt>
<pdfrwt beam="2">  1       21 0.50519809E-02 0.20689859E+03</pdfrwt>
<totfact> 0.31373922E+04</totfact>
</mgrwt>
</event>
<event>
 4    1  0.4451819E+000  0.2002807E+03  0.7546771E-02  0.1149502E+00
         21   -1    0    0  503  502  0.00000000000E+00  0.00000000000E+00  0.24609811042E+02  0.24609811042E+02  0.00000000000E+00 0.  1.
         21   -1    0    0  501  503 -0.00000000000E+00 -0.00000000000E+00 -0.18686418369E+04  0.18686418369E+04  0.00000000000E+00 0.  1.
          6    1    1    2  501    0  0.26582910983E+02 -0.97348319183E+02 -0.12603529720E+04  0.12761669015E+04  0.17300000000E+03 0.  1.
         -6    1    1    2    0  502 -0.26582910983E+02  0.97348319183E+02 -0.58367905386E+03  0.61708474646E+03  0.17300000000E+03 0.  1.
<mgrwt>
<rscale>  2 0.20028067E+03</rscale>
<asrwt>0</asrwt>
<pdfrwt beam="1">  1       21 0.37861243E-02 0.20028067E+03</pdfrwt>
<pdfrwt beam="2">  1       21 0.28748340E+00 0.20028067E+03</pdfrwt>
<totfact> 0.17183525E+04</totfact>
</mgrwt>
</event>
<event>
 4    1  0.4451819E+000  0.1756892E+03  0.7546771E-02  0.1172042E+00
         21   -1    0    0  501  502  0.00000000000E+00  0.00000000000E+00  0.11663129430E+04  0.11663129430E+04  0.00000000000E+00 0.  1.
         21   -1    0    0  502  503 -0.00000000000E+00 -0.00000000000E+00 -0.27630732760E+02  0.27630732760E+02  0.00000000000E+00 0.  1.
          6    1    1    2  501    0  0.23107709338E+02  0.20092744720E+02  0.44673186861E+03  0.48003754755E+03  0.17300000000E+03 0.  1.
         -6    1    1    2    0  503 -0.23107709338E+02 -0.20092744720E+02  0.69195034163E+03  0.71390612822E+03  0.17300000000E+03 0.  1.
<mgrwt>
<rscale>  2 0.17568917E+03</rscale>
<asrwt>0</asrwt>
<pdfrwt beam="1">  1       21 0.17943272E+00 0.17568917E+03</pdfrwt>
<pdfrwt beam="2">  1       21 0.42508829E-02 0.17568917E+03</pdfrwt>
<totfact> 0.65605210E+04</totfact>
</mgrwt>
</event>
<event>
 4    1  0.4451819E+000  0.1816104E+03  0.7546771E-02  0.1166254E+00
         21   -1    0    0  503  502  0.00000000000E+00  0.00000000000E+00  0.19988180331E+03  0.19988180331E+03  0.00000000000E+00 0. -1.
         21   -1    0    0  501  503 -0.00000000000E+00 -0.00000000000E+00 -0.31156412304E+03  0.31156412304E+03  0.00000000000E+00 0. -1.
          6    1    1    2  501    0  0.55227558297E+02 -0.18007860965E+01 -0.23122771185E+03  0.29402139506E+03  0.17300000000E+03 0. -1.
         -6    1    1    2    0  502 -0.55227558297E+02  0.18007860965E+01  0.11954539213E+03  0.21742453129E+03  0.17300000000E+03 0. -1.
<mgrwt>
<rscale>  2 0.18161037E+03</rscale>
<asrwt>0</asrwt>
<pdfrwt beam="1">  1       21 0.30751047E-01 0.18161037E+03</pdfrwt>
<pdfrwt beam="2">  1       21 0.47932941E-01 0.18161037E+03</pdfrwt>
<totfact> 0.42470555E+04</totfact>
</mgrwt>
</event>
<event>
 4    1  0.4451819E+000  0.2134195E+03  0.7546771E-02  0.1138886E+00
         21   -1    0    0  501  502  0.00000000000E+00  0.00000000000E+00  0.54958738805E+02  0.54958738805E+02  0.00000000000E+00 0.  1.
         21   -1    0    0  502  503 -0.00000000000E+00 -0.00000000000E+00 -0.89470419983E+03  0.89470419983E+03  0.00000000000E+00 0.  1.
          6    1    1    2  501    0 -0.96886701994E+02  0.78942119576E+02 -0.29096740282E+03  0.36084611785E+03  0.17300000000E+03 0.  1.
         -6    1    1    2    0  503  0.96886701994E+02 -0.78942119576E+02 -0.54877805820E+03  0.58881682078E+03  0.17300000000E+03 0.  1.
<mgrwt>
<rscale>  2 0.21341952E+03</rscale>
<asrwt>0</asrwt>
<pdfrwt beam="1">  1       21 0.84551912E-02 0.21341952E+03</pdfrwt>
<pdfrwt beam="2">  1       21 0.13764679E+00 0.21341952E+03</pdfrwt>
<totfact> 0.40256121E+04</totfact>
</mgrwt>
</event>
<event>
 4    1  0.4451819E+000  0.1842731E+03  0.7546771E-02  0.1163730E+00
         21   -1    0    0  501  502  0.00000000000E+00  0.00000000000E+00  0.32369699012E+03  0.32369699012E+03  0.00000000000E+00 0. -1.
         21   -1    0    0  502  503 -0.00000000000E+00 -0.00000000000E+00 -0.13196880325E+03  0.13196880325E+03  0.00000000000E+00 0. -1.
          6    1    1    2  501    0  0.44723122252E+02  0.45026667139E+02 -0.73162282573E+01  0.18441823558E+03  0.17300000000E+03 0. -1.
         -6    1    1    2    0  503 -0.44723122252E+02 -0.45026667139E+02  0.19904441512E+03  0.27124755779E+03  0.17300000000E+03 0. -1.
<mgrwt>
<rscale>  2 0.18427305E+03</rscale>
<asrwt>0</asrwt>
<pdfrwt beam="1">  1       21 0.49799537E-01 0.18427305E+03</pdfrwt>
<pdfrwt beam="2">  1       21 0.20302893E-01 0.18427305E+03</pdfrwt>
<totfact> 0.86525271E+04</totfact>
</mgrwt>
</event>
<event>
 4    1  0.4451819E+000  0.2944380E+03  0.7546771E-02  0.1088055E+00
         21   -1    0    0  501  502  0.00000000000E+00  0.00000000000E+00  0.11518205556E+03  0.11518205556E+03  0.00000000000E+00 0.  1.
         21   -1    0    0  502  503 -0.00000000000E+00 -0.00000000000E+00 -0.83042888644E+03  0.83042888644E+03  0.00000000000E+00 0. -1.
          6    1    1    2  501    0 -0.23206647140E+03  0.53943139583E+02 -0.21294117844E+03  0.36336985969E+03  0.17300000000E+03 0. -1.
         -6    1    1    2    0  503  0.23206647140E+03 -0.53943139583E+02 -0.50230565245E+03  0.58224108231E+03  0.17300000000E+03 0. -1.
<mgrwt>
<rscale>  2 0.29443796E+03</rscale>
<asrwt>0</asrwt>
<pdfrwt beam="1">  1       21 0.17720316E-01 0.29443796E+03</pdfrwt>
<pdfrwt beam="2">  1       21 0.12775829E+00 0.29443796E+03</pdfrwt>
<totfact> 0.12300463E+04</totfact>
</mgrwt>
</event>
<event>
 4    1  0.4451819E+000  0.1751091E+03  0.7546771E-02  0.1172622E+00
         21   -1    0    0  503  502  0.00000000000E+00  0.00000000000E+00  0.15087097044E+02  0.15087097044E+02  0.00000000000E+00 0.  1.
         21   -1    0    0  501  503 -0.00000000000E+00 -0.00000000000E+00 -0.25310543161E+04  0.25310543161E+04  0.00000000000E+00 0.  1.
          6    1    1    2  501    0  0.27079013986E+02  0.95682087295E+00 -0.18230462643E+04  0.18314368322E+04  0.17300000000E+03 0.  1.
         -6    1    1    2    0  502 -0.27079013986E+02 -0.95682087295E+00 -0.69292095476E+03  0.71470458097E+03  0.17300000000E+03 0.  1.
<mgrwt>
<rscale>  2 0.17510908E+03</rscale>
<asrwt>0</asrwt>
<pdfrwt beam="1">  1       21 0.23210923E-02 0.17510908E+03</pdfrwt>
<pdfrwt beam="2">  1       21 0.38939289E+00 0.17510908E+03</pdfrwt>
<totfact> 0.10012101E+04</totfact>
</mgrwt>
</event>
<event>
 4    1  0.4451819E+000  0.2620510E+03  0.7546771E-02  0.1105917E+00
         21   -1    0    0  501  502  0.00000000000E+00  0.00000000000E+00  0.33142356406E+03  0.33142356406E+03  0.00000000000E+00 0. -1.
         21   -1    0    0  502  503 -0.00000000000E+00 -0.00000000000E+00 -0.23917962319E+03  0.23917962319E+03  0.00000000000E+00 0.  1.
          6    1    1    2  501    0 -0.13221549282E+03  0.14581076423E+03  0.15044587658E+03  0.30216663828E+03  0.17300000000E+03 0. -1.
         -6    1    1    2    0  503  0.13221549282E+03 -0.14581076423E+03 -0.58201935706E+02  0.26843654898E+03  0.17300000000E+03 0.  1.
<mgrwt>
<rscale>  2 0.26205098E+03</rscale>
<asrwt>0</asrwt>
<pdfrwt beam="1">  1       21 0.50988241E-01 0.26205098E+03</pdfrwt>
<pdfrwt beam="2">  1       21 0.36796865E-01 0.26205098E+03</pdfrwt>
<totfact> 0.25153744E+04</totfact>
</mgrwt>
</event>
<event>
 4    1  0.4451819E+000  0.2358630E+03  0.7546771E-02  0.1122580E+00
         21   -1    0    0  501  502  0.00000000000E+00  0.00000000000E+00  0.20700365416E+03  0.20700365416E+03  0.00000000000E+00 0. -1.
         21   -1    0    0  502  503 -0.00000000000E+00 -0.00000000000E+00 -0.28587616082E+03  0.28587616082E+03  0.00000000000E+00 0.  1.
          6    1    1    2  501    0  0.53266037316E+02  0.15121212208E+03  0.20889737982E+02  0.23678631242E+03  0.17300000000E+03 0. -1.
         -6    1    1    2    0  503 -0.53266037316E+02 -0.15121212208E+03 -0.99762244645E+02  0.25609350256E+03  0.17300000000E+03 0.  1.
<mgrwt>
<rscale>  2 0.23586305E+03</rscale>
<asrwt>0</asrwt>
<pdfrwt beam="1">  1       21 0.31846716E-01 0.23586305E+03</pdfrwt>
<pdfrwt beam="2">  1       21 0.43980947E-01 0.23586305E+03</pdfrwt>
<totfact> 0.46148227E+04</totfact>
</mgrwt>
</event>
<event>
 4    1  0.4451819E+000  0.2472993E+03  0.7546771E-02  0.1115024E+00
         21   -1    0    0  501  502  0.00000000000E+00  0.00000000000E+00  0.26900521643E+03  0.26900521643E+03  0.00000000000E+00 0.  1.
         21   -1    0    0  502  503 -0.00000000000E+00 -0.00000000000E+00 -0.23287279691E+03  0.23287279691E+03  0.00000000000E+00 0. -1.
          6    1    1    2  501    0  0.14721553787E+03  0.97752399441E+02  0.56728837508E+02  0.25372250037E+03  0.17300000000E+03 0.  1.
         -6    1    1    2    0  503 -0.14721553787E+03 -0.97752399441E+02 -0.20596417990E+02  0.24815551298E+03  0.17300000000E+03 0.  1.
<mgrwt>
<rscale>  2 0.24729930E+03</rscale>
<asrwt>0</asrwt>
<pdfrwt beam="1">  1       21 0.41385418E-01 0.24729930E+03</pdfrwt>
<pdfrwt beam="2">  1       21 0.35826584E-01 0.24729930E+03</pdfrwt>
<totfact> 0.41171352E+04</totfact>
</mgrwt>
</event>
<event>
 4    1  0.4451819E+000  0.2187095E+03  0.7546771E-02  0.1134849E+00
         21   -1    0    0  501  502  0.00000000000E+00  0.00000000000E+00  0.52611713594E+02  0.52611713594E+02  0.00000000000E+00 0. -1.
         21   -1    0    0  502  503 -0.00000000000E+00 -0.00000000000E+00 -0.11312714289E+04  0.11312714289E+04  0.00000000000E+00 0. -1.
          6    1    1    2  501    0 -0.64448151170E+02  0.11726591092E+03 -0.27705599846E+03  0.35297858906E+03  0.17300000000E+03 0. -1.
         -6    1    1    2    0  503  0.64448151170E+02 -0.11726591092E+03 -0.80160371684E+03  0.83090455343E+03  0.17300000000E+03 0. -1.
<mgrwt>
<rscale>  2 0.21870953E+03</rscale>
<asrwt>0</asrwt>
<pdfrwt beam="1">  1       21 0.80941103E-02 0.21870953E+03</pdfrwt>
<pdfrwt beam="2">  1       21 0.17404175E+00 0.21870953E+03</pdfrwt>
<totfact> 0.23102619E+04</totfact>
</mgrwt>
</event>
<event>
 4    1  0.4451819E+000  0.1828231E+03  0.7546771E-02  0.1165099E+00
         21   -1    0    0  503  502  0.00000000000E+00  0.00000000000E+00  0.70395258602E+03  0.70395258602E+03  0.00000000000E+00 0.  1.
         21   -1    0    0  501  503 -0.00000000000E+00 -0.00000000000E+00 -0.93588958264E+02  0.93588958264E+02  0.00000000000E+00 0.  1.
          6    1    1    2  501    0 -0.24739248166E+02  0.53695823647E+02  0.25283918377E+02  0.18456312851E+03  0.17300000000E+03 0.  1.
         -6    1    1    2    0  502  0.24739248166E+02 -0.53695823647E+02  0.58507970938E+03  0.61297841577E+03  0.17300000000E+03 0.  1.
<mgrwt>
<rscale>  2 0.18282306E+03</rscale>
<asrwt>0</asrwt>
<pdfrwt beam="1">  1       21 0.10830039E+00 0.18282306E+03</pdfrwt>
<pdfrwt beam="2">  1       21 0.14398302E-01 0.18282306E+03</pdfrwt>
<totfact> 0.28820982E+04</totfact>
</mgrwt>
</event>
<event>
 4    1  0.4451819E+000  0.1788615E+03  0.7546771E-02  0.1168909E+00
         21   -1    0    0  503  502  0.00000000000E+00  0.00000000000E+00  0.86544931481E+03  0.86544931481E+03  0.00000000000E+00 0.  1.
         21   -1    0    0  501  503 -0.00000000000E+00 -0.00000000000E+00 -0.10169575299E+03  0.10169575299E+03  0.00000000000E+00 0.  1.
          6    1    1    2  501    0  0.42556234781E+02 -0.15855254376E+02 -0.39258676964E+01  0.17890454060E+03  0.17300000000E+03 0.  1.
         -6    1    1    2    0  502 -0.42556234781E+02  0.15855254376E+02  0.76767942952E+03  0.78824052720E+03  0.17300000000E+03 0.  1.
<mgrwt>
<rscale>  2 0.17886146E+03</rscale>
<asrwt>0</asrwt>
<pdfrwt beam="1">  1       21 0.13314604E+00 0.17886146E+03</pdfrwt>
<pdfrwt beam="2">  1       21 0.15645501E-01 0.17886146E+03</pdfrwt>
<totfact> 0.14922655E+04</totfact>
</mgrwt>
</event>
<event>
 4    1  0.4451819E+000  0.1822765E+03  0.7546771E-02  0.1165618E+00
         21   -1    0    0  503  502  0.00000000000E+00  0.00000000000E+00  0.51083347723E+03  0.51083347723E+03  0.00000000000E+00 0. -1.
         21   -1    0    0  501  503 -0.00000000000E+00 -0.00000000000E+00 -0.82986527642E+02  0.82986527642E+02  0.00000000000E+00 0. -1.
          6    1    1    2  501    0 -0.49315088842E+02  0.29389341096E+02  0.75850452215E+02  0.19742847429E+03  0.17300000000E+03 0. -1.
         -6    1    1    2    0  502  0.49315088842E+02 -0.29389341096E+02  0.35199649738E+03  0.39639153059E+03  0.17300000000E+03 0. -1.
<mgrwt>
<rscale>  2 0.18227647E+03</rscale>
<asrwt>0</asrwt>
<pdfrwt beam="1">  1       21 0.78589764E-01 0.18227647E+03</pdfrwt>
<pdfrwt beam="2">  1       21 0.12767158E-01 0.18227647E+03</pdfrwt>
<totfact> 0.75512347E+04</totfact>
</mgrwt>
</event>
<event>
 4    1  0.4451819E+000  0.1945972E+03  0.7546771E-02  0.1154379E+00
         21   -1    0    0  503  502  0.00000000000E+00  0.00000000000E+00  0.18671580924E+04  0.18671580924E+04  0.00000000000E+00 0.  1.
         21   -1    0    0  501  503 -0.00000000000E+00 -0.00000000000E+00 -0.22145747993E+02  0.22145747993E+02  0.00000000000E+00 0.  1.
          6    1    1    2  501    0  0.41098951640E+02  0.79056640061E+02  0.64839826729E+03  0.67697000612E+03  0.17300000000E+03 0.  1.
         -6    1    1    2    0  502 -0.41098951640E+02 -0.79056640061E+02  0.11966140772E+04  0.12123338343E+04  0.17300000000E+03 0.  1.
<mgrwt>
<rscale>  2 0.19459722E+03</rscale>
<asrwt>0</asrwt>
<pdfrwt beam="1">  1       21 0.28725497E+00 0.19459722E+03</pdfrwt>
<pdfrwt beam="2">  1       21 0.34070396E-02 0.19459722E+03</pdfrwt>
<totfact> 0.20666396E+04</totfact>
</mgrwt>
</event>
<event>
 4    1  0.4451819E+000  0.1793698E+03  0.7546771E-02  0.1168414E+00
         21   -1    0    0  501  502  0.00000000000E+00  0.00000000000E+00  0.87762248188E+03  0.87762248188E+03  0.00000000000E+00 0.  1.
         21   -1    0    0  502  503 -0.00000000000E+00 -0.00000000000E+00 -0.56380554142E+02  0.56380554142E+02  0.00000000000E+00 0.  1.
          6    1    1    2  501    0  0.46607972715E+02 -0.84989027432E+01  0.68681513303E+03  0.70985108398E+03  0.17300000000E+03 0.  1.
         -6    1    1    2    0  503 -0.46607972715E+02  0.84989027432E+01  0.13442679471E+03  0.22415195204E+03  0.17300000000E+03 0.  1.
<mgrwt>
<rscale>  2 0.17936983E+03</rscale>
<asrwt>0</asrwt>
<pdfrwt beam="1">  1       21 0.13501883E+00 0.17936983E+03</pdfrwt>
<pdfrwt beam="2">  1       21 0.86739321E-02 0.17936983E+03</pdfrwt>
<totfact> 0.41229129E+04</totfact>
</mgrwt>
</event>
<event>
 4    1  0.4451819E+000  0.2756414E+03  0.7546771E-02  0.1098094E+00
         21   -1    0    0  503  502  0.00000000000E+00  0.00000000000E+00  0.84545775573E+02  0.84545775573E+02  0.00000000000E+00 0.  1.
         21   -1    0    0  501  503 -0.00000000000E+00 -0.00000000000E+00 -0.89866359293E+03  0.89866359293E+03  0.00000000000E+00 0.  1.
          6    1    1    2  501    0  0.16490672804E+03  0.13731342486E+03 -0.40693479166E+03  0.49150191278E+03  0.17300000000E+03 0.  1.
         -6    1    1    2    0  502 -0.16490672804E+03 -0.13731342486E+03 -0.40718302569E+03  0.49170745572E+03  0.17300000000E+03 0.  1.
<mgrwt>
<rscale>  2 0.27564144E+03</rscale>
<asrwt>0</asrwt>
<pdfrwt beam="1">  1       21 0.13007043E-01 0.27564144E+03</pdfrwt>
<pdfrwt beam="2">  1       21 0.13825593E+00 0.27564144E+03</pdfrwt>
<totfact> 0.17889745E+04</totfact>
</mgrwt>
</event>
<event>
 4    1  0.4451819E+000  0.1985867E+03  0.7546771E-02  0.1150937E+00
         21   -1    0    0  501  502  0.00000000000E+00  0.00000000000E+00  0.79552750798E+02  0.79552750798E+02  0.00000000000E+00 0. -1.
         21   -1    0    0  502  503 -0.00000000000E+00 -0.00000000000E+00 -0.56916618158E+03  0.56916618158E+03  0.00000000000E+00 0.  1.
          6    1    1    2  501    0  0.36655645476E+02 -0.90355151224E+02 -0.36131636814E+03  0.41229383646E+03  0.17300000000E+03 0. -1.
         -6    1    1    2    0  503 -0.36655645476E+02  0.90355151224E+02 -0.12829706265E+03  0.23642509592E+03  0.17300000000E+03 0. -1.
<mgrwt>
<rscale>  2 0.19858673E+03</rscale>
<asrwt>0</asrwt>
<pdfrwt beam="1">  1       21 0.12238885E-01 0.19858673E+03</pdfrwt>
<pdfrwt beam="2">  1       21 0.87564029E-01 0.19858673E+03</pdfrwt>
<totfact> 0.63224538E+04</totfact>
</mgrwt>
</event>
<event>
 4    1  0.4451819E+000  0.2057081E+03  0.7546771E-02  0.1145010E+00
         21   -1    0    0  503  502  0.00000000000E+00  0.00000000000E+00  0.63277564466E+03  0.63277564466E+03  0.00000000000E+00 0. -1.
         21   -1    0    0  501  503 -0.00000000000E+00 -0.00000000000E+00 -0.11197518966E+04  0.11197518966E+04  0.00000000000E+00 0. -1.
          6    1    1    2  501    0  0.48416337361E+02  0.10021327605E+03 -0.10931831716E+04  0.11123692234E+04  0.17300000000E+03 0. -1.
         -6    1    1    2    0  502 -0.48416337361E+02 -0.10021327605E+03  0.60620691970E+03  0.64015831785E+03  0.17300000000E+03 0. -1.
<mgrwt>
<rscale>  2 0.20570815E+03</rscale>
<asrwt>0</asrwt>
<pdfrwt beam="1">  1       21 0.97350101E-01 0.20570815E+03</pdfrwt>
<pdfrwt beam="2">  1       21 0.17226952E+00 0.20570815E+03</pdfrwt>
<totfact> 0.17693848E+02</totfact>
</mgrwt>
</event>
<event>
 4    1  0.4451819E+000  0.1763104E+03  0.7546771E-02  0.1171422E+00
         21   -1    0    0  501  502  0.00000000000E+00  0.00000000000E+00  0.76646524722E+02  0.76646524722E+02  0.00000000000E+00 0. -1.
         21   -1    0    0  502  503 -0.00000000000E+00 -0.00000000000E+00 -0.65540337531E+03  0.65540337531E+03  0.00000000000E+00 0.  1.
          6    1    1    2  501    0 -0.22363783684E+02  0.25616658756E+02 -0.63391345211E+02  0.18736012029E+03  0.17300000000E+03 0. -1.
         -6    1    1    2    0  503  0.22363783684E+02 -0.25616658756E+02 -0.51536550538E+03  0.54468977974E+03  0.17300000000E+03 0.  1.
<mgrwt>
<rscale>  2 0.17631039E+03</rscale>
<asrwt>0</asrwt>
<pdfrwt beam="1">  1       21 0.11791772E-01 0.17631039E+03</pdfrwt>
<pdfrwt beam="2">  1       21 0.10083129E+00 0.17631039E+03</pdfrwt>
<totfact> 0.49142873E+04</totfact>
</mgrwt>
</event>
<event>
 4    1  0.4451819E+000  0.2007459E+03  0.7546771E-02  0.1149111E+00
         21   -1    0    0  503  502  0.00000000000E+00  0.00000000000E+00  0.11504428924E+04  0.11504428924E+04  0.00000000000E+00 0.  1.
         21   -1    0    0  501  503 -0.00000000000E+00 -0.00000000000E+00 -0.35662176157E+02  0.35662176157E+02  0.00000000000E+00 0. -1.
          6    1    1    2  501    0 -0.33771377352E+01  0.10177681502E+03  0.47837103231E+03  0.51878489732E+03  0.17300000000E+03 0.  1.
         -6    1    1    2    0  502  0.33771377352E+01 -0.10177681502E+03  0.63640968395E+03  0.66732017125E+03  0.17300000000E+03 0. -1.
<mgrwt>
<rscale>  2 0.20074592E+03</rscale>
<asrwt>0</asrwt>
<pdfrwt beam="1">  1       21 0.17699119E+00 0.20074592E+03</pdfrwt>
<pdfrwt beam="2">  1       21 0.54864895E-02 0.20074592E+03</pdfrwt>
<totfact> 0.43607148E+04</totfact>
</mgrwt>
</event>
<event>
 4    1  0.4451819E+000  0.2323063E+03  0.7546771E-02  0.1125027E+00
         21   -1    0    0  501  502  0.00000000000E+00  0.00000000000E+00  0.65226607256E+02  0.65226607256E+02  0.00000000000E+00 0. -1.
         21   -1    0    0  502  503 -0.00000000000E+00 -0.00000000000E+00 -0.87225528027E+03  0.87225528027E+03  0.00000000000E+00 0.  1.
          6    1    1    2  501    0 -0.79216504447E+02 -0.13327409187E+03 -0.50985155592E+03  0.56028104306E+03  0.17300000000E+03 0. -1.
         -6    1    1    2    0  503  0.79216504447E+02  0.13327409187E+03 -0.29717711710E+03  0.37720084447E+03  0.17300000000E+03 0.  1.
<mgrwt>
<rscale>  2 0.23230635E+03</rscale>
<asrwt>0</asrwt>
<pdfrwt beam="1">  1       21 0.10034863E-01 0.23230635E+03</pdfrwt>
<pdfrwt beam="2">  1       21 0.13419311E+00 0.23230635E+03</pdfrwt>
<totfact> 0.31450353E+04</totfact>
</mgrwt>
</event>
<event>
 4    1  0.4451819E+000  0.1872846E+03  0.7546771E-02  0.1160933E+00
         21   -1    0    0  501  502  0.00000000000E+00  0.00000000000E+00  0.14920694088E+03  0.14920694088E+03  0.00000000000E+00 0.  1.
         21   -1    0    0  502  503 -0.00000000000E+00 -0.00000000000E+00 -0.24054064352E+03  0.24054064352E+03  0.00000000000E+00 0.  1.
          6    1    1    2  501    0 -0.70201505258E+02  0.14774200632E+02 -0.16304448420E+02  0.18799298759E+03  0.17300000000E+03 0.  1.
         -6    1    1    2    0  503  0.70201505258E+02 -0.14774200632E+02 -0.75029254223E+02  0.20175459681E+03  0.17300000000E+03 0.  1.
<mgrwt>
<rscale>  2 0.18728462E+03</rscale>
<asrwt>0</asrwt>
<pdfrwt beam="1">  1       21 0.22954914E-01 0.18728462E+03</pdfrwt>
<pdfrwt beam="2">  1       21 0.37006252E-01 0.18728462E+03</pdfrwt>
<totfact> 0.12569128E+05</totfact>
</mgrwt>
</event>
<event>
 4    1  0.4451819E+000  0.2371661E+03  0.7546771E-02  0.1121695E+00
         21   -1    0    0  503  502  0.00000000000E+00  0.00000000000E+00  0.16890785829E+04  0.16890785829E+04  0.00000000000E+00 0.  1.
         21   -1    0    0  501  503 -0.00000000000E+00 -0.00000000000E+00 -0.34312729566E+02  0.34312729566E+02  0.00000000000E+00 0.  1.
          6    1    1    2  501    0  0.16014845812E+03  0.25907788719E+02  0.97535917097E+03  0.10037794850E+04  0.17300000000E+03 0.  1.
         -6    1    1    2    0  502 -0.16014845812E+03 -0.25907788719E+02  0.67940668233E+03  0.71961182741E+03  0.17300000000E+03 0.  1.
<mgrwt>
<rscale>  2 0.23716606E+03</rscale>
<asrwt>0</asrwt>
<pdfrwt beam="1">  1       21 0.25985818E+00 0.23716606E+03</pdfrwt>
<pdfrwt beam="2">  1       21 0.52788828E-02 0.23716606E+03</pdfrwt>
<totfact> 0.13741028E+04</totfact>
</mgrwt>
</event>
<event>
 4    1  0.4451819E+000  0.2001256E+03  0.7546771E-02  0.1149633E+00
         21   -1    0    0  501  502  0.00000000000E+00  0.00000000000E+00  0.36591059040E+02  0.36591059040E+02  0.00000000000E+00 0.  1.
         21   -1    0    0  502  503 -0.00000000000E+00 -0.00000000000E+00 -0.15875365766E+04  0.15875365766E+04  0.00000000000E+00 0. -1.
          6    1    1    2  501    0  0.99754430297E+02 -0.13050504070E+02 -0.32293832000E+03  0.37992028183E+03  0.17300000000E+03 0.  1.
         -6    1    1    2    0  503 -0.99754430297E+02  0.13050504070E+02 -0.12280071976E+04  0.12442073539E+04  0.17300000000E+03 0. -1.
<mgrwt>
<rscale>  2 0.20012562E+03</rscale>
<asrwt>0</asrwt>
<pdfrwt beam="1">  1       21 0.56293942E-02 0.20012562E+03</pdfrwt>
<pdfrwt beam="2">  1       21 0.24423638E+00 0.20012562E+03</pdfrwt>
<totfact> 0.15706492E+04</totfact>
</mgrwt>
</event>
<event>
 4    1  0.4451819E+000  0.1931961E+03  0.7546771E-02  0.1155610E+00
         21   -1    0    0  501  502  0.00000000000E+00  0.00000000000E+00  0.67985349511E+02  0.67985349511E+02  0.00000000000E+00 0. -1.
         21   -1    0    0  502  503 -0.00000000000E+00 -0.00000000000E+00 -0.68948399217E+03  0.68948399217E+03  0.00000000000E+00 0. -1.
          6    1    1    2  501    0 -0.16953704574E+02  0.84310768815E+02 -0.13979947105E+03  0.23847143633E+03  0.17300000000E+03 0. -1.
         -6    1    1    2    0  503  0.16953704574E+02 -0.84310768815E+02 -0.48169917160E+03  0.51899790535E+03  0.17300000000E+03 0. -1.
<mgrwt>
<rscale>  2 0.19319610E+03</rscale>
<asrwt>0</asrwt>
<pdfrwt beam="1">  1       21 0.10459285E-01 0.19319610E+03</pdfrwt>
<pdfrwt beam="2">  1       21 0.10607446E+00 0.19319610E+03</pdfrwt>
<totfact> 0.53422852E+04</totfact>
</mgrwt>
</event>
<event>
 4    1  0.4451819E+000  0.1893408E+03  0.7546771E-02  0.1159057E+00
         21   -1    0    0  503  502  0.00000000000E+00  0.00000000000E+00  0.40504868820E+03  0.40504868820E+03  0.00000000000E+00 0.  1.
         21   -1    0    0  501  503 -0.00000000000E+00 -0.00000000000E+00 -0.93183504701E+02  0.93183504701E+02  0.00000000000E+00 0.  1.
          6    1    1    2  501    0 -0.45631485108E+02 -0.61957324945E+02  0.21173574733E+03  0.28404571682E+03  0.17300000000E+03 0.  1.
         -6    1    1    2    0  502  0.45631485108E+02  0.61957324945E+02  0.10012943617E+03  0.21418647608E+03  0.17300000000E+03 0.  1.
<mgrwt>
<rscale>  2 0.18934081E+03</rscale>
<asrwt>0</asrwt>
<pdfrwt beam="1">  1       21 0.62315182E-01 0.18934081E+03</pdfrwt>
<pdfrwt beam="2">  1       21 0.14335924E-01 0.18934081E+03</pdfrwt>
<totfact> 0.10185497E+05</totfact>
</mgrwt>
</event>
<event>
 4    1  0.4451819E+000  0.1932078E+03  0.7546771E-02  0.1155600E+00
         21   -1    0    0  503  502  0.00000000000E+00  0.00000000000E+00  0.10712873503E+04  0.10712873503E+04  0.00000000000E+00 0.  1.
         21   -1    0    0  501  503 -0.00000000000E+00 -0.00000000000E+00 -0.46782530623E+02  0.46782530623E+02  0.00000000000E+00 0. -1.
          6    1    1    2  501    0  0.40896314451E+02  0.75681748615E+02  0.22986165306E+03  0.30027589840E+03  0.17300000000E+03 0. -1.
         -6    1    1    2    0  502 -0.40896314451E+02 -0.75681748615E+02  0.79464316660E+03  0.81779398251E+03  0.17300000000E+03 0.  1.
<mgrwt>
<rscale>  2 0.19320775E+03</rscale>
<asrwt>0</asrwt>
<pdfrwt beam="1">  1       21 0.16481342E+00 0.19320775E+03</pdfrwt>
<pdfrwt beam="2">  1       21 0.71973132E-02 0.19320775E+03</pdfrwt>
<totfact> 0.33475522E+04</totfact>
</mgrwt>
</event>
<event>
 4    1  0.4451819E+000  0.2025897E+03  0.7546771E-02  0.1147572E+00
         21   -1    0    0  501  502  0.00000000000E+00  0.00000000000E+00  0.27722212577E+03  0.27722212577E+03  0.00000000000E+00 0.  1.
         21   -1    0    0  502  503 -0.00000000000E+00 -0.00000000000E+00 -0.14829094360E+03  0.14829094360E+03  0.00000000000E+00 0.  1.
          6    1    1    2  501    0  0.68998059780E+02  0.79704886887E+02  0.55880991919E+02  0.21015538657E+03  0.17300000000E+03 0.  1.
         -6    1    1    2    0  503 -0.68998059780E+02 -0.79704886887E+02  0.73050190253E+02  0.21535768280E+03  0.17300000000E+03 0.  1.
<mgrwt>
<rscale>  2 0.20258974E+03</rscale>
<asrwt>0</asrwt>
<pdfrwt beam="1">  1       21 0.42649558E-01 0.20258974E+03</pdfrwt>
<pdfrwt beam="2">  1       21 0.22813991E-01 0.20258974E+03</pdfrwt>
<totfact> 0.94926061E+04</totfact>
</mgrwt>
</event>
<event>
 4    1  0.4451819E+000  0.2259026E+03  0.7546771E-02  0.1129557E+00
         21   -1    0    0  503  502  0.00000000000E+00  0.00000000000E+00  0.12920164957E+03  0.12920164957E+03  0.00000000000E+00 0. -1.
         21   -1    0    0  501  503 -0.00000000000E+00 -0.00000000000E+00 -0.42414382052E+03  0.42414382052E+03  0.00000000000E+00 0.  1.
          6    1    1    2  501    0  0.41191481955E+02 -0.13930637938E+03 -0.22002077769E+03  0.31534290564E+03  0.17300000000E+03 0. -1.
         -6    1    1    2    0  502 -0.41191481955E+02  0.13930637938E+03 -0.74921393256E+02  0.23800256446E+03  0.17300000000E+03 0.  1.
<mgrwt>
<rscale>  2 0.22590265E+03</rscale>
<asrwt>0</asrwt>
<pdfrwt beam="1">  1       21 0.19877177E-01 0.22590265E+03</pdfrwt>
<pdfrwt beam="2">  1       21 0.65252895E-01 0.22590265E+03</pdfrwt>
<totfact> 0.49674434E+04</totfact>
</mgrwt>
</event>
<event>
 4    1  0.4451819E+000  0.2205647E+03  0.7546771E-02  0.1133463E+00
         21   -1    0    0  503  502  0.00000000000E+00  0.00000000000E+00  0.23213284501E+03  0.23213284501E+03  0.00000000000E+00 0.  1.
         21   -1    0    0  501  503 -0.00000000000E+00 -0.00000000000E+00 -0.21263953660E+03  0.21263953660E+03  0.00000000000E+00 0.  1.
          6    1    1    2  501    0  0.99210175376E+02  0.94218595678E+02  0.36452231437E+02  0.22355663230E+03  0.17300000000E+03 0.  1.
         -6    1    1    2    0  502 -0.99210175376E+02 -0.94218595678E+02 -0.16958923027E+02  0.22121574930E+03  0.17300000000E+03 0.  1.
<mgrwt>
<rscale>  2 0.22056474E+03</rscale>
<asrwt>0</asrwt>
<pdfrwt beam="1">  1       21 0.35712745E-01 0.22056474E+03</pdfrwt>
<pdfrwt beam="2">  1       21 0.32713775E-01 0.22056474E+03</pdfrwt>
<totfact> 0.67169071E+04</totfact>
</mgrwt>
</event>
<event>
 4    1  0.4451819E+000  0.2170278E+03  0.7546771E-02  0.1136119E+00
         21   -1    0    0  501  502  0.00000000000E+00  0.00000000000E+00  0.28716250185E+03  0.28716250185E+03  0.00000000000E+00 0.  1.
         21   -1    0    0  502  503 -0.00000000000E+00 -0.00000000000E+00 -0.24114617828E+03  0.24114617828E+03  0.00000000000E+00 0.  1.
          6    1    1    2  501    0 -0.10827250454E+03 -0.73818287583E+02  0.17239481071E+03  0.27716609745E+03  0.17300000000E+03 0.  1.
         -6    1    1    2    0  503  0.10827250454E+03  0.73818287583E+02 -0.12637848714E+03  0.25114258267E+03  0.17300000000E+03 0.  1.
<mgrwt>
<rscale>  2 0.21702782E+03</rscale>
<asrwt>0</asrwt>
<pdfrwt beam="1">  1       21 0.44178846E-01 0.21702782E+03</pdfrwt>
<pdfrwt beam="2">  1       21 0.37099412E-01 0.21702782E+03</pdfrwt>
<totfact> 0.34046905E+04</totfact>
</mgrwt>
</event>
<event>
 4    1  0.4451819E+000  0.2149668E+03  0.7546771E-02  0.1137692E+00
         21   -1    0    0  503  502  0.00000000000E+00  0.00000000000E+00  0.10938242090E+03  0.10938242090E+03  0.00000000000E+00 0. -1.
         21   -1    0    0  501  503 -0.00000000000E+00 -0.00000000000E+00 -0.53096760340E+03  0.53096760340E+03  0.00000000000E+00 0. -1.
          6    1    1    2  501    0  0.75571658032E+01 -0.12737587707E+03 -0.35552464107E+03  0.41546178551E+03  0.17300000000E+03 0. -1.
         -6    1    1    2    0  502 -0.75571658032E+01  0.12737587707E+03 -0.66060541429E+02  0.22488823879E+03  0.17300000000E+03 0. -1.
<mgrwt>
<rscale>  2 0.21496680E+03</rscale>
<asrwt>0</asrwt>
<pdfrwt beam="1">  1       21 0.16828065E-01 0.21496680E+03</pdfrwt>
<pdfrwt beam="2">  1       21 0.81687323E-01 0.21496680E+03</pdfrwt>
<totfact> 0.41223320E+04</totfact>
</mgrwt>
</event>
<event>
 4    1  0.4451819E+000  0.2691789E+03  0.7546771E-02  0.1101750E+00
         21   -1    0    0  503  502  0.00000000000E+00  0.00000000000E+00  0.83943534246E+03  0.83943534246E+03  0.00000000000E+00 0. -1.
         21   -1    0    0  501  503 -0.00000000000E+00 -0.00000000000E+00 -0.88548632520E+02  0.88548632520E+02  0.00000000000E+00 0. -1.
          6    1    1    2  501    0  0.15600553823E+03  0.13487242315E+03  0.30177873734E+03  0.40438558925E+03  0.17300000000E+03 0. -1.
         -6    1    1    2    0  502 -0.15600553823E+03 -0.13487242315E+03  0.44910797260E+03  0.52359838573E+03  0.17300000000E+03 0. -1.
<mgrwt>
<rscale>  2 0.26917893E+03</rscale>
<asrwt>0</asrwt>
<pdfrwt beam="1">  1       21 0.12914389E+00 0.26917893E+03</pdfrwt>
<pdfrwt beam="2">  1       21 0.13622867E-01 0.26917893E+03</pdfrwt>
<totfact> 0.19661016E+04</totfact>
</mgrwt>
</event>
<event>
 4    1  0.4451819E+000  0.1860601E+03  0.7546771E-02  0.1162064E+00
         21   -1    0    0  501  502  0.00000000000E+00  0.00000000000E+00  0.14155923879E+03  0.14155923879E+03  0.00000000000E+00 0.  1.
         21   -1    0    0  502  503 -0.00000000000E+00 -0.00000000000E+00 -0.24788046831E+03  0.24788046831E+03  0.00000000000E+00 0.  1.
          6    1    1    2  501    0 -0.39018203942E+01  0.68367553389E+02 -0.30590916966E+02  0.18855808325E+03  0.17300000000E+03 0.  1.
         -6    1    1    2    0  503  0.39018203942E+01 -0.68367553389E+02 -0.75730312562E+02  0.20088162385E+03  0.17300000000E+03 0.  1.
<mgrwt>
<rscale>  2 0.18606006E+03</rscale>
<asrwt>0</asrwt>
<pdfrwt beam="1">  1       21 0.21778345E-01 0.18606006E+03</pdfrwt>
<pdfrwt beam="2">  1       21 0.38135456E-01 0.18606006E+03</pdfrwt>
<totfact> 0.13075835E+05</totfact>
</mgrwt>
</event>
<event>
 4    1  0.4451819E+000  0.4757798E+03  0.7546771E-02  0.1020301E+00
         21   -1    0    0  501  502  0.00000000000E+00  0.00000000000E+00  0.11645999289E+04  0.11645999289E+04  0.00000000000E+00 0. -1.
         21   -1    0    0  502  503 -0.00000000000E+00 -0.00000000000E+00 -0.29273856245E+03  0.29273856245E+03  0.00000000000E+00 0. -1.
          6    1    1    2  501    0 -0.42382267885E+03  0.12966001081E+03  0.85831984991E+03  0.98136606129E+03  0.17300000000E+03 0. -1.
         -6    1    1    2    0  503  0.42382267885E+03 -0.12966001081E+03  0.13541516542E+02  0.47597243006E+03  0.17300000000E+03 0. -1.
<mgrwt>
<rscale>  2 0.47577976E+03</rscale>
<asrwt>0</asrwt>
<pdfrwt beam="1">  1       21 0.17916922E+00 0.47577976E+03</pdfrwt>
<pdfrwt beam="2">  1       21 0.45036703E-01 0.47577976E+03</pdfrwt>
<totfact> 0.71891480E+02</totfact>
</mgrwt>
</event>
<event>
 4    1  0.4451819E+000  0.1888614E+03  0.7546771E-02  0.1159492E+00
         21   -1    0    0  503  502  0.00000000000E+00  0.00000000000E+00  0.21659069314E+03  0.21659069314E+03  0.00000000000E+00 0.  1.
         21   -1    0    0  501  503 -0.00000000000E+00 -0.00000000000E+00 -0.16975919518E+03  0.16975919518E+03  0.00000000000E+00 0. -1.
          6    1    1    2  501    0  0.75365588598E+02 -0.77229284671E+01 -0.99915013652E+01  0.18912547599E+03  0.17300000000E+03 0.  1.
         -6    1    1    2    0  502 -0.75365588598E+02  0.77229284671E+01  0.56822999328E+02  0.19722441234E+03  0.17300000000E+03 0.  1.
<mgrwt>
<rscale>  2 0.18886137E+03</rscale>
<asrwt>0</asrwt>
<pdfrwt beam="1">  1       21 0.33321645E-01 0.18886137E+03</pdfrwt>
<pdfrwt beam="2">  1       21 0.26116799E-01 0.18886137E+03</pdfrwt>
<totfact> 0.12099254E+05</totfact>
</mgrwt>
</event>
<event>
 4    1  0.4451819E+000  0.2252307E+03  0.7546771E-02  0.1130042E+00
         21   -1    0    0  503  502  0.00000000000E+00  0.00000000000E+00  0.16784985101E+03  0.16784985101E+03  0.00000000000E+00 0.  1.
         21   -1    0    0  501  503 -0.00000000000E+00 -0.00000000000E+00 -0.30801802825E+03  0.30801802825E+03  0.00000000000E+00 0.  1.
          6    1    1    2  501    0 -0.13270366978E+03 -0.56476766985E+02 -0.10270654208E+03  0.24754297196E+03  0.17300000000E+03 0.  1.
         -6    1    1    2    0  502  0.13270366978E+03  0.56476766985E+02 -0.37461635166E+02  0.22832490730E+03  0.17300000000E+03 0.  1.
<mgrwt>
<rscale>  2 0.22523075E+03</rscale>
<asrwt>0</asrwt>
<pdfrwt beam="1">  1       21 0.25823054E-01 0.22523075E+03</pdfrwt>
<pdfrwt beam="2">  1       21 0.47387389E-01 0.22523075E+03</pdfrwt>
<totfact> 0.59766161E+04</totfact>
</mgrwt>
</event>
<event>
 4    1  0.4451819E+000  0.1867339E+03  0.7546771E-02  0.1161441E+00
         21   -1    0    0  503  502  0.00000000000E+00  0.00000000000E+00  0.82618884141E+03  0.82618884141E+03  0.00000000000E+00 0. -1.
         21   -1    0    0  501  503 -0.00000000000E+00 -0.00000000000E+00 -0.16047167612E+03  0.16047167612E+03  0.00000000000E+00 0. -1.
          6    1    1    2  501    0  0.48034213217E+02 -0.51315299384E+02 -0.90656819910E+02  0.20757698472E+03  0.17300000000E+03 0. -1.
         -6    1    1    2    0  502 -0.48034213217E+02  0.51315299384E+02  0.75637398521E+03  0.77908353280E+03  0.17300000000E+03 0. -1.
<mgrwt>
<rscale>  2 0.18673389E+03</rscale>
<asrwt>0</asrwt>
<pdfrwt beam="1">  1       21 0.12710597E+00 0.18673389E+03</pdfrwt>
<pdfrwt beam="2">  1       21 0.24687950E-01 0.18673389E+03</pdfrwt>
<totfact> 0.71296439E+03</totfact>
</mgrwt>
</event>
<event>
 4    1  0.4451819E+000  0.3098273E+03  0.7546771E-02  0.1080429E+00
         21   -1    0    0  501  502  0.00000000000E+00  0.00000000000E+00  0.12301347726E+03  0.12301347726E+03  0.00000000000E+00 0. -1.
         21   -1    0    0  502  503 -0.00000000000E+00 -0.00000000000E+00 -0.10484317995E+04  0.10484317995E+04  0.00000000000E+00 0.  1.
          6    1    1    2  501    0 -0.16376704109E+02  0.25650689665E+03 -0.16652664502E+03  0.35174437873E+03  0.17300000000E+03 0. -1.
         -6    1    1    2    0  503  0.16376704109E+02 -0.25650689665E+03 -0.75889167717E+03  0.81970089798E+03  0.17300000000E+03 0.  1.
<mgrwt>
<rscale>  2 0.30982735E+03</rscale>
<asrwt>0</asrwt>
<pdfrwt beam="1">  1       21 0.18925151E-01 0.30982735E+03</pdfrwt>
<pdfrwt beam="2">  1       21 0.16129720E+00 0.30982735E+03</pdfrwt>
<totfact> 0.58263276E+03</totfact>
</mgrwt>
</event>
<event>
 4    1  0.4451819E+000  0.2636300E+03  0.7546771E-02  0.1104982E+00
         21   -1    0    0  501  502  0.00000000000E+00  0.00000000000E+00  0.71526344069E+03  0.71526344069E+03  0.00000000000E+00 0.  1.
         21   -1    0    0  502  503 -0.00000000000E+00 -0.00000000000E+00 -0.25924054067E+03  0.25924054067E+03  0.00000000000E+00 0.  1.
          6    1    1    2  501    0 -0.13207129783E+03  0.14875798339E+03  0.61327399953E+03  0.66753708798E+03  0.17300000000E+03 0.  1.
         -6    1    1    2    0  503  0.13207129783E+03 -0.14875798339E+03 -0.15725109951E+03  0.30696689338E+03  0.17300000000E+03 0.  1.
<mgrwt>
<rscale>  2 0.26362998E+03</rscale>
<asrwt>0</asrwt>
<pdfrwt beam="1">  1       21 0.11004053E+00 0.26362998E+03</pdfrwt>
<pdfrwt beam="2">  1       21 0.39883160E-01 0.26362998E+03</pdfrwt>
<totfact> 0.37543571E+03</totfact>
</mgrwt>
</event>
<event>
 4    1  0.4451819E+000  0.1743956E+03  0.7546771E-02  0.1173340E+00
         21   -1    0    0  503  502  0.00000000000E+00  0.00000000000E+00  0.29130779890E+03  0.29130779890E+03  0.00000000000E+00 0. -1.
         21   -1    0    0  501  503 -0.00000000000E+00 -0.00000000000E+00 -0.10443037088E+03  0.10443037088E+03  0.00000000000E+00 0. -1.
          6    1    1    2  501    0 -0.21973717652E+02 -0.14117442537E+01  0.96554694884E+02  0.19934052873E+03  0.17300000000E+03 0. -1.
         -6    1    1    2    0  502  0.21973717652E+02  0.14117442537E+01  0.90322733137E+02  0.19639764105E+03  0.17300000000E+03 0. -1.
<mgrwt>
<rscale>  2 0.17439563E+03</rscale>
<asrwt>0</asrwt>
<pdfrwt beam="1">  1       21 0.44816584E-01 0.17439563E+03</pdfrwt>
<pdfrwt beam="2">  1       21 0.16066211E-01 0.17439563E+03</pdfrwt>
<totfact> 0.16631335E+05</totfact>
</mgrwt>
</event>
<event>
 4    1  0.4451819E+000  0.1776721E+03  0.7546771E-02  0.1170075E+00
         21   -1    0    0  503  502  0.00000000000E+00  0.00000000000E+00  0.57402595717E+03  0.57402595717E+03  0.00000000000E+00 0. -1.
         21   -1    0    0  501  503 -0.00000000000E+00 -0.00000000000E+00 -0.15777246428E+03  0.15777246428E+03  0.00000000000E+00 0. -1.
          6    1    1    2  501    0 -0.34991111648E+02  0.20347261542E+02 -0.87197509581E+02  0.19791613028E+03  0.17300000000E+03 0. -1.
         -6    1    1    2    0  502  0.34991111648E+02 -0.20347261542E+02  0.50345100246E+03  0.53388229117E+03  0.17300000000E+03 0. -1.
<mgrwt>
<rscale>  2 0.17767214E+03</rscale>
<asrwt>0</asrwt>
<pdfrwt beam="1">  1       21 0.88311685E-01 0.17767214E+03</pdfrwt>
<pdfrwt beam="2">  1       21 0.24272687E-01 0.17767214E+03</pdfrwt>
<totfact> 0.17753608E+04</totfact>
</mgrwt>
</event>
<event>
 4    1  0.4451819E+000  0.1869209E+03  0.7546771E-02  0.1161268E+00
         21   -1    0    0  503  502  0.00000000000E+00  0.00000000000E+00  0.21951956886E+03  0.21951956886E+03  0.00000000000E+00 0.  1.
         21   -1    0    0  501  503 -0.00000000000E+00 -0.00000000000E+00 -0.25110428698E+03  0.25110428698E+03  0.00000000000E+00 0.  1.
          6    1    1    2  501    0  0.10920338656E+01 -0.70775877689E+02 -0.15817987277E+03  0.24486790225E+03  0.17300000000E+03 0.  1.
         -6    1    1    2    0  502 -0.10920338656E+01  0.70775877689E+02  0.12659515465E+03  0.22575595359E+03  0.17300000000E+03 0.  1.
<mgrwt>
<rscale>  2 0.18692089E+03</rscale>
<asrwt>0</asrwt>
<pdfrwt beam="1">  1       21 0.33772241E-01 0.18692089E+03</pdfrwt>
<pdfrwt beam="2">  1       21 0.38631429E-01 0.18692089E+03</pdfrwt>
<totfact> 0.54714827E+04</totfact>
</mgrwt>
</event>
<event>
 4    1  0.4451819E+000  0.2791297E+03  0.7546771E-02  0.1096165E+00
         21   -1    0    0  503  502  0.00000000000E+00  0.00000000000E+00  0.69455795670E+02  0.69455795670E+02  0.00000000000E+00 0. -1.
         21   -1    0    0  501  503 -0.00000000000E+00 -0.00000000000E+00 -0.16026853346E+04  0.16026853346E+04  0.00000000000E+00 0. -1.
          6    1    1    2  501    0  0.15848061150E+03  0.15122267059E+03 -0.12246019210E+04  0.12560108539E+04  0.17300000000E+03 0. -1.
         -6    1    1    2    0  502 -0.15848061150E+03 -0.15122267059E+03 -0.30862761792E+03  0.41613027631E+03  0.17300000000E+03 0. -1.
<mgrwt>
<rscale>  2 0.27912972E+03</rscale>
<asrwt>0</asrwt>
<pdfrwt beam="1">  1       21 0.10685507E-01 0.27912972E+03</pdfrwt>
<pdfrwt beam="2">  1       21 0.24656698E+00 0.27912972E+03</pdfrwt>
<totfact> 0.46632559E+03</totfact>
</mgrwt>
</event>
<event>
 4    1  0.4451819E+000  0.2136514E+03  0.7546771E-02  0.1138707E+00
         21   -1    0    0  503  502  0.00000000000E+00  0.00000000000E+00  0.44947548025E+02  0.44947548025E+02  0.00000000000E+00 0. -1.
         21   -1    0    0  501  503 -0.00000000000E+00 -0.00000000000E+00 -0.10509416715E+04  0.10509416715E+04  0.00000000000E+00 0. -1.
          6    1    1    2  501    0  0.83631015587E+02 -0.93401231827E+02 -0.60353635844E+03  0.64023673187E+03  0.17300000000E+03 0. -1.
         -6    1    1    2    0  502 -0.83631015587E+02  0.93401231827E+02 -0.40245776508E+03  0.45565248770E+03  0.17300000000E+03 0. -1.
<mgrwt>
<rscale>  2 0.21365144E+03</rscale>
<asrwt>0</asrwt>
<pdfrwt beam="1">  1       21 0.69150078E-02 0.21365144E+03</pdfrwt>
<pdfrwt beam="2">  1       21 0.16168332E+00 0.21365144E+03</pdfrwt>
<totfact> 0.37320689E+04</totfact>
</mgrwt>
</event>
<event>
 4    1  0.4451819E+000  0.2075945E+03  0.7546771E-02  0.1143485E+00
         21   -1    0    0  501  502  0.00000000000E+00  0.00000000000E+00  0.87834483290E+03  0.87834483290E+03  0.00000000000E+00 0. -1.
         21   -1    0    0  502  503 -0.00000000000E+00 -0.00000000000E+00 -0.97594256404E+02  0.97594256404E+02  0.00000000000E+00 0. -1.
          6    1    1    2  501    0 -0.11291539061E+03 -0.20410313869E+02  0.73447560300E+03  0.76324955143E+03  0.17300000000E+03 0. -1.
         -6    1    1    2    0  503  0.11291539061E+03  0.20410313869E+02  0.46274973493E+02  0.21268953788E+03  0.17300000000E+03 0. -1.
<mgrwt>
<rscale>  2 0.20759448E+03</rscale>
<asrwt>0</asrwt>
<pdfrwt beam="1">  1       21 0.13512997E+00 0.20759448E+03</pdfrwt>
<pdfrwt beam="2">  1       21 0.15014502E-01 0.20759448E+03</pdfrwt>
<totfact> 0.15190051E+04</totfact>
</mgrwt>
</event>
<event>
 4    1  0.4451819E+000  0.1847728E+03  0.7546771E-02  0.1163262E+00
         21   -1    0    0  503  502  0.00000000000E+00  0.00000000000E+00  0.32946511561E+03  0.32946511561E+03  0.00000000000E+00 0.  1.
         21   -1    0    0  501  503 -0.00000000000E+00 -0.00000000000E+00 -0.15928098523E+03  0.15928098523E+03  0.00000000000E+00 0.  1.
          6    1    1    2  501    0 -0.64664235677E+02 -0.55238074292E+01 -0.59360569172E+02  0.19407383388E+03  0.17300000000E+03 0.  1.
         -6    1    1    2    0  502  0.64664235677E+02  0.55238074292E+01  0.22954469955E+03  0.29467226696E+03  0.17300000000E+03 0.  1.
<mgrwt>
<rscale>  2 0.18477277E+03</rscale>
<asrwt>0</asrwt>
<pdfrwt beam="1">  1       21 0.50686941E-01 0.18477277E+03</pdfrwt>
<pdfrwt beam="2">  1       21 0.24504767E-01 0.18477277E+03</pdfrwt>
<totfact> 0.58482834E+04</totfact>
</mgrwt>
</event>
<event>
 4    1  0.4451819E+000  0.2464340E+03  0.7546771E-02  0.1115579E+00
         21   -1    0    0  501  502  0.00000000000E+00  0.00000000000E+00  0.57441927034E+03  0.57441927034E+03  0.00000000000E+00 0.  1.
         21   -1    0    0  502  503 -0.00000000000E+00 -0.00000000000E+00 -0.10575353558E+03  0.10575353558E+03  0.00000000000E+00 0. -1.
          6    1    1    2  501    0  0.30630412219E+02  0.17280762992E+03  0.22861534583E+03  0.33614680641E+03  0.17300000000E+03 0. -1.
         -6    1    1    2    0  503 -0.30630412219E+02 -0.17280762992E+03  0.24005038892E+03  0.34402599950E+03  0.17300000000E+03 0.  1.
<mgrwt>
<rscale>  2 0.24643397E+03</rscale>
<asrwt>0</asrwt>
<pdfrwt beam="1">  1       21 0.88372194E-01 0.24643397E+03</pdfrwt>
<pdfrwt beam="2">  1       21 0.16269775E-01 0.24643397E+03</pdfrwt>
<totfact> 0.36077733E+04</totfact>
</mgrwt>
</event>
<event>
 4    1  0.4451819E+000  0.2017386E+03  0.7546771E-02  0.1148280E+00
         21   -1    0    0  503  502  0.00000000000E+00  0.00000000000E+00  0.36218942344E+03  0.36218942344E+03  0.00000000000E+00 0. -1.
         21   -1    0    0  501  503 -0.00000000000E+00 -0.00000000000E+00 -0.11486818534E+03  0.11486818534E+03  0.00000000000E+00 0. -1.
          6    1    1    2  501    0 -0.98495475166E+02  0.32681948197E+02  0.15885188663E+03  0.25677303256E+03  0.17300000000E+03 0. -1.
         -6    1    1    2    0  502  0.98495475166E+02 -0.32681948197E+02  0.88469351474E+02  0.22028457621E+03  0.17300000000E+03 0. -1.
<mgrwt>
<rscale>  2 0.20173861E+03</rscale>
<asrwt>0</asrwt>
<pdfrwt beam="1">  1       21 0.55721449E-01 0.20173861E+03</pdfrwt>
<pdfrwt beam="2">  1       21 0.17672029E-01 0.20173861E+03</pdfrwt>
<totfact> 0.87795029E+04</totfact>
</mgrwt>
</event>
<event>
 4    1  0.4451819E+000  0.1943288E+03  0.7546771E-02  0.1154614E+00
         21   -1    0    0  503  502  0.00000000000E+00  0.00000000000E+00  0.17283596562E+04  0.17283596562E+04  0.00000000000E+00 0. -1.
         21   -1    0    0  501  503 -0.00000000000E+00 -0.00000000000E+00 -0.24200304232E+02  0.24200304232E+02  0.00000000000E+00 0. -1.
          6    1    1    2  501    0 -0.54952131310E+02  0.69389945508E+02  0.11251947564E+04  0.11418524165E+04  0.17300000000E+03 0.  1.
         -6    1    1    2    0  502  0.54952131310E+02 -0.69389945508E+02  0.57896459553E+03  0.61070754388E+03  0.17300000000E+03 0.  1.
<mgrwt>
<rscale>  2 0.19432885E+03</rscale>
<asrwt>0</asrwt>
<pdfrwt beam="1">  1       21 0.26590139E+00 0.19432885E+03</pdfrwt>
<pdfrwt beam="2">  1       21 0.37231251E-02 0.19432885E+03</pdfrwt>
<totfact> 0.23688455E+04</totfact>
</mgrwt>
</event>
<event>
 4    1  0.4451819E+000  0.2802882E+03  0.7546771E-02  0.1095532E+00
         21   -1    0    0  501  502  0.00000000000E+00  0.00000000000E+00  0.24601520724E+03  0.24601520724E+03  0.00000000000E+00 0. -1.
         21   -1    0    0  502  503 -0.00000000000E+00 -0.00000000000E+00 -0.36066655494E+03  0.36066655494E+03  0.00000000000E+00 0.  1.
          6    1    1    2  501    0  0.21969140761E+03 -0.19186944162E+02  0.45361188153E+02  0.28393501157E+03  0.17300000000E+03 0. -1.
         -6    1    1    2    0  503 -0.21969140761E+03  0.19186944162E+02 -0.16001253585E+03  0.32274675062E+03  0.17300000000E+03 0.  1.
<mgrwt>
<rscale>  2 0.28028816E+03</rscale>
<asrwt>0</asrwt>
<pdfrwt beam="1">  1       21 0.37848494E-01 0.28028816E+03</pdfrwt>
<pdfrwt beam="2">  1       21 0.55487162E-01 0.28028816E+03</pdfrwt>
<totfact> 0.19702729E+04</totfact>
</mgrwt>
</event>
<event>
 4    1  0.4451819E+000  0.1761086E+03  0.7546771E-02  0.1171623E+00
         21   -1    0    0  503  502  0.00000000000E+00  0.00000000000E+00  0.71086517764E+03  0.71086517764E+03  0.00000000000E+00 0. -1.
         21   -1    0    0  501  503 -0.00000000000E+00 -0.00000000000E+00 -0.64903737457E+02  0.64903737457E+02  0.00000000000E+00 0. -1.
          6    1    1    2  501    0 -0.15976627748E+02 -0.28809669594E+02  0.10090510146E+03  0.20296819750E+03  0.17300000000E+03 0. -1.
         -6    1    1    2    0  502  0.15976627748E+02  0.28809669594E+02  0.54505633872E+03  0.57280071760E+03  0.17300000000E+03 0. -1.
<mgrwt>
<rscale>  2 0.17610863E+03</rscale>
<asrwt>0</asrwt>
<pdfrwt beam="1">  1       21 0.10936387E+00 0.17610863E+03</pdfrwt>
<pdfrwt beam="2">  1       21 0.99851909E-02 0.17610863E+03</pdfrwt>
<totfact> 0.54335171E+04</totfact>
</mgrwt>
</event>
<event>
 4    1  0.4451819E+000  0.2580562E+03  0.7546771E-02  0.1108317E+00
         21   -1    0    0  503  502  0.00000000000E+00  0.00000000000E+00  0.27831565999E+03  0.27831565999E+03  0.00000000000E+00 0.  1.
         21   -1    0    0  501  503 -0.00000000000E+00 -0.00000000000E+00 -0.34316476380E+03  0.34316476380E+03  0.00000000000E+00 0. -1.
          6    1    1    2  501    0  0.19069107393E+03 -0.17347475961E+02 -0.20340234006E+03  0.32858108975E+03  0.17300000000E+03 0.  1.
         -6    1    1    2    0  502 -0.19069107393E+03  0.17347475961E+02  0.13855323625E+03  0.29289933403E+03  0.17300000000E+03 0. -1.
<mgrwt>
<rscale>  2 0.25805624E+03</rscale>
<asrwt>0</asrwt>
<pdfrwt beam="1">  1       21 0.42817794E-01 0.25805624E+03</pdfrwt>
<pdfrwt beam="2">  1       21 0.52794579E-01 0.25805624E+03</pdfrwt>
<totfact> 0.17205880E+04</totfact>
</mgrwt>
</event>
<event>
 4    1  0.4451819E+000  0.1819906E+03  0.7546771E-02  0.1165890E+00
         21   -1    0    0  503  502  0.00000000000E+00  0.00000000000E+00  0.83175069940E+02  0.83175069940E+02  0.00000000000E+00 0.  1.
         21   -1    0    0  501  503 -0.00000000000E+00 -0.00000000000E+00 -0.43162912128E+03  0.43162912128E+03  0.00000000000E+00 0.  1.
          6    1    1    2  501    0  0.51677331128E+02 -0.22826436122E+02 -0.24585741804E+03  0.30588635593E+03  0.17300000000E+03 0.  1.
         -6    1    1    2    0  502 -0.51677331128E+02  0.22826436122E+02 -0.10259663330E+03  0.20891783529E+03  0.17300000000E+03 0.  1.
<mgrwt>
<rscale>  2 0.18199064E+03</rscale>
<asrwt>0</asrwt>
<pdfrwt beam="1">  1       21 0.12796165E-01 0.18199064E+03</pdfrwt>
<pdfrwt beam="2">  1       21 0.66404480E-01 0.18199064E+03</pdfrwt>
<totfact> 0.10922379E+05</totfact>
</mgrwt>
</event>
<event>
 4    1  0.4451819E+000  0.1964785E+03  0.7546771E-02  0.1152745E+00
         21   -1    0    0  501  502  0.00000000000E+00  0.00000000000E+00  0.65693775216E+02  0.65693775216E+02  0.00000000000E+00 0. -1.
         21   -1    0    0  502  503 -0.00000000000E+00 -0.00000000000E+00 -0.60789592689E+03  0.60789592689E+03  0.00000000000E+00 0. -1.
          6    1    1    2  501    0  0.89390131340E+02  0.26156957765E+02 -0.20961032777E+03  0.28729822750E+03  0.17300000000E+03 0. -1.
         -6    1    1    2    0  503 -0.89390131340E+02 -0.26156957765E+02 -0.33259182391E+03  0.38629147460E+03  0.17300000000E+03 0. -1.
<mgrwt>
<rscale>  2 0.19647845E+03</rscale>
<asrwt>0</asrwt>
<pdfrwt beam="1">  1       21 0.10106735E-01 0.19647845E+03</pdfrwt>
<pdfrwt beam="2">  1       21 0.93522449E-01 0.19647845E+03</pdfrwt>
<totfact> 0.76391540E+04</totfact>
</mgrwt>
</event>
<event>
 4    1  0.4451819E+000  0.2618929E+03  0.7546771E-02  0.1106011E+00
         21   -1    0    0  501  502  0.00000000000E+00  0.00000000000E+00  0.98681123604E+02  0.98681123604E+02  0.00000000000E+00 0.  1.
         21   -1    0    0  502  503 -0.00000000000E+00 -0.00000000000E+00 -0.17906590005E+04  0.17906590005E+04  0.00000000000E+00 0.  1.
          6    1    1    2  501    0 -0.10990350004E+03 -0.16303415961E+03 -0.10706063282E+03  0.28293090255E+03  0.17300000000E+03 0.  1.
         -6    1    1    2    0  503  0.10990350004E+03  0.16303415961E+03 -0.15849172441E+04  0.16064092216E+04  0.17300000000E+03 0.  1.
<mgrwt>
<rscale>  2 0.26189295E+03</rscale>
<asrwt>0</asrwt>
<pdfrwt beam="1">  1       21 0.15181710E-01 0.26189295E+03</pdfrwt>
<pdfrwt beam="2">  1       21 0.27548602E+00 0.26189295E+03</pdfrwt>
<totfact> 0.16854828E+03</totfact>
</mgrwt>
</event>
<event>
 4    1  0.4451819E+000  0.1843582E+03  0.7546771E-02  0.1163651E+00
         21   -1    0    0  501  502  0.00000000000E+00  0.00000000000E+00  0.29831398203E+03  0.29831398203E+03  0.00000000000E+00 0.  1.
         21   -1    0    0  502  503 -0.00000000000E+00 -0.00000000000E+00 -0.11432925810E+03  0.11432925810E+03  0.00000000000E+00 0. -1.
          6    1    1    2  501    0  0.36651243610E+02  0.52111586121E+02  0.79852131277E+02  0.20090867063E+03  0.17300000000E+03 0.  1.
         -6    1    1    2    0  503 -0.36651243610E+02 -0.52111586121E+02  0.10413259265E+03  0.21173456949E+03  0.17300000000E+03 0. -1.
<mgrwt>
<rscale>  2 0.18435816E+03</rscale>
<asrwt>0</asrwt>
<pdfrwt beam="1">  1       21 0.45894458E-01 0.18435816E+03</pdfrwt>
<pdfrwt beam="2">  1       21 0.17589117E-01 0.18435816E+03</pdfrwt>
<totfact> 0.13370481E+05</totfact>
</mgrwt>
</event>
<event>
 4    1  0.4451819E+000  0.2246093E+03  0.7546771E-02  0.1130493E+00
         21   -1    0    0  503  502  0.00000000000E+00  0.00000000000E+00  0.57777900841E+03  0.57777900841E+03  0.00000000000E+00 0.  1.
         21   -1    0    0  501  503 -0.00000000000E+00 -0.00000000000E+00 -0.10145132766E+03  0.10145132766E+03  0.00000000000E+00 0.  1.
          6    1    1    2  501    0 -0.14267022078E+03  0.12866914326E+02  0.11139537933E+03  0.25071553585E+03  0.17300000000E+03 0.  1.
         -6    1    1    2    0  502  0.14267022078E+03 -0.12866914326E+02  0.36493230142E+03  0.42851480021E+03  0.17300000000E+03 0.  1.
<mgrwt>
<rscale>  2 0.22460933E+03</rscale>
<asrwt>0</asrwt>
<pdfrwt beam="1">  1       21 0.88889076E-01 0.22460933E+03</pdfrwt>
<pdfrwt beam="2">  1       21 0.15607897E-01 0.22460933E+03</pdfrwt>
<totfact> 0.38805457E+04</totfact>
</mgrwt>
</event>
<event>
 4    1  0.4451819E+000  0.2060577E+03  0.7546771E-02  0.1144726E+00
         21   -1    0    0  503  502  0.00000000000E+00  0.00000000000E+00  0.22289798504E+03  0.22289798504E+03  0.00000000000E+00 0. -1.
         21   -1    0    0  501  503 -0.00000000000E+00 -0.00000000000E+00 -0.21573291733E+03  0.21573291733E+03  0.00000000000E+00 0.  1.
          6    1    1    2  501    0  0.10419855603E+03  0.40907878152E+02 -0.71438401808E+02  0.21808997874E+03  0.17300000000E+03 0.  1.
         -6    1    1    2    0  502 -0.10419855603E+03 -0.40907878152E+02  0.78603469525E+02  0.22054092363E+03  0.17300000000E+03 0. -1.
<mgrwt>
<rscale>  2 0.20605774E+03</rscale>
<asrwt>0</asrwt>
<pdfrwt beam="1">  1       21 0.34291998E-01 0.20605774E+03</pdfrwt>
<pdfrwt beam="2">  1       21 0.33189680E-01 0.20605774E+03</pdfrwt>
<totfact> 0.71208654E+04</totfact>
</mgrwt>
</event>
<event>
 4    1  0.4451819E+000  0.1756782E+03  0.7546771E-02  0.1172052E+00
         21   -1    0    0  503  502  0.00000000000E+00  0.00000000000E+00  0.16581563032E+03  0.16581563032E+03  0.00000000000E+00 0. -1.
         21   -1    0    0  501  503 -0.00000000000E+00 -0.00000000000E+00 -0.18616705452E+03  0.18616705452E+03  0.00000000000E+00 0. -1.
          6    1    1    2  501    0  0.29760440622E+02  0.69388749616E+01 -0.76071063947E+01  0.17584282720E+03  0.17300000000E+03 0. -1.
         -6    1    1    2    0  502 -0.29760440622E+02 -0.69388749616E+01 -0.12744317797E+02  0.17613985764E+03  0.17300000000E+03 0. -1.
<mgrwt>
<rscale>  2 0.17567821E+03</rscale>
<asrwt>0</asrwt>
<pdfrwt beam="1">  1       21 0.25510097E-01 0.17567821E+03</pdfrwt>
<pdfrwt beam="2">  1       21 0.28641085E-01 0.17567821E+03</pdfrwt>
<totfact> 0.17082119E+05</totfact>
</mgrwt>
</event>
<event>
 4    1  0.4451819E+000  0.1926191E+03  0.7546771E-02  0.1156120E+00
         21   -1    0    0  503  502  0.00000000000E+00  0.00000000000E+00  0.25251917868E+03  0.25251917868E+03  0.00000000000E+00 0. -1.
         21   -1    0    0  501  503 -0.00000000000E+00 -0.00000000000E+00 -0.30973677065E+03  0.30973677065E+03  0.00000000000E+00 0. -1.
          6    1    1    2  501    0  0.79901543165E+01  0.84316629882E+02 -0.23242869678E+03  0.30186956741E+03  0.17300000000E+03 0. -1.
         -6    1    1    2    0  502 -0.79901543165E+01 -0.84316629882E+02  0.17521110481E+03  0.26038638192E+03  0.17300000000E+03 0. -1.
<mgrwt>
<rscale>  2 0.19261915E+03</rscale>
<asrwt>0</asrwt>
<pdfrwt beam="1">  1       21 0.38849105E-01 0.19261915E+03</pdfrwt>
<pdfrwt beam="2">  1       21 0.47651811E-01 0.19261915E+03</pdfrwt>
<totfact> 0.26904540E+04</totfact>
</mgrwt>
</event>
<event>
 4    1  0.4451819E+000  0.1961005E+03  0.7546771E-02  0.1153071E+00
         21   -1    0    0  503  502  0.00000000000E+00  0.00000000000E+00  0.98043652310E+03  0.98043652310E+03  0.00000000000E+00 0.  1.
         21   -1    0    0  501  503 -0.00000000000E+00 -0.00000000000E+00 -0.11021753493E+03  0.11021753493E+03  0.00000000000E+00 0.  1.
          6    1    1    2  501    0  0.91673973812E+02 -0.11058593059E+02 -0.25586343958E+01  0.19611720109E+03  0.17300000000E+03 0.  1.
         -6    1    1    2    0  502 -0.91673973812E+02  0.11058593059E+02  0.87277762257E+03  0.89453685693E+03  0.17300000000E+03 0.  1.
<mgrwt>
<rscale>  2 0.19610051E+03</rscale>
<asrwt>0</asrwt>
<pdfrwt beam="1">  1       21 0.15083638E+00 0.19610051E+03</pdfrwt>
<pdfrwt beam="2">  1       21 0.16956544E-01 0.19610051E+03</pdfrwt>
<totfact> 0.92082673E+03</totfact>
</mgrwt>
</event>
<event>
 4    1  0.4451819E+000  0.2291551E+03  0.7546771E-02  0.1127236E+00
         21   -1    0    0  503  502  0.00000000000E+00  0.00000000000E+00  0.18722751156E+03  0.18722751156E+03  0.00000000000E+00 0. -1.
         21   -1    0    0  501  503 -0.00000000000E+00 -0.00000000000E+00 -0.68884683659E+03  0.68884683659E+03  0.00000000000E+00 0.  1.
          6    1    1    2  501    0 -0.11164475547E+03 -0.10059080784E+03 -0.58808078415E+03  0.63115059275E+03  0.17300000000E+03 0.  1.
         -6    1    1    2    0  502  0.11164475547E+03  0.10059080784E+03  0.86461459122E+02  0.24492375540E+03  0.17300000000E+03 0. -1.
<mgrwt>
<rscale>  2 0.22915510E+03</rscale>
<asrwt>0</asrwt>
<pdfrwt beam="1">  1       21 0.28804234E-01 0.22915510E+03</pdfrwt>
<pdfrwt beam="2">  1       21 0.10597643E+00 0.22915510E+03</pdfrwt>
<totfact> 0.80334305E+03</totfact>
</mgrwt>
</event>
<event>
 4    1  0.4451819E+000  0.1861453E+03  0.7546771E-02  0.1161985E+00
         21   -1    0    0  501  502  0.00000000000E+00  0.00000000000E+00  0.62587803934E+02  0.62587803934E+02  0.00000000000E+00 0.  1.
         21   -1    0    0  502  503 -0.00000000000E+00 -0.00000000000E+00 -0.56644157269E+03  0.56644157269E+03  0.00000000000E+00 0.  1.
          6    1    1    2  501    0 -0.59029070732E+02 -0.35165931448E+02 -0.29923940979E+03  0.35241211429E+03  0.17300000000E+03 0.  1.
         -6    1    1    2    0  503  0.59029070732E+02  0.35165931448E+02 -0.20461435896E+03  0.27661726233E+03  0.17300000000E+03 0.  1.
<mgrwt>
<rscale>  2 0.18614530E+03</rscale>
<asrwt>0</asrwt>
<pdfrwt beam="1">  1       21 0.96288930E-02 0.18614530E+03</pdfrwt>
<pdfrwt beam="2">  1       21 0.87144856E-01 0.18614530E+03</pdfrwt>
<totfact> 0.98423181E+04</totfact>
</mgrwt>
</event>
<event>
 4    1  0.4451819E+000  0.1880091E+03  0.7546771E-02  0.1160269E+00
         21   -1    0    0  501  502  0.00000000000E+00  0.00000000000E+00  0.78519751741E+02  0.78519751741E+02  0.00000000000E+00 0.  1.
         21   -1    0    0  502  503 -0.00000000000E+00 -0.00000000000E+00 -0.16793536592E+04  0.16793536592E+04  0.00000000000E+00 0. -1.
          6    1    1    2  501    0 -0.45885817782E+02  0.57557961230E+02 -0.48457403507E+02  0.19415341132E+03  0.17300000000E+03 0.  1.
         -6    1    1    2    0  503  0.45885817782E+02 -0.57557961230E+02 -0.15523765039E+04  0.15637199996E+04  0.17300000000E+03 0. -1.
<mgrwt>
<rscale>  2 0.18800911E+03</rscale>
<asrwt>0</asrwt>
<pdfrwt beam="1">  1       21 0.12079961E-01 0.18800911E+03</pdfrwt>
<pdfrwt beam="2">  1       21 0.25836211E+00 0.18800911E+03</pdfrwt>
<totfact> 0.34624887E+03</totfact>
</mgrwt>
</event>
