<event>
 4    1  0.3115421E-002  0.2556331E+03  0.7818608E-02  0.1109796E+00
          1   -1    0    0  502    0  0.00000000000E+00  0.00000000000E+00  0.99468396694E+03  0.99468396694E+03  0.00000000000E+00 0. -1.
         -1   -1    0    0    0  501 -0.00000000000E+00 -0.00000000000E+00 -0.66192200266E+02  0.66192200266E+02  0.00000000000E+00 0.  1.
          6    1    1    2  502    0  0.11321753753E+02  0.18877532129E+03  0.41839175139E+03  0.49030598780E+03  0.17200000000E+03 0. -1.
         -6    1    1    2    0  501 -0.11321753753E+02 -0.18877532129E+03  0.51010001528E+03  0.57057017941E+03  0.17200000000E+03 0.  1.
</event>
<event>
 4    1  0.3115421E-002  0.3577183E+03  0.7818608E-02  0.1059491E+00
         -2   -1    0    0    0  501 -0.00000000000E+00  0.00000000000E+00  0.49965952817E+03  0.49965952817E+03  0.00000000000E+00 0.  1.
          2   -1    0    0  502    0  0.00000000000E+00 -0.00000000000E+00 -0.28069153939E+03  0.28069153939E+03  0.00000000000E+00 0. -1.
          6    1    1    2  502    0  0.26717803259E+03  0.16429939534E+03  0.22497429828E+03  0.42258233197E+03  0.17200000000E+03 0. -1.
         -6    1    1    2    0  501 -0.26717803259E+03 -0.16429939534E+03 -0.60063095031E+01  0.35776873559E+03  0.17200000000E+03 0.  1.
</event>
<event>
 4    1  0.3115421E-002  0.2702089E+03  0.7818608E-02  0.1101160E+00
          1   -1    0    0  502    0  0.00000000000E+00  0.00000000000E+00  0.21906836928E+03  0.21906836928E+03  0.00000000000E+00 0. -1.
         -1   -1    0    0    0  501 -0.00000000000E+00 -0.00000000000E+00 -0.35496662352E+03  0.35496662352E+03  0.00000000000E+00 0.  1.
          6    1    1    2  502    0 -0.66295738641E+02 -0.19756954037E+03  0.29810329758E+01  0.27022534078E+03  0.17200000000E+03 0. -1.
         -6    1    1    2    0  501  0.66295738641E+02  0.19756954037E+03 -0.13887928721E+03  0.30380965202E+03  0.17200000000E+03 0.  1.
</event>
<event>
 4    1  0.3115421E-002  0.2039654E+03  0.7818608E-02  0.1146436E+00
         -2   -1    0    0    0  501 -0.00000000000E+00  0.00000000000E+00  0.14524247575E+02  0.14524247575E+02  0.00000000000E+00 0.  1.
          2   -1    0    0  502    0  0.00000000000E+00 -0.00000000000E+00 -0.28675896958E+04  0.28675896958E+04  0.00000000000E+00 0. -1.
          6    1    1    2  502    0  0.54788350092E+02  0.94953229418E+02 -0.13777628749E+04  0.13927786682E+04  0.17200000000E+03 0.  1.
         -6    1    1    2    0  501 -0.54788350092E+02 -0.94953229418E+02 -0.14753025733E+04  0.14893352752E+04  0.17200000000E+03 0. -1.
</event>
<event>
 4    1  0.3115421E-002  0.1989437E+03  0.7818608E-02  0.1150633E+00
          2   -1    0    0  502    0  0.00000000000E+00  0.00000000000E+00  0.12053515432E+03  0.12053515432E+03  0.00000000000E+00 0. -1.
         -2   -1    0    0    0  501 -0.00000000000E+00 -0.00000000000E+00 -0.32846187399E+03  0.32846187399E+03  0.00000000000E+00 0.  1.
          6    1    1    2  502    0 -0.70097331656E+02  0.71280751504E+02 -0.99955016095E+02  0.22264228413E+03  0.17200000000E+03 0. -1.
         -6    1    1    2    0  501  0.70097331656E+02 -0.71280751504E+02 -0.10797170358E+03  0.22635474418E+03  0.17200000000E+03 0.  1.
</event>
<event>
 4    1  0.3115421E-002  0.1925794E+03  0.7818608E-02  0.1156155E+00
         -2   -1    0    0    0  501 -0.00000000000E+00  0.00000000000E+00  0.82368439544E+02  0.82368439544E+02  0.00000000000E+00 0.  1.
          2   -1    0    0  502    0  0.00000000000E+00 -0.00000000000E+00 -0.45032889379E+03  0.45032889379E+03  0.00000000000E+00 0. -1.
          6    1    1    2  502    0 -0.35606402006E+02 -0.78961963052E+02 -0.18056998501E+03  0.26399304339E+03  0.17200000000E+03 0.  1.
         -6    1    1    2    0  501  0.35606402006E+02  0.78961963052E+02 -0.18739046924E+03  0.26870428994E+03  0.17200000000E+03 0.  1.
</event>
<event>
 4    1  0.3115421E-002  0.1815586E+03  0.7818608E-02  0.1166303E+00
         -2   -1    0    0    0  501 -0.00000000000E+00  0.00000000000E+00  0.31026558114E+02  0.31026558114E+02  0.00000000000E+00 0.  1.
          2   -1    0    0  502    0  0.00000000000E+00 -0.00000000000E+00 -0.32994332701E+04  0.32994332701E+04  0.00000000000E+00 0. -1.
          6    1    1    2  502    0 -0.55850460661E+02  0.16131995425E+02 -0.30053627248E+04  0.30108418462E+04  0.17200000000E+03 0. -1.
         -6    1    1    2    0  501  0.55850460661E+02 -0.16131995425E+02 -0.26304398721E+03  0.31961798204E+03  0.17200000000E+03 0.  1.
</event>
<event>
 4    1  0.3115421E-002  0.2541043E+03  0.7818608E-02  0.1110738E+00
          2   -1    0    0  502    0  0.00000000000E+00  0.00000000000E+00  0.49932743277E+03  0.49932743277E+03  0.00000000000E+00 0. -1.
         -2   -1    0    0    0  501 -0.00000000000E+00 -0.00000000000E+00 -0.13256405295E+03  0.13256405295E+03  0.00000000000E+00 0.  1.
          6    1    1    2  502    0  0.14575925787E+03  0.11721450283E+03  0.23286767013E+03  0.34466846784E+03  0.17200000000E+03 0.  1.
         -6    1    1    2    0  501 -0.14575925787E+03 -0.11721450283E+03  0.13389570969E+03  0.28722301788E+03  0.17200000000E+03 0.  1.
</event>
<event>
 4    1  0.3115421E-002  0.3576498E+03  0.7818608E-02  0.1059518E+00
          1   -1    0    0  502    0  0.00000000000E+00  0.00000000000E+00  0.78114563840E+03  0.78114563840E+03  0.00000000000E+00 0. -1.
         -1   -1    0    0    0  501 -0.00000000000E+00 -0.00000000000E+00 -0.18563863307E+03  0.18563863307E+03  0.00000000000E+00 0.  1.
          6    1    1    2  502    0  0.85197127032E+02  0.30177945772E+03  0.13177010686E+03  0.38115187605E+03  0.17200000000E+03 0. -1.
         -6    1    1    2    0  501 -0.85197127032E+02 -0.30177945772E+03  0.46373689847E+03  0.58563239542E+03  0.17200000000E+03 0.  1.
</event>
<event>
 4    1  0.3115421E-002  0.7587965E+03  0.7818608E-02  0.9621650E-01
          1   -1    0    0  502    0  0.00000000000E+00  0.00000000000E+00  0.11942385520E+04  0.11942385520E+04  0.00000000000E+00 0. -1.
         -1   -1    0    0    0  501 -0.00000000000E+00 -0.00000000000E+00 -0.48224801398E+03  0.48224801398E+03  0.00000000000E+00 0.  1.
          6    1    1    2  502    0 -0.67646255224E+03  0.29763490366E+03  0.36938960166E+03  0.84393174977E+03  0.17200000000E+03 0. -1.
         -6    1    1    2    0  501  0.67646255224E+03 -0.29763490366E+03  0.34260093640E+03  0.83255481626E+03  0.17200000000E+03 0.  1.
</event>
<event>
 4    1  0.3115421E-002  0.2000402E+03  0.7818608E-02  0.1149705E+00
         -1   -1    0    0    0  501 -0.00000000000E+00  0.00000000000E+00  0.49389617362E+02  0.49389617362E+02  0.00000000000E+00 0.  1.
          1   -1    0    0  502    0  0.00000000000E+00 -0.00000000000E+00 -0.94596288285E+03  0.94596288285E+03  0.00000000000E+00 0. -1.
          6    1    1    2  502    0 -0.93902262697E+02  0.40179932382E+02 -0.63681693293E+03  0.66749671757E+03  0.17200000000E+03 0. -1.
         -6    1    1    2    0  501  0.93902262697E+02 -0.40179932382E+02 -0.25975633256E+03  0.32785578264E+03  0.17200000000E+03 0.  1.
</event>
<event>
 4    1  0.3115421E-002  0.2935287E+03  0.7818608E-02  0.1088521E+00
         -1   -1    0    0    0  501 -0.00000000000E+00  0.00000000000E+00  0.16552575120E+03  0.16552575120E+03  0.00000000000E+00 0.  1.
          1   -1    0    0  502    0  0.00000000000E+00 -0.00000000000E+00 -0.88153058352E+03  0.88153058352E+03  0.00000000000E+00 0. -1.
          6    1    1    2  502    0 -0.22539714778E+03  0.75968493455E+02 -0.69303164735E+03  0.75263002229E+03  0.17200000000E+03 0. -1.
         -6    1    1    2    0  501  0.22539714778E+03 -0.75968493455E+02 -0.22973184978E+02  0.29442631243E+03  0.17200000000E+03 0.  1.
</event>
<event>
 4    1  0.3115421E-002  0.1809016E+03  0.7818608E-02  0.1166933E+00
         -2   -1    0    0    0  501 -0.00000000000E+00  0.00000000000E+00  0.37417716285E+02  0.37417716285E+02  0.00000000000E+00 0.  1.
          2   -1    0    0  502    0  0.00000000000E+00 -0.00000000000E+00 -0.90004378662E+03  0.90004378662E+03  0.00000000000E+00 0. -1.
          6    1    1    2  502    0  0.38176370799E+02 -0.41036104215E+02 -0.51012893992E+03  0.54125496070E+03  0.17200000000E+03 0. -1.
         -6    1    1    2    0  501 -0.38176370799E+02  0.41036104215E+02 -0.35249713041E+03  0.39620654220E+03  0.17200000000E+03 0.  1.
</event>
<event>
 4    1  0.3115421E-002  0.2689600E+03  0.7818608E-02  0.1101876E+00
         -2   -1    0    0    0  501 -0.00000000000E+00  0.00000000000E+00  0.89031300828E+02  0.89031300828E+02  0.00000000000E+00 0.  1.
          2   -1    0    0  502    0  0.00000000000E+00 -0.00000000000E+00 -0.83536774507E+03  0.83536774507E+03  0.00000000000E+00 0. -1.
          6    1    1    2  502    0 -0.20011676613E+03  0.52045886350E+02 -0.44961084908E+03  0.52391736942E+03  0.17200000000E+03 0. -1.
         -6    1    1    2    0  501  0.20011676613E+03 -0.52045886350E+02 -0.29672559517E+03  0.40048167648E+03  0.17200000000E+03 0. -1.
</event>
<event>
 4    1  0.3115421E-002  0.5376892E+03  0.7818608E-02  0.1004384E+00
         -2   -1    0    0    0  501 -0.00000000000E+00  0.00000000000E+00  0.14763105999E+04  0.14763105999E+04  0.00000000000E+00 0.  1.
          2   -1    0    0  502    0  0.00000000000E+00 -0.00000000000E+00 -0.19771583716E+03  0.19771583716E+03  0.00000000000E+00 0. -1.
          6    1    1    2  502    0  0.13376883945E+03 -0.49156029144E+03  0.72098825100E+03  0.89940740524E+03  0.17200000000E+03 0. -1.
         -6    1    1    2    0  501 -0.13376883945E+03  0.49156029144E+03  0.55760651176E+03  0.77461903184E+03  0.17200000000E+03 0.  1.
</event>
<event>
 4    1  0.3115421E-002  0.2411795E+03  0.7818608E-02  0.1119010E+00
         -1   -1    0    0    0  501 -0.00000000000E+00  0.00000000000E+00  0.53201571259E+02  0.53201571259E+02  0.00000000000E+00 0.  1.
          1   -1    0    0  502    0  0.00000000000E+00 -0.00000000000E+00 -0.11875292802E+04  0.11875292802E+04  0.00000000000E+00 0. -1.
          6    1    1    2  502    0  0.49983348670E+02 -0.16150925291E+03 -0.39245340494E+03  0.46063787184E+03  0.17200000000E+03 0.  1.
         -6    1    1    2    0  501 -0.49983348670E+02  0.16150925291E+03 -0.74187430404E+03  0.78009297966E+03  0.17200000000E+03 0. -1.
</event>
<event>
 4    1  0.3115421E-002  0.2184968E+03  0.7818608E-02  0.1135009E+00
         -4   -1    0    0    0  501 -0.00000000000E+00  0.00000000000E+00  0.40979549353E+03  0.40979549353E+03  0.00000000000E+00 0.  1.
          4   -1    0    0  502    0  0.00000000000E+00 -0.00000000000E+00 -0.11823047304E+03  0.11823047304E+03  0.00000000000E+00 0. -1.
          6    1    1    2  502    0  0.18111475986E+02 -0.13352463924E+03  0.17773031356E+03  0.28165389968E+03  0.17200000000E+03 0. -1.
         -6    1    1    2    0  501 -0.18111475986E+02  0.13352463924E+03  0.11383470693E+03  0.24637206690E+03  0.17200000000E+03 0. -1.
</event>
<event>
 4    1  0.3115421E-002  0.2377384E+03  0.7818608E-02  0.1121309E+00
         -2   -1    0    0    0  501 -0.00000000000E+00  0.00000000000E+00  0.90850202294E+02  0.90850202294E+02  0.00000000000E+00 0.  1.
          2   -1    0    0  502    0  0.00000000000E+00 -0.00000000000E+00 -0.67996088608E+03  0.67996088608E+03  0.00000000000E+00 0. -1.
          6    1    1    2  502    0  0.13323712878E+03 -0.95830038206E+02 -0.40696449868E+03  0.47131691238E+03  0.17200000000E+03 0.  1.
         -6    1    1    2    0  501 -0.13323712878E+03  0.95830038206E+02 -0.18214618511E+03  0.29949417600E+03  0.17200000000E+03 0.  1.
</event>
<event>
 4    1  0.3115421E-002  0.2690209E+03  0.7818608E-02  0.1101841E+00
          2   -1    0    0  502    0  0.00000000000E+00  0.00000000000E+00  0.19473281903E+04  0.19473281903E+04  0.00000000000E+00 0. -1.
         -2   -1    0    0    0  501 -0.00000000000E+00 -0.00000000000E+00 -0.38011825899E+02  0.38011825899E+02  0.00000000000E+00 0.  1.
          6    1    1    2  502    0  0.16282597856E+03  0.12757718468E+03  0.11028318019E+04  0.11351696880E+04  0.17200000000E+03 0. -1.
         -6    1    1    2    0  501 -0.16282597856E+03 -0.12757718468E+03  0.80648456253E+03  0.85017032819E+03  0.17200000000E+03 0.  1.
</event>
<event>
 4    1  0.3115421E-002  0.3179770E+03  0.7818608E-02  0.1076584E+00
         -1   -1    0    0    0  501 -0.00000000000E+00  0.00000000000E+00  0.38098868586E+03  0.38098868586E+03  0.00000000000E+00 0.  1.
          1   -1    0    0  502    0  0.00000000000E+00 -0.00000000000E+00 -0.27737618644E+03  0.27737618644E+03  0.00000000000E+00 0. -1.
          6    1    1    2  502    0  0.19942288412E+03  0.17820175103E+03  0.12024489033E+03  0.33995320918E+03  0.17200000000E+03 0. -1.
         -6    1    1    2    0  501 -0.19942288412E+03 -0.17820175103E+03 -0.16632390911E+02  0.31841166312E+03  0.17200000000E+03 0.  1.
</event>
<event>
 4    1  0.3115421E-002  0.1931948E+03  0.7818608E-02  0.1155611E+00
          1   -1    0    0  502    0  0.00000000000E+00  0.00000000000E+00  0.32100758562E+03  0.32100758562E+03  0.00000000000E+00 0. -1.
         -1   -1    0    0    0  501 -0.00000000000E+00 -0.00000000000E+00 -0.14149877305E+03  0.14149877305E+03  0.00000000000E+00 0.  1.
          6    1    1    2  502    0 -0.51291558680E+02 -0.71480012859E+02 -0.78887094555E+01  0.19335575494E+03  0.17200000000E+03 0.  1.
         -6    1    1    2    0  501  0.51291558680E+02  0.71480012859E+02  0.18739752202E+03  0.26915060374E+03  0.17200000000E+03 0. -1.
</event>
<event>
 4    1  0.3115421E-002  0.1731721E+03  0.7818608E-02  0.1174580E+00
          1   -1    0    0  502    0  0.00000000000E+00  0.00000000000E+00  0.17763781652E+04  0.17763781652E+04  0.00000000000E+00 0. -1.
         -1   -1    0    0    0  501 -0.00000000000E+00 -0.00000000000E+00 -0.17985926012E+02  0.17985926012E+02  0.00000000000E+00 0.  1.
          6    1    1    2  502    0  0.18365506323E+02 -0.82026598264E+01  0.65691078456E+03  0.67935289381E+03  0.17200000000E+03 0.  1.
         -6    1    1    2    0  501 -0.18365506323E+02  0.82026598264E+01  0.11014814546E+04  0.11150111974E+04  0.17200000000E+03 0. -1.
</event>
<event>
 4    1  0.3115421E-002  0.4395897E+03  0.7818608E-02  0.1030873E+00
          1   -1    0    0  502    0  0.00000000000E+00  0.00000000000E+00  0.20156496650E+03  0.20156496650E+03  0.00000000000E+00 0. -1.
         -1   -1    0    0    0  501 -0.00000000000E+00 -0.00000000000E+00 -0.10923614376E+04  0.10923614376E+04  0.00000000000E+00 0.  1.
          6    1    1    2  502    0 -0.75341135157E+02  0.39746545365E+03 -0.21908517504E+03  0.49115922817E+03  0.17200000000E+03 0. -1.
         -6    1    1    2    0  501  0.75341135157E+02 -0.39746545365E+03 -0.67171129605E+03  0.80276717592E+03  0.17200000000E+03 0.  1.
</event>
<event>
 4    1  0.3115421E-002  0.3341340E+03  0.7818608E-02  0.1069322E+00
          1   -1    0    0  502    0  0.00000000000E+00  0.00000000000E+00  0.16513690734E+03  0.16513690734E+03  0.00000000000E+00 0. -1.
         -1   -1    0    0    0  501 -0.00000000000E+00 -0.00000000000E+00 -0.68092808999E+03  0.68092808999E+03  0.00000000000E+00 0.  1.
          6    1    1    2  502    0 -0.12361644629E+03  0.25841919592E+03 -0.29359633354E+03  0.44479693533E+03  0.17200000000E+03 0. -1.
         -6    1    1    2    0  501  0.12361644629E+03 -0.25841919592E+03 -0.22219484912E+03  0.40126806201E+03  0.17200000000E+03 0.  1.
</event>
<event>
 4    1  0.3115421E-002  0.7974216E+03  0.7818608E-02  0.9563757E-01
          1   -1    0    0  502    0  0.00000000000E+00  0.00000000000E+00  0.13746681347E+04  0.13746681347E+04  0.00000000000E+00 0. -1.
         -1   -1    0    0    0  501 -0.00000000000E+00 -0.00000000000E+00 -0.46688090964E+03  0.46688090964E+03  0.00000000000E+00 0.  1.
          6    1    1    2  502    0  0.46349317362E+01  0.77863708249E+03  0.54236439959E+03  0.96438598640E+03  0.17200000000E+03 0. -1.
         -6    1    1    2    0  501 -0.46349317362E+01 -0.77863708249E+03  0.36542282544E+03  0.87716305792E+03  0.17200000000E+03 0.  1.
</event>
<event>
 4    1  0.3115421E-002  0.1735809E+03  0.7818608E-02  0.1174164E+00
          2   -1    0    0  502    0  0.00000000000E+00  0.00000000000E+00  0.18663510755E+04  0.18663510755E+04  0.00000000000E+00 0. -1.
         -2   -1    0    0    0  501 -0.00000000000E+00 -0.00000000000E+00 -0.57191311866E+02  0.57191311866E+02  0.00000000000E+00 0.  1.
          6    1    1    2  502    0 -0.23348466449E+02 -0.10871256248E+01  0.89783283700E+02  0.19542612609E+03  0.17200000000E+03 0.  1.
         -6    1    1    2    0  501  0.23348466449E+02  0.10871256248E+01  0.17193764800E+04  0.17281162613E+04  0.17200000000E+03 0. -1.
</event>
<event>
 4    1  0.3115421E-002  0.2503690E+03  0.7818608E-02  0.1113072E+00
          2   -1    0    0  502    0  0.00000000000E+00  0.00000000000E+00  0.16487195226E+04  0.16487195226E+04  0.00000000000E+00 0. -1.
         -2   -1    0    0    0  501 -0.00000000000E+00 -0.00000000000E+00 -0.17834387126E+03  0.17834387126E+03  0.00000000000E+00 0.  1.
          6    1    1    2  502    0 -0.13480090067E+03 -0.12218574163E+03  0.15455142522E+04  0.15656624611E+04  0.17200000000E+03 0. -1.
         -6    1    1    2    0  501  0.13480090067E+03  0.12218574163E+03 -0.75138600919E+02  0.26140093272E+03  0.17200000000E+03 0.  1.
</event>
<event>
 4    1  0.3115421E-002  0.5240764E+03  0.7818608E-02  0.1007679E+00
          2   -1    0    0  502    0  0.00000000000E+00  0.00000000000E+00  0.67586643649E+03  0.67586643649E+03  0.00000000000E+00 0. -1.
         -2   -1    0    0    0  501 -0.00000000000E+00 -0.00000000000E+00 -0.60503913771E+03  0.60503913771E+03  0.00000000000E+00 0.  1.
          6    1    1    2  502    0 -0.42202777877E+03 -0.25877533523E+03  0.40240317855E+03  0.66074536569E+03  0.17200000000E+03 0. -1.
         -6    1    1    2    0  501  0.42202777877E+03  0.25877533523E+03 -0.33157587976E+03  0.62016020851E+03  0.17200000000E+03 0.  1.
</event>
<event>
 4    1  0.3115421E-002  0.2890676E+03  0.7818608E-02  0.1090837E+00
          1   -1    0    0  502    0  0.00000000000E+00  0.00000000000E+00  0.30724013836E+03  0.30724013836E+03  0.00000000000E+00 0. -1.
         -1   -1    0    0    0  501 -0.00000000000E+00 -0.00000000000E+00 -0.28735093360E+03  0.28735093360E+03  0.00000000000E+00 0.  1.
          6    1    1    2  502    0  0.75847533667E+02  0.21959790754E+03  0.78726466092E+02  0.29959630475E+03  0.17200000000E+03 0. -1.
         -6    1    1    2    0  501 -0.75847533667E+02 -0.21959790754E+03 -0.58837261340E+02  0.29499476721E+03  0.17200000000E+03 0.  1.
</event>
<event>
 4    1  0.3115421E-002  0.1898962E+03  0.7818608E-02  0.1158555E+00
         -1   -1    0    0    0  501 -0.00000000000E+00  0.00000000000E+00  0.43863257762E+03  0.43863257762E+03  0.00000000000E+00 0.  1.
          1   -1    0    0  502    0  0.00000000000E+00 -0.00000000000E+00 -0.16085706237E+03  0.16085706237E+03  0.00000000000E+00 0. -1.
          6    1    1    2  502    0 -0.22418006139E+02  0.77291593582E+02 -0.70701618274E+02  0.20263088675E+03  0.17200000000E+03 0. -1.
         -6    1    1    2    0  501  0.22418006139E+02 -0.77291593582E+02  0.34847713352E+03  0.39685875324E+03  0.17200000000E+03 0.  1.
</event>
<event>
 4    1  0.3115421E-002  0.1745591E+03  0.7818608E-02  0.1173175E+00
          2   -1    0    0  502    0  0.00000000000E+00  0.00000000000E+00  0.30561046014E+03  0.30561046014E+03  0.00000000000E+00 0. -1.
         -2   -1    0    0    0  501 -0.00000000000E+00 -0.00000000000E+00 -0.14550769822E+03  0.14550769822E+03  0.00000000000E+00 0.  1.
          6    1    1    2  502    0 -0.13862596327E+02  0.26357449943E+02  0.20660160663E+03  0.27047201446E+03  0.17200000000E+03 0. -1.
         -6    1    1    2    0  501  0.13862596327E+02 -0.26357449943E+02 -0.46498844711E+02  0.18064614389E+03  0.17200000000E+03 0.  1.
</event>
<event>
 4    1  0.3115421E-002  0.5158062E+03  0.7818608E-02  0.1009734E+00
         -1   -1    0    0    0  501 -0.00000000000E+00  0.00000000000E+00  0.16870143221E+03  0.16870143221E+03  0.00000000000E+00 0.  1.
          1   -1    0    0  502    0  0.00000000000E+00 -0.00000000000E+00 -0.20443002298E+04  0.20443002298E+04  0.00000000000E+00 0. -1.
          6    1    1    2  502    0 -0.47168290368E+03 -0.11826789210E+03 -0.14667792373E+04  0.15548303403E+04  0.17200000000E+03 0. -1.
         -6    1    1    2    0  501  0.47168290368E+03  0.11826789210E+03 -0.40881956025E+03  0.65817132175E+03  0.17200000000E+03 0.  1.
</event>
<event>
 4    1  0.3115421E-002  0.2096985E+03  0.7818608E-02  0.1141805E+00
          2   -1    0    0  502    0  0.00000000000E+00  0.00000000000E+00  0.12192362508E+03  0.12192362508E+03  0.00000000000E+00 0. -1.
         -2   -1    0    0    0  501 -0.00000000000E+00 -0.00000000000E+00 -0.44609295970E+03  0.44609295970E+03  0.00000000000E+00 0.  1.
          6    1    1    2  502    0 -0.26960191485E+02 -0.11688717959E+03 -0.37799058020E+02  0.21307799855E+03  0.17200000000E+03 0. -1.
         -6    1    1    2    0  501  0.26960191485E+02  0.11688717959E+03 -0.28637027660E+03  0.35493858624E+03  0.17200000000E+03 0.  1.
</event>
<event>
 4    1  0.3115421E-002  0.2758671E+03  0.7818608E-02  0.1097968E+00
         -2   -1    0    0    0  501 -0.00000000000E+00  0.00000000000E+00  0.62519058765E+02  0.62519058765E+02  0.00000000000E+00 0.  1.
          2   -1    0    0  502    0  0.00000000000E+00 -0.00000000000E+00 -0.12401952304E+04  0.12401952304E+04  0.00000000000E+00 0. -1.
          6    1    1    2  502    0 -0.10170147887E+02  0.21544195690E+03 -0.67739383453E+03  0.73141306781E+03  0.17200000000E+03 0. -1.
         -6    1    1    2    0  501  0.10170147887E+02 -0.21544195690E+03 -0.50028233709E+03  0.57130122134E+03  0.17200000000E+03 0.  1.
</event>
<event>
 4    1  0.3115421E-002  0.2451820E+03  0.7818608E-02  0.1116388E+00
          1   -1    0    0  502    0  0.00000000000E+00  0.00000000000E+00  0.95319707357E+03  0.95319707357E+03  0.00000000000E+00 0. -1.
         -1   -1    0    0    0  501 -0.00000000000E+00 -0.00000000000E+00 -0.64062838397E+02  0.64062838397E+02  0.00000000000E+00 0.  1.
          6    1    1    2  502    0  0.14806443776E+02 -0.17410050895E+03  0.38111647086E+03  0.45317102992E+03  0.17200000000E+03 0.  1.
         -6    1    1    2    0  501 -0.14806443776E+02  0.17410050895E+03  0.50801776431E+03  0.56408888205E+03  0.17200000000E+03 0. -1.
</event>
<event>
 4    1  0.3115421E-002  0.2117999E+03  0.7818608E-02  0.1140149E+00
          1   -1    0    0  502    0  0.00000000000E+00  0.00000000000E+00  0.27919841375E+03  0.27919841375E+03  0.00000000000E+00 0. -1.
         -1   -1    0    0    0  501 -0.00000000000E+00 -0.00000000000E+00 -0.16190688534E+03  0.16190688534E+03  0.00000000000E+00 0.  1.
          6    1    1    2  502    0  0.10488090487E+03 -0.65384823956E+02  0.77912644102E+02  0.22567578408E+03  0.17200000000E+03 0.  1.
         -6    1    1    2    0  501 -0.10488090487E+03  0.65384823956E+02  0.39378884306E+02  0.21542951501E+03  0.17200000000E+03 0. -1.
</event>
<event>
 4    1  0.3115421E-002  0.5536630E+03  0.7818608E-02  0.1000650E+00
         -1   -1    0    0    0  501 -0.00000000000E+00  0.00000000000E+00  0.31371027628E+03  0.31371027628E+03  0.00000000000E+00 0.  1.
          1   -1    0    0  502    0  0.00000000000E+00 -0.00000000000E+00 -0.11767116157E+04  0.11767116157E+04  0.00000000000E+00 0. -1.
          6    1    1    2  502    0  0.43105932212E+03  0.30190490522E+03 -0.12461243962E+03  0.56751296997E+03  0.17200000000E+03 0. -1.
         -6    1    1    2    0  501 -0.43105932212E+03 -0.30190490522E+03 -0.73838889981E+03  0.92290892202E+03  0.17200000000E+03 0.  1.
</event>
<event>
 4    1  0.3115421E-002  0.1820324E+03  0.7818608E-02  0.1165850E+00
          2   -1    0    0  502    0  0.00000000000E+00  0.00000000000E+00  0.19660753461E+04  0.19660753461E+04  0.00000000000E+00 0. -1.
         -2   -1    0    0    0  501 -0.00000000000E+00 -0.00000000000E+00 -0.18276678533E+02  0.18276678533E+02  0.00000000000E+00 0.  1.
          6    1    1    2  502    0  0.40545450566E+02  0.43679215204E+02  0.12507378942E+04  0.12639149843E+04  0.17200000000E+03 0. -1.
         -6    1    1    2    0  501 -0.40545450566E+02 -0.43679215204E+02  0.69706077338E+03  0.72043704040E+03  0.17200000000E+03 0.  1.
</event>
<event>
 4    1  0.3115421E-002  0.2345528E+03  0.7818608E-02  0.1123476E+00
          1   -1    0    0  502    0  0.00000000000E+00  0.00000000000E+00  0.25139753557E+04  0.25139753557E+04  0.00000000000E+00 0. -1.
         -1   -1    0    0    0  501 -0.00000000000E+00 -0.00000000000E+00 -0.22195990063E+02  0.22195990063E+02  0.00000000000E+00 0.  1.
          6    1    1    2  502    0 -0.34723986234E+02  0.15564470877E+03  0.10954699638E+04  0.11202988316E+04  0.17200000000E+03 0. -1.
         -6    1    1    2    0  501  0.34723986234E+02 -0.15564470877E+03  0.13963094018E+04  0.14158725141E+04  0.17200000000E+03 0.  1.
</event>
<event>
 4    1  0.3115421E-002  0.2276863E+03  0.7818608E-02  0.1128279E+00
         -1   -1    0    0    0  501 -0.00000000000E+00  0.00000000000E+00  0.30004761855E+02  0.30004761855E+02  0.00000000000E+00 0.  1.
          1   -1    0    0  502    0  0.00000000000E+00 -0.00000000000E+00 -0.21554799032E+04  0.21554799032E+04  0.00000000000E+00 0. -1.
          6    1    1    2  502    0  0.96317441291E+02  0.11392979050E+03 -0.15495091145E+04  0.15661479951E+04  0.17200000000E+03 0.  1.
         -6    1    1    2    0  501 -0.96317441291E+02 -0.11392979050E+03 -0.57596602681E+03  0.61933666992E+03  0.17200000000E+03 0.  1.
</event>
<event>
 4    1  0.3115421E-002  0.1756013E+03  0.7818608E-02  0.1172129E+00
         -1   -1    0    0    0  501 -0.00000000000E+00  0.00000000000E+00  0.49293276681E+03  0.49293276681E+03  0.00000000000E+00 0.  1.
          1   -1    0    0  502    0  0.00000000000E+00 -0.00000000000E+00 -0.83703091152E+02  0.83703091152E+02  0.00000000000E+00 0. -1.
          6    1    1    2  502    0  0.29553326923E+01  0.35257351360E+02  0.59694933233E+02  0.18547048248E+03  0.17200000000E+03 0. -1.
         -6    1    1    2    0  501 -0.29553326923E+01 -0.35257351360E+02  0.34953474242E+03  0.39116537548E+03  0.17200000000E+03 0.  1.
</event>
<event>
 4    1  0.3115421E-002  0.4434654E+03  0.7818608E-02  0.1029689E+00
          1   -1    0    0  502    0  0.00000000000E+00  0.00000000000E+00  0.16028796548E+04  0.16028796548E+04  0.00000000000E+00 0. -1.
         -1   -1    0    0    0  501 -0.00000000000E+00 -0.00000000000E+00 -0.12437306593E+03  0.12437306593E+03  0.00000000000E+00 0.  1.
          6    1    1    2  502    0  0.38936548320E+03  0.12438688800E+03  0.83963835937E+03  0.94955471245E+03  0.17200000000E+03 0. -1.
         -6    1    1    2    0  501 -0.38936548320E+03 -0.12438688800E+03  0.63886822950E+03  0.77769800828E+03  0.17200000000E+03 0.  1.
</event>
<event>
 4    1  0.3115421E-002  0.2179592E+03  0.7818608E-02  0.1135414E+00
         -1   -1    0    0    0  501 -0.00000000000E+00  0.00000000000E+00  0.14400294145E+04  0.14400294145E+04  0.00000000000E+00 0.  1.
          1   -1    0    0  502    0  0.00000000000E+00 -0.00000000000E+00 -0.33214200547E+02  0.33214200547E+02  0.00000000000E+00 0. -1.
          6    1    1    2  502    0 -0.11207784455E+03 -0.73217244418E+02  0.76396184206E+03  0.79444565846E+03  0.17200000000E+03 0. -1.
         -6    1    1    2    0  501  0.11207784455E+03  0.73217244418E+02  0.64285337193E+03  0.67879795662E+03  0.17200000000E+03 0.  1.
</event>
<event>
 4    1  0.3115421E-002  0.2124618E+03  0.7818608E-02  0.1139631E+00
          1   -1    0    0  502    0  0.00000000000E+00  0.00000000000E+00  0.25182054694E+03  0.25182054694E+03  0.00000000000E+00 0. -1.
         -1   -1    0    0    0  501 -0.00000000000E+00 -0.00000000000E+00 -0.18809053415E+03  0.18809053415E+03  0.00000000000E+00 0.  1.
          6    1    1    2  502    0 -0.12147435478E+03  0.28284098655E+02 -0.15808373679E+02  0.21304908774E+03  0.17200000000E+03 0.  1.
         -6    1    1    2    0  501  0.12147435478E+03 -0.28284098655E+02  0.79538386463E+02  0.22686199335E+03  0.17200000000E+03 0. -1.
</event>
<event>
 4    1  0.3115421E-002  0.2992612E+03  0.7818608E-02  0.1085611E+00
          2   -1    0    0  502    0  0.00000000000E+00  0.00000000000E+00  0.14231375204E+04  0.14231375204E+04  0.00000000000E+00 0. -1.
         -2   -1    0    0    0  501 -0.00000000000E+00 -0.00000000000E+00 -0.75400955169E+02  0.75400955169E+02  0.00000000000E+00 0.  1.
          6    1    1    2  502    0 -0.15525646330E+03  0.18939027150E+03  0.97859401070E+03  0.10233296058E+04  0.17200000000E+03 0. -1.
         -6    1    1    2    0  501  0.15525646330E+03 -0.18939027150E+03  0.36914255452E+03  0.47520886975E+03  0.17200000000E+03 0.  1.
</event>
<event>
 4    1  0.3115421E-002  0.2516836E+03  0.7818608E-02  0.1112245E+00
         -2   -1    0    0    0  501 -0.00000000000E+00  0.00000000000E+00  0.47711207742E+03  0.47711207742E+03  0.00000000000E+00 0.  1.
          2   -1    0    0  502    0  0.00000000000E+00 -0.00000000000E+00 -0.14440224304E+03  0.14440224304E+03  0.00000000000E+00 0. -1.
          6    1    1    2  502    0 -0.16150967551E+03 -0.87608681276E+02  0.25456640468E+03  0.35797864561E+03  0.17200000000E+03 0. -1.
         -6    1    1    2    0  501  0.16150967551E+03  0.87608681276E+02  0.78143429695E+02  0.26353567486E+03  0.17200000000E+03 0.  1.
</event>
<event>
 4    1  0.3115421E-002  0.2179565E+03  0.7818608E-02  0.1135416E+00
         -2   -1    0    0    0  501 -0.00000000000E+00  0.00000000000E+00  0.15166698599E+03  0.15166698599E+03  0.00000000000E+00 0.  1.
          2   -1    0    0  502    0  0.00000000000E+00 -0.00000000000E+00 -0.52297801917E+03  0.52297801917E+03  0.00000000000E+00 0. -1.
          6    1    1    2  502    0  0.13224344878E+03  0.20801191038E+02 -0.39928621528E+03  0.45490053968E+03  0.17200000000E+03 0. -1.
         -6    1    1    2    0  501 -0.13224344878E+03 -0.20801191038E+02  0.27975182099E+02  0.21974446548E+03  0.17200000000E+03 0.  1.
</event>
<event>
 4    1  0.3115421E-002  0.1883885E+03  0.7818608E-02  0.1159923E+00
          2   -1    0    0  502    0  0.00000000000E+00  0.00000000000E+00  0.37927617898E+04  0.37927617898E+04  0.00000000000E+00 0. -1.
         -2   -1    0    0    0  501 -0.00000000000E+00 -0.00000000000E+00 -0.53362917560E+02  0.53362917560E+02  0.00000000000E+00 0.  1.
          6    1    1    2  502    0  0.12018930765E+02 -0.75906399519E+02  0.36160335936E+04  0.36209376115E+04  0.17200000000E+03 0. -1.
         -6    1    1    2    0  501 -0.12018930765E+02  0.75906399519E+02  0.12336527868E+03  0.22518709592E+03  0.17200000000E+03 0.  1.
</event>
<event>
 4    1  0.3115421E-002  0.2629024E+03  0.7818608E-02  0.1105412E+00
         -2   -1    0    0    0  501 -0.00000000000E+00  0.00000000000E+00  0.12741934546E+03  0.12741934546E+03  0.00000000000E+00 0.  1.
          2   -1    0    0  502    0  0.00000000000E+00 -0.00000000000E+00 -0.59870800505E+03  0.59870800505E+03  0.00000000000E+00 0. -1.
          6    1    1    2  502    0  0.17298742461E+03  0.98025632028E+02 -0.34694459961E+03  0.43530245670E+03  0.17200000000E+03 0. -1.
         -6    1    1    2    0  501 -0.17298742461E+03 -0.98025632028E+02 -0.12434405998E+03  0.29082489381E+03  0.17200000000E+03 0.  1.
</event>
<event>
 4    1  0.3115421E-002  0.3194904E+03  0.7818608E-02  0.1075884E+00
          2   -1    0    0  502    0  0.00000000000E+00  0.00000000000E+00  0.43920862666E+03  0.43920862666E+03  0.00000000000E+00 0. -1.
         -2   -1    0    0    0  501 -0.00000000000E+00 -0.00000000000E+00 -0.24373439557E+03  0.24373439557E+03  0.00000000000E+00 0.  1.
          6    1    1    2  502    0  0.11876473595E+03  0.24162995513E+03  0.24115146416E+02  0.32039918541E+03  0.17200000000E+03 0. -1.
         -6    1    1    2    0  501 -0.11876473595E+03 -0.24162995513E+03  0.17135908467E+03  0.36254383683E+03  0.17200000000E+03 0.  1.
</event>
<event>
 4    1  0.3115421E-002  0.2609056E+03  0.7818608E-02  0.1106600E+00
         -2   -1    0    0    0  501 -0.00000000000E+00  0.00000000000E+00  0.60211816683E+02  0.60211816683E+02  0.00000000000E+00 0.  1.
          2   -1    0    0  502    0  0.00000000000E+00 -0.00000000000E+00 -0.11525168198E+04  0.11525168198E+04  0.00000000000E+00 0. -1.
          6    1    1    2  502    0  0.11243019096E+03  0.16077055222E+03 -0.62988939844E+03  0.68178616337E+03  0.17200000000E+03 0. -1.
         -6    1    1    2    0  501 -0.11243019096E+03 -0.16077055222E+03 -0.46241560465E+03  0.53094247308E+03  0.17200000000E+03 0. -1.
</event>
<event>
 4    1  0.3115421E-002  0.1771993E+03  0.7818608E-02  0.1170541E+00
          1   -1    0    0  502    0  0.00000000000E+00  0.00000000000E+00  0.13556169302E+04  0.13556169302E+04  0.00000000000E+00 0. -1.
         -1   -1    0    0    0  501 -0.00000000000E+00 -0.00000000000E+00 -0.23561352756E+02  0.23561352756E+02  0.00000000000E+00 0.  1.
          6    1    1    2  502    0 -0.42415840178E+02  0.40593951920E+01  0.57631498856E+03  0.60294157945E+03  0.17200000000E+03 0.  1.
         -6    1    1    2    0  501  0.42415840178E+02 -0.40593951920E+01  0.75574058888E+03  0.77623670350E+03  0.17200000000E+03 0.  1.
</event>
<event>
 4    1  0.3115421E-002  0.2303893E+03  0.7818608E-02  0.1126366E+00
         -1   -1    0    0    0  501 -0.00000000000E+00  0.00000000000E+00  0.43605814946E+02  0.43605814946E+02  0.00000000000E+00 0.  1.
          1   -1    0    0  502    0  0.00000000000E+00 -0.00000000000E+00 -0.13000117622E+04  0.13000117622E+04  0.00000000000E+00 0. -1.
          6    1    1    2  502    0  0.11186650712E+03  0.10479091547E+03 -0.79770796992E+03  0.83031154192E+03  0.17200000000E+03 0. -1.
         -6    1    1    2    0  501 -0.11186650712E+03 -0.10479091547E+03 -0.45869797730E+03  0.51330603519E+03  0.17200000000E+03 0. -1.
</event>
<event>
 4    1  0.3115421E-002  0.1867351E+03  0.7818608E-02  0.1161439E+00
         -2   -1    0    0    0  501 -0.00000000000E+00  0.00000000000E+00  0.26730680373E+03  0.26730680373E+03  0.00000000000E+00 0.  1.
          2   -1    0    0  502    0  0.00000000000E+00 -0.00000000000E+00 -0.16521985543E+03  0.16521985543E+03  0.00000000000E+00 0. -1.
          6    1    1    2  502    0 -0.47920704006E+01 -0.72546688974E+02 -0.48167009432E+02  0.19284721107E+03  0.17200000000E+03 0. -1.
         -6    1    1    2    0  501  0.47920704006E+01  0.72546688974E+02  0.15025395774E+03  0.23967944809E+03  0.17200000000E+03 0.  1.
</event>
<event>
 4    1  0.3115421E-002  0.2058755E+03  0.7818608E-02  0.1144874E+00
         -2   -1    0    0    0  501 -0.00000000000E+00  0.00000000000E+00  0.13749715223E+03  0.13749715223E+03  0.00000000000E+00 0.  1.
          2   -1    0    0  502    0  0.00000000000E+00 -0.00000000000E+00 -0.42444999533E+03  0.42444999533E+03  0.00000000000E+00 0. -1.
          6    1    1    2  502    0 -0.44044597272E+02  0.10421510831E+03  0.35308127789E+01  0.20590575997E+03  0.17200000000E+03 0. -1.
         -6    1    1    2    0  501  0.44044597272E+02 -0.10421510831E+03 -0.29048365587E+03  0.35604138759E+03  0.17200000000E+03 0. -1.
</event>
<event>
 4    1  0.3115421E-002  0.3245014E+03  0.7818608E-02  0.1073596E+00
         -1   -1    0    0    0  501 -0.00000000000E+00  0.00000000000E+00  0.62032524134E+02  0.62032524134E+02  0.00000000000E+00 0.  1.
          1   -1    0    0  502    0  0.00000000000E+00 -0.00000000000E+00 -0.16980864693E+04  0.16980864693E+04  0.00000000000E+00 0. -1.
          6    1    1    2  502    0  0.27097543993E+03 -0.47848365945E+02 -0.83416821218E+03  0.89506299297E+03  0.17200000000E+03 0. -1.
         -6    1    1    2    0  501 -0.27097543993E+03  0.47848365945E+02 -0.80188573295E+03  0.86505600043E+03  0.17200000000E+03 0. -1.
</event>
<event>
 4    1  0.3115421E-002  0.1747658E+03  0.7818608E-02  0.1172967E+00
          1   -1    0    0  502    0  0.00000000000E+00  0.00000000000E+00  0.58185609658E+02  0.58185609658E+02  0.00000000000E+00 0. -1.
         -1   -1    0    0    0  501 -0.00000000000E+00 -0.00000000000E+00 -0.54341709287E+03  0.54341709287E+03  0.00000000000E+00 0.  1.
          6    1    1    2  502    0  0.10890559947E+01 -0.30950017106E+02 -0.18712705279E+03  0.25604613547E+03  0.17200000000E+03 0. -1.
         -6    1    1    2    0  501 -0.10890559947E+01  0.30950017106E+02 -0.29810443043E+03  0.34555656706E+03  0.17200000000E+03 0.  1.
</event>
<event>
 4    1  0.3115421E-002  0.2028926E+03  0.7818608E-02  0.1147321E+00
          2   -1    0    0  502    0  0.00000000000E+00  0.00000000000E+00  0.46276798375E+03  0.46276798375E+03  0.00000000000E+00 0. -1.
         -2   -1    0    0    0  501 -0.00000000000E+00 -0.00000000000E+00 -0.89440160074E+02  0.89440160074E+02  0.00000000000E+00 0.  1.
          6    1    1    2  502    0 -0.14114805853E+02  0.10668722805E+03  0.20700519057E+03  0.28985606997E+03  0.17200000000E+03 0.  1.
         -6    1    1    2    0  501  0.14114805853E+02 -0.10668722805E+03  0.16632263310E+03  0.26235207385E+03  0.17200000000E+03 0.  1.
</event>
<event>
 4    1  0.3115421E-002  0.2015976E+03  0.7818608E-02  0.1148398E+00
         -2   -1    0    0    0  501 -0.00000000000E+00  0.00000000000E+00  0.33474200412E+03  0.33474200412E+03  0.00000000000E+00 0.  1.
          2   -1    0    0  502    0  0.00000000000E+00 -0.00000000000E+00 -0.15497497265E+03  0.15497497265E+03  0.00000000000E+00 0. -1.
          6    1    1    2  502    0 -0.76744986946E+02  0.71887489862E+02  0.20383405040E+03  0.28668785172E+03  0.17200000000E+03 0.  1.
         -6    1    1    2    0  501  0.76744986946E+02 -0.71887489862E+02 -0.24067018927E+02  0.20302912505E+03  0.17200000000E+03 0. -1.
</event>
<event>
 4    1  0.3115421E-002  0.1820023E+03  0.7818608E-02  0.1165879E+00
          2   -1    0    0  502    0  0.00000000000E+00  0.00000000000E+00  0.15530135522E+04  0.15530135522E+04  0.00000000000E+00 0. -1.
         -2   -1    0    0    0  501 -0.00000000000E+00 -0.00000000000E+00 -0.22113759054E+02  0.22113759054E+02  0.00000000000E+00 0.  1.
          6    1    1    2  502    0  0.40129832112E+02  0.43936746174E+02  0.61712538163E+03  0.64340389939E+03  0.17200000000E+03 0.  1.
         -6    1    1    2    0  501 -0.40129832112E+02 -0.43936746174E+02  0.91377441155E+03  0.93172341191E+03  0.17200000000E+03 0.  1.
</event>
<event>
 4    1  0.3115421E-002  0.2208276E+03  0.7818608E-02  0.1133268E+00
         -2   -1    0    0    0  501 -0.00000000000E+00  0.00000000000E+00  0.77468086254E+02  0.77468086254E+02  0.00000000000E+00 0.  1.
          2   -1    0    0  502    0  0.00000000000E+00 -0.00000000000E+00 -0.65825414426E+03  0.65825414426E+03  0.00000000000E+00 0. -1.
          6    1    1    2  502    0 -0.12457273240E+02 -0.13793355772E+03 -0.36729987490E+03  0.42857210374E+03  0.17200000000E+03 0. -1.
         -6    1    1    2    0  501  0.12457273240E+02  0.13793355772E+03 -0.21348618310E+03  0.30715012677E+03  0.17200000000E+03 0. -1.
</event>
<event>
 4    1  0.3115421E-002  0.2266529E+03  0.7818608E-02  0.1129018E+00
          1   -1    0    0  502    0  0.00000000000E+00  0.00000000000E+00  0.65416327380E+03  0.65416327380E+03  0.00000000000E+00 0. -1.
         -1   -1    0    0    0  501 -0.00000000000E+00 -0.00000000000E+00 -0.93393936491E+02  0.93393936491E+02  0.00000000000E+00 0.  1.
          6    1    1    2  502    0 -0.13819053362E+03 -0.51873797561E+02  0.42949934783E+03  0.48563484661E+03  0.17200000000E+03 0. -1.
         -6    1    1    2    0  501  0.13819053362E+03  0.51873797561E+02  0.13126998947E+03  0.26192236368E+03  0.17200000000E+03 0.  1.
</event>
<event>
 4    1  0.3115421E-002  0.1846163E+03  0.7818608E-02  0.1163409E+00
         -1   -1    0    0    0  501 -0.00000000000E+00  0.00000000000E+00  0.12878752639E+02  0.12878752639E+02  0.00000000000E+00 0.  1.
          1   -1    0    0  502    0  0.00000000000E+00 -0.00000000000E+00 -0.26473238375E+04  0.26473238375E+04  0.00000000000E+00 0. -1.
          6    1    1    2  502    0 -0.66640398426E+02  0.76321800860E+01 -0.12932921523E+04  0.13064026118E+04  0.17200000000E+03 0. -1.
         -6    1    1    2    0  501  0.66640398426E+02 -0.76321800860E+01 -0.13411529326E+04  0.13537999784E+04  0.17200000000E+03 0.  1.
</event>
<event>
 4    1  0.3115421E-002  0.2715370E+03  0.7818608E-02  0.1100403E+00
          1   -1    0    0  502    0  0.00000000000E+00  0.00000000000E+00  0.47897258253E+03  0.47897258253E+03  0.00000000000E+00 0. -1.
         -1   -1    0    0    0  501 -0.00000000000E+00 -0.00000000000E+00 -0.40740777010E+03  0.40740777010E+03  0.00000000000E+00 0.  1.
          6    1    1    2  502    0  0.12686029658E+03 -0.16749574654E+03  0.38535554879E+03  0.47141410558E+03  0.17200000000E+03 0. -1.
         -6    1    1    2    0  501 -0.12686029658E+03  0.16749574654E+03 -0.31379073636E+03  0.41496624704E+03  0.17200000000E+03 0.  1.
</event>
<event>
 4    1  0.3115421E-002  0.2542554E+03  0.7818608E-02  0.1110645E+00
         -1   -1    0    0    0  501 -0.00000000000E+00  0.00000000000E+00  0.12716913035E+03  0.12716913035E+03  0.00000000000E+00 0.  1.
          1   -1    0    0  502    0  0.00000000000E+00 -0.00000000000E+00 -0.74794448664E+03  0.74794448664E+03  0.00000000000E+00 0. -1.
          6    1    1    2  502    0 -0.10994450895E+03 -0.15157182196E+03 -0.55804008751E+03  0.61323286892E+03  0.17200000000E+03 0. -1.
         -6    1    1    2    0  501  0.10994450895E+03  0.15157182196E+03 -0.62735268771E+02  0.26188074806E+03  0.17200000000E+03 0.  1.
</event>
<event>
 4    1  0.3115421E-002  0.2052406E+03  0.7818608E-02  0.1145391E+00
         -2   -1    0    0    0  501 -0.00000000000E+00  0.00000000000E+00  0.63038320391E+02  0.63038320391E+02  0.00000000000E+00 0.  1.
          2   -1    0    0  502    0  0.00000000000E+00 -0.00000000000E+00 -0.10174889622E+04  0.10174889622E+04  0.00000000000E+00 0. -1.
          6    1    1    2  502    0 -0.11108596092E+03 -0.14128387439E+02 -0.79375800566E+03  0.81986308223E+03  0.17200000000E+03 0. -1.
         -6    1    1    2    0  501  0.11108596092E+03  0.14128387439E+02 -0.16069263617E+03  0.26066420039E+03  0.17200000000E+03 0.  1.
</event>
<event>
 4    1  0.3115421E-002  0.2015040E+03  0.7818608E-02  0.1148476E+00
          2   -1    0    0  502    0  0.00000000000E+00  0.00000000000E+00  0.12334426063E+04  0.12334426063E+04  0.00000000000E+00 0. -1.
         -2   -1    0    0    0  501 -0.00000000000E+00 -0.00000000000E+00 -0.33342893287E+02  0.33342893287E+02  0.00000000000E+00 0.  1.
          6    1    1    2  502    0  0.31912146437E+02 -0.10000732158E+03  0.52864356902E+03  0.56574541317E+03  0.17200000000E+03 0. -1.
         -6    1    1    2    0  501 -0.31912146437E+02  0.10000732158E+03  0.67145614404E+03  0.70104008646E+03  0.17200000000E+03 0. -1.
</event>
<event>
 4    1  0.3115421E-002  0.2743979E+03  0.7818608E-02  0.1098789E+00
         -2   -1    0    0    0  501 -0.00000000000E+00  0.00000000000E+00  0.53209244046E+02  0.53209244046E+02  0.00000000000E+00 0.  1.
          2   -1    0    0  502    0  0.00000000000E+00 -0.00000000000E+00 -0.16552997352E+04  0.16552997352E+04  0.00000000000E+00 0. -1.
          6    1    1    2  502    0 -0.12059428145E+03  0.17654239858E+03 -0.11264865101E+04  0.11594248818E+04  0.17200000000E+03 0. -1.
         -6    1    1    2    0  501  0.12059428145E+03 -0.17654239858E+03 -0.47560398105E+03  0.54908409739E+03  0.17200000000E+03 0.  1.
</event>
<event>
 4    1  0.3115421E-002  0.2714784E+03  0.7818608E-02  0.1100436E+00
         -1   -1    0    0    0  501 -0.00000000000E+00  0.00000000000E+00  0.30261335569E+03  0.30261335569E+03  0.00000000000E+00 0.  1.
          1   -1    0    0  502    0  0.00000000000E+00 -0.00000000000E+00 -0.43156726887E+03  0.43156726887E+03  0.00000000000E+00 0. -1.
          6    1    1    2  502    0 -0.19627193733E+03 -0.74792118172E+02 -0.30677570089E+03  0.40964846513E+03  0.17200000000E+03 0. -1.
         -6    1    1    2    0  501  0.19627193733E+03  0.74792118172E+02  0.17782178771E+03  0.32453215943E+03  0.17200000000E+03 0.  1.
</event>
<event>
 4    1  0.3115421E-002  0.3706796E+03  0.7818608E-02  0.1054433E+00
         -2   -1    0    0    0  501 -0.00000000000E+00  0.00000000000E+00  0.30238005112E+03  0.30238005112E+03  0.00000000000E+00 0.  1.
          2   -1    0    0  502    0  0.00000000000E+00 -0.00000000000E+00 -0.85236295023E+03  0.85236295023E+03  0.00000000000E+00 0. -1.
          6    1    1    2  502    0 -0.26839623108E+02  0.32725979068E+03 -0.66950421493E+03  0.76527069052E+03  0.17200000000E+03 0. -1.
         -6    1    1    2    0  501  0.26839623108E+02 -0.32725979068E+03  0.11952131582E+03  0.38947231082E+03  0.17200000000E+03 0.  1.
</event>
<event>
 4    1  0.3115421E-002  0.5859799E+03  0.7818608E-02  0.9934928E-01
          2   -1    0    0  502    0  0.00000000000E+00  0.00000000000E+00  0.97415282147E+03  0.97415282147E+03  0.00000000000E+00 0. -1.
         -2   -1    0    0    0  501 -0.00000000000E+00 -0.00000000000E+00 -0.54640445983E+03  0.54640445983E+03  0.00000000000E+00 0.  1.
          6    1    1    2  502    0  0.29974022268E+03  0.47322749440E+03  0.66680141075E+03  0.88769171672E+03  0.17200000000E+03 0. -1.
         -6    1    1    2    0  501 -0.29974022268E+03 -0.47322749440E+03 -0.23905304910E+03  0.63286556458E+03  0.17200000000E+03 0.  1.
</event>
<event>
 4    1  0.3115421E-002  0.6450681E+03  0.7818608E-02  0.9816078E-01
          2   -1    0    0  502    0  0.00000000000E+00  0.00000000000E+00  0.95792732776E+03  0.95792732776E+03  0.00000000000E+00 0. -1.
         -2   -1    0    0    0  501 -0.00000000000E+00 -0.00000000000E+00 -0.43749754163E+03  0.43749754163E+03  0.00000000000E+00 0.  1.
          6    1    1    2  502    0  0.62020624347E+03  0.43278901893E+02  0.31902946639E+03  0.71964758612E+03  0.17200000000E+03 0. -1.
         -6    1    1    2    0  501 -0.62020624347E+03 -0.43278901893E+02  0.20140031974E+03  0.67577728326E+03  0.17200000000E+03 0.  1.
</event>
<event>
 4    1  0.3115421E-002  0.2103865E+03  0.7818608E-02  0.1141260E+00
         -1   -1    0    0    0  501 -0.00000000000E+00  0.00000000000E+00  0.51441168294E+02  0.51441168294E+02  0.00000000000E+00 0.  1.
          1   -1    0    0  502    0  0.00000000000E+00 -0.00000000000E+00 -0.12273855960E+04  0.12273855960E+04  0.00000000000E+00 0. -1.
          6    1    1    2  502    0 -0.10076583903E+03 -0.67265927533E+02 -0.23835950379E+03  0.31792721237E+03  0.17200000000E+03 0.  1.
         -6    1    1    2    0  501  0.10076583903E+03  0.67265927533E+02 -0.93758492389E+03  0.96089955189E+03  0.17200000000E+03 0. -1.
</event>
<event>
 4    1  0.3115421E-002  0.2399425E+03  0.7818608E-02  0.1119831E+00
         -1   -1    0    0    0  501 -0.00000000000E+00  0.00000000000E+00  0.71515498041E+02  0.71515498041E+02  0.00000000000E+00 0.  1.
          1   -1    0    0  502    0  0.00000000000E+00 -0.00000000000E+00 -0.80835158434E+03  0.80835158434E+03  0.00000000000E+00 0. -1.
          6    1    1    2  502    0 -0.15260163246E+03  0.68564998293E+02 -0.39660115667E+03  0.46353521408E+03  0.17200000000E+03 0.  1.
         -6    1    1    2    0  501  0.15260163246E+03 -0.68564998293E+02 -0.34023492962E+03  0.41633186829E+03  0.17200000000E+03 0. -1.
</event>
<event>
 4    1  0.3115421E-002  0.2747174E+03  0.7818608E-02  0.1098610E+00
          1   -1    0    0  502    0  0.00000000000E+00  0.00000000000E+00  0.13822470825E+04  0.13822470825E+04  0.00000000000E+00 0. -1.
         -1   -1    0    0    0  501 -0.00000000000E+00 -0.00000000000E+00 -0.58604541673E+02  0.58604541673E+02  0.00000000000E+00 0.  1.
          6    1    1    2  502    0  0.84219501869E+02 -0.19695871364E+03  0.47348217003E+03  0.54740754900E+03  0.17200000000E+03 0. -1.
         -6    1    1    2    0  501 -0.84219501869E+02  0.19695871364E+03  0.85016037077E+03  0.89344407514E+03  0.17200000000E+03 0.  1.
</event>
<event>
 4    1  0.3115421E-002  0.2206180E+03  0.7818608E-02  0.1133423E+00
          1   -1    0    0  502    0  0.00000000000E+00  0.00000000000E+00  0.48760140083E+03  0.48760140083E+03  0.00000000000E+00 0. -1.
         -1   -1    0    0    0  501 -0.00000000000E+00 -0.00000000000E+00 -0.24027315506E+03  0.24027315506E+03  0.00000000000E+00 0.  1.
          6    1    1    2  502    0 -0.11480754139E+02  0.13768252699E+03 -0.15458893058E+03  0.26938823919E+03  0.17200000000E+03 0.  1.
         -6    1    1    2    0  501  0.11480754139E+02 -0.13768252699E+03  0.40191717635E+03  0.45848631670E+03  0.17200000000E+03 0. -1.
</event>
<event>
 4    1  0.3115421E-002  0.2611638E+03  0.7818608E-02  0.1106446E+00
          2   -1    0    0  502    0  0.00000000000E+00  0.00000000000E+00  0.13424177682E+04  0.13424177682E+04  0.00000000000E+00 0. -1.
         -2   -1    0    0    0  501 -0.00000000000E+00 -0.00000000000E+00 -0.11314574134E+03  0.11314574134E+03  0.00000000000E+00 0.  1.
          6    1    1    2  502    0 -0.13091388264E+03  0.14657457896E+03  0.11548365612E+04  0.11839991701E+04  0.17200000000E+03 0. -1.
         -6    1    1    2    0  501  0.13091388264E+03 -0.14657457896E+03  0.74435465656E+02  0.27156433936E+03  0.17200000000E+03 0.  1.
</event>
<event>
 4    1  0.3115421E-002  0.2292425E+03  0.7818608E-02  0.1127174E+00
          1   -1    0    0  502    0  0.00000000000E+00  0.00000000000E+00  0.13168969661E+04  0.13168969661E+04  0.00000000000E+00 0. -1.
         -1   -1    0    0    0  501 -0.00000000000E+00 -0.00000000000E+00 -0.43609443890E+02  0.43609443890E+02  0.00000000000E+00 0.  1.
          6    1    1    2  502    0 -0.10132525435E+03 -0.11270003466E+03  0.43840774806E+03  0.49472563967E+03  0.17200000000E+03 0.  1.
         -6    1    1    2    0  501  0.10132525435E+03  0.11270003466E+03  0.83487977415E+03  0.86578077033E+03  0.17200000000E+03 0. -1.
</event>
<event>
 4    1  0.3115421E-002  0.2820786E+03  0.7818608E-02  0.1094559E+00
         -2   -1    0    0    0  501 -0.00000000000E+00  0.00000000000E+00  0.51957836868E+03  0.51957836868E+03  0.00000000000E+00 0.  1.
          2   -1    0    0  502    0  0.00000000000E+00 -0.00000000000E+00 -0.34417801780E+03  0.34417801780E+03  0.00000000000E+00 0. -1.
          6    1    1    2  502    0 -0.98895162452E+02  0.20050951055E+03 -0.23405787784E+03  0.36653977568E+03  0.17200000000E+03 0. -1.
         -6    1    1    2    0  501  0.98895162452E+02 -0.20050951055E+03  0.40945822872E+03  0.49721661079E+03  0.17200000000E+03 0.  1.
</event>
<event>
 4    1  0.3115421E-002  0.1820341E+03  0.7818608E-02  0.1165849E+00
         -2   -1    0    0    0  501 -0.00000000000E+00  0.00000000000E+00  0.25228497255E+03  0.25228497255E+03  0.00000000000E+00 0.  1.
          2   -1    0    0  502    0  0.00000000000E+00 -0.00000000000E+00 -0.20220741581E+03  0.20220741581E+03  0.00000000000E+00 0. -1.
          6    1    1    2  502    0  0.57446322933E+02 -0.15884517810E+02 -0.10948706194E+03  0.21242366783E+03  0.17200000000E+03 0. -1.
         -6    1    1    2    0  501 -0.57446322933E+02  0.15884517810E+02  0.15956461867E+03  0.24206872053E+03  0.17200000000E+03 0.  1.
</event>
<event>
 4    1  0.3115421E-002  0.1725212E+03  0.7818608E-02  0.1175244E+00
          2   -1    0    0  502    0  0.00000000000E+00  0.00000000000E+00  0.76086233833E+03  0.76086233833E+03  0.00000000000E+00 0. -1.
         -2   -1    0    0    0  501 -0.00000000000E+00 -0.00000000000E+00 -0.23519329275E+03  0.23519329275E+03  0.00000000000E+00 0.  1.
          6    1    1    2  502    0 -0.92261427453E+01 -0.97187618997E+01  0.71756318771E+03  0.73801118176E+03  0.17200000000E+03 0. -1.
         -6    1    1    2    0  501  0.92261427453E+01  0.97187618997E+01 -0.19189414213E+03  0.25804444932E+03  0.17200000000E+03 0.  1.
</event>
<event>
 4    1  0.3115421E-002  0.1761004E+03  0.7818608E-02  0.1171631E+00
          2   -1    0    0  502    0  0.00000000000E+00  0.00000000000E+00  0.14975701877E+04  0.14975701877E+04  0.00000000000E+00 0. -1.
         -2   -1    0    0    0  501 -0.00000000000E+00 -0.00000000000E+00 -0.33017309543E+02  0.33017309543E+02  0.00000000000E+00 0.  1.
          6    1    1    2  502    0  0.32103270956E+02  0.19918062850E+02  0.26499545429E+03  0.31817281472E+03  0.17200000000E+03 0.  1.
         -6    1    1    2    0  501 -0.32103270956E+02 -0.19918062850E+02  0.11995574238E+04  0.12124146825E+04  0.17200000000E+03 0. -1.
</event>
<event>
 4    1  0.3115421E-002  0.2108283E+03  0.7818608E-02  0.1140912E+00
         -2   -1    0    0    0  501 -0.00000000000E+00  0.00000000000E+00  0.14650867751E+03  0.14650867751E+03  0.00000000000E+00 0.  1.
          2   -1    0    0  502    0  0.00000000000E+00 -0.00000000000E+00 -0.30401910697E+03  0.30401910697E+03  0.00000000000E+00 0. -1.
          6    1    1    2  502    0  0.12000175024E+03 -0.21544651565E+02 -0.89039858765E+02  0.22885953884E+03  0.17200000000E+03 0.  1.
         -6    1    1    2    0  501 -0.12000175024E+03  0.21544651565E+02 -0.68470570700E+02  0.22166824563E+03  0.17200000000E+03 0.  1.
</event>
<event>
 4    1  0.3115421E-002  0.2603143E+03  0.7818608E-02  0.1106955E+00
          2   -1    0    0  502    0  0.00000000000E+00  0.00000000000E+00  0.63890820027E+03  0.63890820027E+03  0.00000000000E+00 0. -1.
         -2   -1    0    0    0  501 -0.00000000000E+00 -0.00000000000E+00 -0.20112672238E+03  0.20112672238E+03  0.00000000000E+00 0.  1.
          6    1    1    2  502    0 -0.17120360961E+03 -0.94174592899E+02  0.50765497679E+03  0.57050600817E+03  0.17200000000E+03 0. -1.
         -6    1    1    2    0  501  0.17120360961E+03  0.94174592899E+02 -0.69873498904E+02  0.26952891448E+03  0.17200000000E+03 0.  1.
</event>
<event>
 4    1  0.3115421E-002  0.1872553E+03  0.7818608E-02  0.1160960E+00
         -2   -1    0    0    0  501 -0.00000000000E+00  0.00000000000E+00  0.19916905553E+02  0.19916905553E+02  0.00000000000E+00 0.  1.
          2   -1    0    0  502    0  0.00000000000E+00 -0.00000000000E+00 -0.17611591241E+04  0.17611591241E+04  0.00000000000E+00 0. -1.
          6    1    1    2  502    0 -0.72513463450E+02  0.14911049558E+02 -0.88729597186E+03  0.90683994369E+03  0.17200000000E+03 0. -1.
         -6    1    1    2    0  501  0.72513463450E+02 -0.14911049558E+02 -0.85394624665E+03  0.87423608593E+03  0.17200000000E+03 0.  1.
</event>
<event>
 4    1  0.3115421E-002  0.2072647E+03  0.7818608E-02  0.1143751E+00
         -1   -1    0    0    0  501 -0.00000000000E+00  0.00000000000E+00  0.36756065599E+03  0.36756065599E+03  0.00000000000E+00 0.  1.
          1   -1    0    0  502    0  0.00000000000E+00 -0.00000000000E+00 -0.11899506422E+03  0.11899506422E+03  0.00000000000E+00 0. -1.
          6    1    1    2  502    0 -0.24354305720E+02 -0.11305545559E+03  0.91810873414E+02  0.22668900442E+03  0.17200000000E+03 0.  1.
         -6    1    1    2    0  501  0.24354305720E+02  0.11305545559E+03  0.15675471836E+03  0.25986671579E+03  0.17200000000E+03 0. -1.
</event>
<event>
 4    1  0.3115421E-002  0.2958216E+03  0.7818608E-02  0.1087348E+00
         -2   -1    0    0    0  501 -0.00000000000E+00  0.00000000000E+00  0.68605945750E+02  0.68605945750E+02  0.00000000000E+00 0.  1.
          2   -1    0    0  502    0  0.00000000000E+00 -0.00000000000E+00 -0.24361409905E+04  0.24361409905E+04  0.00000000000E+00 0. -1.
          6    1    1    2  502    0  0.17092797696E+03 -0.16944042389E+03 -0.20481817941E+04  0.20694344861E+04  0.17200000000E+03 0. -1.
         -6    1    1    2    0  501 -0.17092797696E+03  0.16944042389E+03 -0.31935325063E+03  0.43531245014E+03  0.17200000000E+03 0.  1.
</event>
<event>
 4    1  0.3115421E-002  0.1862043E+03  0.7818608E-02  0.1161930E+00
         -2   -1    0    0    0  501 -0.00000000000E+00  0.00000000000E+00  0.21391122316E+02  0.21391122316E+02  0.00000000000E+00 0.  1.
          2   -1    0    0  502    0  0.00000000000E+00 -0.00000000000E+00 -0.18309834697E+04  0.18309834697E+04  0.00000000000E+00 0. -1.
          6    1    1    2  502    0 -0.49110780027E+02 -0.51731560261E+02 -0.12185532129E+04  0.12326978363E+04  0.17200000000E+03 0.  1.
         -6    1    1    2    0  501  0.49110780027E+02  0.51731560261E+02 -0.59103913457E+03  0.61967675576E+03  0.17200000000E+03 0. -1.
</event>
<event>
 4    1  0.3115421E-002  0.2083051E+03  0.7818608E-02  0.1142915E+00
          2   -1    0    0  502    0  0.00000000000E+00  0.00000000000E+00  0.27182526908E+03  0.27182526908E+03  0.00000000000E+00 0. -1.
         -2   -1    0    0    0  501 -0.00000000000E+00 -0.00000000000E+00 -0.16184655121E+03  0.16184655121E+03  0.00000000000E+00 0.  1.
          6    1    1    2  502    0  0.85585738330E+02 -0.80511512233E+02  0.80374458165E+02  0.22327354463E+03  0.17200000000E+03 0. -1.
         -6    1    1    2    0  501 -0.85585738330E+02  0.80511512233E+02  0.29604259698E+02  0.21039827566E+03  0.17200000000E+03 0.  1.
</event>
<event>
 4    1  0.3115421E-002  0.1771728E+03  0.7818608E-02  0.1170568E+00
         -2   -1    0    0    0  501 -0.00000000000E+00  0.00000000000E+00  0.74931472931E+02  0.74931472931E+02  0.00000000000E+00 0.  1.
          2   -1    0    0  502    0  0.00000000000E+00 -0.00000000000E+00 -0.49325758887E+03  0.49325758887E+03  0.00000000000E+00 0. -1.
          6    1    1    2  502    0  0.39335233332E+02 -0.16092155570E+02 -0.31945229400E+03  0.36529438293E+03  0.17200000000E+03 0. -1.
         -6    1    1    2    0  501 -0.39335233332E+02  0.16092155570E+02 -0.98873821934E+02  0.20289467888E+03  0.17200000000E+03 0.  1.
</event>
<event>
 4    1  0.3115421E-002  0.4232604E+03  0.7818608E-02  0.1036010E+00
         -2   -1    0    0    0  501 -0.00000000000E+00  0.00000000000E+00  0.22061937902E+03  0.22061937902E+03  0.00000000000E+00 0.  1.
          2   -1    0    0  502    0  0.00000000000E+00 -0.00000000000E+00 -0.15557229976E+04  0.15557229976E+04  0.00000000000E+00 0. -1.
          6    1    1    2  502    0 -0.38659157815E+03  0.10598375712E+02 -0.12816355944E+04  0.13497181820E+04  0.17200000000E+03 0. -1.
         -6    1    1    2    0  501  0.38659157815E+03 -0.10598375712E+02 -0.53468024186E+02  0.42662419466E+03  0.17200000000E+03 0.  1.
</event>
<event>
 4    1  0.3115421E-002  0.2043810E+03  0.7818608E-02  0.1146095E+00
         -1   -1    0    0    0  501 -0.00000000000E+00  0.00000000000E+00  0.83445533861E+02  0.83445533861E+02  0.00000000000E+00 0.  1.
          1   -1    0    0  502    0  0.00000000000E+00 -0.00000000000E+00 -0.57327219693E+03  0.57327219693E+03  0.00000000000E+00 0. -1.
          6    1    1    2  502    0 -0.18445633741E+02  0.10884552238E+03 -0.36183554589E+03  0.41556774588E+03  0.17200000000E+03 0. -1.
         -6    1    1    2    0  501  0.18445633741E+02 -0.10884552238E+03 -0.12799111718E+03  0.24114998491E+03  0.17200000000E+03 0.  1.
</event>
<event>
 4    1  0.3115421E-002  0.1818209E+03  0.7818608E-02  0.1166052E+00
          1   -1    0    0  502    0  0.00000000000E+00  0.00000000000E+00  0.18803701926E+04  0.18803701926E+04  0.00000000000E+00 0. -1.
         -1   -1    0    0    0  501 -0.00000000000E+00 -0.00000000000E+00 -0.21489906729E+02  0.21489906729E+02  0.00000000000E+00 0.  1.
          6    1    1    2  502    0 -0.12156182410E+02  0.57680706086E+02  0.52387788337E+03  0.55453302274E+03  0.17200000000E+03 0.  1.
         -6    1    1    2    0  501  0.12156182410E+02 -0.57680706086E+02  0.13350024025E+04  0.13473270765E+04  0.17200000000E+03 0. -1.
</event>
<event>
 4    1  0.3115421E-002  0.3720287E+03  0.7818608E-02  0.1053920E+00
         -1   -1    0    0    0  501 -0.00000000000E+00  0.00000000000E+00  0.51424599031E+03  0.51424599031E+03  0.00000000000E+00 0.  1.
          1   -1    0    0  502    0  0.00000000000E+00 -0.00000000000E+00 -0.38861897613E+03  0.38861897613E+03  0.00000000000E+00 0. -1.
          6    1    1    2  502    0  0.51171919074E+02 -0.32588769361E+03 -0.18749312147E+03  0.41660415834E+03  0.17200000000E+03 0. -1.
         -6    1    1    2    0  501 -0.51171919074E+02  0.32588769361E+03  0.31312013566E+03  0.48626080811E+03  0.17200000000E+03 0.  1.
</event>
<event>
 4    1  0.3115421E-002  0.1788094E+03  0.7818608E-02  0.1168960E+00
         -3   -1    0    0    0  501 -0.00000000000E+00  0.00000000000E+00  0.28876061836E+03  0.28876061836E+03  0.00000000000E+00 0.  1.
          3   -1    0    0  502    0  0.00000000000E+00 -0.00000000000E+00 -0.12285062407E+03  0.12285062407E+03  0.00000000000E+00 0. -1.
          6    1    1    2  502    0 -0.28692830980E+02  0.39566623761E+02  0.18295184659E+02  0.17974289985E+03  0.17200000000E+03 0. -1.
         -6    1    1    2    0  501  0.28692830980E+02 -0.39566623761E+02  0.14761480964E+03  0.23186834258E+03  0.17200000000E+03 0.  1.
</event>
<event>
 4    1  0.3115421E-002  0.2315630E+03  0.7818608E-02  0.1125544E+00
          4   -1    0    0  502    0  0.00000000000E+00  0.00000000000E+00  0.22900634809E+04  0.22900634809E+04  0.00000000000E+00 0. -1.
         -4   -1    0    0    0  501 -0.00000000000E+00 -0.00000000000E+00 -0.23441531273E+02  0.23441531273E+02  0.00000000000E+00 0.  1.
          6    1    1    2  502    0  0.14498677000E+03  0.54920629461E+02  0.10942680691E+04  0.11185008028E+04  0.17200000000E+03 0. -1.
         -6    1    1    2    0  501 -0.14498677000E+03 -0.54920629461E+02  0.11723538806E+04  0.11950042093E+04  0.17200000000E+03 0. -1.
</event>
<event>
 4    1  0.3115421E-002  0.3671784E+03  0.7818608E-02  0.1055777E+00
          2   -1    0    0  502    0  0.00000000000E+00  0.00000000000E+00  0.13802672483E+04  0.13802672483E+04  0.00000000000E+00 0. -1.
         -2   -1    0    0    0  501 -0.00000000000E+00 -0.00000000000E+00 -0.42552512516E+03  0.42552512516E+03  0.00000000000E+00 0.  1.
          6    1    1    2  502    0  0.34170076378E+02  0.32259627804E+03  0.12698938600E+04  0.13219116341E+04  0.17200000000E+03 0. -1.
         -6    1    1    2    0  501 -0.34170076378E+02 -0.32259627804E+03 -0.31515173683E+03  0.48388073939E+03  0.17200000000E+03 0.  1.
</event>
<event>
 4    1  0.3115421E-002  0.2068970E+03  0.7818608E-02  0.1144047E+00
          1   -1    0    0  502    0  0.00000000000E+00  0.00000000000E+00  0.17269270331E+03  0.17269270331E+03  0.00000000000E+00 0. -1.
         -1   -1    0    0    0  501 -0.00000000000E+00 -0.00000000000E+00 -0.35949392240E+03  0.35949392240E+03  0.00000000000E+00 0.  1.
          6    1    1    2  502    0 -0.10657187024E+03  0.43183301953E+02 -0.24167130524E+03  0.31813736164E+03  0.17200000000E+03 0. -1.
         -6    1    1    2    0  501  0.10657187024E+03 -0.43183301953E+02  0.54870086144E+02  0.21404926407E+03  0.17200000000E+03 0. -1.
</event>
<event>
 4    1  0.3115421E-002  0.3388339E+03  0.7818608E-02  0.1067294E+00
          2   -1    0    0  502    0  0.00000000000E+00  0.00000000000E+00  0.39133757690E+04  0.39133757690E+04  0.00000000000E+00 0. -1.
         -2   -1    0    0    0  501 -0.00000000000E+00 -0.00000000000E+00 -0.30406828368E+02  0.30406828368E+02  0.00000000000E+00 0.  1.
          6    1    1    2  502    0  0.10014575943E+03 -0.27421746413E+03  0.15716843841E+04  0.16077935794E+04  0.17200000000E+03 0. -1.
         -6    1    1    2    0  501 -0.10014575943E+03  0.27421746413E+03  0.23112845565E+04  0.23359890179E+04  0.17200000000E+03 0.  1.
</event>
<event>
 4    1  0.3115421E-002  0.2292284E+03  0.7818608E-02  0.1127184E+00
         -2   -1    0    0    0  501 -0.00000000000E+00  0.00000000000E+00  0.63097052290E+02  0.63097052290E+02  0.00000000000E+00 0.  1.
          2   -1    0    0  502    0  0.00000000000E+00 -0.00000000000E+00 -0.83691304755E+03  0.83691304755E+03  0.00000000000E+00 0. -1.
          6    1    1    2  502    0 -0.62791759579E+01  0.15140091352E+03 -0.41854977456E+03  0.47721020363E+03  0.17200000000E+03 0. -1.
         -6    1    1    2    0  501  0.62791759579E+01 -0.15140091352E+03 -0.35526622069E+03  0.42279989620E+03  0.17200000000E+03 0.  1.
</event>
<event>
 4    1  0.3115421E-002  0.2431801E+03  0.7818608E-02  0.1117692E+00
         -2   -1    0    0    0  501 -0.00000000000E+00  0.00000000000E+00  0.87640164453E+02  0.87640164453E+02  0.00000000000E+00 0.  1.
          2   -1    0    0  502    0  0.00000000000E+00 -0.00000000000E+00 -0.67959922000E+03  0.67959922000E+03  0.00000000000E+00 0. -1.
          6    1    1    2  502    0  0.17171424703E+03  0.81722377440E+01 -0.32833224297E+03  0.40858124024E+03  0.17200000000E+03 0. -1.
         -6    1    1    2    0  501 -0.17171424703E+03 -0.81722377440E+01 -0.26362681258E+03  0.35865814422E+03  0.17200000000E+03 0. -1.
</event>
<event>
 4    1  0.3115421E-002  0.1915087E+03  0.7818608E-02  0.1157108E+00
          2   -1    0    0  502    0  0.00000000000E+00  0.00000000000E+00  0.13580008910E+04  0.13580008910E+04  0.00000000000E+00 0. -1.
         -2   -1    0    0    0  501 -0.00000000000E+00 -0.00000000000E+00 -0.44637114540E+02  0.44637114540E+02  0.00000000000E+00 0.  1.
          6    1    1    2  502    0  0.44586615877E+02 -0.71439489529E+02  0.10974343861E+04  0.11140187605E+04  0.17200000000E+03 0. -1.
         -6    1    1    2    0  501 -0.44586615877E+02  0.71439489529E+02  0.21592939037E+03  0.28861924503E+03  0.17200000000E+03 0.  1.
</event>
<event>
 4    1  0.3115421E-002  0.1795425E+03  0.7818608E-02  0.1168247E+00
         -1   -1    0    0    0  501 -0.00000000000E+00  0.00000000000E+00  0.23615808340E+02  0.23615808340E+02  0.00000000000E+00 0.  1.
          1   -1    0    0  502    0  0.00000000000E+00 -0.00000000000E+00 -0.17106402512E+04  0.17106402512E+04  0.00000000000E+00 0. -1.
          6    1    1    2  502    0  0.35761200051E+02  0.37049077334E+02 -0.45373344518E+03  0.48796468810E+03  0.17200000000E+03 0.  1.
         -6    1    1    2    0  501 -0.35761200051E+02 -0.37049077334E+02 -0.12332909977E+04  0.12462913715E+04  0.17200000000E+03 0. -1.
</event>
<event>
 4    1  0.3115421E-002  0.2671045E+03  0.7818608E-02  0.1102948E+00
          1   -1    0    0  502    0  0.00000000000E+00  0.00000000000E+00  0.79483966386E+03  0.79483966386E+03  0.00000000000E+00 0. -1.
         -1   -1    0    0    0  501 -0.00000000000E+00 -0.00000000000E+00 -0.11706937800E+03  0.11706937800E+03  0.00000000000E+00 0.  1.
          6    1    1    2  502    0  0.10374550911E+03 -0.17606153944E+03  0.55910470475E+03  0.61963123485E+03  0.17200000000E+03 0. -1.
         -6    1    1    2    0  501 -0.10374550911E+03  0.17606153944E+03  0.11866558112E+03  0.29227780701E+03  0.17200000000E+03 0.  1.
</event>
<event>
 4    1  0.3115421E-002  0.2494774E+03  0.7818608E-02  0.1113636E+00
         -2   -1    0    0    0  501 -0.00000000000E+00  0.00000000000E+00  0.44593007608E+02  0.44593007608E+02  0.00000000000E+00 0.  1.
          2   -1    0    0  502    0  0.00000000000E+00 -0.00000000000E+00 -0.19036623272E+04  0.19036623272E+04  0.00000000000E+00 0. -1.
          6    1    1    2  502    0 -0.17620278173E+03  0.40094448789E+02 -0.42634507226E+03  0.49397277835E+03  0.17200000000E+03 0.  1.
         -6    1    1    2    0  501  0.17620278173E+03 -0.40094448789E+02 -0.14327242473E+04  0.14542825565E+04  0.17200000000E+03 0. -1.
</event>
<event>
 4    1  0.3115421E-002  0.2954589E+03  0.7818608E-02  0.1087533E+00
         -1   -1    0    0    0  501 -0.00000000000E+00  0.00000000000E+00  0.14327431172E+03  0.14327431172E+03  0.00000000000E+00 0.  1.
          1   -1    0    0  502    0  0.00000000000E+00 -0.00000000000E+00 -0.16793234979E+04  0.16793234979E+04  0.00000000000E+00 0. -1.
          6    1    1    2  502    0  0.15615595296E+03 -0.18255754898E+03 -0.14954557161E+04  0.15243633881E+04  0.17200000000E+03 0. -1.
         -6    1    1    2    0  501 -0.15615595296E+03  0.18255754898E+03 -0.40593470072E+02  0.29823442147E+03  0.17200000000E+03 0.  1.
</event>
<event>
 4    1  0.3115421E-002  0.2042539E+03  0.7818608E-02  0.1146199E+00
         -2   -1    0    0    0  501 -0.00000000000E+00  0.00000000000E+00  0.17024769916E+03  0.17024769916E+03  0.00000000000E+00 0.  1.
          2   -1    0    0  502    0  0.00000000000E+00 -0.00000000000E+00 -0.70727868756E+03  0.70727868756E+03  0.00000000000E+00 0. -1.
          6    1    1    2  502    0  0.61244443375E+02 -0.91568309329E+02 -0.62321627208E+03  0.65583394156E+03  0.17200000000E+03 0. -1.
         -6    1    1    2    0  501 -0.61244443375E+02  0.91568309329E+02  0.86185283674E+02  0.22169244516E+03  0.17200000000E+03 0.  1.
</event>
<event>
 4    1  0.3115421E-002  0.2021152E+03  0.7818608E-02  0.1147967E+00
         -3   -1    0    0    0  501 -0.00000000000E+00  0.00000000000E+00  0.83327716993E+03  0.83327716993E+03  0.00000000000E+00 0.  1.
          3   -1    0    0  502    0  0.00000000000E+00 -0.00000000000E+00 -0.11301487155E+03  0.11301487155E+03  0.00000000000E+00 0. -1.
          6    1    1    2  502    0  0.43071733851E+02  0.97012251395E+02  0.41012068308E+01  0.20215679824E+03  0.17200000000E+03 0. -1.
         -6    1    1    2    0  501 -0.43071733851E+02 -0.97012251395E+02  0.71616109155E+03  0.74413524324E+03  0.17200000000E+03 0.  1.
</event>
<event>
 4    1  0.3115421E-002  0.1838585E+03  0.7818608E-02  0.1164120E+00
         -2   -1    0    0    0  501 -0.00000000000E+00  0.00000000000E+00  0.14852668335E+03  0.14852668335E+03  0.00000000000E+00 0.  1.
          2   -1    0    0  502    0  0.00000000000E+00 -0.00000000000E+00 -0.48725699296E+03  0.48725699296E+03  0.00000000000E+00 0. -1.
          6    1    1    2  502    0  0.12384563808E+02 -0.63769656241E+02 -0.40142737359E+03  0.44152902820E+03  0.17200000000E+03 0. -1.
         -6    1    1    2    0  501 -0.12384563808E+02  0.63769656241E+02  0.62697063988E+02  0.19425464811E+03  0.17200000000E+03 0.  1.
</event>
<event>
 4    1  0.3115421E-002  0.2067108E+03  0.7818608E-02  0.1144197E+00
         -1   -1    0    0    0  501 -0.00000000000E+00  0.00000000000E+00  0.38350215666E+03  0.38350215666E+03  0.00000000000E+00 0.  1.
          1   -1    0    0  502    0  0.00000000000E+00 -0.00000000000E+00 -0.12678114508E+03  0.12678114508E+03  0.00000000000E+00 0. -1.
          6    1    1    2  502    0  0.10261130953E+03  0.51149539445E+02  0.21717473646E+03  0.29982365214E+03  0.17200000000E+03 0.  1.
         -6    1    1    2    0  501 -0.10261130953E+03 -0.51149539445E+02  0.39546275124E+02  0.21045964959E+03  0.17200000000E+03 0.  1.
</event>
<event>
 4    1  0.3115421E-002  0.1985034E+03  0.7818608E-02  0.1151008E+00
          1   -1    0    0  502    0  0.00000000000E+00  0.00000000000E+00  0.48833981022E+03  0.48833981022E+03  0.00000000000E+00 0. -1.
         -1   -1    0    0    0  501 -0.00000000000E+00 -0.00000000000E+00 -0.80889963868E+02  0.80889963868E+02  0.00000000000E+00 0.  1.
          6    1    1    2  502    0  0.84316371608E+02 -0.52061120557E+02  0.18953571675E+03  0.27445837338E+03  0.17200000000E+03 0. -1.
         -6    1    1    2    0  501 -0.84316371608E+02  0.52061120557E+02  0.21791412961E+03  0.29477140071E+03  0.17200000000E+03 0. -1.
</event>
<event>
 4    1  0.3115421E-002  0.2470553E+03  0.7818608E-02  0.1115180E+00
          1   -1    0    0  502    0  0.00000000000E+00  0.00000000000E+00  0.10263720370E+04  0.10263720370E+04  0.00000000000E+00 0. -1.
         -1   -1    0    0    0  501 -0.00000000000E+00 -0.00000000000E+00 -0.11150229963E+03  0.11150229963E+03  0.00000000000E+00 0.  1.
          6    1    1    2  502    0  0.12588671342E+03 -0.12491931485E+03  0.84609251901E+03  0.88142433059E+03  0.17200000000E+03 0. -1.
         -6    1    1    2    0  501 -0.12588671342E+03  0.12491931485E+03  0.68777218387E+02  0.25645000606E+03  0.17200000000E+03 0.  1.
</event>
<event>
 4    1  0.3115421E-002  0.2685886E+03  0.7818608E-02  0.1102090E+00
         -1   -1    0    0    0  501 -0.00000000000E+00  0.00000000000E+00  0.70528364689E+02  0.70528364689E+02  0.00000000000E+00 0.  1.
          1   -1    0    0  502    0  0.00000000000E+00 -0.00000000000E+00 -0.10251023180E+04  0.10251023180E+04  0.00000000000E+00 0. -1.
          6    1    1    2  502    0 -0.85496546975E+02  0.18773960656E+03 -0.50297479572E+03  0.57019598784E+03  0.17200000000E+03 0. -1.
         -6    1    1    2    0  501  0.85496546975E+02 -0.18773960656E+03 -0.45159915759E+03  0.52543469485E+03  0.17200000000E+03 0.  1.
</event>
<event>
 4    1  0.3115421E-002  0.1910104E+03  0.7818608E-02  0.1157553E+00
          1   -1    0    0  502    0  0.00000000000E+00  0.00000000000E+00  0.36264330666E+03  0.36264330666E+03  0.00000000000E+00 0. -1.
         -1   -1    0    0    0  501 -0.00000000000E+00 -0.00000000000E+00 -0.10464303195E+03  0.10464303195E+03  0.00000000000E+00 0.  1.
          6    1    1    2  502    0  0.55852620201E+02 -0.61493554762E+02  0.17487750250E+03  0.25897319039E+03  0.17200000000E+03 0. -1.
         -6    1    1    2    0  501 -0.55852620201E+02  0.61493554762E+02  0.83122772209E+02  0.20831314822E+03  0.17200000000E+03 0.  1.
</event>
<event>
 4    1  0.3115421E-002  0.2144199E+03  0.7818608E-02  0.1138113E+00
          2   -1    0    0  502    0  0.00000000000E+00  0.00000000000E+00  0.69468403597E+03  0.69468403597E+03  0.00000000000E+00 0. -1.
         -2   -1    0    0    0  501 -0.00000000000E+00 -0.00000000000E+00 -0.82999418144E+02  0.82999418144E+02  0.00000000000E+00 0.  1.
          6    1    1    2  502    0  0.10034331991E+03 -0.79517989641E+02  0.48087097006E+03  0.52651000215E+03  0.17200000000E+03 0. -1.
         -6    1    1    2    0  501 -0.10034331991E+03  0.79517989641E+02  0.13081364777E+03  0.25117345196E+03  0.17200000000E+03 0.  1.
</event>
<event>
 4    1  0.3115421E-002  0.2535041E+03  0.7818608E-02  0.1111110E+00
          2   -1    0    0  502    0  0.00000000000E+00  0.00000000000E+00  0.57402148617E+03  0.57402148617E+03  0.00000000000E+00 0. -1.
         -2   -1    0    0    0  501 -0.00000000000E+00 -0.00000000000E+00 -0.13936743349E+03  0.13936743349E+03  0.00000000000E+00 0.  1.
          6    1    1    2  502    0  0.68753884984E+02 -0.17307006454E+03  0.37552200837E+03  0.45307959865E+03  0.17200000000E+03 0. -1.
         -6    1    1    2    0  501 -0.68753884984E+02  0.17307006454E+03  0.59132044316E+02  0.26030932101E+03  0.17200000000E+03 0.  1.
</event>
<event>
 4    1  0.3115421E-002  0.2340760E+03  0.7818608E-02  0.1123803E+00
          2   -1    0    0  502    0  0.00000000000E+00  0.00000000000E+00  0.64126878363E+03  0.64126878363E+03  0.00000000000E+00 0. -1.
         -2   -1    0    0    0  501 -0.00000000000E+00 -0.00000000000E+00 -0.11364634761E+03  0.11364634761E+03  0.00000000000E+00 0.  1.
          6    1    1    2  502    0  0.59684958402E+02 -0.14712329209E+03  0.45184902683E+03  0.50888024169E+03  0.17200000000E+03 0. -1.
         -6    1    1    2    0  501 -0.59684958402E+02  0.14712329209E+03  0.75773409181E+02  0.24603488955E+03  0.17200000000E+03 0.  1.
</event>
<event>
 4    1  0.3115421E-002  0.2135701E+03  0.7818608E-02  0.1138770E+00
         -2   -1    0    0    0  501 -0.00000000000E+00  0.00000000000E+00  0.16209539172E+03  0.16209539172E+03  0.00000000000E+00 0.  1.
          2   -1    0    0  502    0  0.00000000000E+00 -0.00000000000E+00 -0.46176918015E+03  0.46176918015E+03  0.00000000000E+00 0. -1.
          6    1    1    2  502    0  0.12071527034E+03  0.38157720359E+02 -0.34479434111E+03  0.40558023347E+03  0.17200000000E+03 0. -1.
         -6    1    1    2    0  501 -0.12071527034E+03 -0.38157720359E+02  0.45120552680E+02  0.21828433840E+03  0.17200000000E+03 0.  1.
</event>
<event>
 4    1  0.3115421E-002  0.1859232E+03  0.7818608E-02  0.1162191E+00
          1   -1    0    0  502    0  0.00000000000E+00  0.00000000000E+00  0.13388250222E+03  0.13388250222E+03  0.00000000000E+00 0. -1.
         -1   -1    0    0    0  501 -0.00000000000E+00 -0.00000000000E+00 -0.30969208895E+03  0.30969208895E+03  0.00000000000E+00 0.  1.
          6    1    1    2  502    0 -0.59749519833E+02  0.37595870336E+02  0.25379228829E+01  0.18594057018E+03  0.17200000000E+03 0. -1.
         -6    1    1    2    0  501  0.59749519833E+02 -0.37595870336E+02 -0.17834750961E+03  0.25763402099E+03  0.17200000000E+03 0.  1.
</event>
<event>
 4    1  0.3115421E-002  0.2392946E+03  0.7818608E-02  0.1120264E+00
         -2   -1    0    0    0  501 -0.00000000000E+00  0.00000000000E+00  0.16955431670E+03  0.16955431670E+03  0.00000000000E+00 0.  1.
          2   -1    0    0  502    0  0.00000000000E+00 -0.00000000000E+00 -0.51811774144E+03  0.51811774144E+03  0.00000000000E+00 0. -1.
          6    1    1    2  502    0  0.10772145558E+03 -0.12678322416E+03 -0.37716795472E+03  0.44667388998E+03  0.17200000000E+03 0. -1.
         -6    1    1    2    0  501 -0.10772145558E+03  0.12678322416E+03  0.28604529972E+02  0.24099816816E+03  0.17200000000E+03 0.  1.
</event>
<event>
 4    1  0.3115421E-002  0.1993973E+03  0.7818608E-02  0.1150249E+00
         -1   -1    0    0    0  501 -0.00000000000E+00  0.00000000000E+00  0.38344225442E+03  0.38344225442E+03  0.00000000000E+00 0.  1.
          1   -1    0    0  502    0  0.00000000000E+00 -0.00000000000E+00 -0.12519092778E+03  0.12519092778E+03  0.00000000000E+00 0. -1.
          6    1    1    2  502    0  0.44327075562E+02  0.90611212147E+02  0.23732410734E+02  0.20080465312E+03  0.17200000000E+03 0. -1.
         -6    1    1    2    0  501 -0.44327075562E+02 -0.90611212147E+02  0.23451891591E+03  0.30782852908E+03  0.17200000000E+03 0.  1.
</event>
<event>
 4    1  0.3115421E-002  0.1913012E+03  0.7818608E-02  0.1157293E+00
         -2   -1    0    0    0  501 -0.00000000000E+00  0.00000000000E+00  0.45263500105E+03  0.45263500105E+03  0.00000000000E+00 0.  1.
          2   -1    0    0  502    0  0.00000000000E+00 -0.00000000000E+00 -0.86423260278E+02  0.86423260278E+02  0.00000000000E+00 0. -1.
          6    1    1    2  502    0 -0.80072806464E+01  0.83354948203E+02  0.25154292688E+03  0.31602216377E+03  0.17200000000E+03 0.  1.
         -6    1    1    2    0  501  0.80072806464E+01 -0.83354948203E+02  0.11466881390E+03  0.22303609756E+03  0.17200000000E+03 0.  1.
</event>
<event>
 4    1  0.3115421E-002  0.1728065E+03  0.7818608E-02  0.1174952E+00
         -1   -1    0    0    0  501 -0.00000000000E+00  0.00000000000E+00  0.40250232073E+02  0.40250232073E+02  0.00000000000E+00 0.  1.
          1   -1    0    0  502    0  0.00000000000E+00 -0.00000000000E+00 -0.75681504112E+03  0.75681504112E+03  0.00000000000E+00 0. -1.
          6    1    1    2  502    0  0.16284934395E+02  0.35922735861E+01 -0.41420870809E+03  0.44881060301E+03  0.17200000000E+03 0. -1.
         -6    1    1    2    0  501 -0.16284934395E+02 -0.35922735861E+01 -0.30235610096E+03  0.34825467018E+03  0.17200000000E+03 0.  1.
</event>
<event>
 4    1  0.3115421E-002  0.2500940E+03  0.7818608E-02  0.1113245E+00
         -1   -1    0    0    0  501 -0.00000000000E+00  0.00000000000E+00  0.48838476644E+03  0.48838476644E+03  0.00000000000E+00 0.  1.
          1   -1    0    0  502    0  0.00000000000E+00 -0.00000000000E+00 -0.14303639761E+03  0.14303639761E+03  0.00000000000E+00 0. -1.
          6    1    1    2  502    0 -0.11062683931E+02 -0.18121985715E+03  0.27480031968E+03  0.37156726887E+03  0.17200000000E+03 0.  1.
         -6    1    1    2    0  501  0.11062683931E+02  0.18121985715E+03  0.70548049157E+02  0.25985389518E+03  0.17200000000E+03 0.  1.
</event>
<event>
 4    1  0.3115421E-002  0.3450938E+03  0.7818608E-02  0.1064647E+00
         -2   -1    0    0    0  501 -0.00000000000E+00  0.00000000000E+00  0.68035241267E+02  0.68035241267E+02  0.00000000000E+00 0.  1.
          2   -1    0    0  502    0  0.00000000000E+00 -0.00000000000E+00 -0.21397255485E+04  0.21397255485E+04  0.00000000000E+00 0. -1.
          6    1    1    2  502    0  0.48502937910E+02 -0.29521724376E+03 -0.15067057045E+04  0.15457204909E+04  0.17200000000E+03 0. -1.
         -6    1    1    2    0  501 -0.48502937910E+02  0.29521724376E+03 -0.56498460273E+03  0.66204029887E+03  0.17200000000E+03 0.  1.
</event>
<event>
 4    1  0.3115421E-002  0.2410221E+03  0.7818608E-02  0.1119114E+00
          1   -1    0    0  502    0  0.00000000000E+00  0.00000000000E+00  0.35577748465E+03  0.35577748465E+03  0.00000000000E+00 0. -1.
         -1   -1    0    0    0  501 -0.00000000000E+00 -0.00000000000E+00 -0.45405411367E+03  0.45405411367E+03  0.00000000000E+00 0.  1.
          6    1    1    2  502    0 -0.16807687343E+03 -0.16056586068E+02 -0.37317050177E+03  0.44423853134E+03  0.17200000000E+03 0.  1.
         -6    1    1    2    0  501  0.16807687343E+03  0.16056586068E+02  0.27489387275E+03  0.36559306697E+03  0.17200000000E+03 0. -1.
</event>
<event>
 4    1  0.3115421E-002  0.2770859E+03  0.7818608E-02  0.1097291E+00
          2   -1    0    0  502    0  0.00000000000E+00  0.00000000000E+00  0.42485207075E+03  0.42485207075E+03  0.00000000000E+00 0. -1.
         -2   -1    0    0    0  501 -0.00000000000E+00 -0.00000000000E+00 -0.24235081959E+03  0.24235081959E+03  0.00000000000E+00 0.  1.
          6    1    1    2  502    0 -0.21236527518E+03 -0.45755715834E+02  0.25948967079E+03  0.37962018503E+03  0.17200000000E+03 0. -1.
         -6    1    1    2    0  501  0.21236527518E+03  0.45755715834E+02 -0.76988419627E+02  0.28758270531E+03  0.17200000000E+03 0.  1.
</event>
<event>
 4    1  0.3115421E-002  0.2063712E+03  0.7818608E-02  0.1144472E+00
          1   -1    0    0  502    0  0.00000000000E+00  0.00000000000E+00  0.72349917363E+03  0.72349917363E+03  0.00000000000E+00 0. -1.
         -1   -1    0    0    0  501 -0.00000000000E+00 -0.00000000000E+00 -0.13588683321E+03  0.13588683321E+03  0.00000000000E+00 0.  1.
          6    1    1    2  502    0  0.10739701636E+03 -0.38352988757E+02  0.61730698663E+03  0.65088938124E+03  0.17200000000E+03 0. -1.
         -6    1    1    2    0  501 -0.10739701636E+03  0.38352988757E+02 -0.29694646222E+02  0.20849662559E+03  0.17200000000E+03 0.  1.
</event>
<event>
 4    1  0.3115421E-002  0.3072449E+03  0.7818608E-02  0.1081674E+00
          1   -1    0    0  502    0  0.00000000000E+00  0.00000000000E+00  0.14805794928E+04  0.14805794928E+04  0.00000000000E+00 0. -1.
         -1   -1    0    0    0  501 -0.00000000000E+00 -0.00000000000E+00 -0.89756253839E+02  0.89756253839E+02  0.00000000000E+00 0.  1.
          6    1    1    2  502    0  0.25412060036E+03  0.15432275187E+02  0.11179815599E+04  0.11594318449E+04  0.17200000000E+03 0. -1.
         -6    1    1    2    0  501 -0.25412060036E+03 -0.15432275187E+02  0.27284167906E+03  0.41090390176E+03  0.17200000000E+03 0.  1.
</event>
<event>
 4    1  0.3115421E-002  0.1748107E+03  0.7818608E-02  0.1172922E+00
          1   -1    0    0  502    0  0.00000000000E+00  0.00000000000E+00  0.77426642436E+03  0.77426642436E+03  0.00000000000E+00 0. -1.
         -1   -1    0    0    0  501 -0.00000000000E+00 -0.00000000000E+00 -0.40089054444E+02  0.40089054444E+02  0.00000000000E+00 0.  1.
          6    1    1    2  502    0  0.15741258833E+02 -0.26962989489E+02  0.41776635399E+03  0.45286589247E+03  0.17200000000E+03 0. -1.
         -6    1    1    2    0  501 -0.15741258833E+02  0.26962989489E+02  0.31641101592E+03  0.36148958633E+03  0.17200000000E+03 0. -1.
</event>
<event>
 4    1  0.3115421E-002  0.1731481E+03  0.7818608E-02  0.1174604E+00
         -2   -1    0    0    0  501 -0.00000000000E+00  0.00000000000E+00  0.36607871366E+02  0.36607871366E+02  0.00000000000E+00 0.  1.
          2   -1    0    0  502    0  0.00000000000E+00 -0.00000000000E+00 -0.86896493555E+03  0.86896493555E+03  0.00000000000E+00 0. -1.
          6    1    1    2  502    0 -0.13102487737E+02 -0.14985968234E+02 -0.52479954762E+03  0.55262538813E+03  0.17200000000E+03 0. -1.
         -6    1    1    2    0  501  0.13102487737E+02  0.14985968234E+02 -0.30755751656E+03  0.35294741878E+03  0.17200000000E+03 0.  1.
</event>
<event>
 4    1  0.3115421E-002  0.1780472E+03  0.7818608E-02  0.1169706E+00
          2   -1    0    0  502    0  0.00000000000E+00  0.00000000000E+00  0.93020121535E+03  0.93020121535E+03  0.00000000000E+00 0. -1.
         -2   -1    0    0    0  501 -0.00000000000E+00 -0.00000000000E+00 -0.45222695655E+02  0.45222695655E+02  0.00000000000E+00 0.  1.
          6    1    1    2  502    0 -0.18326480190E+02 -0.42201369626E+02  0.20039216861E+03  0.26806312076E+03  0.17200000000E+03 0.  1.
         -6    1    1    2    0  501  0.18326480190E+02  0.42201369626E+02  0.68458635109E+03  0.70736079024E+03  0.17200000000E+03 0. -1.
</event>
<event>
 4    1  0.3115421E-002  0.1835356E+03  0.7818608E-02  0.1164424E+00
         -2   -1    0    0    0  501 -0.00000000000E+00  0.00000000000E+00  0.42415191952E+03  0.42415191952E+03  0.00000000000E+00 0.  1.
          2   -1    0    0  502    0  0.00000000000E+00 -0.00000000000E+00 -0.11097787656E+03  0.11097787656E+03  0.00000000000E+00 0. -1.
          6    1    1    2  502    0  0.56971477993E+02 -0.29250354571E+02  0.13902124568E+02  0.18406140718E+03  0.17200000000E+03 0. -1.
         -6    1    1    2    0  501 -0.56971477993E+02  0.29250354571E+02  0.29927191839E+03  0.35106838890E+03  0.17200000000E+03 0.  1.
</event>
<event>
 4    1  0.3115421E-002  0.1986731E+03  0.7818608E-02  0.1150863E+00
         -2   -1    0    0    0  501 -0.00000000000E+00  0.00000000000E+00  0.30946168877E+03  0.30946168877E+03  0.00000000000E+00 0.  1.
          2   -1    0    0  502    0  0.00000000000E+00 -0.00000000000E+00 -0.71046790342E+03  0.71046790342E+03  0.00000000000E+00 0. -1.
          6    1    1    2  502    0  0.15947636301E+02 -0.98146202913E+02  0.26142316826E+03  0.32834901729E+03  0.17200000000E+03 0.  1.
         -6    1    1    2    0  501 -0.15947636301E+02  0.98146202913E+02 -0.66242938291E+03  0.69158057491E+03  0.17200000000E+03 0. -1.
</event>
<event>
 4    1  0.3115421E-002  0.2297497E+03  0.7818608E-02  0.1126816E+00
          2   -1    0    0  502    0  0.00000000000E+00  0.00000000000E+00  0.16934217799E+03  0.16934217799E+03  0.00000000000E+00 0. -1.
         -2   -1    0    0    0  501 -0.00000000000E+00 -0.00000000000E+00 -0.67314738995E+03  0.67314738995E+03  0.00000000000E+00 0.  1.
          6    1    1    2  502    0 -0.14355361898E+03  0.50924397906E+02  0.56770311433E+02  0.23665967989E+03  0.17200000000E+03 0. -1.
         -6    1    1    2    0  501  0.14355361898E+03 -0.50924397906E+02 -0.56057552340E+03  0.60582988805E+03  0.17200000000E+03 0.  1.
</event>
<event>
 4    1  0.3115421E-002  0.4115284E+03  0.7818608E-02  0.1039859E+00
         -2   -1    0    0    0  501 -0.00000000000E+00  0.00000000000E+00  0.15063833743E+03  0.15063833743E+03  0.00000000000E+00 0.  1.
          2   -1    0    0  502    0  0.00000000000E+00 -0.00000000000E+00 -0.12628973106E+04  0.12628973106E+04  0.00000000000E+00 0. -1.
          6    1    1    2  502    0 -0.37167458330E+03 -0.40368147303E+02 -0.79030634769E+03  0.89103294349E+03  0.17200000000E+03 0. -1.
         -6    1    1    2    0  501  0.37167458330E+03  0.40368147303E+02 -0.32195262547E+03  0.52250270452E+03  0.17200000000E+03 0.  1.
</event>
<event>
 4    1  0.3115421E-002  0.1827746E+03  0.7818608E-02  0.1165144E+00
         -2   -1    0    0    0  501 -0.00000000000E+00  0.00000000000E+00  0.93776472205E+02  0.93776472205E+02  0.00000000000E+00 0.  1.
          2   -1    0    0  502    0  0.00000000000E+00 -0.00000000000E+00 -0.36427288453E+03  0.36427288453E+03  0.00000000000E+00 0. -1.
          6    1    1    2  502    0 -0.27042121367E+02 -0.55599332337E+02 -0.16926636341E+03  0.24911375688E+03  0.17200000000E+03 0. -1.
         -6    1    1    2    0  501  0.27042121367E+02  0.55599332337E+02 -0.10123004892E+03  0.20893559986E+03  0.17200000000E+03 0.  1.
</event>
<event>
 4    1  0.3115421E-002  0.2413505E+03  0.7818608E-02  0.1118896E+00
         -1   -1    0    0    0  501 -0.00000000000E+00  0.00000000000E+00  0.36394972374E+03  0.36394972374E+03  0.00000000000E+00 0.  1.
          1   -1    0    0  502    0  0.00000000000E+00 -0.00000000000E+00 -0.18442981839E+03  0.18442981839E+03  0.00000000000E+00 0. -1.
          6    1    1    2  502    0 -0.16796218220E+03  0.21325415476E+02 -0.99303696144E+01  0.24155471478E+03  0.17200000000E+03 0. -1.
         -6    1    1    2    0  501  0.16796218220E+03 -0.21325415476E+02  0.18945027496E+03  0.30682482734E+03  0.17200000000E+03 0.  1.
</event>
<event>
 4    1  0.3115421E-002  0.2205377E+03  0.7818608E-02  0.1133483E+00
         -2   -1    0    0    0  501 -0.00000000000E+00  0.00000000000E+00  0.39807319365E+02  0.39807319365E+02  0.00000000000E+00 0.  1.
          2   -1    0    0  502    0  0.00000000000E+00 -0.00000000000E+00 -0.12447331415E+04  0.12447331415E+04  0.00000000000E+00 0. -1.
          6    1    1    2  502    0  0.62411705679E+02  0.12311644138E+03 -0.51529815065E+03  0.56050786186E+03  0.17200000000E+03 0. -1.
         -6    1    1    2    0  501 -0.62411705679E+02 -0.12311644138E+03 -0.68962767146E+03  0.72403259898E+03  0.17200000000E+03 0. -1.
</event>
<event>
 4    1  0.3115421E-002  0.2140051E+03  0.7818608E-02  0.1138433E+00
          2   -1    0    0  502    0  0.00000000000E+00  0.00000000000E+00  0.11224883007E+04  0.11224883007E+04  0.00000000000E+00 0. -1.
         -2   -1    0    0    0  501 -0.00000000000E+00 -0.00000000000E+00 -0.70500258633E+02  0.70500258633E+02  0.00000000000E+00 0.  1.
          6    1    1    2  502    0 -0.15103536487E+02  0.12643598649E+03  0.13883731028E+03  0.25509600981E+03  0.17200000000E+03 0.  1.
         -6    1    1    2    0  501  0.15103536487E+02 -0.12643598649E+03  0.91315073175E+03  0.93789254949E+03  0.17200000000E+03 0.  1.
</event>
<event>
 4    1  0.3115421E-002  0.2115067E+03  0.7818608E-02  0.1140378E+00
         -1   -1    0    0    0  501 -0.00000000000E+00  0.00000000000E+00  0.13037609823E+03  0.13037609823E+03  0.00000000000E+00 0.  1.
          1   -1    0    0  502    0  0.00000000000E+00 -0.00000000000E+00 -0.72761950379E+03  0.72761950379E+03  0.00000000000E+00 0. -1.
          6    1    1    2  502    0 -0.11873553783E+03 -0.32449326802E+02 -0.61047395603E+03  0.64607548920E+03  0.17200000000E+03 0. -1.
         -6    1    1    2    0  501  0.11873553783E+03  0.32449326802E+02  0.13230550470E+02  0.21192011282E+03  0.17200000000E+03 0.  1.
</event>
<event>
 4    1  0.3115421E-002  0.1776740E+03  0.7818608E-02  0.1170073E+00
         -1   -1    0    0    0  501 -0.00000000000E+00  0.00000000000E+00  0.13519371116E+03  0.13519371116E+03  0.00000000000E+00 0.  1.
          1   -1    0    0  502    0  0.00000000000E+00 -0.00000000000E+00 -0.29666781235E+03  0.29666781235E+03  0.00000000000E+00 0. -1.
          6    1    1    2  502    0  0.35991868427E+02 -0.26241798346E+02 -0.18037372196E+03  0.25318516178E+03  0.17200000000E+03 0. -1.
         -6    1    1    2    0  501 -0.35991868427E+02  0.26241798346E+02  0.18899620773E+02  0.17867636172E+03  0.17200000000E+03 0.  1.
</event>
<event>
 4    1  0.3115421E-002  0.5717333E+03  0.7818608E-02  0.9965850E-01
         -2   -1    0    0    0  501 -0.00000000000E+00  0.00000000000E+00  0.77761465151E+03  0.77761465151E+03  0.00000000000E+00 0.  1.
          2   -1    0    0  502    0  0.00000000000E+00 -0.00000000000E+00 -0.56831174169E+03  0.56831174169E+03  0.00000000000E+00 0. -1.
          6    1    1    2  502    0 -0.13224864992E+03 -0.52896621260E+03 -0.23871384887E+03  0.61956699486E+03  0.17200000000E+03 0. -1.
         -6    1    1    2    0  501  0.13224864992E+03  0.52896621260E+03  0.44801675869E+03  0.72635939834E+03  0.17200000000E+03 0.  1.
</event>
<event>
 4    1  0.3115421E-002  0.5004212E+03  0.7818608E-02  0.1013669E+00
          1   -1    0    0  502    0  0.00000000000E+00  0.00000000000E+00  0.50965857821E+03  0.50965857821E+03  0.00000000000E+00 0. -1.
         -1   -1    0    0    0  501 -0.00000000000E+00 -0.00000000000E+00 -0.77967659253E+03  0.77967659253E+03  0.00000000000E+00 0.  1.
          6    1    1    2  502    0  0.28317624398E+03 -0.37503140959E+03  0.25702166541E+03  0.56256686698E+03  0.17200000000E+03 0. -1.
         -6    1    1    2    0  501 -0.28317624398E+03  0.37503140959E+03 -0.52703967973E+03  0.72676830376E+03  0.17200000000E+03 0.  1.
</event>
<event>
 4    1  0.3115421E-002  0.5554406E+03  0.7818608E-02  0.1000242E+00
          1   -1    0    0  502    0  0.00000000000E+00  0.00000000000E+00  0.21255265464E+04  0.21255265464E+04  0.00000000000E+00 0. -1.
         -1   -1    0    0    0  501 -0.00000000000E+00 -0.00000000000E+00 -0.19415685176E+03  0.19415685176E+03  0.00000000000E+00 0.  1.
          6    1    1    2  502    0 -0.14835619928E+01  0.52813643049E+03  0.15484090202E+04  0.16450181713E+04  0.17200000000E+03 0. -1.
         -6    1    1    2    0  501  0.14835619928E+01 -0.52813643049E+03  0.38296067449E+03  0.67466522689E+03  0.17200000000E+03 0.  1.
</event>
<event>
 4    1  0.3115421E-002  0.2007712E+03  0.7818608E-02  0.1149090E+00
         -1   -1    0    0    0  501 -0.00000000000E+00  0.00000000000E+00  0.52707703809E+02  0.52707703809E+02  0.00000000000E+00 0.  1.
          1   -1    0    0  502    0  0.00000000000E+00 -0.00000000000E+00 -0.77554520498E+03  0.77554520498E+03  0.00000000000E+00 0. -1.
          6    1    1    2  502    0 -0.76832212818E+02 -0.69439903676E+02 -0.31259720010E+03  0.37151863838E+03  0.17200000000E+03 0.  1.
         -6    1    1    2    0  501  0.76832212818E+02  0.69439903676E+02 -0.41024030107E+03  0.45673427041E+03  0.17200000000E+03 0.  1.
</event>
<event>
 4    1  0.3115421E-002  0.2179343E+03  0.7818608E-02  0.1135433E+00
          3   -1    0    0  502    0  0.00000000000E+00  0.00000000000E+00  0.44062339457E+03  0.44062339457E+03  0.00000000000E+00 0. -1.
         -3   -1    0    0    0  501 -0.00000000000E+00 -0.00000000000E+00 -0.15906744149E+03  0.15906744149E+03  0.00000000000E+00 0.  1.
          6    1    1    2  502    0 -0.40397408052E+02 -0.12759078092E+03  0.31101912442E+03  0.37977395081E+03  0.17200000000E+03 0. -1.
         -6    1    1    2    0  501  0.40397408052E+02  0.12759078092E+03 -0.29463171346E+02  0.21991688525E+03  0.17200000000E+03 0.  1.
</event>
<event>
 4    1  0.3115421E-002  0.2224970E+03  0.7818608E-02  0.1132035E+00
         -2   -1    0    0    0  501 -0.00000000000E+00  0.00000000000E+00  0.46135396167E+02  0.46135396167E+02  0.00000000000E+00 0.  1.
          2   -1    0    0  502    0  0.00000000000E+00 -0.00000000000E+00 -0.26963403737E+04  0.26963403737E+04  0.00000000000E+00 0. -1.
          6    1    1    2  502    0  0.13634973107E+03 -0.36464567980E+02 -0.23890629869E+04  0.23994013564E+04  0.17200000000E+03 0. -1.
         -6    1    1    2    0  501 -0.13634973107E+03  0.36464567980E+02 -0.26114199064E+03  0.34307441344E+03  0.17200000000E+03 0.  1.
</event>
<event>
 4    1  0.3115421E-002  0.1759928E+03  0.7818608E-02  0.1171739E+00
          3   -1    0    0  502    0  0.00000000000E+00  0.00000000000E+00  0.59379080079E+02  0.59379080079E+02  0.00000000000E+00 0. -1.
         -3   -1    0    0    0  501 -0.00000000000E+00 -0.00000000000E+00 -0.55873641379E+03  0.55873641379E+03  0.00000000000E+00 0.  1.
          6    1    1    2  502    0 -0.37143984550E+02  0.31294290956E+01 -0.17002531446E+03  0.24470814549E+03  0.17200000000E+03 0. -1.
         -6    1    1    2    0  501  0.37143984550E+02 -0.31294290956E+01 -0.32933201925E+03  0.37340734837E+03  0.17200000000E+03 0.  1.
</event>
<event>
 4    1  0.3115421E-002  0.2342232E+03  0.7818608E-02  0.1123702E+00
          1   -1    0    0  502    0  0.00000000000E+00  0.00000000000E+00  0.11645895456E+03  0.11645895456E+03  0.00000000000E+00 0. -1.
         -1   -1    0    0    0  501 -0.00000000000E+00 -0.00000000000E+00 -0.47944915902E+03  0.47944915902E+03  0.00000000000E+00 0.  1.
          6    1    1    2  502    0 -0.83599216561E+02  0.13523194639E+03 -0.14210961118E+03  0.27396286231E+03  0.17200000000E+03 0. -1.
         -6    1    1    2    0  501  0.83599216561E+02 -0.13523194639E+03 -0.22088059327E+03  0.32194525127E+03  0.17200000000E+03 0.  1.
</event>
<event>
 4    1  0.3115421E-002  0.1841526E+03  0.7818608E-02  0.1163844E+00
          2   -1    0    0  502    0  0.00000000000E+00  0.00000000000E+00  0.12880426800E+04  0.12880426800E+04  0.00000000000E+00 0. -1.
         -2   -1    0    0    0  501 -0.00000000000E+00 -0.00000000000E+00 -0.28193451194E+02  0.28193451194E+02  0.00000000000E+00 0.  1.
          6    1    1    2  502    0 -0.38103520344E+02 -0.53631222007E+02  0.79918975907E+03  0.82013197550E+03  0.17200000000E+03 0. -1.
         -6    1    1    2    0  501  0.38103520344E+02  0.53631222007E+02  0.46065946971E+03  0.49610415567E+03  0.17200000000E+03 0. -1.
</event>
<event>
 4    1  0.3115421E-002  0.1840145E+03  0.7818608E-02  0.1163973E+00
          2   -1    0    0  502    0  0.00000000000E+00  0.00000000000E+00  0.27837690257E+03  0.27837690257E+03  0.00000000000E+00 0. -1.
         -2   -1    0    0    0  501 -0.00000000000E+00 -0.00000000000E+00 -0.14131674952E+03  0.14131674952E+03  0.00000000000E+00 0.  1.
          6    1    1    2  502    0 -0.48681798984E+02  0.43673834664E+02  0.14683695387E+03  0.23541965171E+03  0.17200000000E+03 0. -1.
         -6    1    1    2    0  501  0.48681798984E+02 -0.43673834664E+02 -0.97768008229E+01  0.18427400039E+03  0.17200000000E+03 0.  1.
</event>
<event>
 4    1  0.3115421E-002  0.3029526E+03  0.7818608E-02  0.1083774E+00
         -1   -1    0    0    0  501 -0.00000000000E+00  0.00000000000E+00  0.13784280211E+03  0.13784280211E+03  0.00000000000E+00 0.  1.
          1   -1    0    0  502    0  0.00000000000E+00 -0.00000000000E+00 -0.11490565669E+04  0.11490565669E+04  0.00000000000E+00 0. -1.
          6    1    1    2  502    0  0.23890493792E+03  0.71558983134E+02 -0.92287772197E+03  0.97133081241E+03  0.17200000000E+03 0. -1.
         -6    1    1    2    0  501 -0.23890493792E+03 -0.71558983134E+02 -0.88336042776E+02  0.31556855655E+03  0.17200000000E+03 0.  1.
</event>
<event>
 4    1  0.3115421E-002  0.1955699E+03  0.7818608E-02  0.1153531E+00
          2   -1    0    0  502    0  0.00000000000E+00  0.00000000000E+00  0.23325377514E+04  0.23325377514E+04  0.00000000000E+00 0. -1.
         -2   -1    0    0    0  501 -0.00000000000E+00 -0.00000000000E+00 -0.33172054454E+02  0.33172054454E+02  0.00000000000E+00 0.  1.
          6    1    1    2  502    0  0.44455919894E+02 -0.81775555723E+02  0.19908300284E+04  0.20004129004E+04  0.17200000000E+03 0. -1.
         -6    1    1    2    0  501 -0.44455919894E+02  0.81775555723E+02  0.30853566854E+03  0.36529690539E+03  0.17200000000E+03 0.  1.
</event>
<event>
 4    1  0.3115421E-002  0.2791745E+03  0.7818608E-02  0.1096141E+00
          2   -1    0    0  502    0  0.00000000000E+00  0.00000000000E+00  0.15317144094E+04  0.15317144094E+04  0.00000000000E+00 0. -1.
         -2   -1    0    0    0  501 -0.00000000000E+00 -0.00000000000E+00 -0.21496823630E+03  0.21496823630E+03  0.00000000000E+00 0.  1.
          6    1    1    2  502    0  0.11462441618E+03  0.18765828336E+03  0.14213852739E+04  0.14485421931E+04  0.17200000000E+03 0. -1.
         -6    1    1    2    0  501 -0.11462441618E+03 -0.18765828336E+03 -0.10463910081E+03  0.29814045267E+03  0.17200000000E+03 0.  1.
</event>
<event>
 4    1  0.3115421E-002  0.4021392E+03  0.7818608E-02  0.1043041E+00
          1   -1    0    0  502    0  0.00000000000E+00  0.00000000000E+00  0.40396962854E+03  0.40396962854E+03  0.00000000000E+00 0. -1.
         -1   -1    0    0    0  501 -0.00000000000E+00 -0.00000000000E+00 -0.40202246681E+03  0.40202246681E+03  0.00000000000E+00 0.  1.
          6    1    1    2  502    0  0.64166736282E+02 -0.35779122541E+03 -0.25274077593E+02  0.40293263708E+03  0.17200000000E+03 0. -1.
         -6    1    1    2    0  501 -0.64166736282E+02  0.35779122541E+03  0.27221239319E+02  0.40305945827E+03  0.17200000000E+03 0.  1.
</event>
<event>
 4    1  0.3115421E-002  0.1929614E+03  0.7818608E-02  0.1155817E+00
         -3   -1    0    0    0  501 -0.00000000000E+00  0.00000000000E+00  0.22893846299E+04  0.22893846299E+04  0.00000000000E+00 0.  1.
          3   -1    0    0  502    0  0.00000000000E+00 -0.00000000000E+00 -0.22813743341E+02  0.22813743341E+02  0.00000000000E+00 0. -1.
          6    1    1    2  502    0  0.87458873365E+02  0.10294156245E+01  0.51382255235E+03  0.54886039166E+03  0.17200000000E+03 0. -1.
         -6    1    1    2    0  501 -0.87458873365E+02 -0.10294156245E+01  0.17527483343E+04  0.17633379816E+04  0.17200000000E+03 0.  1.
</event>
<event>
 4    1  0.3115421E-002  0.1985561E+03  0.7818608E-02  0.1150963E+00
          2   -1    0    0  502    0  0.00000000000E+00  0.00000000000E+00  0.41754763918E+03  0.41754763918E+03  0.00000000000E+00 0. -1.
         -2   -1    0    0    0  501 -0.00000000000E+00 -0.00000000000E+00 -0.99978308452E+02  0.99978308452E+02  0.00000000000E+00 0.  1.
          6    1    1    2  502    0 -0.99198060478E+02  0.53731625604E+00  0.97767922414E+02  0.22132128358E+03  0.17200000000E+03 0.  1.
         -6    1    1    2    0  501  0.99198060478E+02 -0.53731625604E+00  0.21980140832E+03  0.29620466406E+03  0.17200000000E+03 0.  1.
</event>
<event>
 4    1  0.3115421E-002  0.2589647E+03  0.7818608E-02  0.1107767E+00
          1   -1    0    0  502    0  0.00000000000E+00  0.00000000000E+00  0.91236944271E+03  0.91236944271E+03  0.00000000000E+00 0. -1.
         -1   -1    0    0    0  501 -0.00000000000E+00 -0.00000000000E+00 -0.86783165295E+02  0.86783165295E+02  0.00000000000E+00 0.  1.
          6    1    1    2  502    0  0.57096480545E+02  0.18498294575E+03  0.60821419732E+03  0.66105007990E+03  0.17200000000E+03 0. -1.
         -6    1    1    2    0  501 -0.57096480545E+02 -0.18498294575E+03  0.21737208009E+03  0.33810252811E+03  0.17200000000E+03 0.  1.
</event>
<event>
 4    1  0.3115421E-002  0.5600263E+03  0.7818608E-02  0.9991995E-01
          2   -1    0    0  502    0  0.00000000000E+00  0.00000000000E+00  0.49670562297E+03  0.49670562297E+03  0.00000000000E+00 0. -1.
         -2   -1    0    0    0  501 -0.00000000000E+00 -0.00000000000E+00 -0.63966544736E+03  0.63966544736E+03  0.00000000000E+00 0.  1.
          6    1    1    2  502    0 -0.52944644825E+03 -0.61089087647E+02 -0.13599250524E+03  0.57630146597E+03  0.17200000000E+03 0. -1.
         -6    1    1    2    0  501  0.52944644825E+03  0.61089087647E+02 -0.69673191394E+01  0.56006960436E+03  0.17200000000E+03 0.  1.
</event>
<event>
 4    1  0.3115421E-002  0.2661864E+03  0.7818608E-02  0.1103482E+00
         -2   -1    0    0    0  501 -0.00000000000E+00  0.00000000000E+00  0.13917171975E+03  0.13917171975E+03  0.00000000000E+00 0.  1.
          2   -1    0    0  502    0  0.00000000000E+00 -0.00000000000E+00 -0.18490861516E+04  0.18490861516E+04  0.00000000000E+00 0. -1.
          6    1    1    2  502    0  0.12773006635E+02  0.20275117941E+03 -0.17012311362E+04  0.17219298967E+04  0.17200000000E+03 0. -1.
         -6    1    1    2    0  501 -0.12773006635E+02 -0.20275117941E+03 -0.86832956545E+01  0.26632797464E+03  0.17200000000E+03 0.  1.
</event>
<event>
 4    1  0.3115421E-002  0.2491625E+03  0.7818608E-02  0.1113835E+00
          1   -1    0    0  502    0  0.00000000000E+00  0.00000000000E+00  0.92791428601E+02  0.92791428601E+02  0.00000000000E+00 0. -1.
         -1   -1    0    0    0  501 -0.00000000000E+00 -0.00000000000E+00 -0.66971695380E+03  0.66971695380E+03  0.00000000000E+00 0.  1.
          6    1    1    2  502    0  0.13057940762E+03 -0.12428574265E+03 -0.27641407443E+03  0.37213796912E+03  0.17200000000E+03 0. -1.
         -6    1    1    2    0  501 -0.13057940762E+03  0.12428574265E+03 -0.30051145077E+03  0.39037041328E+03  0.17200000000E+03 0.  1.
</event>
<event>
 4    1  0.3115421E-002  0.1855350E+03  0.7818608E-02  0.1162551E+00
         -2   -1    0    0    0  501 -0.00000000000E+00  0.00000000000E+00  0.71682283918E+02  0.71682283918E+02  0.00000000000E+00 0.  1.
          2   -1    0    0  502    0  0.00000000000E+00 -0.00000000000E+00 -0.54311959214E+03  0.54311959214E+03  0.00000000000E+00 0. -1.
          6    1    1    2  502    0  0.57658261400E+02 -0.38920071881E+02 -0.34033084483E+03  0.38761879604E+03  0.17200000000E+03 0. -1.
         -6    1    1    2    0  501 -0.57658261400E+02  0.38920071881E+02 -0.13110646340E+03  0.22718308002E+03  0.17200000000E+03 0.  1.
</event>
<event>
 4    1  0.3115421E-002  0.3319064E+03  0.7818608E-02  0.1070296E+00
         -2   -1    0    0    0  501 -0.00000000000E+00  0.00000000000E+00  0.33664744905E+02  0.33664744905E+02  0.00000000000E+00 0.  1.
          2   -1    0    0  502    0  0.00000000000E+00 -0.00000000000E+00 -0.34139853559E+04  0.34139853559E+04  0.00000000000E+00 0. -1.
          6    1    1    2  502    0  0.12893227972E+02 -0.28356941360E+03 -0.20413104413E+04  0.20681175415E+04  0.17200000000E+03 0. -1.
         -6    1    1    2    0  501 -0.12893227972E+02  0.28356941360E+03 -0.13390101696E+04  0.13795325593E+04  0.17200000000E+03 0.  1.
</event>
<event>
 4    1  0.3115421E-002  0.2950388E+03  0.7818608E-02  0.1087747E+00
         -2   -1    0    0    0  501 -0.00000000000E+00  0.00000000000E+00  0.79026763817E+02  0.79026763817E+02  0.00000000000E+00 0.  1.
          2   -1    0    0  502    0  0.00000000000E+00 -0.00000000000E+00 -0.12278119585E+04  0.12278119585E+04  0.00000000000E+00 0. -1.
          6    1    1    2  502    0 -0.20383396959E+03  0.12615702291E+03 -0.78397289461E+03  0.83765230321E+03  0.17200000000E+03 0. -1.
         -6    1    1    2    0  501  0.20383396959E+03 -0.12615702291E+03 -0.36481230007E+03  0.46918641910E+03  0.17200000000E+03 0.  1.
</event>
<event>
 4    1  0.3115421E-002  0.1765542E+03  0.7818608E-02  0.1171180E+00
          2   -1    0    0  502    0  0.00000000000E+00  0.00000000000E+00  0.13785487093E+04  0.13785487093E+04  0.00000000000E+00 0. -1.
         -2   -1    0    0    0  501 -0.00000000000E+00 -0.00000000000E+00 -0.27264825779E+02  0.27264825779E+02  0.00000000000E+00 0.  1.
          6    1    1    2  502    0  0.26497175065E+02 -0.29753882397E+02  0.96602186911E+03  0.98202324077E+03  0.17200000000E+03 0. -1.
         -6    1    1    2    0  501 -0.26497175065E+02  0.29753882397E+02  0.38526201438E+03  0.42379029428E+03  0.17200000000E+03 0.  1.
</event>
<event>
 4    1  0.3115421E-002  0.2776864E+03  0.7818608E-02  0.1096959E+00
          1   -1    0    0  502    0  0.00000000000E+00  0.00000000000E+00  0.13304475705E+04  0.13304475705E+04  0.00000000000E+00 0. -1.
         -1   -1    0    0    0  501 -0.00000000000E+00 -0.00000000000E+00 -0.58818259033E+02  0.58818259033E+02  0.00000000000E+00 0.  1.
          6    1    1    2  502    0  0.20624519201E+03 -0.70630543711E+02  0.71983336319E+03  0.77153731193E+03  0.17200000000E+03 0. -1.
         -6    1    1    2    0  501 -0.20624519201E+03  0.70630543711E+02  0.55179594832E+03  0.61772851764E+03  0.17200000000E+03 0. -1.
</event>
<event>
 4    1  0.3115421E-002  0.3439640E+03  0.7818608E-02  0.1065120E+00
         -1   -1    0    0    0  501 -0.00000000000E+00  0.00000000000E+00  0.20414575444E+03  0.20414575444E+03  0.00000000000E+00 0.  1.
          1   -1    0    0  502    0  0.00000000000E+00 -0.00000000000E+00 -0.12777352059E+04  0.12777352059E+04  0.00000000000E+00 0. -1.
          6    1    1    2  502    0  0.27411311056E+03  0.11657274069E+03 -0.10845044524E+04  0.11377438677E+04  0.17200000000E+03 0. -1.
         -6    1    1    2    0  501 -0.27411311056E+03 -0.11657274069E+03  0.10915000967E+02  0.34413709259E+03  0.17200000000E+03 0.  1.
</event>
<event>
 4    1  0.3115421E-002  0.1843635E+03  0.7818608E-02  0.1163646E+00
          2   -1    0    0  502    0  0.00000000000E+00  0.00000000000E+00  0.16034837922E+04  0.16034837922E+04  0.00000000000E+00 0. -1.
         -2   -1    0    0    0  501 -0.00000000000E+00 -0.00000000000E+00 -0.23974643895E+02  0.23974643895E+02  0.00000000000E+00 0.  1.
          6    1    1    2  502    0 -0.61200509096E+02 -0.25698228428E+02  0.10667039602E+04  0.10825189329E+04  0.17200000000E+03 0. -1.
         -6    1    1    2    0  501  0.61200509096E+02  0.25698228428E+02  0.51280518810E+03  0.54493950325E+03  0.17200000000E+03 0.  1.
</event>
<event>
 4    1  0.3115421E-002  0.1786232E+03  0.7818608E-02  0.1169142E+00
          2   -1    0    0  502    0  0.00000000000E+00  0.00000000000E+00  0.22681312402E+04  0.22681312402E+04  0.00000000000E+00 0. -1.
         -2   -1    0    0    0  501 -0.00000000000E+00 -0.00000000000E+00 -0.54558264898E+02  0.54558264898E+02  0.00000000000E+00 0.  1.
          6    1    1    2  502    0 -0.35262475480E+02  0.32844932979E+02  0.21072713982E+04  0.21148283565E+04  0.17200000000E+03 0. -1.
         -6    1    1    2    0  501  0.35262475480E+02 -0.32844932979E+02  0.10630157710E+03  0.20786114859E+03  0.17200000000E+03 0.  1.
</event>
<event>
 4    1  0.3115421E-002  0.2742765E+03  0.7818608E-02  0.1098857E+00
          2   -1    0    0  502    0  0.00000000000E+00  0.00000000000E+00  0.79693950107E+03  0.79693950107E+03  0.00000000000E+00 0. -1.
         -2   -1    0    0    0  501 -0.00000000000E+00 -0.00000000000E+00 -0.33049186171E+03  0.33049186171E+03  0.00000000000E+00 0.  1.
          6    1    1    2  502    0  0.20795762376E+03  0.48961217171E+02  0.70968146080E+03  0.76083858332E+03  0.17200000000E+03 0. -1.
         -6    1    1    2    0  501 -0.20795762376E+03 -0.48961217171E+02 -0.24323382143E+03  0.36659277946E+03  0.17200000000E+03 0.  1.
</event>
<event>
 4    1  0.3115421E-002  0.2696360E+03  0.7818608E-02  0.1101488E+00
          2   -1    0    0  502    0  0.00000000000E+00  0.00000000000E+00  0.12194498910E+04  0.12194498910E+04  0.00000000000E+00 0. -1.
         -2   -1    0    0    0  501 -0.00000000000E+00 -0.00000000000E+00 -0.14413601771E+03  0.14413601771E+03  0.00000000000E+00 0.  1.
          6    1    1    2  502    0  0.32908587066E+02  0.20502827652E+03  0.15578408359E+02  0.27008564583E+03  0.17200000000E+03 0. -1.
         -6    1    1    2    0  501 -0.32908587066E+02 -0.20502827652E+03  0.10597354650E+04  0.10935002629E+04  0.17200000000E+03 0. -1.
</event>
<event>
 4    1  0.3115421E-002  0.1860941E+03  0.7818608E-02  0.1162032E+00
         -2   -1    0    0    0  501 -0.00000000000E+00  0.00000000000E+00  0.27912427508E+03  0.27912427508E+03  0.00000000000E+00 0.  1.
          2   -1    0    0  502    0  0.00000000000E+00 -0.00000000000E+00 -0.33573559886E+03  0.33573559886E+03  0.00000000000E+00 0. -1.
          6    1    1    2  502    0 -0.68639349640E+02 -0.18320460685E+02 -0.27240826609E+03  0.32990493029E+03  0.17200000000E+03 0. -1.
         -6    1    1    2    0  501  0.68639349640E+02  0.18320460685E+02  0.21579694230E+03  0.28495494364E+03  0.17200000000E+03 0.  1.
</event>
<event>
 4    1  0.3115421E-002  0.3108595E+03  0.7818608E-02  0.1079935E+00
         -1   -1    0    0    0  501 -0.00000000000E+00  0.00000000000E+00  0.29115779625E+03  0.29115779625E+03  0.00000000000E+00 0.  1.
          1   -1    0    0  502    0  0.00000000000E+00 -0.00000000000E+00 -0.33237045656E+03  0.33237045656E+03  0.00000000000E+00 0. -1.
          6    1    1    2  502    0  0.24915040448E+03  0.70524713358E+02 -0.88080870525E+01  0.31098431093E+03  0.17200000000E+03 0.  1.
         -6    1    1    2    0  501 -0.24915040448E+03 -0.70524713358E+02 -0.32404573259E+02  0.31254394189E+03  0.17200000000E+03 0.  1.
</event>
<event>
 4    1  0.3115421E-002  0.3337252E+03  0.7818608E-02  0.1069500E+00
          1   -1    0    0  502    0  0.00000000000E+00  0.00000000000E+00  0.48804868370E+03  0.48804868370E+03  0.00000000000E+00 0. -1.
         -1   -1    0    0    0  501 -0.00000000000E+00 -0.00000000000E+00 -0.24065459118E+03  0.24065459118E+03  0.00000000000E+00 0.  1.
          6    1    1    2  502    0  0.51307671307E+02 -0.28134683805E+03  0.20658571167E+03  0.39249226321E+03  0.17200000000E+03 0.  1.
         -6    1    1    2    0  501 -0.51307671307E+02  0.28134683805E+03  0.40808380851E+02  0.33621101166E+03  0.17200000000E+03 0. -1.
</event>
<event>
 4    1  0.3115421E-002  0.2069945E+03  0.7818608E-02  0.1143968E+00
          2   -1    0    0  502    0  0.00000000000E+00  0.00000000000E+00  0.25636079458E+04  0.25636079458E+04  0.00000000000E+00 0. -1.
         -2   -1    0    0    0  501 -0.00000000000E+00 -0.00000000000E+00 -0.77327933060E+02  0.77327933060E+02  0.00000000000E+00 0.  1.
          6    1    1    2  502    0  0.11421254915E+03 -0.14772640417E+02  0.24122297686E+04  0.24210946271E+04  0.17200000000E+03 0. -1.
         -6    1    1    2    0  501 -0.11421254915E+03  0.14772640417E+02  0.74050244177E+02  0.21984125171E+03  0.17200000000E+03 0.  1.
</event>
<event>
 4    1  0.3115421E-002  0.2716064E+03  0.7818608E-02  0.1100364E+00
          2   -1    0    0  502    0  0.00000000000E+00  0.00000000000E+00  0.27004396571E+04  0.27004396571E+04  0.00000000000E+00 0. -1.
         -2   -1    0    0    0  501 -0.00000000000E+00 -0.00000000000E+00 -0.28392831331E+02  0.28392831331E+02  0.00000000000E+00 0.  1.
          6    1    1    2  502    0 -0.19421257094E+03 -0.80420775344E+02  0.16015185556E+04  0.16243865635E+04  0.17200000000E+03 0. -1.
         -6    1    1    2    0  501  0.19421257094E+03  0.80420775344E+02  0.10705282702E+04  0.11044459249E+04  0.17200000000E+03 0.  1.
</event>
<event>
 4    1  0.3115421E-002  0.2108469E+03  0.7818608E-02  0.1140897E+00
          2   -1    0    0  502    0  0.00000000000E+00  0.00000000000E+00  0.26723765977E+04  0.26723765977E+04  0.00000000000E+00 0. -1.
         -2   -1    0    0    0  501 -0.00000000000E+00 -0.00000000000E+00 -0.16696775905E+02  0.16696775905E+02  0.00000000000E+00 0.  1.
          6    1    1    2  502    0  0.17122818183E+02 -0.12074438652E+03  0.12464071365E+04  0.12641151639E+04  0.17200000000E+03 0. -1.
         -6    1    1    2    0  501 -0.17122818183E+02  0.12074438652E+03  0.14092726853E+04  0.14249582097E+04  0.17200000000E+03 0.  1.
</event>
<event>
 4    1  0.3115421E-002  0.2140208E+03  0.7818608E-02  0.1138421E+00
          1   -1    0    0  502    0  0.00000000000E+00  0.00000000000E+00  0.69103526087E+03  0.69103526087E+03  0.00000000000E+00 0. -1.
         -1   -1    0    0    0  501 -0.00000000000E+00 -0.00000000000E+00 -0.77973898285E+02  0.77973898285E+02  0.00000000000E+00 0.  1.
          6    1    1    2  502    0  0.30118032535E+02  0.12374889872E+03  0.45540646873E+03  0.50318976299E+03  0.17200000000E+03 0. -1.
         -6    1    1    2    0  501 -0.30118032535E+02 -0.12374889872E+03  0.15765489385E+03  0.26581939616E+03  0.17200000000E+03 0.  1.
</event>
<event>
 4    1  0.3115421E-002  0.2452742E+03  0.7818608E-02  0.1116328E+00
         -1   -1    0    0    0  501 -0.00000000000E+00  0.00000000000E+00  0.73538616174E+02  0.73538616174E+02  0.00000000000E+00 0.  1.
          1   -1    0    0  502    0  0.00000000000E+00 -0.00000000000E+00 -0.23416014963E+04  0.23416014963E+04  0.00000000000E+00 0. -1.
          6    1    1    2  502    0  0.58609092858E+02 -0.16474350274E+03 -0.21080833878E+04  0.21223041765E+04  0.17200000000E+03 0. -1.
         -6    1    1    2    0  501 -0.58609092858E+02  0.16474350274E+03 -0.15997949232E+03  0.29283593602E+03  0.17200000000E+03 0.  1.
</event>
<event>
 4    1  0.3115421E-002  0.1781378E+03  0.7818608E-02  0.1169618E+00
          2   -1    0    0  502    0  0.00000000000E+00  0.00000000000E+00  0.23937369167E+03  0.23937369167E+03  0.00000000000E+00 0. -1.
         -2   -1    0    0    0  501 -0.00000000000E+00 -0.00000000000E+00 -0.14307942048E+03  0.14307942048E+03  0.00000000000E+00 0.  1.
          6    1    1    2  502    0  0.17220885560E+02 -0.43040988900E+02  0.99980344168E+02  0.20427715204E+03  0.17200000000E+03 0. -1.
         -6    1    1    2    0  501 -0.17220885560E+02  0.43040988900E+02 -0.36860729775E+01  0.17817596010E+03  0.17200000000E+03 0.  1.
</event>
<event>
 4    1  0.3115421E-002  0.2341368E+03  0.7818608E-02  0.1123762E+00
         -2   -1    0    0    0  501 -0.00000000000E+00  0.00000000000E+00  0.48877352021E+03  0.48877352021E+03  0.00000000000E+00 0.  1.
          2   -1    0    0  502    0  0.00000000000E+00 -0.00000000000E+00 -0.12008805055E+03  0.12008805055E+03  0.00000000000E+00 0. -1.
          6    1    1    2  502    0  0.10242744214E+03  0.12142761350E+03  0.10611401158E+03  0.25706075095E+03  0.17200000000E+03 0. -1.
         -6    1    1    2    0  501 -0.10242744214E+03 -0.12142761350E+03  0.26257145807E+03  0.35180081981E+03  0.17200000000E+03 0.  1.
</event>
<event>
 4    1  0.3115421E-002  0.6177900E+03  0.7818608E-02  0.9869170E-01
          2   -1    0    0  502    0  0.00000000000E+00  0.00000000000E+00  0.85494012448E+03  0.85494012448E+03  0.00000000000E+00 0. -1.
         -2   -1    0    0    0  501 -0.00000000000E+00 -0.00000000000E+00 -0.49157324541E+03  0.49157324541E+03  0.00000000000E+00 0.  1.
          6    1    1    2  502    0  0.43273696238E+03 -0.40597934665E+03 -0.22358298066E+02  0.61819446941E+03  0.17200000000E+03 0. -1.
         -6    1    1    2    0  501 -0.43273696238E+03  0.40597934665E+03  0.38572517713E+03  0.72831890048E+03  0.17200000000E+03 0.  1.
</event>
<event>
 4    1  0.3115421E-002  0.2771596E+03  0.7818608E-02  0.1097250E+00
          2   -1    0    0  502    0  0.00000000000E+00  0.00000000000E+00  0.97552038142E+03  0.97552038142E+03  0.00000000000E+00 0. -1.
         -2   -1    0    0    0  501 -0.00000000000E+00 -0.00000000000E+00 -0.84231708372E+02  0.84231708372E+02  0.00000000000E+00 0.  1.
          6    1    1    2  502    0 -0.19962059737E+03 -0.85936405267E+02  0.58087915328E+03  0.64361326848E+03  0.17200000000E+03 0. -1.
         -6    1    1    2    0  501  0.19962059737E+03  0.85936405267E+02  0.31040951977E+03  0.41613882132E+03  0.17200000000E+03 0. -1.
</event>
<event>
 4    1  0.3115421E-002  0.1728398E+03  0.7818608E-02  0.1174918E+00
          1   -1    0    0  502    0  0.00000000000E+00  0.00000000000E+00  0.21745953950E+04  0.21745953950E+04  0.00000000000E+00 0. -1.
         -1   -1    0    0    0  501 -0.00000000000E+00 -0.00000000000E+00 -0.14863387874E+02  0.14863387874E+02  0.00000000000E+00 0.  1.
          6    1    1    2  502    0 -0.13927752829E+02  0.97774889763E+01  0.13811586854E+04  0.13919313546E+04  0.17200000000E+03 0. -1.
         -6    1    1    2    0  501  0.13927752829E+02 -0.97774889763E+01  0.77857332176E+03  0.79752742834E+03  0.17200000000E+03 0.  1.
</event>
<event>
 4    1  0.3115421E-002  0.4076043E+03  0.7818608E-02  0.1041178E+00
          1   -1    0    0  502    0  0.00000000000E+00  0.00000000000E+00  0.39739794559E+03  0.39739794559E+03  0.00000000000E+00 0. -1.
         -1   -1    0    0    0  501 -0.00000000000E+00 -0.00000000000E+00 -0.98590097393E+03  0.98590097393E+03  0.00000000000E+00 0.  1.
          6    1    1    2  502    0 -0.21042219009E+03  0.30377588930E+03  0.23065002501E+03  0.46833825707E+03  0.17200000000E+03 0. -1.
         -6    1    1    2    0  501  0.21042219009E+03 -0.30377588930E+03 -0.81915305335E+03  0.91496066244E+03  0.17200000000E+03 0.  1.
</event>
<event>
 4    1  0.3115421E-002  0.1923021E+03  0.7818608E-02  0.1156401E+00
         -2   -1    0    0    0  501 -0.00000000000E+00  0.00000000000E+00  0.10946612365E+03  0.10946612365E+03  0.00000000000E+00 0.  1.
          2   -1    0    0  502    0  0.00000000000E+00 -0.00000000000E+00 -0.37132785522E+03  0.37132785522E+03  0.00000000000E+00 0. -1.
          6    1    1    2  502    0  0.80954722229E+00  0.85996794286E+02 -0.20314268640E+03  0.27972675066E+03  0.17200000000E+03 0. -1.
         -6    1    1    2    0  501 -0.80954722229E+00 -0.85996794286E+02 -0.58719045169E+02  0.20106722821E+03  0.17200000000E+03 0.  1.
</event>
<event>
 4    1  0.3115421E-002  0.1727945E+03  0.7818608E-02  0.1174965E+00
          1   -1    0    0  502    0  0.00000000000E+00  0.00000000000E+00  0.40770714667E+02  0.40770714667E+02  0.00000000000E+00 0. -1.
         -1   -1    0    0    0  501 -0.00000000000E+00 -0.00000000000E+00 -0.79977102272E+03  0.79977102272E+03  0.00000000000E+00 0.  1.
          6    1    1    2  502    0 -0.13224109789E+02  0.99525962051E+01 -0.50153496913E+03  0.53046701736E+03  0.17200000000E+03 0.  1.
         -6    1    1    2    0  501  0.13224109789E+02 -0.99525962051E+01 -0.25746533893E+03  0.31007472003E+03  0.17200000000E+03 0. -1.
</event>
<event>
 4    1  0.3115421E-002  0.3095145E+03  0.7818608E-02  0.1080579E+00
          2   -1    0    0  502    0  0.00000000000E+00  0.00000000000E+00  0.34100092103E+03  0.34100092103E+03  0.00000000000E+00 0. -1.
         -2   -1    0    0    0  501 -0.00000000000E+00 -0.00000000000E+00 -0.56674885110E+03  0.56674885110E+03  0.00000000000E+00 0.  1.
          6    1    1    2  502    0 -0.26121750226E+02 -0.25599390116E+03  0.20944226596E+03  0.37371819067E+03  0.17200000000E+03 0. -1.
         -6    1    1    2    0  501  0.26121750226E+02  0.25599390116E+03 -0.43519019604E+03  0.53403158146E+03  0.17200000000E+03 0.  1.
</event>
<event>
 4    1  0.3115421E-002  0.1805468E+03  0.7818608E-02  0.1167275E+00
          1   -1    0    0  502    0  0.00000000000E+00  0.00000000000E+00  0.10864137666E+03  0.10864137666E+03  0.00000000000E+00 0. -1.
         -1   -1    0    0    0  501 -0.00000000000E+00 -0.00000000000E+00 -0.36535638408E+03  0.36535638408E+03  0.00000000000E+00 0.  1.
          6    1    1    2  502    0  0.16569575123E+02  0.52331641205E+02 -0.28153058103E+02  0.18272861344E+03  0.17200000000E+03 0. -1.
         -6    1    1    2    0  501 -0.16569575123E+02 -0.52331641205E+02 -0.22856194932E+03  0.29126914730E+03  0.17200000000E+03 0.  1.
</event>
<event>
 4    1  0.3115421E-002  0.1795138E+03  0.7818608E-02  0.1168274E+00
          1   -1    0    0  502    0  0.00000000000E+00  0.00000000000E+00  0.63574573908E+03  0.63574573908E+03  0.00000000000E+00 0. -1.
         -1   -1    0    0    0  501 -0.00000000000E+00 -0.00000000000E+00 -0.54308691235E+02  0.54308691235E+02  0.00000000000E+00 0.  1.
          6    1    1    2  502    0  0.29318161905E+01 -0.51309044687E+02  0.37979521722E+03  0.42008287353E+03  0.17200000000E+03 0. -1.
         -6    1    1    2    0  501 -0.29318161905E+01  0.51309044687E+02  0.20164183062E+03  0.26997155678E+03  0.17200000000E+03 0.  1.
</event>
<event>
 4    1  0.3115421E-002  0.3171609E+03  0.7818608E-02  0.1076963E+00
         -2   -1    0    0    0  501 -0.00000000000E+00  0.00000000000E+00  0.15093508515E+03  0.15093508515E+03  0.00000000000E+00 0.  1.
          2   -1    0    0  502    0  0.00000000000E+00 -0.00000000000E+00 -0.72872871140E+03  0.72872871140E+03  0.00000000000E+00 0. -1.
          6    1    1    2  502    0  0.24687697464E+03  0.10029369906E+03 -0.16031935614E+03  0.35537777453E+03  0.17200000000E+03 0.  1.
         -6    1    1    2    0  501 -0.24687697464E+03 -0.10029369906E+03 -0.41747427011E+03  0.52428602202E+03  0.17200000000E+03 0.  1.
</event>
<event>
 4    1  0.3115421E-002  0.1991610E+03  0.7818608E-02  0.1150449E+00
         -2   -1    0    0    0  501 -0.00000000000E+00  0.00000000000E+00  0.24691881501E+03  0.24691881501E+03  0.00000000000E+00 0.  1.
          2   -1    0    0  502    0  0.00000000000E+00 -0.00000000000E+00 -0.21794379140E+03  0.21794379140E+03  0.00000000000E+00 0. -1.
          6    1    1    2  502    0  0.84670992721E+02 -0.53962329006E+02 -0.10469511344E+03  0.22500261496E+03  0.17200000000E+03 0. -1.
         -6    1    1    2    0  501 -0.84670992721E+02  0.53962329006E+02  0.13367013705E+03  0.23985999145E+03  0.17200000000E+03 0.  1.
</event>
<event>
 4    1  0.3115421E-002  0.3547673E+03  0.7818608E-02  0.1060675E+00
         -2   -1    0    0    0  501 -0.00000000000E+00  0.00000000000E+00  0.26077796857E+03  0.26077796857E+03  0.00000000000E+00 0.  1.
          2   -1    0    0  502    0  0.00000000000E+00 -0.00000000000E+00 -0.50147034449E+03  0.50147034449E+03  0.00000000000E+00 0. -1.
          6    1    1    2  502    0  0.30527291429E+03 -0.55536343422E+02 -0.19421535839E+03  0.40444955566E+03  0.17200000000E+03 0. -1.
         -6    1    1    2    0  501 -0.30527291429E+03  0.55536343422E+02 -0.46477017529E+02  0.35779875740E+03  0.17200000000E+03 0.  1.
</event>
<event>
 4    1  0.3115421E-002  0.1777548E+03  0.7818608E-02  0.1169994E+00
          1   -1    0    0  502    0  0.00000000000E+00  0.00000000000E+00  0.13949165047E+03  0.13949165047E+03  0.00000000000E+00 0. -1.
         -1   -1    0    0    0  501 -0.00000000000E+00 -0.00000000000E+00 -0.22659044591E+03  0.22659044591E+03  0.00000000000E+00 0.  1.
          6    1    1    2  502    0  0.19926860684E+02  0.40195540936E+02 -0.46919392809E+02  0.18384284242E+03  0.17200000000E+03 0.  1.
         -6    1    1    2    0  501 -0.19926860684E+02 -0.40195540936E+02 -0.40179402633E+02  0.18223925396E+03  0.17200000000E+03 0.  1.
</event>
<event>
 4    1  0.3115421E-002  0.1854118E+03  0.7818608E-02  0.1162666E+00
         -1   -1    0    0    0  501 -0.00000000000E+00  0.00000000000E+00  0.15384304899E+02  0.15384304899E+02  0.00000000000E+00 0.  1.
          1   -1    0    0  502    0  0.00000000000E+00 -0.00000000000E+00 -0.22777840028E+04  0.22777840028E+04  0.00000000000E+00 0. -1.
          6    1    1    2  502    0 -0.25156150213E+02  0.64503572401E+02 -0.12891007607E+04  0.13023664284E+04  0.17200000000E+03 0. -1.
         -6    1    1    2    0  501  0.25156150213E+02 -0.64503572401E+02 -0.97329893727E+03  0.99080187930E+03  0.17200000000E+03 0. -1.
</event>
<event>
 4    1  0.3115421E-002  0.2015782E+03  0.7818608E-02  0.1148414E+00
          2   -1    0    0  502    0  0.00000000000E+00  0.00000000000E+00  0.57856962539E+03  0.57856962539E+03  0.00000000000E+00 0. -1.
         -2   -1    0    0    0  501 -0.00000000000E+00 -0.00000000000E+00 -0.83707136411E+02  0.83707136411E+02  0.00000000000E+00 0.  1.
          6    1    1    2  502    0 -0.88734456694E+02  0.56355835099E+02  0.38029414212E+03  0.43041540224E+03  0.17200000000E+03 0.  1.
         -6    1    1    2    0  501  0.88734456694E+02 -0.56355835099E+02  0.11456834686E+03  0.23186135956E+03  0.17200000000E+03 0.  1.
</event>
<event>
 4    1  0.3115421E-002  0.1864505E+03  0.7818608E-02  0.1161702E+00
          2   -1    0    0  502    0  0.00000000000E+00  0.00000000000E+00  0.15535659379E+04  0.15535659379E+04  0.00000000000E+00 0. -1.
         -2   -1    0    0    0  501 -0.00000000000E+00 -0.00000000000E+00 -0.29321888119E+02  0.29321888119E+02  0.00000000000E+00 0.  1.
          6    1    1    2  502    0 -0.70880354057E+02 -0.12480853005E+02  0.11473021075E+04  0.11623536133E+04  0.17200000000E+03 0. -1.
         -6    1    1    2    0  501  0.70880354057E+02  0.12480853005E+02  0.37694194223E+03  0.42053421275E+03  0.17200000000E+03 0.  1.
</event>
<event>
 4    1  0.3115421E-002  0.2214269E+03  0.7818608E-02  0.1132824E+00
         -2   -1    0    0    0  501 -0.00000000000E+00  0.00000000000E+00  0.73909586547E+02  0.73909586547E+02  0.00000000000E+00 0.  1.
          2   -1    0    0  502    0  0.00000000000E+00 -0.00000000000E+00 -0.13731017116E+04  0.13731017116E+04  0.00000000000E+00 0. -1.
          6    1    1    2  502    0  0.57111984700E+02  0.12721666339E+03 -0.11697546711E+04  0.11905275507E+04  0.17200000000E+03 0. -1.
         -6    1    1    2    0  501 -0.57111984700E+02 -0.12721666339E+03 -0.12943745388E+03  0.25648374745E+03  0.17200000000E+03 0.  1.
</event>
<event>
 4    1  0.3115421E-002  0.2438424E+03  0.7818608E-02  0.1117259E+00
         -1   -1    0    0    0  501 -0.00000000000E+00  0.00000000000E+00  0.60289635029E+02  0.60289635029E+02  0.00000000000E+00 0.  1.
          1   -1    0    0  502    0  0.00000000000E+00 -0.00000000000E+00 -0.19760393970E+04  0.19760393970E+04  0.00000000000E+00 0. -1.
          6    1    1    2  502    0  0.14504699869E+03 -0.94002601976E+02 -0.16784796459E+04  0.16960993611E+04  0.17200000000E+03 0. -1.
         -6    1    1    2    0  501 -0.14504699869E+03  0.94002601976E+02 -0.23727011609E+03  0.34022967095E+03  0.17200000000E+03 0.  1.
</event>
<event>
 4    1  0.3115421E-002  0.2444527E+03  0.7818608E-02  0.1116862E+00
          4   -1    0    0  502    0  0.00000000000E+00  0.00000000000E+00  0.31505020871E+03  0.31505020871E+03  0.00000000000E+00 0. -1.
         -4   -1    0    0    0  501 -0.00000000000E+00 -0.00000000000E+00 -0.23307200811E+03  0.23307200811E+03  0.00000000000E+00 0.  1.
          6    1    1    2  502    0 -0.15984432416E+03  0.67992079602E+02 -0.77269442486E+02  0.25637413597E+03  0.17200000000E+03 0. -1.
         -6    1    1    2    0  501  0.15984432416E+03 -0.67992079602E+02  0.15924764308E+03  0.29174808085E+03  0.17200000000E+03 0. -1.
</event>
<event>
 4    1  0.3115421E-002  0.2042522E+03  0.7818608E-02  0.1146200E+00
          2   -1    0    0  502    0  0.00000000000E+00  0.00000000000E+00  0.37932522556E+03  0.37932522556E+03  0.00000000000E+00 0. -1.
         -2   -1    0    0    0  501 -0.00000000000E+00 -0.00000000000E+00 -0.11651650182E+03  0.11651650182E+03  0.00000000000E+00 0.  1.
          6    1    1    2  502    0 -0.42740964453E+02  0.10152919373E+03  0.72692774307E+02  0.21680222937E+03  0.17200000000E+03 0. -1.
         -6    1    1    2    0  501  0.42740964453E+02 -0.10152919373E+03  0.19011594943E+03  0.27903949801E+03  0.17200000000E+03 0.  1.
</event>
<event>
 4    1  0.3115421E-002  0.2125376E+03  0.7818608E-02  0.1139572E+00
          1   -1    0    0  502    0  0.00000000000E+00  0.00000000000E+00  0.28835215730E+03  0.28835215730E+03  0.00000000000E+00 0. -1.
         -1   -1    0    0    0  501 -0.00000000000E+00 -0.00000000000E+00 -0.16054139119E+03  0.16054139119E+03  0.00000000000E+00 0.  1.
          6    1    1    2  502    0 -0.37244299461E+02 -0.11916827751E+03  0.98820527790E+02  0.23438795387E+03  0.17200000000E+03 0. -1.
         -6    1    1    2    0  501  0.37244299461E+02  0.11916827751E+03  0.28990238316E+02  0.21450559462E+03  0.17200000000E+03 0.  1.
</event>
<event>
 4    1  0.3115421E-002  0.1849179E+03  0.7818608E-02  0.1163127E+00
         -2   -1    0    0    0  501 -0.00000000000E+00  0.00000000000E+00  0.92978818612E+02  0.92978818612E+02  0.00000000000E+00 0.  1.
          2   -1    0    0  502    0  0.00000000000E+00 -0.00000000000E+00 -0.42706933406E+03  0.42706933406E+03  0.00000000000E+00 0. -1.
          6    1    1    2  502    0  0.10788143912E+02 -0.67039044773E+02 -0.26393933997E+03  0.32227099273E+03  0.17200000000E+03 0. -1.
         -6    1    1    2    0  501 -0.10788143912E+02  0.67039044773E+02 -0.70151175479E+02  0.19777715994E+03  0.17200000000E+03 0.  1.
</event>
<event>
 4    1  0.3115421E-002  0.2439461E+03  0.7818608E-02  0.1117192E+00
         -2   -1    0    0    0  501 -0.00000000000E+00  0.00000000000E+00  0.78918442017E+02  0.78918442017E+02  0.00000000000E+00 0.  1.
          2   -1    0    0  502    0  0.00000000000E+00 -0.00000000000E+00 -0.99001505106E+03  0.99001505106E+03  0.00000000000E+00 0. -1.
          6    1    1    2  502    0  0.12361130208E+03 -0.12102049944E+03 -0.19462738991E+03  0.31207296613E+03  0.17200000000E+03 0.  1.
         -6    1    1    2    0  501 -0.12361130208E+03  0.12102049944E+03 -0.71646921913E+03  0.75686052695E+03  0.17200000000E+03 0. -1.
</event>
<event>
 4    1  0.3115421E-002  0.1975571E+03  0.7818608E-02  0.1151817E+00
          2   -1    0    0  502    0  0.00000000000E+00  0.00000000000E+00  0.12037032180E+04  0.12037032180E+04  0.00000000000E+00 0. -1.
         -2   -1    0    0    0  501 -0.00000000000E+00 -0.00000000000E+00 -0.86003802956E+02  0.86003802956E+02  0.00000000000E+00 0.  1.
          6    1    1    2  502    0 -0.72473607223E+02 -0.64748529758E+02  0.10678324494E+04  0.10859534685E+04  0.17200000000E+03 0. -1.
         -6    1    1    2    0  501  0.72473607223E+02  0.64748529758E+02  0.49866965617E+02  0.20375355239E+03  0.17200000000E+03 0.  1.
</event>
<event>
 4    1  0.3115421E-002  0.1747517E+03  0.7818608E-02  0.1172981E+00
         -2   -1    0    0    0  501 -0.00000000000E+00  0.00000000000E+00  0.14203973030E+03  0.14203973030E+03  0.00000000000E+00 0.  1.
          2   -1    0    0  502    0  0.00000000000E+00 -0.00000000000E+00 -0.22295137327E+03  0.22295137327E+03  0.00000000000E+00 0. -1.
          6    1    1    2  502    0 -0.26946413274E+02  0.15101469653E+02 -0.74925801171E+02  0.19013689609E+03  0.17200000000E+03 0. -1.
         -6    1    1    2    0  501  0.26946413274E+02 -0.15101469653E+02 -0.59858417973E+01  0.17485420749E+03  0.17200000000E+03 0.  1.
</event>
<event>
 4    1  0.3115421E-002  0.1949843E+03  0.7818608E-02  0.1154041E+00
          2   -1    0    0  502    0  0.00000000000E+00  0.00000000000E+00  0.48604956542E+03  0.48604956542E+03  0.00000000000E+00 0. -1.
         -2   -1    0    0    0  501 -0.00000000000E+00 -0.00000000000E+00 -0.79831970055E+02  0.79831970055E+02  0.00000000000E+00 0.  1.
          6    1    1    2  502    0  0.57316285058E+02 -0.71761418884E+02  0.16290484557E+03  0.25408039374E+03  0.17200000000E+03 0. -1.
         -6    1    1    2    0  501 -0.57316285058E+02  0.71761418884E+02  0.24331274979E+03  0.31180114173E+03  0.17200000000E+03 0.  1.
</event>
<event>
 4    1  0.3115421E-002  0.1839398E+03  0.7818608E-02  0.1164044E+00
          2   -1    0    0  502    0  0.00000000000E+00  0.00000000000E+00  0.18511113758E+04  0.18511113758E+04  0.00000000000E+00 0. -1.
         -2   -1    0    0    0  501 -0.00000000000E+00 -0.00000000000E+00 -0.27324504635E+02  0.27324504635E+02  0.00000000000E+00 0.  1.
          6    1    1    2  502    0 -0.47706591032E+02  0.44429138346E+02  0.14523245146E+04  0.14639263516E+04  0.17200000000E+03 0. -1.
         -6    1    1    2    0  501  0.47706591032E+02 -0.44429138346E+02  0.37146235658E+03  0.41450952886E+03  0.17200000000E+03 0.  1.
</event>
<event>
 4    1  0.3115421E-002  0.1840069E+03  0.7818608E-02  0.1163981E+00
         -1   -1    0    0    0  501 -0.00000000000E+00  0.00000000000E+00  0.24728780318E+02  0.24728780318E+02  0.00000000000E+00 0.  1.
          1   -1    0    0  502    0  0.00000000000E+00 -0.00000000000E+00 -0.13761164321E+04  0.13761164321E+04  0.00000000000E+00 0. -1.
          6    1    1    2  502    0  0.36215802834E+02  0.54433099604E+02 -0.72536445536E+03  0.74833958856E+03  0.17200000000E+03 0. -1.
         -6    1    1    2    0  501 -0.36215802834E+02 -0.54433099604E+02 -0.62602319641E+03  0.65250562384E+03  0.17200000000E+03 0. -1.
</event>
<event>
 4    1  0.3115421E-002  0.3808151E+03  0.7818608E-02  0.1050633E+00
         -2   -1    0    0    0  501 -0.00000000000E+00  0.00000000000E+00  0.17033942130E+03  0.17033942130E+03  0.00000000000E+00 0.  1.
          2   -1    0    0  502    0  0.00000000000E+00 -0.00000000000E+00 -0.85813055265E+03  0.85813055265E+03  0.00000000000E+00 0. -1.
          6    1    1    2  502    0  0.14667090737E+03  0.30646991492E+03 -0.38957262215E+03  0.54478160005E+03  0.17200000000E+03 0. -1.
         -6    1    1    2    0  501 -0.14667090737E+03 -0.30646991492E+03 -0.29821850920E+03  0.48368837390E+03  0.17200000000E+03 0.  1.
</event>
<event>
 4    1  0.3115421E-002  0.3000989E+03  0.7818608E-02  0.1085191E+00
         -2   -1    0    0    0  501 -0.00000000000E+00  0.00000000000E+00  0.11504559259E+04  0.11504559259E+04  0.00000000000E+00 0.  1.
          2   -1    0    0  502    0  0.00000000000E+00 -0.00000000000E+00 -0.83928780858E+02  0.83928780858E+02  0.00000000000E+00 0. -1.
          6    1    1    2  502    0 -0.76264094555E+02  0.23379295593E+03  0.37316528561E+03  0.47886500054E+03  0.17200000000E+03 0. -1.
         -6    1    1    2    0  501  0.76264094555E+02 -0.23379295593E+03  0.69336185946E+03  0.75551970624E+03  0.17200000000E+03 0.  1.
</event>
<event>
 4    1  0.3115421E-002  0.2134804E+03  0.7818608E-02  0.1138839E+00
         -2   -1    0    0    0  501 -0.00000000000E+00  0.00000000000E+00  0.30265423783E+03  0.30265423783E+03  0.00000000000E+00 0.  1.
          2   -1    0    0  502    0  0.00000000000E+00 -0.00000000000E+00 -0.28244492133E+03  0.28244492133E+03  0.00000000000E+00 0. -1.
          6    1    1    2  502    0  0.10774162607E+03 -0.66193698279E+02 -0.18978770726E+03  0.28564530017E+03  0.17200000000E+03 0. -1.
         -6    1    1    2    0  501 -0.10774162607E+03  0.66193698279E+02  0.20999702376E+03  0.29945385900E+03  0.17200000000E+03 0.  1.
</event>
<event>
 4    1  0.3115421E-002  0.1789049E+03  0.7818608E-02  0.1168867E+00
          2   -1    0    0  502    0  0.00000000000E+00  0.00000000000E+00  0.47846638631E+03  0.47846638631E+03  0.00000000000E+00 0. -1.
         -2   -1    0    0    0  501 -0.00000000000E+00 -0.00000000000E+00 -0.70938305346E+02  0.70938305346E+02  0.00000000000E+00 0.  1.
          6    1    1    2  502    0 -0.34134132402E+02 -0.35466055780E+02  0.13818071012E+03  0.22605505692E+03  0.17200000000E+03 0.  1.
         -6    1    1    2    0  501  0.34134132402E+02  0.35466055780E+02  0.26934737084E+03  0.32334963474E+03  0.17200000000E+03 0. -1.
</event>
<event>
 4    1  0.3115421E-002  0.4419248E+03  0.7818608E-02  0.1030158E+00
         -2   -1    0    0    0  501 -0.00000000000E+00  0.00000000000E+00  0.10679409197E+03  0.10679409197E+03  0.00000000000E+00 0.  1.
          2   -1    0    0  502    0  0.00000000000E+00 -0.00000000000E+00 -0.19363555031E+04  0.19363555031E+04  0.00000000000E+00 0. -1.
          6    1    1    2  502    0  0.39882028844E+03  0.81583969804E+02 -0.11556242957E+04  0.12372409141E+04  0.17200000000E+03 0. -1.
         -6    1    1    2    0  501 -0.39882028844E+03 -0.81583969804E+02 -0.67393711548E+03  0.80590868107E+03  0.17200000000E+03 0.  1.
</event>
<event>
 4    1  0.3115421E-002  0.2237049E+03  0.7818608E-02  0.1131151E+00
         -1   -1    0    0    0  501 -0.00000000000E+00  0.00000000000E+00  0.31338670122E+02  0.31338670122E+02  0.00000000000E+00 0.  1.
          1   -1    0    0  502    0  0.00000000000E+00 -0.00000000000E+00 -0.27638738245E+04  0.27638738245E+04  0.00000000000E+00 0. -1.
          6    1    1    2  502    0  0.10656016875E+03 -0.95419180774E+02 -0.22744251911E+04  0.22854001487E+04  0.17200000000E+03 0. -1.
         -6    1    1    2    0  501 -0.10656016875E+03  0.95419180774E+02 -0.45810996320E+03  0.50981234587E+03  0.17200000000E+03 0.  1.
</event>
<event>
 4    1  0.3115421E-002  0.2339276E+03  0.7818608E-02  0.1123905E+00
          3   -1    0    0  502    0  0.00000000000E+00  0.00000000000E+00  0.29028958800E+03  0.29028958800E+03  0.00000000000E+00 0. -1.
         -3   -1    0    0    0  501 -0.00000000000E+00 -0.00000000000E+00 -0.19435256388E+03  0.19435256388E+03  0.00000000000E+00 0.  1.
          6    1    1    2  502    0 -0.15201059716E+03  0.45065636264E+02  0.89987297097E+02  0.25063887739E+03  0.17200000000E+03 0. -1.
         -6    1    1    2    0  501  0.15201059716E+03 -0.45065636264E+02  0.59497270184E+01  0.23400327449E+03  0.17200000000E+03 0.  1.
</event>
<event>
 4    1  0.3115421E-002  0.1991569E+03  0.7818608E-02  0.1150452E+00
          1   -1    0    0  502    0  0.00000000000E+00  0.00000000000E+00  0.22982696070E+03  0.22982696070E+03  0.00000000000E+00 0. -1.
         -1   -1    0    0    0  501 -0.00000000000E+00 -0.00000000000E+00 -0.18354094704E+03  0.18354094704E+03  0.00000000000E+00 0.  1.
          6    1    1    2  502    0 -0.97521214327E+02  0.23855087641E+02  0.73652335242E+02  0.21233963110E+03  0.17200000000E+03 0. -1.
         -6    1    1    2    0  501  0.97521214327E+02 -0.23855087641E+02 -0.27366321585E+02  0.20102827664E+03  0.17200000000E+03 0.  1.
</event>
<event>
 4    1  0.3115421E-002  0.1729274E+03  0.7818608E-02  0.1174829E+00
          2   -1    0    0  502    0  0.00000000000E+00  0.00000000000E+00  0.16142351305E+04  0.16142351305E+04  0.00000000000E+00 0. -1.
         -2   -1    0    0    0  501 -0.00000000000E+00 -0.00000000000E+00 -0.75561385270E+02  0.75561385270E+02  0.00000000000E+00 0.  1.
          6    1    1    2  502    0  0.39590274668E+01  0.17441470597E+02  0.15033943179E+04  0.15133070918E+04  0.17200000000E+03 0. -1.
         -6    1    1    2    0  501 -0.39590274668E+01 -0.17441470597E+02  0.35279427297E+02  0.17648942400E+03  0.17200000000E+03 0.  1.
</event>
<event>
 4    1  0.3115421E-002  0.2489169E+03  0.7818608E-02  0.1113991E+00
          1   -1    0    0  502    0  0.00000000000E+00  0.00000000000E+00  0.37613028945E+03  0.37613028945E+03  0.00000000000E+00 0. -1.
         -1   -1    0    0    0  501 -0.00000000000E+00 -0.00000000000E+00 -0.16568098108E+03  0.16568098108E+03  0.00000000000E+00 0.  1.
          6    1    1    2  502    0 -0.17991525132E+03  0.24725825842E+01  0.12575842240E+03  0.27888132266E+03  0.17200000000E+03 0. -1.
         -6    1    1    2    0  501  0.17991525132E+03 -0.24725825842E+01  0.84690885964E+02  0.26292994787E+03  0.17200000000E+03 0.  1.
</event>
<event>
 4    1  0.3115421E-002  0.2316954E+03  0.7818608E-02  0.1125452E+00
          1   -1    0    0  502    0  0.00000000000E+00  0.00000000000E+00  0.11479884080E+03  0.11479884080E+03  0.00000000000E+00 0. -1.
         -1   -1    0    0    0  501 -0.00000000000E+00 -0.00000000000E+00 -0.47030222074E+03  0.47030222074E+03  0.00000000000E+00 0.  1.
          6    1    1    2  502    0  0.15227630724E+03 -0.30177782479E+02 -0.15567776119E+03  0.27913856349E+03  0.17200000000E+03 0.  1.
         -6    1    1    2    0  501 -0.15227630724E+03  0.30177782479E+02 -0.19982561875E+03  0.30596249805E+03  0.17200000000E+03 0.  1.
</event>
<event>
 4    1  0.3115421E-002  0.1811249E+03  0.7818608E-02  0.1166719E+00
         -2   -1    0    0    0  501 -0.00000000000E+00  0.00000000000E+00  0.26602599496E+02  0.26602599496E+02  0.00000000000E+00 0.  1.
          2   -1    0    0  502    0  0.00000000000E+00 -0.00000000000E+00 -0.14597861714E+04  0.14597861714E+04  0.00000000000E+00 0. -1.
          6    1    1    2  502    0  0.56331700733E+02 -0.69977710511E+01 -0.10093964366E+04  0.10255181108E+04  0.17200000000E+03 0. -1.
         -6    1    1    2    0  501 -0.56331700733E+02  0.69977710511E+01 -0.42378713525E+03  0.46087066007E+03  0.17200000000E+03 0.  1.
</event>
<event>
 4    1  0.3115421E-002  0.6074900E+03  0.7818608E-02  0.9889987E-01
          1   -1    0    0  502    0  0.00000000000E+00  0.00000000000E+00  0.75632023241E+03  0.75632023241E+03  0.00000000000E+00 0. -1.
         -1   -1    0    0    0  501 -0.00000000000E+00 -0.00000000000E+00 -0.55848588081E+03  0.55848588081E+03  0.00000000000E+00 0.  1.
          6    1    1    2  502    0 -0.73972675124E+02 -0.57791707542E+03  0.33255343885E+03  0.69255750117E+03  0.17200000000E+03 0. -1.
         -6    1    1    2    0  501  0.73972675124E+02  0.57791707542E+03 -0.13471908725E+03  0.62224861205E+03  0.17200000000E+03 0.  1.
</event>
<event>
 4    1  0.3115421E-002  0.2135266E+03  0.7818608E-02  0.1138803E+00
          1   -1    0    0  502    0  0.00000000000E+00  0.00000000000E+00  0.61838414379E+03  0.61838414379E+03  0.00000000000E+00 0. -1.
         -1   -1    0    0    0  501 -0.00000000000E+00 -0.00000000000E+00 -0.31179620717E+03  0.31179620717E+03  0.00000000000E+00 0.  1.
          6    1    1    2  502    0  0.10620520867E+03  0.68775427140E+02 -0.25310296067E+03  0.33114153232E+03  0.17200000000E+03 0.  1.
         -6    1    1    2    0  501 -0.10620520867E+03 -0.68775427140E+02  0.55969089729E+03  0.59903881864E+03  0.17200000000E+03 0. -1.
</event>
<event>
 4    1  0.3115421E-002  0.2587947E+03  0.7818608E-02  0.1107870E+00
         -1   -1    0    0    0  501 -0.00000000000E+00  0.00000000000E+00  0.76535997924E+03  0.76535997924E+03  0.00000000000E+00 0.  1.
          1   -1    0    0  502    0  0.00000000000E+00 -0.00000000000E+00 -0.91251283876E+02  0.91251283876E+02  0.00000000000E+00 0. -1.
          6    1    1    2  502    0 -0.15087374054E+03 -0.12094545919E+03  0.42380911880E+03  0.49657714291E+03  0.17200000000E+03 0. -1.
         -6    1    1    2    0  501  0.15087374054E+03  0.12094545919E+03  0.25029957657E+03  0.36003412021E+03  0.17200000000E+03 0. -1.
</event>
<event>
 4    1  0.3115421E-002  0.3724367E+03  0.7818608E-02  0.1053765E+00
         -2   -1    0    0    0  501 -0.00000000000E+00  0.00000000000E+00  0.10421629961E+03  0.10421629961E+03  0.00000000000E+00 0.  1.
          2   -1    0    0  502    0  0.00000000000E+00 -0.00000000000E+00 -0.20884654740E+04  0.20884654740E+04  0.00000000000E+00 0. -1.
          6    1    1    2  502    0 -0.25250739095E+03 -0.21299091192E+03 -0.16523937877E+04  0.16938460204E+04  0.17200000000E+03 0. -1.
         -6    1    1    2    0  501  0.25250739095E+03  0.21299091192E+03 -0.33185538667E+03  0.49883575324E+03  0.17200000000E+03 0.  1.
</event>
<event>
 4    1  0.3115421E-002  0.1989277E+03  0.7818608E-02  0.1150647E+00
         -3   -1    0    0    0  501 -0.00000000000E+00  0.00000000000E+00  0.99718988099E+02  0.99718988099E+02  0.00000000000E+00 0.  1.
          3   -1    0    0  502    0  0.00000000000E+00 -0.00000000000E+00 -0.39691899698E+03  0.39691899698E+03  0.00000000000E+00 0. -1.
          6    1    1    2  502    0  0.99873319200E+02  0.36787103744E+01 -0.15216282482E+03  0.25045106919E+03  0.17200000000E+03 0. -1.
         -6    1    1    2    0  501 -0.99873319200E+02 -0.36787103744E+01 -0.14503718406E+03  0.24618691589E+03  0.17200000000E+03 0.  1.
</event>
<event>
 4    1  0.3115421E-002  0.2073691E+03  0.7818608E-02  0.1143667E+00
         -1   -1    0    0    0  501 -0.00000000000E+00  0.00000000000E+00  0.20577874530E+02  0.20577874530E+02  0.00000000000E+00 0.  1.
          1   -1    0    0  502    0  0.00000000000E+00 -0.00000000000E+00 -0.23502333152E+04  0.23502333152E+04  0.00000000000E+00 0. -1.
          6    1    1    2  502    0 -0.86582854365E+02 -0.76950227896E+02 -0.15594932436E+04  0.15732199799E+04  0.17200000000E+03 0. -1.
         -6    1    1    2    0  501  0.86582854365E+02  0.76950227896E+02 -0.77016219708E+03  0.79759120986E+03  0.17200000000E+03 0.  1.
</event>
<event>
 4    1  0.3115421E-002  0.1748778E+03  0.7818608E-02  0.1172854E+00
         -2   -1    0    0    0  501 -0.00000000000E+00  0.00000000000E+00  0.27346096355E+03  0.27346096355E+03  0.00000000000E+00 0.  1.
          2   -1    0    0  502    0  0.00000000000E+00 -0.00000000000E+00 -0.14848256706E+03  0.14848256706E+03  0.00000000000E+00 0. -1.
          6    1    1    2  502    0  0.23201342054E+02  0.21446657854E+02 -0.42323643421E+02  0.17992651889E+03  0.17200000000E+03 0. -1.
         -6    1    1    2    0  501 -0.23201342054E+02 -0.21446657854E+02  0.16730203991E+03  0.24201701172E+03  0.17200000000E+03 0.  1.
</event>
<event>
 4    1  0.3115421E-002  0.5880159E+03  0.7818608E-02  0.9930586E-01
         -2   -1    0    0    0  501 -0.00000000000E+00  0.00000000000E+00  0.16309300147E+03  0.16309300147E+03  0.00000000000E+00 0.  1.
          2   -1    0    0  502    0  0.00000000000E+00 -0.00000000000E+00 -0.22518046513E+04  0.22518046513E+04  0.00000000000E+00 0. -1.
          6    1    1    2  502    0  0.10140039287E+02 -0.56220630964E+03 -0.13364428409E+04  0.14600829504E+04  0.17200000000E+03 0. -1.
         -6    1    1    2    0  501 -0.10140039287E+02  0.56220630964E+03 -0.75226880889E+03  0.95481470235E+03  0.17200000000E+03 0.  1.
</event>
<event>
 4    1  0.3115421E-002  0.2283554E+03  0.7818608E-02  0.1127803E+00
          1   -1    0    0  502    0  0.00000000000E+00  0.00000000000E+00  0.57007153499E+02  0.57007153499E+02  0.00000000000E+00 0. -1.
         -1   -1    0    0    0  501 -0.00000000000E+00 -0.00000000000E+00 -0.10648965684E+04  0.10648965684E+04  0.00000000000E+00 0.  1.
          6    1    1    2  502    0  0.85751376781E+02  0.12332425204E+03 -0.71459307386E+03  0.75019292917E+03  0.17200000000E+03 0.  1.
         -6    1    1    2    0  501 -0.85751376781E+02 -0.12332425204E+03 -0.29329634102E+03  0.37171079271E+03  0.17200000000E+03 0. -1.
</event>
<event>
 4    1  0.3115421E-002  0.1977701E+03  0.7818608E-02  0.1151634E+00
         -4   -1    0    0    0  501 -0.00000000000E+00  0.00000000000E+00  0.89715780683E+02  0.89715780683E+02  0.00000000000E+00 0.  1.
          4   -1    0    0  502    0  0.00000000000E+00 -0.00000000000E+00 -0.43618503671E+03  0.43618503671E+03  0.00000000000E+00 0. -1.
          6    1    1    2  502    0 -0.93684844860E+02  0.27425909038E+02 -0.16734225438E+03  0.25906844799E+03  0.17200000000E+03 0. -1.
         -6    1    1    2    0  501  0.93684844860E+02 -0.27425909038E+02 -0.17912700165E+03  0.26683236941E+03  0.17200000000E+03 0.  1.
</event>
<event>
 4    1  0.3115421E-002  0.2359606E+03  0.7818608E-02  0.1122513E+00
         -1   -1    0    0    0  501 -0.00000000000E+00  0.00000000000E+00  0.48641770645E+03  0.48641770645E+03  0.00000000000E+00 0.  1.
          1   -1    0    0  502    0  0.00000000000E+00 -0.00000000000E+00 -0.12830685035E+03  0.12830685035E+03  0.00000000000E+00 0. -1.
          6    1    1    2  502    0 -0.11443121002E+02  0.16112875213E+03  0.28001211058E+03  0.36617509726E+03  0.17200000000E+03 0. -1.
         -6    1    1    2    0  501  0.11443121002E+02 -0.16112875213E+03  0.78098745526E+02  0.24854945954E+03  0.17200000000E+03 0.  1.
</event>
<event>
 4    1  0.3115421E-002  0.3922130E+03  0.7818608E-02  0.1046510E+00
         -2   -1    0    0    0  501 -0.00000000000E+00  0.00000000000E+00  0.14620602169E+03  0.14620602169E+03  0.00000000000E+00 0.  1.
          2   -1    0    0  502    0  0.00000000000E+00 -0.00000000000E+00 -0.11474488137E+04  0.11474488137E+04  0.00000000000E+00 0. -1.
          6    1    1    2  502    0 -0.10073050026E+03  0.33778748839E+03 -0.31421536043E+03  0.50255578171E+03  0.17200000000E+03 0. -1.
         -6    1    1    2    0  501  0.10073050026E+03 -0.33778748839E+03 -0.68702743153E+03  0.79109905364E+03  0.17200000000E+03 0.  1.
</event>
<event>
 4    1  0.3115421E-002  0.2037310E+03  0.7818608E-02  0.1146629E+00
          1   -1    0    0  502    0  0.00000000000E+00  0.00000000000E+00  0.30541771718E+03  0.30541771718E+03  0.00000000000E+00 0. -1.
         -1   -1    0    0    0  501 -0.00000000000E+00 -0.00000000000E+00 -0.16585858262E+03  0.16585858262E+03  0.00000000000E+00 0.  1.
          6    1    1    2  502    0 -0.27905061624E+02  0.10556336242E+03  0.16992614598E+03  0.26529457408E+03  0.17200000000E+03 0. -1.
         -6    1    1    2    0  501  0.27905061624E+02 -0.10556336242E+03 -0.30367011414E+02  0.20598172572E+03  0.17200000000E+03 0.  1.
</event>
<event>
 4    1  0.3115421E-002  0.2334137E+03  0.7818608E-02  0.1124260E+00
          1   -1    0    0  502    0  0.00000000000E+00  0.00000000000E+00  0.52361915412E+03  0.52361915412E+03  0.00000000000E+00 0. -1.
         -1   -1    0    0    0  501 -0.00000000000E+00 -0.00000000000E+00 -0.20101053024E+03  0.20101053024E+03  0.00000000000E+00 0.  1.
          6    1    1    2  502    0 -0.20362288488E+02 -0.15647147151E+03  0.41294270369E+03  0.47434546559E+03  0.17200000000E+03 0. -1.
         -6    1    1    2    0  501  0.20362288488E+02  0.15647147151E+03 -0.90334079808E+02  0.25028421877E+03  0.17200000000E+03 0.  1.
</event>
<event>
 4    1  0.3115421E-002  0.1750442E+03  0.7818608E-02  0.1172687E+00
          1   -1    0    0  502    0  0.00000000000E+00  0.00000000000E+00  0.46664749513E+03  0.46664749513E+03  0.00000000000E+00 0. -1.
         -1   -1    0    0    0  501 -0.00000000000E+00 -0.00000000000E+00 -0.32485357237E+03  0.32485357237E+03  0.00000000000E+00 0.  1.
          6    1    1    2  502    0  0.30219104278E+02  0.11969841135E+02  0.42439669190E+03  0.45907845022E+03  0.17200000000E+03 0. -1.
         -6    1    1    2    0  501 -0.30219104278E+02 -0.11969841135E+02 -0.28260276913E+03  0.33242261728E+03  0.17200000000E+03 0.  1.
</event>
<event>
 4    1  0.3115421E-002  0.1961341E+03  0.7818608E-02  0.1153042E+00
          2   -1    0    0  502    0  0.00000000000E+00  0.00000000000E+00  0.25539326619E+03  0.25539326619E+03  0.00000000000E+00 0. -1.
         -2   -1    0    0    0  501 -0.00000000000E+00 -0.00000000000E+00 -0.23805903850E+03  0.23805903850E+03  0.00000000000E+00 0.  1.
          6    1    1    2  502    0 -0.92637742824E+02  0.17401718914E+02  0.15819200738E+03  0.25197873406E+03  0.17200000000E+03 0. -1.
         -6    1    1    2    0  501  0.92637742824E+02 -0.17401718914E+02 -0.14085777969E+03  0.24147357064E+03  0.17200000000E+03 0.  1.
</event>
<event>
 4    1  0.3115421E-002  0.1885374E+03  0.7818608E-02  0.1159787E+00
         -1   -1    0    0    0  501 -0.00000000000E+00  0.00000000000E+00  0.13340553814E+03  0.13340553814E+03  0.00000000000E+00 0.  1.
          1   -1    0    0  502    0  0.00000000000E+00 -0.00000000000E+00 -0.26824105734E+03  0.26824105734E+03  0.00000000000E+00 0. -1.
          6    1    1    2  502    0 -0.66769221625E+02 -0.38784299585E+02 -0.51023144537E+02  0.19531951292E+03  0.17200000000E+03 0. -1.
         -6    1    1    2    0  501  0.66769221625E+02  0.38784299585E+02 -0.83812374661E+02  0.20632708256E+03  0.17200000000E+03 0.  1.
</event>
<event>
 4    1  0.3115421E-002  0.4473539E+03  0.7818608E-02  0.1028514E+00
          1   -1    0    0  502    0  0.00000000000E+00  0.00000000000E+00  0.20990136811E+04  0.20990136811E+04  0.00000000000E+00 0. -1.
         -1   -1    0    0    0  501 -0.00000000000E+00 -0.00000000000E+00 -0.11075228828E+03  0.11075228828E+03  0.00000000000E+00 0.  1.
          6    1    1    2  502    0  0.16430004689E+03 -0.37887602164E+03  0.14062624052E+04  0.14757030520E+04  0.17200000000E+03 0. -1.
         -6    1    1    2    0  501 -0.16430004689E+03  0.37887602164E+03  0.58199898758E+03  0.73406291741E+03  0.17200000000E+03 0.  1.
</event>
<event>
 4    1  0.3115421E-002  0.1967201E+03  0.7818608E-02  0.1152536E+00
          1   -1    0    0  502    0  0.00000000000E+00  0.00000000000E+00  0.14335138014E+04  0.14335138014E+04  0.00000000000E+00 0. -1.
         -1   -1    0    0    0  501 -0.00000000000E+00 -0.00000000000E+00 -0.27555054802E+02  0.27555054802E+02  0.00000000000E+00 0.  1.
          6    1    1    2  502    0 -0.61509927809E+02 -0.73015976516E+02  0.80705711610E+03  0.83068645872E+03  0.17200000000E+03 0.  1.
         -6    1    1    2    0  501  0.61509927809E+02  0.73015976516E+02  0.59890163048E+03  0.63038239747E+03  0.17200000000E+03 0. -1.
</event>
<event>
 4    1  0.3115421E-002  0.2932592E+03  0.7818608E-02  0.1088660E+00
          1   -1    0    0  502    0  0.00000000000E+00  0.00000000000E+00  0.10319228865E+04  0.10319228865E+04  0.00000000000E+00 0. -1.
         -1   -1    0    0    0  501 -0.00000000000E+00 -0.00000000000E+00 -0.18221947642E+03  0.18221947642E+03  0.00000000000E+00 0.  1.
          6    1    1    2  502    0 -0.27158539196E+02 -0.23596477799E+03  0.87204389965E+03  0.92003343723E+03  0.17200000000E+03 0. -1.
         -6    1    1    2    0  501  0.27158539196E+02  0.23596477799E+03 -0.22340489559E+02  0.29410892570E+03  0.17200000000E+03 0.  1.
</event>
<event>
 4    1  0.3115421E-002  0.1727166E+03  0.7818608E-02  0.1175044E+00
          2   -1    0    0  502    0  0.00000000000E+00  0.00000000000E+00  0.25837099116E+04  0.25837099116E+04  0.00000000000E+00 0. -1.
         -2   -1    0    0    0  501 -0.00000000000E+00 -0.00000000000E+00 -0.13886923353E+02  0.13886923353E+02  0.00000000000E+00 0.  1.
          6    1    1    2  502    0  0.98188806130E+00 -0.15686124354E+02  0.18181851587E+04  0.18263702499E+04  0.17200000000E+03 0. -1.
         -6    1    1    2    0  501 -0.98188806130E+00  0.15686124354E+02  0.75163782954E+03  0.77122658499E+03  0.17200000000E+03 0.  1.
</event>
<event>
 4    1  0.3115421E-002  0.1820583E+03  0.7818608E-02  0.1165826E+00
         -2   -1    0    0    0  501 -0.00000000000E+00  0.00000000000E+00  0.15137980601E+03  0.15137980601E+03  0.00000000000E+00 0.  1.
          2   -1    0    0  502    0  0.00000000000E+00 -0.00000000000E+00 -0.33977784327E+03  0.33977784327E+03  0.00000000000E+00 0. -1.
          6    1    1    2  502    0  0.55341062242E+02  0.22329542006E+02 -0.24064227737E+03  0.30175146607E+03  0.17200000000E+03 0. -1.
         -6    1    1    2    0  501 -0.55341062242E+02 -0.22329542006E+02  0.52244240108E+02  0.18940618322E+03  0.17200000000E+03 0.  1.
</event>
<event>
 4    1  0.3115421E-002  0.2132122E+03  0.7818608E-02  0.1139047E+00
          2   -1    0    0  502    0  0.00000000000E+00  0.00000000000E+00  0.42095716780E+03  0.42095716780E+03  0.00000000000E+00 0. -1.
         -2   -1    0    0    0  501 -0.00000000000E+00 -0.00000000000E+00 -0.11103789276E+03  0.11103789276E+03  0.00000000000E+00 0.  1.
          6    1    1    2  502    0  0.36618250681E+02  0.12055924817E+03  0.19902497958E+03  0.29166825521E+03  0.17200000000E+03 0. -1.
         -6    1    1    2    0  501 -0.36618250681E+02 -0.12055924817E+03  0.11089429546E+03  0.24032680535E+03  0.17200000000E+03 0. -1.
</event>
<event>
 4    1  0.3115421E-002  0.1790358E+03  0.7818608E-02  0.1168739E+00
         -1   -1    0    0    0  501 -0.00000000000E+00  0.00000000000E+00  0.45699566697E+02  0.45699566697E+02  0.00000000000E+00 0.  1.
          1   -1    0    0  502    0  0.00000000000E+00 -0.00000000000E+00 -0.85849206232E+03  0.85849206232E+03  0.00000000000E+00 0. -1.
          6    1    1    2  502    0 -0.29537233972E+02  0.39967278549E+02 -0.59978658140E+03  0.62593751667E+03  0.17200000000E+03 0. -1.
         -6    1    1    2    0  501  0.29537233972E+02 -0.39967278549E+02 -0.21300591422E+03  0.27825411235E+03  0.17200000000E+03 0.  1.
</event>
<event>
 4    1  0.3115421E-002  0.2326857E+03  0.7818608E-02  0.1124764E+00
          1   -1    0    0  502    0  0.00000000000E+00  0.00000000000E+00  0.19303512016E+04  0.19303512016E+04  0.00000000000E+00 0. -1.
         -1   -1    0    0    0  501 -0.00000000000E+00 -0.00000000000E+00 -0.36146638269E+02  0.36146638269E+02  0.00000000000E+00 0.  1.
          6    1    1    2  502    0 -0.68989107785E+02  0.14070933445E+03  0.14125102446E+04  0.14315473464E+04  0.17200000000E+03 0.  1.
         -6    1    1    2    0  501  0.68989107785E+02 -0.14070933445E+03  0.48169431870E+03  0.53495049347E+03  0.17200000000E+03 0.  1.
</event>
<event>
 4    1  0.3115421E-002  0.2173876E+03  0.7818608E-02  0.1135846E+00
          1   -1    0    0  502    0  0.00000000000E+00  0.00000000000E+00  0.13819090225E+04  0.13819090225E+04  0.00000000000E+00 0. -1.
         -1   -1    0    0    0  501 -0.00000000000E+00 -0.00000000000E+00 -0.37561432571E+02  0.37561432571E+02  0.00000000000E+00 0.  1.
          6    1    1    2  502    0  0.12861664784E+03  0.33632493951E+02  0.45976631312E+03  0.50856902130E+03  0.17200000000E+03 0. -1.
         -6    1    1    2    0  501 -0.12861664784E+03 -0.33632493951E+02  0.88458127676E+03  0.91090143372E+03  0.17200000000E+03 0.  1.
</event>
<event>
 4    1  0.3115421E-002  0.2173700E+03  0.7818608E-02  0.1135859E+00
         -1   -1    0    0    0  501 -0.00000000000E+00  0.00000000000E+00  0.14316827133E+03  0.14316827133E+03  0.00000000000E+00 0.  1.
          1   -1    0    0  502    0  0.00000000000E+00 -0.00000000000E+00 -0.35671335316E+03  0.35671335316E+03  0.00000000000E+00 0. -1.
          6    1    1    2  502    0  0.11831635393E+03 -0.60555395637E+02 -0.38412251398E+02  0.22073789119E+03  0.17200000000E+03 0. -1.
         -6    1    1    2    0  501 -0.11831635393E+03  0.60555395637E+02 -0.17513283043E+03  0.27914373331E+03  0.17200000000E+03 0.  1.
</event>
<event>
 4    1  0.3115421E-002  0.2464291E+03  0.7818608E-02  0.1115583E+00
         -1   -1    0    0    0  501 -0.00000000000E+00  0.00000000000E+00  0.62710493426E+02  0.62710493426E+02  0.00000000000E+00 0.  1.
          1   -1    0    0  502    0  0.00000000000E+00 -0.00000000000E+00 -0.13335608386E+04  0.13335608386E+04  0.00000000000E+00 0. -1.
          6    1    1    2  502    0 -0.12827389139E+03  0.12119868871E+03 -0.10007590954E+04  0.10306532300E+04  0.17200000000E+03 0. -1.
         -6    1    1    2    0  501  0.12827389139E+03 -0.12119868871E+03 -0.27009124971E+03  0.36561810203E+03  0.17200000000E+03 0.  1.
</event>
<event>
 4    1  0.3115421E-002  0.3385184E+03  0.7818608E-02  0.1067429E+00
          2   -1    0    0  502    0  0.00000000000E+00  0.00000000000E+00  0.29991823257E+03  0.29991823257E+03  0.00000000000E+00 0. -1.
         -2   -1    0    0    0  501 -0.00000000000E+00 -0.00000000000E+00 -0.56248444375E+03  0.56248444375E+03  0.00000000000E+00 0.  1.
          6    1    1    2  502    0 -0.11807569818E+03 -0.26658740966E+03 -0.37548025751E+03  0.50554934603E+03  0.17200000000E+03 0. -1.
         -6    1    1    2    0  501  0.11807569818E+03  0.26658740966E+03  0.11291404633E+03  0.35685333030E+03  0.17200000000E+03 0.  1.
</event>
<event>
 4    1  0.3115421E-002  0.2498342E+03  0.7818608E-02  0.1113410E+00
         -1   -1    0    0    0  501 -0.00000000000E+00  0.00000000000E+00  0.17186026908E+03  0.17186026908E+03  0.00000000000E+00 0.  1.
          1   -1    0    0  502    0  0.00000000000E+00 -0.00000000000E+00 -0.65845849347E+03  0.65845849347E+03  0.00000000000E+00 0. -1.
          6    1    1    2  502    0 -0.18066696275E+03 -0.13876491761E+02 -0.52131059140E+03  0.57808463148E+03  0.17200000000E+03 0. -1.
         -6    1    1    2    0  501  0.18066696275E+03  0.13876491761E+02  0.34712367012E+02  0.25223413107E+03  0.17200000000E+03 0.  1.
</event>
<event>
 4    1  0.3115421E-002  0.2202766E+03  0.7818608E-02  0.1133677E+00
         -1   -1    0    0    0  501 -0.00000000000E+00  0.00000000000E+00  0.67664630340E+02  0.67664630340E+02  0.00000000000E+00 0.  1.
          1   -1    0    0  502    0  0.00000000000E+00 -0.00000000000E+00 -0.77172638979E+03  0.77172638979E+03  0.00000000000E+00 0. -1.
          6    1    1    2  502    0  0.12522291875E+03  0.57070257240E+02 -0.46370023769E+03  0.51336118287E+03  0.17200000000E+03 0. -1.
         -6    1    1    2    0  501 -0.12522291875E+03 -0.57070257240E+02 -0.24036152177E+03  0.32602983727E+03  0.17200000000E+03 0.  1.
</event>
<event>
 4    1  0.3115421E-002  0.2089038E+03  0.7818608E-02  0.1142437E+00
         -1   -1    0    0    0  501 -0.00000000000E+00  0.00000000000E+00  0.45232991431E+02  0.45232991431E+02  0.00000000000E+00 0.  1.
          1   -1    0    0  502    0  0.00000000000E+00 -0.00000000000E+00 -0.12026230427E+04  0.12026230427E+04  0.00000000000E+00 0. -1.
          6    1    1    2  502    0  0.10900928061E+03  0.46623853135E+02 -0.85615245203E+03  0.88127057597E+03  0.17200000000E+03 0. -1.
         -6    1    1    2    0  501 -0.10900928061E+03 -0.46623853135E+02 -0.30123759921E+03  0.36658545814E+03  0.17200000000E+03 0.  1.
</event>
<event>
 4    1  0.3115421E-002  0.8456860E+03  0.7818608E-02  0.9496145E-01
         -1   -1    0    0    0  501 -0.00000000000E+00  0.00000000000E+00  0.17544323297E+04  0.17544323297E+04  0.00000000000E+00 0.  1.
          1   -1    0    0  502    0  0.00000000000E+00 -0.00000000000E+00 -0.54185296703E+03  0.54185296703E+03  0.00000000000E+00 0. -1.
          6    1    1    2  502    0  0.21528182628E+03 -0.79953395234E+03  0.34883449585E+02  0.84640513983E+03  0.17200000000E+03 0. -1.
         -6    1    1    2    0  501 -0.21528182628E+03  0.79953395234E+03  0.11776959131E+04  0.14498801569E+04  0.17200000000E+03 0.  1.
</event>
<event>
 4    1  0.3115421E-002  0.1901033E+03  0.7818608E-02  0.1158368E+00
          2   -1    0    0  502    0  0.00000000000E+00  0.00000000000E+00  0.38451787278E+03  0.38451787278E+03  0.00000000000E+00 0. -1.
         -2   -1    0    0    0  501 -0.00000000000E+00 -0.00000000000E+00 -0.94033604876E+02  0.94033604876E+02  0.00000000000E+00 0.  1.
          6    1    1    2  502    0 -0.63491119981E+02  0.50241006648E+02  0.15062817068E+03  0.24254510275E+03  0.17200000000E+03 0. -1.
         -6    1    1    2    0  501  0.63491119981E+02 -0.50241006648E+02  0.13985609723E+03  0.23600637491E+03  0.17200000000E+03 0.  1.
</event>
<event>
 4    1  0.3115421E-002  0.2660213E+03  0.7818608E-02  0.1103579E+00
         -4   -1    0    0    0  501 -0.00000000000E+00  0.00000000000E+00  0.17159458685E+04  0.17159458685E+04  0.00000000000E+00 0.  1.
          4   -1    0    0  502    0  0.00000000000E+00 -0.00000000000E+00 -0.46443036294E+02  0.46443036294E+02  0.00000000000E+00 0. -1.
          6    1    1    2  502    0 -0.20293005109E+03  0.16557767144E+01  0.53983593883E+03  0.60182238915E+03  0.17200000000E+03 0. -1.
         -6    1    1    2    0  501  0.20293005109E+03 -0.16557767144E+01  0.11296668934E+04  0.11605665156E+04  0.17200000000E+03 0.  1.
</event>
<event>
 4    1  0.3115421E-002  0.2580670E+03  0.7818608E-02  0.1108310E+00
         -1   -1    0    0    0  501 -0.00000000000E+00  0.00000000000E+00  0.25563035089E+03  0.25563035089E+03  0.00000000000E+00 0.  1.
          1   -1    0    0  502    0  0.00000000000E+00 -0.00000000000E+00 -0.35482615603E+03  0.35482615603E+03  0.00000000000E+00 0. -1.
          6    1    1    2  502    0 -0.10196611550E+03 -0.16314862755E+03 -0.20694952570E+03  0.33079702170E+03  0.17200000000E+03 0. -1.
         -6    1    1    2    0  501  0.10196611550E+03  0.16314862755E+03  0.10775372055E+03  0.27965948522E+03  0.17200000000E+03 0.  1.
</event>
<event>
 4    1  0.3115421E-002  0.2122518E+03  0.7818608E-02  0.1139795E+00
          2   -1    0    0  502    0  0.00000000000E+00  0.00000000000E+00  0.72977231926E+02  0.72977231926E+02  0.00000000000E+00 0. -1.
         -2   -1    0    0    0  501 -0.00000000000E+00 -0.00000000000E+00 -0.15816537186E+04  0.15816537186E+04  0.00000000000E+00 0.  1.
          6    1    1    2  502    0  0.76570677260E+01  0.12412976260E+03 -0.10834570065E+03  0.23830572695E+03  0.17200000000E+03 0. -1.
         -6    1    1    2    0  501 -0.76570677260E+01 -0.12412976260E+03 -0.14003307861E+04  0.14163252236E+04  0.17200000000E+03 0.  1.
</event>
<event>
 4    1  0.3115421E-002  0.2209376E+03  0.7818608E-02  0.1133186E+00
         -1   -1    0    0    0  501 -0.00000000000E+00  0.00000000000E+00  0.56503034833E+02  0.56503034833E+02  0.00000000000E+00 0.  1.
          1   -1    0    0  502    0  0.00000000000E+00 -0.00000000000E+00 -0.10189095774E+04  0.10189095774E+04  0.00000000000E+00 0. -1.
          6    1    1    2  502    0  0.13860953719E+03  0.41011891514E+01 -0.69092593877E+03  0.72539098176E+03  0.17200000000E+03 0. -1.
         -6    1    1    2    0  501 -0.13860953719E+03 -0.41011891514E+01 -0.27148060375E+03  0.35002163042E+03  0.17200000000E+03 0.  1.
</event>
<event>
 4    1  0.3115421E-002  0.2193829E+03  0.7818608E-02  0.1134344E+00
          2   -1    0    0  502    0  0.00000000000E+00  0.00000000000E+00  0.11546105594E+04  0.11546105594E+04  0.00000000000E+00 0. -1.
         -2   -1    0    0    0  501 -0.00000000000E+00 -0.00000000000E+00 -0.45997799807E+02  0.45997799807E+02  0.00000000000E+00 0.  1.
          6    1    1    2  502    0  0.10920040168E+02  0.13574103157E+03  0.73814170950E+03  0.77005328272E+03  0.17200000000E+03 0. -1.
         -6    1    1    2    0  501 -0.10920040168E+02 -0.13574103157E+03  0.37047105008E+03  0.43055507647E+03  0.17200000000E+03 0. -1.
</event>
<event>
 4    1  0.3115421E-002  0.1915638E+03  0.7818608E-02  0.1157058E+00
         -1   -1    0    0    0  501 -0.00000000000E+00  0.00000000000E+00  0.21506995240E+02  0.21506995240E+02  0.00000000000E+00 0.  1.
          1   -1    0    0  502    0  0.00000000000E+00 -0.00000000000E+00 -0.17960527395E+04  0.17960527395E+04  0.00000000000E+00 0. -1.
          6    1    1    2  502    0 -0.82459867480E+02  0.17693811127E+02 -0.10904618227E+04  0.11071601905E+04  0.17200000000E+03 0. -1.
         -6    1    1    2    0  501  0.82459867480E+02 -0.17693811127E+02 -0.68408392155E+03  0.71039954422E+03  0.17200000000E+03 0.  1.
</event>
<event>
 4    1  0.3115421E-002  0.1730465E+03  0.7818608E-02  0.1174708E+00
         -2   -1    0    0    0  501 -0.00000000000E+00  0.00000000000E+00  0.51411842644E+02  0.51411842644E+02  0.00000000000E+00 0.  1.
          2   -1    0    0  502    0  0.00000000000E+00 -0.00000000000E+00 -0.10499596099E+04  0.10499596099E+04  0.00000000000E+00 0. -1.
          6    1    1    2  502    0 -0.21132102821E+01  0.18884674241E+02 -0.86673413332E+03  0.88384000501E+03  0.17200000000E+03 0. -1.
         -6    1    1    2    0  501  0.21132102821E+01 -0.18884674241E+02 -0.13181363394E+03  0.21753144755E+03  0.17200000000E+03 0.  1.
</event>
<event>
 4    1  0.3115421E-002  0.2533887E+03  0.7818608E-02  0.1111182E+00
         -2   -1    0    0    0  501 -0.00000000000E+00  0.00000000000E+00  0.17513050763E+03  0.17513050763E+03  0.00000000000E+00 0.  1.
          2   -1    0    0  502    0  0.00000000000E+00 -0.00000000000E+00 -0.43474859372E+03  0.43474859372E+03  0.00000000000E+00 0. -1.
          6    1    1    2  502    0 -0.18405832196E+03 -0.27282806836E+02 -0.90918835696E+01  0.25355172999E+03  0.17200000000E+03 0. -1.
         -6    1    1    2    0  501  0.18405832196E+03  0.27282806836E+02 -0.25052620252E+03  0.35632737136E+03  0.17200000000E+03 0. -1.
</event>
<event>
 4    1  0.3115421E-002  0.1915079E+03  0.7818608E-02  0.1157108E+00
          2   -1    0    0  502    0  0.00000000000E+00  0.00000000000E+00  0.25753055563E+03  0.25753055563E+03  0.00000000000E+00 0. -1.
         -2   -1    0    0    0  501 -0.00000000000E+00 -0.00000000000E+00 -0.50331140813E+03  0.50331140813E+03  0.00000000000E+00 0.  1.
          6    1    1    2  502    0  0.22411924029E+02 -0.81172600408E+02  0.19924576877E+03  0.27635875555E+03  0.17200000000E+03 0. -1.
         -6    1    1    2    0  501 -0.22411924029E+02  0.81172600408E+02 -0.44502662128E+03  0.48448320821E+03  0.17200000000E+03 0.  1.
</event>
<event>
 4    1  0.3115421E-002  0.2067608E+03  0.7818608E-02  0.1144157E+00
         -4   -1    0    0    0  501 -0.00000000000E+00  0.00000000000E+00  0.96017041457E+02  0.96017041457E+02  0.00000000000E+00 0.  1.
          4   -1    0    0  502    0  0.00000000000E+00 -0.00000000000E+00 -0.46114669451E+03  0.46114669451E+03  0.00000000000E+00 0. -1.
          6    1    1    2  502    0 -0.84833795878E+02 -0.77260896959E+02 -0.23431475471E+03  0.31249547740E+03  0.17200000000E+03 0. -1.
         -6    1    1    2    0  501  0.84833795878E+02  0.77260896959E+02 -0.13081489835E+03  0.24466825857E+03  0.17200000000E+03 0. -1.
</event>
<event>
 4    1  0.3115421E-002  0.1726833E+03  0.7818608E-02  0.1175078E+00
         -2   -1    0    0    0  501 -0.00000000000E+00  0.00000000000E+00  0.79065671694E+02  0.79065671694E+02  0.00000000000E+00 0.  1.
          2   -1    0    0  502    0  0.00000000000E+00 -0.00000000000E+00 -0.49422481288E+03  0.49422481288E+03  0.00000000000E+00 0. -1.
          6    1    1    2  502    0 -0.13178480208E+02  0.78654412042E+01 -0.34709302471E+03  0.38767654728E+03  0.17200000000E+03 0. -1.
         -6    1    1    2    0  501  0.13178480208E+02 -0.78654412042E+01 -0.68066116471E+02  0.18561393729E+03  0.17200000000E+03 0.  1.
</event>
<event>
 4    1  0.3115421E-002  0.1907056E+03  0.7818608E-02  0.1157826E+00
         -2   -1    0    0    0  501 -0.00000000000E+00  0.00000000000E+00  0.94049874001E+03  0.94049874001E+03  0.00000000000E+00 0.  1.
          2   -1    0    0  502    0  0.00000000000E+00 -0.00000000000E+00 -0.49381899902E+02  0.49381899902E+02  0.00000000000E+00 0. -1.
          6    1    1    2  502    0 -0.13707410684E+02 -0.81220363802E+02  0.21503672940E+03  0.28741857211E+03  0.17200000000E+03 0. -1.
         -6    1    1    2    0  501  0.13707410684E+02  0.81220363802E+02  0.67608011071E+03  0.70246206780E+03  0.17200000000E+03 0.  1.
</event>
<event>
 4    1  0.3115421E-002  0.2252490E+03  0.7818608E-02  0.1130029E+00
          2   -1    0    0  502    0  0.00000000000E+00  0.00000000000E+00  0.14841425356E+04  0.14841425356E+04  0.00000000000E+00 0. -1.
         -2   -1    0    0    0  501 -0.00000000000E+00 -0.00000000000E+00 -0.38633141548E+02  0.38633141548E+02  0.00000000000E+00 0.  1.
          6    1    1    2  502    0  0.42103744514E+02  0.13921341541E+03  0.46443370460E+03  0.51617416276E+03  0.17200000000E+03 0. -1.
         -6    1    1    2    0  501 -0.42103744514E+02 -0.13921341541E+03  0.98107568943E+03  0.10066015144E+04  0.17200000000E+03 0. -1.
</event>
<event>
 4    1  0.3115421E-002  0.2800859E+03  0.7818608E-02  0.1095642E+00
          1   -1    0    0  502    0  0.00000000000E+00  0.00000000000E+00  0.26804149598E+03  0.26804149598E+03  0.00000000000E+00 0. -1.
         -1   -1    0    0    0  501 -0.00000000000E+00 -0.00000000000E+00 -0.43163148586E+03  0.43163148586E+03  0.00000000000E+00 0.  1.
          6    1    1    2  502    0 -0.24208584224E+02 -0.21972269618E+03 -0.28029172632E+03  0.39624685565E+03  0.17200000000E+03 0.  1.
         -6    1    1    2    0  501  0.24208584224E+02  0.21972269618E+03  0.11670173644E+03  0.30342612619E+03  0.17200000000E+03 0.  1.
</event>
<event>
 4    1  0.3115421E-002  0.1258489E+04  0.7818608E-02  0.9063147E-01
         -1   -1    0    0    0  501 -0.00000000000E+00  0.00000000000E+00  0.75496039173E+03  0.75496039173E+03  0.00000000000E+00 0.  1.
          1   -1    0    0  502    0  0.00000000000E+00 -0.00000000000E+00 -0.23148918164E+04  0.23148918164E+04  0.00000000000E+00 0. -1.
          6    1    1    2  502    0  0.27309214784E+03 -0.12164012854E+04 -0.30997258210E+03  0.12961012345E+04  0.17200000000E+03 0. -1.
         -6    1    1    2    0  501 -0.27309214784E+03  0.12164012854E+04 -0.12499588426E+04  0.17737509737E+04  0.17200000000E+03 0.  1.
</event>
<event>
 4    1  0.3115421E-002  0.4522954E+03  0.7818608E-02  0.1027040E+00
          1   -1    0    0  502    0  0.00000000000E+00  0.00000000000E+00  0.14011550095E+04  0.14011550095E+04  0.00000000000E+00 0. -1.
         -1   -1    0    0    0  501 -0.00000000000E+00 -0.00000000000E+00 -0.18755742769E+03  0.18755742769E+03  0.00000000000E+00 0.  1.
          6    1    1    2  502    0  0.18847168345E+03 -0.37345091500E+03  0.98070532934E+03  0.10799787518E+04  0.17200000000E+03 0. -1.
         -6    1    1    2    0  501 -0.18847168345E+03  0.37345091500E+03  0.23289225246E+03  0.50873368537E+03  0.17200000000E+03 0.  1.
</event>
<event>
 4    1  0.3115421E-002  0.2466207E+03  0.7818608E-02  0.1115459E+00
         -1   -1    0    0    0  501 -0.00000000000E+00  0.00000000000E+00  0.75382890763E+03  0.75382890763E+03  0.00000000000E+00 0.  1.
          1   -1    0    0  502    0  0.00000000000E+00 -0.00000000000E+00 -0.11135994932E+03  0.11135994932E+03  0.00000000000E+00 0. -1.
          6    1    1    2  502    0 -0.65728546686E+02 -0.16406555839E+03  0.94186768659E+02  0.26399412245E+03  0.17200000000E+03 0. -1.
         -6    1    1    2    0  501  0.65728546686E+02  0.16406555839E+03  0.54828218965E+03  0.60119473450E+03  0.17200000000E+03 0.  1.
</event>
<event>
 4    1  0.3115421E-002  0.2519314E+03  0.7818608E-02  0.1112090E+00
         -1   -1    0    0    0  501 -0.00000000000E+00  0.00000000000E+00  0.12950738959E+04  0.12950738959E+04  0.00000000000E+00 0.  1.
          1   -1    0    0  502    0  0.00000000000E+00 -0.00000000000E+00 -0.23159284278E+03  0.23159284278E+03  0.00000000000E+00 0. -1.
          6    1    1    2  502    0  0.57975787076E+02 -0.17471188215E+03 -0.14603147906E+03  0.29119516914E+03  0.17200000000E+03 0. -1.
         -6    1    1    2    0  501 -0.57975787076E+02  0.17471188215E+03  0.12095125322E+04  0.12354715696E+04  0.17200000000E+03 0.  1.
</event>
<event>
 4    1  0.3115421E-002  0.1817722E+03  0.7818608E-02  0.1166099E+00
         -2   -1    0    0    0  501 -0.00000000000E+00  0.00000000000E+00  0.22029371872E+02  0.22029371872E+02  0.00000000000E+00 0.  1.
          2   -1    0    0  502    0  0.00000000000E+00 -0.00000000000E+00 -0.16087436230E+04  0.16087436230E+04  0.00000000000E+00 0. -1.
          6    1    1    2  502    0  0.57943510494E+01  0.58511103201E+02 -0.10054801435E+04  0.10217785683E+04  0.17200000000E+03 0. -1.
         -6    1    1    2    0  501 -0.57943510494E+01 -0.58511103201E+02 -0.58123410760E+03  0.60899442653E+03  0.17200000000E+03 0.  1.
</event>
<event>
 4    1  0.3115421E-002  0.2554514E+03  0.7818608E-02  0.1109907E+00
         -2   -1    0    0    0  501 -0.00000000000E+00  0.00000000000E+00  0.89758271741E+02  0.89758271741E+02  0.00000000000E+00 0.  1.
          2   -1    0    0  502    0  0.00000000000E+00 -0.00000000000E+00 -0.16192898917E+04  0.16192898917E+04  0.00000000000E+00 0. -1.
          6    1    1    2  502    0  0.13183011284E+03 -0.13524876244E+03 -0.13990909030E+04  0.14222203631E+04  0.17200000000E+03 0. -1.
         -6    1    1    2    0  501 -0.13183011284E+03  0.13524876244E+03 -0.13044071693E+03  0.28682780030E+03  0.17200000000E+03 0.  1.
</event>
<event>
 4    1  0.3115421E-002  0.2645830E+03  0.7818608E-02  0.1104421E+00
         -1   -1    0    0    0  501 -0.00000000000E+00  0.00000000000E+00  0.40058621936E+03  0.40058621936E+03  0.00000000000E+00 0.  1.
          1   -1    0    0  502    0  0.00000000000E+00 -0.00000000000E+00 -0.17917877554E+03  0.17917877554E+03  0.00000000000E+00 0. -1.
          6    1    1    2  502    0 -0.12087555074E+03 -0.16065259776E+03  0.65151386991E+02  0.27248643849E+03  0.17200000000E+03 0.  1.
         -6    1    1    2    0  501  0.12087555074E+03  0.16065259776E+03  0.15625605683E+03  0.30727855641E+03  0.17200000000E+03 0.  1.
</event>
<event>
 4    1  0.3115421E-002  0.4448439E+03  0.7818608E-02  0.1029271E+00
         -2   -1    0    0    0  501 -0.00000000000E+00  0.00000000000E+00  0.72776446370E+03  0.72776446370E+03  0.00000000000E+00 0.  1.
          2   -1    0    0  502    0  0.00000000000E+00 -0.00000000000E+00 -0.27214335854E+03  0.27214335854E+03  0.00000000000E+00 0. -1.
          6    1    1    2  502    0  0.32384995040E+03  0.25183975923E+03  0.24246701202E+03  0.50663231896E+03  0.17200000000E+03 0. -1.
         -6    1    1    2    0  501 -0.32384995040E+03 -0.25183975923E+03  0.21315409314E+03  0.49327550327E+03  0.17200000000E+03 0.  1.
</event>
<event>
 4    1  0.3115421E-002  0.4911860E+03  0.7818608E-02  0.1016105E+00
         -1   -1    0    0    0  501 -0.00000000000E+00  0.00000000000E+00  0.13854144728E+03  0.13854144728E+03  0.00000000000E+00 0.  1.
          1   -1    0    0  502    0  0.00000000000E+00 -0.00000000000E+00 -0.17816418550E+04  0.17816418550E+04  0.00000000000E+00 0. -1.
          6    1    1    2  502    0 -0.27015005766E+03  0.37242259138E+03 -0.96574403403E+03  0.10834782783E+04  0.17200000000E+03 0. -1.
         -6    1    1    2    0  501  0.27015005766E+03 -0.37242259138E+03 -0.67735637364E+03  0.83670502397E+03  0.17200000000E+03 0.  1.
</event>
<event>
 4    1  0.3115421E-002  0.2662669E+03  0.7818608E-02  0.1103435E+00
         -2   -1    0    0    0  501 -0.00000000000E+00  0.00000000000E+00  0.89603363568E+02  0.89603363568E+02  0.00000000000E+00 0.  1.
          2   -1    0    0  502    0  0.00000000000E+00 -0.00000000000E+00 -0.10958119477E+04  0.10958119477E+04  0.00000000000E+00 0. -1.
          6    1    1    2  502    0  0.18425960570E+03 -0.85804907963E+02 -0.81557904414E+03  0.85794362389E+03  0.17200000000E+03 0. -1.
         -6    1    1    2    0  501 -0.18425960570E+03  0.85804907963E+02 -0.19062954000E+03  0.32747168739E+03  0.17200000000E+03 0.  1.
</event>
<event>
 4    1  0.3115421E-002  0.4929176E+03  0.7818608E-02  0.1015644E+00
          1   -1    0    0  502    0  0.00000000000E+00  0.00000000000E+00  0.14739737876E+04  0.14739737876E+04  0.00000000000E+00 0. -1.
         -1   -1    0    0    0  501 -0.00000000000E+00 -0.00000000000E+00 -0.16513915412E+03  0.16513915412E+03  0.00000000000E+00 0.  1.
          6    1    1    2  502    0 -0.40393234803E+03  0.22410359120E+03  0.68938140163E+03  0.84747535556E+03  0.17200000000E+03 0.  1.
         -6    1    1    2    0  501  0.40393234803E+03 -0.22410359120E+03  0.61945323181E+03  0.79163758613E+03  0.17200000000E+03 0.  1.
</event>
<event>
 4    1  0.3115421E-002  0.2025072E+03  0.7818608E-02  0.1147641E+00
         -2   -1    0    0    0  501 -0.00000000000E+00  0.00000000000E+00  0.13151456605E+03  0.13151456605E+03  0.00000000000E+00 0.  1.
          2   -1    0    0  502    0  0.00000000000E+00 -0.00000000000E+00 -0.31442000671E+03  0.31442000671E+03  0.00000000000E+00 0. -1.
          6    1    1    2  502    0  0.65101988741E+02  0.84775459215E+02 -0.11172013300E+03  0.23128021001E+03  0.17200000000E+03 0. -1.
         -6    1    1    2    0  501 -0.65101988741E+02 -0.84775459215E+02 -0.71185307653E+02  0.21465436275E+03  0.17200000000E+03 0.  1.
</event>
<event>
 4    1  0.3115421E-002  0.2266050E+03  0.7818608E-02  0.1129052E+00
         -2   -1    0    0    0  501 -0.00000000000E+00  0.00000000000E+00  0.29604497118E+03  0.29604497118E+03  0.00000000000E+00 0.  1.
          2   -1    0    0  502    0  0.00000000000E+00 -0.00000000000E+00 -0.22888752446E+03  0.22888752446E+03  0.00000000000E+00 0. -1.
          6    1    1    2  502    0 -0.91566655062E+02 -0.11567788500E+03  0.16274626626E+03  0.27899134857E+03  0.17200000000E+03 0.  1.
         -6    1    1    2    0  501  0.91566655062E+02  0.11567788500E+03 -0.95588819540E+02  0.24594114706E+03  0.17200000000E+03 0. -1.
</event>
<event>
 4    1  0.3115421E-002  0.2431052E+03  0.7818608E-02  0.1117741E+00
         -1   -1    0    0    0  501 -0.00000000000E+00  0.00000000000E+00  0.93226796492E+02  0.93226796492E+02  0.00000000000E+00 0.  1.
          1   -1    0    0  502    0  0.00000000000E+00 -0.00000000000E+00 -0.72349078952E+03  0.72349078952E+03  0.00000000000E+00 0. -1.
          6    1    1    2  502    0  0.13225172379E+03 -0.10966136027E+03 -0.45880056222E+03  0.51922835850E+03  0.17200000000E+03 0. -1.
         -6    1    1    2    0  501 -0.13225172379E+03  0.10966136027E+03 -0.17146343081E+03  0.29748922751E+03  0.17200000000E+03 0.  1.
</event>
<event>
 4    1  0.3115421E-002  0.1992433E+03  0.7818608E-02  0.1150379E+00
         -2   -1    0    0    0  501 -0.00000000000E+00  0.00000000000E+00  0.64216840879E+03  0.64216840879E+03  0.00000000000E+00 0.  1.
          2   -1    0    0  502    0  0.00000000000E+00 -0.00000000000E+00 -0.62042118172E+02  0.62042118172E+02  0.00000000000E+00 0. -1.
          6    1    1    2  502    0  0.97579287737E+02  0.24334369392E+02  0.26892357590E+03  0.33469055649E+03  0.17200000000E+03 0.  1.
         -6    1    1    2    0  501 -0.97579287737E+02 -0.24334369392E+02  0.31120271471E+03  0.36951997047E+03  0.17200000000E+03 0.  1.
</event>
<event>
 4    1  0.3115421E-002  0.2375769E+03  0.7818608E-02  0.1121418E+00
          2   -1    0    0  502    0  0.00000000000E+00  0.00000000000E+00  0.12234765589E+04  0.12234765589E+04  0.00000000000E+00 0. -1.
         -2   -1    0    0    0  501 -0.00000000000E+00 -0.00000000000E+00 -0.46207959690E+02  0.46207959690E+02  0.00000000000E+00 0.  1.
          6    1    1    2  502    0 -0.14131841590E+03  0.82993406111E+02  0.56308661451E+03  0.61115410133E+03  0.17200000000E+03 0. -1.
         -6    1    1    2    0  501  0.14131841590E+03 -0.82993406111E+02  0.61418198472E+03  0.65853041728E+03  0.17200000000E+03 0.  1.
</event>
<event>
 4    1  0.3115421E-002  0.2439510E+03  0.7818608E-02  0.1117188E+00
          2   -1    0    0  502    0  0.00000000000E+00  0.00000000000E+00  0.34347530020E+04  0.34347530020E+04  0.00000000000E+00 0. -1.
         -2   -1    0    0    0  501 -0.00000000000E+00 -0.00000000000E+00 -0.17329143749E+02  0.17329143749E+02  0.00000000000E+00 0.  1.
          6    1    1    2  502    0  0.15255874607E+03 -0.81571543395E+02  0.17302184454E+04  0.17473316676E+04  0.17200000000E+03 0.  1.
         -6    1    1    2    0  501 -0.15255874607E+03  0.81571543395E+02  0.16872054129E+04  0.17047504782E+04  0.17200000000E+03 0. -1.
</event>
<event>
 4    1  0.3115421E-002  0.2094982E+03  0.7818608E-02  0.1141964E+00
          1   -1    0    0  502    0  0.00000000000E+00  0.00000000000E+00  0.18924223482E+03  0.18924223482E+03  0.00000000000E+00 0. -1.
         -1   -1    0    0    0  501 -0.00000000000E+00 -0.00000000000E+00 -0.23243146536E+03  0.23243146536E+03  0.00000000000E+00 0.  1.
          6    1    1    2  502    0  0.95929457370E+02 -0.71435546473E+02 -0.11726821409E+02  0.20982615764E+03  0.17200000000E+03 0. -1.
         -6    1    1    2    0  501 -0.95929457370E+02  0.71435546473E+02 -0.31462409127E+02  0.21184754254E+03  0.17200000000E+03 0. -1.
</event>
<event>
 4    1  0.3115421E-002  0.2331656E+03  0.7818608E-02  0.1124431E+00
         -1   -1    0    0    0  501 -0.00000000000E+00  0.00000000000E+00  0.12924954508E+03  0.12924954508E+03  0.00000000000E+00 0.  1.
          1   -1    0    0  502    0  0.00000000000E+00 -0.00000000000E+00 -0.29265938475E+04  0.29265938475E+04  0.00000000000E+00 0. -1.
          6    1    1    2  502    0 -0.27964676497E+02  0.15491982474E+03 -0.28125350938E+04  0.28221835215E+04  0.17200000000E+03 0. -1.
         -6    1    1    2    0  501  0.27964676497E+02 -0.15491982474E+03  0.15190791335E+02  0.23365987112E+03  0.17200000000E+03 0.  1.
</event>
<event>
 4    1  0.3115421E-002  0.1872726E+03  0.7818608E-02  0.1160945E+00
         -2   -1    0    0    0  501 -0.00000000000E+00  0.00000000000E+00  0.95713929030E+02  0.95713929030E+02  0.00000000000E+00 0.  1.
          2   -1    0    0  502    0  0.00000000000E+00 -0.00000000000E+00 -0.37209526990E+03  0.37209526990E+03  0.00000000000E+00 0. -1.
          6    1    1    2  502    0  0.72608988844E+02  0.14661608042E+02 -0.10929101293E+03  0.21683070243E+03  0.17200000000E+03 0.  1.
         -6    1    1    2    0  501 -0.72608988844E+02 -0.14661608042E+02 -0.16709032794E+03  0.25097849649E+03  0.17200000000E+03 0.  1.
</event>
<event>
 4    1  0.3115421E-002  0.3670472E+03  0.7818608E-02  0.1055828E+00
         -1   -1    0    0    0  501 -0.00000000000E+00  0.00000000000E+00  0.23931846042E+03  0.23931846042E+03  0.00000000000E+00 0.  1.
          1   -1    0    0  502    0  0.00000000000E+00 -0.00000000000E+00 -0.68269049906E+03  0.68269049906E+03  0.00000000000E+00 0. -1.
          6    1    1    2  502    0 -0.30923925721E+03  0.97522814926E+02 -0.41475794386E+03  0.55384814672E+03  0.17200000000E+03 0. -1.
         -6    1    1    2    0  501  0.30923925721E+03 -0.97522814926E+02 -0.28614094779E+02  0.36816081276E+03  0.17200000000E+03 0.  1.
</event>
<event>
 4    1  0.3115421E-002  0.2107269E+03  0.7818608E-02  0.1140992E+00
          2   -1    0    0  502    0  0.00000000000E+00  0.00000000000E+00  0.49825918664E+03  0.49825918664E+03  0.00000000000E+00 0. -1.
         -2   -1    0    0    0  501 -0.00000000000E+00 -0.00000000000E+00 -0.14648203627E+03  0.14648203627E+03  0.00000000000E+00 0.  1.
          6    1    1    2  502    0 -0.50036432031E+01 -0.12164208147E+03  0.37761748458E+03  0.43243588783E+03  0.17200000000E+03 0. -1.
         -6    1    1    2    0  501  0.50036432031E+01  0.12164208147E+03 -0.25840334211E+02  0.21230533507E+03  0.17200000000E+03 0.  1.
</event>
<event>
 4    1  0.3115421E-002  0.5279631E+03  0.7818608E-02  0.1006727E+00
         -2   -1    0    0    0  501 -0.00000000000E+00  0.00000000000E+00  0.71788147711E+03  0.71788147711E+03  0.00000000000E+00 0.  1.
          2   -1    0    0  502    0  0.00000000000E+00 -0.00000000000E+00 -0.14471106280E+04  0.14471106280E+04  0.00000000000E+00 0. -1.
          6    1    1    2  502    0 -0.49102455503E+03  0.89754928532E+02 -0.12905633829E+04  0.13943811911E+04  0.17200000000E+03 0. -1.
         -6    1    1    2    0  501  0.49102455503E+03 -0.89754928532E+02  0.56133423198E+03  0.77061091404E+03  0.17200000000E+03 0.  1.
</event>
<event>
 4    1  0.3115421E-002  0.1970240E+03  0.7818608E-02  0.1152274E+00
          2   -1    0    0  502    0  0.00000000000E+00  0.00000000000E+00  0.89678368200E+03  0.89678368200E+03  0.00000000000E+00 0. -1.
         -2   -1    0    0    0  501 -0.00000000000E+00 -0.00000000000E+00 -0.49488205756E+02  0.49488205756E+02  0.00000000000E+00 0.  1.
          6    1    1    2  502    0  0.59660124559E+02  0.75333311326E+02  0.59114126598E+03  0.62311029088E+03  0.17200000000E+03 0. -1.
         -6    1    1    2    0  501 -0.59660124559E+02 -0.75333311326E+02  0.25615421026E+03  0.32316159687E+03  0.17200000000E+03 0.  1.
</event>
<event>
 4    1  0.3115421E-002  0.3030238E+03  0.7818608E-02  0.1083739E+00
         -2   -1    0    0    0  501 -0.00000000000E+00  0.00000000000E+00  0.29048551132E+03  0.29048551132E+03  0.00000000000E+00 0.  1.
          2   -1    0    0  502    0  0.00000000000E+00 -0.00000000000E+00 -0.91989376863E+03  0.91989376863E+03  0.00000000000E+00 0. -1.
          6    1    1    2  502    0 -0.22617482495E+03 -0.10528230370E+03 -0.80500852797E+03  0.86015239639E+03  0.17200000000E+03 0. -1.
         -6    1    1    2    0  501  0.22617482495E+03  0.10528230370E+03  0.17560027067E+03  0.35022688356E+03  0.17200000000E+03 0.  1.
</event>
<event>
 4    1  0.3115421E-002  0.4809712E+03  0.7818608E-02  0.1018869E+00
         -2   -1    0    0    0  501 -0.00000000000E+00  0.00000000000E+00  0.95876073887E+02  0.95876073887E+02  0.00000000000E+00 0.  1.
          2   -1    0    0  502    0  0.00000000000E+00 -0.00000000000E+00 -0.24192692671E+04  0.24192692671E+04  0.00000000000E+00 0. -1.
          6    1    1    2  502    0  0.14105101143E+03 -0.42644336385E+03 -0.10968516896E+04  0.11976714739E+04  0.17200000000E+03 0. -1.
         -6    1    1    2    0  501 -0.14105101143E+03  0.42644336385E+03 -0.12265415036E+04  0.13174738671E+04  0.17200000000E+03 0. -1.
</event>
<event>
 4    1  0.3115421E-002  0.2073598E+03  0.7818608E-02  0.1143674E+00
         -2   -1    0    0    0  501 -0.00000000000E+00  0.00000000000E+00  0.31827750049E+03  0.31827750049E+03  0.00000000000E+00 0.  1.
          2   -1    0    0  502    0  0.00000000000E+00 -0.00000000000E+00 -0.23193241440E+03  0.23193241440E+03  0.00000000000E+00 0. -1.
          6    1    1    2  502    0  0.49808276134E+02 -0.10456200175E+03 -0.13458851390E+03  0.24720870667E+03  0.17200000000E+03 0. -1.
         -6    1    1    2    0  501 -0.49808276134E+02  0.10456200175E+03  0.22093359998E+03  0.30300120822E+03  0.17200000000E+03 0.  1.
</event>
<event>
 4    1  0.3115421E-002  0.1846511E+03  0.7818608E-02  0.1163376E+00
         -2   -1    0    0    0  501 -0.00000000000E+00  0.00000000000E+00  0.19281433451E+02  0.19281433451E+02  0.00000000000E+00 0.  1.
          2   -1    0    0  502    0  0.00000000000E+00 -0.00000000000E+00 -0.41921794242E+04  0.41921794242E+04  0.00000000000E+00 0. -1.
          6    1    1    2  502    0  0.17308227868E+02  0.64903466380E+02 -0.36876107477E+04  0.36922309058E+04  0.17200000000E+03 0. -1.
         -6    1    1    2    0  501 -0.17308227868E+02 -0.64903466380E+02 -0.48528724301E+03  0.51922995188E+03  0.17200000000E+03 0.  1.
</event>
<event>
 4    1  0.3115421E-002  0.1968305E+03  0.7818608E-02  0.1152441E+00
         -1   -1    0    0    0  501 -0.00000000000E+00  0.00000000000E+00  0.24464870668E+02  0.24464870668E+02  0.00000000000E+00 0.  1.
          1   -1    0    0  502    0  0.00000000000E+00 -0.00000000000E+00 -0.16400706629E+04  0.16400706629E+04  0.00000000000E+00 0. -1.
          6    1    1    2  502    0  0.22088847392E+02 -0.93114695818E+02 -0.65335171292E+03  0.68235674286E+03  0.17200000000E+03 0. -1.
         -6    1    1    2    0  501 -0.22088847392E+02  0.93114695818E+02 -0.96225407935E+03  0.98217879074E+03  0.17200000000E+03 0.  1.
</event>
<event>
 4    1  0.3115421E-002  0.1876741E+03  0.7818608E-02  0.1160576E+00
         -1   -1    0    0    0  501 -0.00000000000E+00  0.00000000000E+00  0.18244865122E+03  0.18244865122E+03  0.00000000000E+00 0.  1.
          1   -1    0    0  502    0  0.00000000000E+00 -0.00000000000E+00 -0.43448799124E+03  0.43448799124E+03  0.00000000000E+00 0. -1.
          6    1    1    2  502    0 -0.17610175437E+02  0.72989454778E+02 -0.35596529076E+03  0.40240883069E+03  0.17200000000E+03 0. -1.
         -6    1    1    2    0  501  0.17610175437E+02 -0.72989454778E+02  0.10392595074E+03  0.21452781177E+03  0.17200000000E+03 0.  1.
</event>
<event>
 4    1  0.3115421E-002  0.2042595E+03  0.7818608E-02  0.1146194E+00
          2   -1    0    0  502    0  0.00000000000E+00  0.00000000000E+00  0.25866160913E+04  0.25866160913E+04  0.00000000000E+00 0. -1.
         -2   -1    0    0    0  501 -0.00000000000E+00 -0.00000000000E+00 -0.20197172341E+02  0.20197172341E+02  0.00000000000E+00 0.  1.
          6    1    1    2  502    0  0.10470660165E+03  0.34270805141E+02  0.69830602716E+03  0.72756667604E+03  0.17200000000E+03 0.  1.
         -6    1    1    2    0  501 -0.10470660165E+03 -0.34270805141E+02  0.18681128918E+04  0.18792465876E+04  0.17200000000E+03 0. -1.
</event>
<event>
 4    1  0.3115421E-002  0.2424731E+03  0.7818608E-02  0.1118156E+00
          2   -1    0    0  502    0  0.00000000000E+00  0.00000000000E+00  0.15788997590E+04  0.15788997590E+04  0.00000000000E+00 0. -1.
         -2   -1    0    0    0  501 -0.00000000000E+00 -0.00000000000E+00 -0.39052437799E+02  0.39052437799E+02  0.00000000000E+00 0.  1.
          6    1    1    2  502    0  0.14439095732E+03  0.91435591930E+02  0.59549289724E+03  0.64296578967E+03  0.17200000000E+03 0. -1.
         -6    1    1    2    0  501 -0.14439095732E+03 -0.91435591930E+02  0.94435442398E+03  0.97498640715E+03  0.17200000000E+03 0.  1.
</event>
<event>
 4    1  0.3115421E-002  0.2243845E+03  0.7818608E-02  0.1130656E+00
          2   -1    0    0  502    0  0.00000000000E+00  0.00000000000E+00  0.32615299755E+04  0.32615299755E+04  0.00000000000E+00 0. -1.
         -2   -1    0    0    0  501 -0.00000000000E+00 -0.00000000000E+00 -0.22227571880E+02  0.22227571880E+02  0.00000000000E+00 0.  1.
          6    1    1    2  502    0  0.67036159133E+02 -0.12755617186E+03  0.25271507855E+04  0.25370927291E+04  0.17200000000E+03 0. -1.
         -6    1    1    2    0  501 -0.67036159133E+02  0.12755617186E+03  0.71215161819E+03  0.74666481831E+03  0.17200000000E+03 0.  1.
</event>
<event>
 4    1  0.3115421E-002  0.3066476E+03  0.7818608E-02  0.1081964E+00
         -2   -1    0    0    0  501 -0.00000000000E+00  0.00000000000E+00  0.12913506716E+03  0.12913506716E+03  0.00000000000E+00 0.  1.
          2   -1    0    0  502    0  0.00000000000E+00 -0.00000000000E+00 -0.75978993013E+03  0.75978993013E+03  0.00000000000E+00 0. -1.
          6    1    1    2  502    0  0.21145062690E+03  0.14048986805E+03 -0.22466177423E+03  0.38013903172E+03  0.17200000000E+03 0. -1.
         -6    1    1    2    0  501 -0.21145062690E+03 -0.14048986805E+03 -0.40599308875E+03  0.50878596556E+03  0.17200000000E+03 0.  1.
</event>
<event>
 4    1  0.3115421E-002  0.5981819E+03  0.7818608E-02  0.9909185E-01
         -1   -1    0    0    0  501 -0.00000000000E+00  0.00000000000E+00  0.92425314056E+03  0.92425314056E+03  0.00000000000E+00 0.  1.
          1   -1    0    0  502    0  0.00000000000E+00 -0.00000000000E+00 -0.39365406811E+03  0.39365406811E+03  0.00000000000E+00 0. -1.
          6    1    1    2  502    0 -0.43293896173E+03  0.37523522605E+03  0.18057723061E+03  0.62484378501E+03  0.17200000000E+03 0. -1.
         -6    1    1    2    0  501  0.43293896173E+03 -0.37523522605E+03  0.35002184185E+03  0.69306342366E+03  0.17200000000E+03 0.  1.
</event>
<event>
 4    1  0.3115421E-002  0.1738811E+03  0.7818608E-02  0.1173860E+00
          1   -1    0    0  502    0  0.00000000000E+00  0.00000000000E+00  0.64186680278E+03  0.64186680278E+03  0.00000000000E+00 0. -1.
         -1   -1    0    0    0  501 -0.00000000000E+00 -0.00000000000E+00 -0.48182998995E+02  0.48182998995E+02  0.00000000000E+00 0.  1.
          6    1    1    2  502    0 -0.25438337139E+02  0.18825971683E+01  0.24521642258E+03  0.30060896040E+03  0.17200000000E+03 0.  1.
         -6    1    1    2    0  501  0.25438337139E+02 -0.18825971683E+01  0.34846738121E+03  0.38944084138E+03  0.17200000000E+03 0. -1.
</event>
<event>
 4    1  0.3115421E-002  0.3987226E+03  0.7818608E-02  0.1044223E+00
         -2   -1    0    0    0  501 -0.00000000000E+00  0.00000000000E+00  0.28569259906E+03  0.28569259906E+03  0.00000000000E+00 0.  1.
          2   -1    0    0  502    0  0.00000000000E+00 -0.00000000000E+00 -0.11894291544E+04  0.11894291544E+04  0.00000000000E+00 0. -1.
          6    1    1    2  502    0  0.17426265654E+03  0.31468757201E+03 -0.98991001646E+03  0.10671933199E+04  0.17200000000E+03 0. -1.
         -6    1    1    2    0  501 -0.17426265654E+03 -0.31468757201E+03  0.86173461155E+02  0.40792843349E+03  0.17200000000E+03 0.  1.
</event>
<event>
 4    1  0.3115421E-002  0.1929941E+03  0.7818608E-02  0.1155788E+00
          2   -1    0    0  502    0  0.00000000000E+00  0.00000000000E+00  0.14354001982E+04  0.14354001982E+04  0.00000000000E+00 0. -1.
         -2   -1    0    0    0  501 -0.00000000000E+00 -0.00000000000E+00 -0.27215924587E+02  0.27215924587E+02  0.00000000000E+00 0.  1.
          6    1    1    2  502    0 -0.13800755272E+02  0.86442182427E+02  0.54628651935E+03  0.57937524366E+03  0.17200000000E+03 0. -1.
         -6    1    1    2    0  501  0.13800755272E+02 -0.86442182427E+02  0.86189775431E+03  0.88324087917E+03  0.17200000000E+03 0.  1.
</event>
<event>
 4    1  0.3115421E-002  0.2250331E+03  0.7818608E-02  0.1130185E+00
         -2   -1    0    0    0  501 -0.00000000000E+00  0.00000000000E+00  0.22247840014E+02  0.22247840014E+02  0.00000000000E+00 0.  1.
          2   -1    0    0  502    0  0.00000000000E+00 -0.00000000000E+00 -0.26280581343E+04  0.26280581343E+04  0.00000000000E+00 0. -1.
          6    1    1    2  502    0  0.14505039939E+03 -0.40370119315E+01 -0.17878021116E+04  0.18019090726E+04  0.17200000000E+03 0. -1.
         -6    1    1    2    0  501 -0.14505039939E+03  0.40370119315E+01 -0.81800818277E+03  0.84839690175E+03  0.17200000000E+03 0.  1.
</event>
<event>
 4    1  0.3115421E-002  0.3498740E+03  0.7818608E-02  0.1062667E+00
         -1   -1    0    0    0  501 -0.00000000000E+00  0.00000000000E+00  0.63497764893E+03  0.63497764893E+03  0.00000000000E+00 0.  1.
          1   -1    0    0  502    0  0.00000000000E+00 -0.00000000000E+00 -0.23860015697E+03  0.23860015697E+03  0.00000000000E+00 0. -1.
          6    1    1    2  502    0 -0.46431078593E+02  0.30111792624E+03  0.67816184585E+01  0.34993976755E+03  0.17200000000E+03 0. -1.
         -6    1    1    2    0  501  0.46431078593E+02 -0.30111792624E+03  0.38959587350E+03  0.52363803835E+03  0.17200000000E+03 0.  1.
</event>
<event>
 4    1  0.3115421E-002  0.3121738E+03  0.7818608E-02  0.1079309E+00
         -2   -1    0    0    0  501 -0.00000000000E+00  0.00000000000E+00  0.65434578304E+02  0.65434578304E+02  0.00000000000E+00 0.  1.
          2   -1    0    0  502    0  0.00000000000E+00 -0.00000000000E+00 -0.15239018867E+04  0.15239018867E+04  0.00000000000E+00 0. -1.
          6    1    1    2  502    0  0.24476915548E+03  0.89199460044E+02 -0.60950894452E+03  0.68480189587E+03  0.17200000000E+03 0. -1.
         -6    1    1    2    0  501 -0.24476915548E+03 -0.89199460044E+02 -0.84895836383E+03  0.90453456908E+03  0.17200000000E+03 0.  1.
</event>
<event>
 4    1  0.3115421E-002  0.1985646E+03  0.7818608E-02  0.1150956E+00
         -1   -1    0    0    0  501 -0.00000000000E+00  0.00000000000E+00  0.72620968214E+03  0.72620968214E+03  0.00000000000E+00 0.  1.
          1   -1    0    0  502    0  0.00000000000E+00 -0.00000000000E+00 -0.37290573941E+03  0.37290573941E+03  0.00000000000E+00 0. -1.
          6    1    1    2  502    0  0.50281292609E+01  0.99088878648E+02 -0.33132677436E+03  0.38627104391E+03  0.17200000000E+03 0. -1.
         -6    1    1    2    0  501 -0.50281292609E+01 -0.99088878648E+02  0.68463071708E+03  0.71284437764E+03  0.17200000000E+03 0.  1.
</event>
<event>
 4    1  0.3115421E-002  0.2044305E+03  0.7818608E-02  0.1146054E+00
         -2   -1    0    0    0  501 -0.00000000000E+00  0.00000000000E+00  0.23774516758E+03  0.23774516758E+03  0.00000000000E+00 0.  1.
          2   -1    0    0  502    0  0.00000000000E+00 -0.00000000000E+00 -0.49242322998E+03  0.49242322998E+03  0.00000000000E+00 0. -1.
          6    1    1    2  502    0 -0.10363373893E+03  0.38313124043E+02 -0.42009515228E+03  0.46719565954E+03  0.17200000000E+03 0. -1.
         -6    1    1    2    0  501  0.10363373893E+03 -0.38313124043E+02  0.16541708988E+03  0.26297273802E+03  0.17200000000E+03 0.  1.
</event>
<event>
 4    1  0.3115421E-002  0.1861444E+03  0.7818608E-02  0.1161986E+00
          2   -1    0    0  502    0  0.00000000000E+00  0.00000000000E+00  0.30295678861E+02  0.30295678861E+02  0.00000000000E+00 0. -1.
         -2   -1    0    0    0  501 -0.00000000000E+00 -0.00000000000E+00 -0.12176268415E+04  0.12176268415E+04  0.00000000000E+00 0.  1.
          6    1    1    2  502    0  0.34364685978E+02  0.62328173294E+02 -0.74739140101E+03  0.77022310997E+03  0.17200000000E+03 0.  1.
         -6    1    1    2    0  501 -0.34364685978E+02 -0.62328173294E+02 -0.43993976166E+03  0.47769941042E+03  0.17200000000E+03 0. -1.
</event>
<event>
 4    1  0.3115421E-002  0.2434844E+03  0.7818608E-02  0.1117493E+00
         -2   -1    0    0    0  501 -0.00000000000E+00  0.00000000000E+00  0.60568857361E+02  0.60568857361E+02  0.00000000000E+00 0.  1.
          2   -1    0    0  502    0  0.00000000000E+00 -0.00000000000E+00 -0.10575246274E+04  0.10575246274E+04  0.00000000000E+00 0. -1.
          6    1    1    2  502    0  0.76331150801E+02 -0.15451286257E+03 -0.34594480988E+03  0.42303957352E+03  0.17200000000E+03 0. -1.
         -6    1    1    2    0  501 -0.76331150801E+02  0.15451286257E+03 -0.65101096018E+03  0.69505391126E+03  0.17200000000E+03 0.  1.
</event>
<event>
 4    1  0.3115421E-002  0.3051623E+03  0.7818608E-02  0.1082688E+00
          2   -1    0    0  502    0  0.00000000000E+00  0.00000000000E+00  0.15484099655E+04  0.15484099655E+04  0.00000000000E+00 0. -1.
         -2   -1    0    0    0  501 -0.00000000000E+00 -0.00000000000E+00 -0.64197672021E+02  0.64197672021E+02  0.00000000000E+00 0.  1.
          6    1    1    2  502    0  0.18684279626E+02  0.25137809631E+03  0.53943818478E+03  0.61977222010E+03  0.17200000000E+03 0.  1.
         -6    1    1    2    0  501 -0.18684279626E+02 -0.25137809631E+03  0.94477410866E+03  0.99283541738E+03  0.17200000000E+03 0. -1.
</event>
<event>
 4    1  0.3115421E-002  0.1799098E+03  0.7818608E-02  0.1167890E+00
         -2   -1    0    0    0  501 -0.00000000000E+00  0.00000000000E+00  0.10617928438E+03  0.10617928438E+03  0.00000000000E+00 0.  1.
          2   -1    0    0  502    0  0.00000000000E+00 -0.00000000000E+00 -0.32417470534E+03  0.32417470534E+03  0.00000000000E+00 0. -1.
          6    1    1    2  502    0 -0.39844652224E+02  0.34582350191E+02 -0.16155001245E+03  0.24179731549E+03  0.17200000000E+03 0.  1.
         -6    1    1    2    0  501  0.39844652224E+02 -0.34582350191E+02 -0.56445408512E+02  0.18855667423E+03  0.17200000000E+03 0.  1.
</event>
<event>
 4    1  0.3115421E-002  0.2327302E+03  0.7818608E-02  0.1124733E+00
          1   -1    0    0  502    0  0.00000000000E+00  0.00000000000E+00  0.18008910502E+03  0.18008910502E+03  0.00000000000E+00 0. -1.
         -1   -1    0    0    0  501 -0.00000000000E+00 -0.00000000000E+00 -0.30654909116E+03  0.30654909116E+03  0.00000000000E+00 0.  1.
          6    1    1    2  502    0  0.15596041842E+03  0.15990299416E+02 -0.29788551632E+02  0.23462885500E+03  0.17200000000E+03 0.  1.
         -6    1    1    2    0  501 -0.15596041842E+03 -0.15990299416E+02 -0.96671434506E+02  0.25200934118E+03  0.17200000000E+03 0.  1.
</event>
<event>
 4    1  0.3115421E-002  0.2074037E+03  0.7818608E-02  0.1143639E+00
          2   -1    0    0  502    0  0.00000000000E+00  0.00000000000E+00  0.32903968784E+03  0.32903968784E+03  0.00000000000E+00 0. -1.
         -2   -1    0    0    0  501 -0.00000000000E+00 -0.00000000000E+00 -0.13209790532E+03  0.13209790532E+03  0.00000000000E+00 0.  1.
          6    1    1    2  502    0 -0.22019007037E+02  0.11378692133E+03  0.12190917284E+03  0.24057877412E+03  0.17200000000E+03 0. -1.
         -6    1    1    2    0  501  0.22019007037E+02 -0.11378692133E+03  0.75032609681E+02  0.22055881903E+03  0.17200000000E+03 0.  1.
</event>
<event>
 4    1  0.3115421E-002  0.2165249E+03  0.7818608E-02  0.1136501E+00
         -1   -1    0    0    0  501 -0.00000000000E+00  0.00000000000E+00  0.62825335931E+02  0.62825335931E+02  0.00000000000E+00 0.  1.
          1   -1    0    0  502    0  0.00000000000E+00 -0.00000000000E+00 -0.12051244943E+04  0.12051244943E+04  0.00000000000E+00 0. -1.
          6    1    1    2  502    0  0.13147469936E+03 -0.36648308711E+01 -0.96235596417E+03  0.98641372118E+03  0.17200000000E+03 0. -1.
         -6    1    1    2    0  501 -0.13147469936E+03  0.36648308711E+01 -0.17994319418E+03  0.28153610903E+03  0.17200000000E+03 0.  1.
</event>
<event>
 4    1  0.3115421E-002  0.1745365E+03  0.7818608E-02  0.1173198E+00
         -2   -1    0    0    0  501 -0.00000000000E+00  0.00000000000E+00  0.33865129617E+03  0.33865129617E+03  0.00000000000E+00 0.  1.
          2   -1    0    0  502    0  0.00000000000E+00 -0.00000000000E+00 -0.13974802647E+03  0.13974802647E+03  0.00000000000E+00 0. -1.
          6    1    1    2  502    0 -0.26408403209E+02 -0.13475374846E+02 -0.43331520536E+02  0.17983495255E+03  0.17200000000E+03 0. -1.
         -6    1    1    2    0  501  0.26408403209E+02  0.13475374846E+02  0.24223479024E+03  0.29856437009E+03  0.17200000000E+03 0.  1.
</event>
<event>
 4    1  0.3115421E-002  0.4753300E+03  0.7818608E-02  0.1020427E+00
         -2   -1    0    0    0  501 -0.00000000000E+00  0.00000000000E+00  0.93480454844E+02  0.93480454844E+02  0.00000000000E+00 0.  1.
          2   -1    0    0  502    0  0.00000000000E+00 -0.00000000000E+00 -0.26224120457E+04  0.26224120457E+04  0.00000000000E+00 0. -1.
          6    1    1    2  502    0  0.42967513369E+03  0.10832293890E+03 -0.16445560000E+04  0.17118712033E+04  0.17200000000E+03 0. -1.
         -6    1    1    2    0  501 -0.42967513369E+03 -0.10832293890E+03 -0.88437559093E+03  0.10040212973E+04  0.17200000000E+03 0.  1.
</event>
<event>
 4    1  0.3115421E-002  0.2428827E+03  0.7818608E-02  0.1117887E+00
         -1   -1    0    0    0  501 -0.00000000000E+00  0.00000000000E+00  0.19819292796E+03  0.19819292796E+03  0.00000000000E+00 0.  1.
          1   -1    0    0  502    0  0.00000000000E+00 -0.00000000000E+00 -0.30166237671E+03  0.30166237671E+03  0.00000000000E+00 0. -1.
          6    1    1    2  502    0 -0.16425065957E+03  0.49292086715E+02 -0.80561211893E+02  0.25589470069E+03  0.17200000000E+03 0. -1.
         -6    1    1    2    0  501  0.16425065957E+03 -0.49292086715E+02 -0.22908236858E+02  0.24396060399E+03  0.17200000000E+03 0.  1.
</event>
<event>
 4    1  0.3115421E-002  0.1823317E+03  0.7818608E-02  0.1165565E+00
          1   -1    0    0  502    0  0.00000000000E+00  0.00000000000E+00  0.23005427488E+04  0.23005427488E+04  0.00000000000E+00 0. -1.
         -1   -1    0    0    0  501 -0.00000000000E+00 -0.00000000000E+00 -0.14701403511E+02  0.14701403511E+02  0.00000000000E+00 0.  1.
          6    1    1    2  502    0  0.38440120921E+02 -0.46724785690E+02  0.12940395413E+04  0.13068217869E+04  0.17200000000E+03 0. -1.
         -6    1    1    2    0  501 -0.38440120921E+02  0.46724785690E+02  0.99180180405E+03  0.10084223654E+04  0.17200000000E+03 0. -1.
</event>
<event>
 4    1  0.3115421E-002  0.2204399E+03  0.7818608E-02  0.1133556E+00
         -2   -1    0    0    0  501 -0.00000000000E+00  0.00000000000E+00  0.46382207057E+02  0.46382207057E+02  0.00000000000E+00 0.  1.
          2   -1    0    0  502    0  0.00000000000E+00 -0.00000000000E+00 -0.11055769859E+04  0.11055769859E+04  0.00000000000E+00 0. -1.
          6    1    1    2  502    0 -0.10652386958E+03  0.87535248368E+02 -0.66140395357E+03  0.69717210522E+03  0.17200000000E+03 0. -1.
         -6    1    1    2    0  501  0.10652386958E+03 -0.87535248368E+02 -0.39779082525E+03  0.45478708771E+03  0.17200000000E+03 0.  1.
</event>
<event>
 4    1  0.3115421E-002  0.1992259E+03  0.7818608E-02  0.1150394E+00
          3   -1    0    0  502    0  0.00000000000E+00  0.00000000000E+00  0.40639664139E+03  0.40639664139E+03  0.00000000000E+00 0. -1.
         -3   -1    0    0    0  501 -0.00000000000E+00 -0.00000000000E+00 -0.39825138056E+03  0.39825138056E+03  0.00000000000E+00 0.  1.
          6    1    1    2  502    0 -0.67280941870E+02 -0.74700874235E+02  0.35360030671E+03  0.40586219664E+03  0.17200000000E+03 0. -1.
         -6    1    1    2    0  501  0.67280941870E+02  0.74700874235E+02 -0.34545504588E+03  0.39878582532E+03  0.17200000000E+03 0.  1.
</event>
<event>
 4    1  0.3115421E-002  0.2191494E+03  0.7818608E-02  0.1134519E+00
          1   -1    0    0  502    0  0.00000000000E+00  0.00000000000E+00  0.14787936004E+03  0.14787936004E+03  0.00000000000E+00 0. -1.
         -1   -1    0    0    0  501 -0.00000000000E+00 -0.00000000000E+00 -0.43585513831E+03  0.43585513831E+03  0.00000000000E+00 0.  1.
          6    1    1    2  502    0 -0.41548161467E+02 -0.12929125236E+03  0.33607920926E+01  0.21917520978E+03  0.17200000000E+03 0. -1.
         -6    1    1    2    0  501  0.41548161467E+02  0.12929125236E+03 -0.29133657036E+03  0.36455928858E+03  0.17200000000E+03 0.  1.
</event>
<event>
 4    1  0.3115421E-002  0.1874388E+03  0.7818608E-02  0.1160792E+00
         -2   -1    0    0    0  501 -0.00000000000E+00  0.00000000000E+00  0.35313799971E+03  0.35313799971E+03  0.00000000000E+00 0.  1.
          2   -1    0    0  502    0  0.00000000000E+00 -0.00000000000E+00 -0.13079989105E+03  0.13079989105E+03  0.00000000000E+00 0. -1.
          6    1    1    2  502    0 -0.67226965637E+02  0.32091241090E+02 -0.72180280511E+01  0.18757775079E+03  0.17200000000E+03 0. -1.
         -6    1    1    2    0  501  0.67226965637E+02 -0.32091241090E+02  0.22955613671E+03  0.29636013997E+03  0.17200000000E+03 0.  1.
</event>
<event>
 4    1  0.3115421E-002  0.3261005E+03  0.7818608E-02  0.1072875E+00
         -2   -1    0    0    0  501 -0.00000000000E+00  0.00000000000E+00  0.11250682822E+03  0.11250682822E+03  0.00000000000E+00 0.  1.
          2   -1    0    0  502    0  0.00000000000E+00 -0.00000000000E+00 -0.10676846298E+04  0.10676846298E+04  0.00000000000E+00 0. -1.
          6    1    1    2  502    0  0.88770488045E+02 -0.26244495329E+03 -0.67745549526E+03  0.75185603749E+03  0.17200000000E+03 0. -1.
         -6    1    1    2    0  501 -0.88770488045E+02  0.26244495329E+03 -0.27772230634E+03  0.42833542054E+03  0.17200000000E+03 0.  1.
</event>
<event>
 4    1  0.3115421E-002  0.4016483E+03  0.7818608E-02  0.1043210E+00
          2   -1    0    0  502    0  0.00000000000E+00  0.00000000000E+00  0.52164544838E+03  0.52164544838E+03  0.00000000000E+00 0. -1.
         -2   -1    0    0    0  501 -0.00000000000E+00 -0.00000000000E+00 -0.30948709740E+03  0.30948709740E+03  0.00000000000E+00 0.  1.
          6    1    1    2  502    0  0.35021768375E+03 -0.95314714285E+02  0.94692174866E+02  0.41265957974E+03  0.17200000000E+03 0. -1.
         -6    1    1    2    0  501 -0.35021768375E+03  0.95314714285E+02  0.11746617611E+03  0.41847296603E+03  0.17200000000E+03 0.  1.
</event>
<event>
 4    1  0.3115421E-002  0.5728306E+03  0.7818608E-02  0.9963434E-01
         -1   -1    0    0    0  501 -0.00000000000E+00  0.00000000000E+00  0.13723590590E+03  0.13723590590E+03  0.00000000000E+00 0.  1.
          1   -1    0    0  502    0  0.00000000000E+00 -0.00000000000E+00 -0.26167711120E+04  0.26167711120E+04  0.00000000000E+00 0. -1.
          6    1    1    2  502    0  0.42944449062E+03 -0.33782888848E+03 -0.16442123401E+04  0.17411401861E+04  0.17200000000E+03 0.  1.
         -6    1    1    2    0  501 -0.42944449062E+03  0.33782888848E+03 -0.83532286600E+03  0.10128668318E+04  0.17200000000E+03 0. -1.
</event>
<event>
 4    1  0.3115421E-002  0.1855217E+03  0.7818608E-02  0.1162564E+00
         -2   -1    0    0    0  501 -0.00000000000E+00  0.00000000000E+00  0.32353759983E+02  0.32353759983E+02  0.00000000000E+00 0.  1.
          2   -1    0    0  502    0  0.00000000000E+00 -0.00000000000E+00 -0.14978276134E+04  0.14978276134E+04  0.00000000000E+00 0. -1.
          6    1    1    2  502    0 -0.81812768765E+01  0.69046219588E+02 -0.11445828235E+04  0.11595206568E+04  0.17200000000E+03 0. -1.
         -6    1    1    2    0  501  0.81812768765E+01 -0.69046219588E+02 -0.32089102998E+03  0.37066071663E+03  0.17200000000E+03 0.  1.
</event>
<event>
 4    1  0.3115421E-002  0.6210086E+03  0.7818608E-02  0.9862754E-01
          2   -1    0    0  502    0  0.00000000000E+00  0.00000000000E+00  0.23700790863E+04  0.23700790863E+04  0.00000000000E+00 0. -1.
         -2   -1    0    0    0  501 -0.00000000000E+00 -0.00000000000E+00 -0.17691014774E+03  0.17691014774E+03  0.00000000000E+00 0.  1.
          6    1    1    2  502    0 -0.58916504041E+03  0.94616193080E+02  0.73587024806E+03  0.96288976047E+03  0.17200000000E+03 0. -1.
         -6    1    1    2    0  501  0.58916504041E+03 -0.94616193080E+02  0.14572986905E+04  0.15840994736E+04  0.17200000000E+03 0.  1.
</event>
<event>
 4    1  0.3115421E-002  0.2056389E+03  0.7818608E-02  0.1145067E+00
          2   -1    0    0  502    0  0.00000000000E+00  0.00000000000E+00  0.12869334886E+04  0.12869334886E+04  0.00000000000E+00 0. -1.
         -2   -1    0    0    0  501 -0.00000000000E+00 -0.00000000000E+00 -0.57184672292E+02  0.57184672292E+02  0.00000000000E+00 0.  1.
          6    1    1    2  502    0  0.95057893128E+02 -0.60558631861E+02  0.10532032390E+04  0.10730910556E+04  0.17200000000E+03 0. -1.
         -6    1    1    2    0  501 -0.95057893128E+02  0.60558631861E+02  0.17654557729E+03  0.27102710528E+03  0.17200000000E+03 0.  1.
</event>
<event>
 4    1  0.3115421E-002  0.4398037E+03  0.7818608E-02  0.1030807E+00
          3   -1    0    0  502    0  0.00000000000E+00  0.00000000000E+00  0.61904467209E+03  0.61904467209E+03  0.00000000000E+00 0. -1.
         -3   -1    0    0    0  501 -0.00000000000E+00 -0.00000000000E+00 -0.37960796930E+03  0.37960796930E+03  0.00000000000E+00 0.  1.
          6    1    1    2  502    0 -0.18971008226E+03  0.35756586767E+03  0.32972366303E+03  0.54967714069E+03  0.17200000000E+03 0. -1.
         -6    1    1    2    0  501  0.18971008226E+03 -0.35756586767E+03 -0.90286960230E+02  0.44897550070E+03  0.17200000000E+03 0.  1.
</event>
<event>
 4    1  0.3115421E-002  0.1856493E+03  0.7818608E-02  0.1162445E+00
         -1   -1    0    0    0  501 -0.00000000000E+00  0.00000000000E+00  0.11641546817E+04  0.11641546817E+04  0.00000000000E+00 0.  1.
          1   -1    0    0  502    0  0.00000000000E+00 -0.00000000000E+00 -0.32453446535E+02  0.32453446535E+02  0.00000000000E+00 0. -1.
          6    1    1    2  502    0  0.82516528284E+01 -0.69379835255E+02  0.38861958036E+03  0.43068646316E+03  0.17200000000E+03 0. -1.
         -6    1    1    2    0  501 -0.82516528284E+01  0.69379835255E+02  0.74308165478E+03  0.76592166505E+03  0.17200000000E+03 0.  1.
</event>
<event>
 4    1  0.3115421E-002  0.2099995E+03  0.7818608E-02  0.1141566E+00
          2   -1    0    0  502    0  0.00000000000E+00  0.00000000000E+00  0.16224521226E+04  0.16224521226E+04  0.00000000000E+00 0. -1.
         -2   -1    0    0    0  501 -0.00000000000E+00 -0.00000000000E+00 -0.27210858754E+02  0.27210858754E+02  0.00000000000E+00 0.  1.
          6    1    1    2  502    0  0.10280644660E+03  0.62822209215E+02  0.82496507272E+03  0.85127384938E+03  0.17200000000E+03 0. -1.
         -6    1    1    2    0  501 -0.10280644660E+03 -0.62822209215E+02  0.77027619109E+03  0.79838913193E+03  0.17200000000E+03 0. -1.
</event>
<event>
 4    1  0.3115421E-002  0.1751588E+03  0.7818608E-02  0.1172572E+00
          1   -1    0    0  502    0  0.00000000000E+00  0.00000000000E+00  0.38082905044E+03  0.38082905044E+03  0.00000000000E+00 0. -1.
         -1   -1    0    0    0  501 -0.00000000000E+00 -0.00000000000E+00 -0.80611057707E+02  0.80611057707E+02  0.00000000000E+00 0.  1.
          6    1    1    2  502    0 -0.24420376346E+02 -0.22366389687E+02  0.14445707614E+03  0.22704285282E+03  0.17200000000E+03 0.  1.
         -6    1    1    2    0  501  0.24420376346E+02  0.22366389687E+02  0.15576091659E+03  0.23439725533E+03  0.17200000000E+03 0.  1.
</event>
<event>
 4    1  0.3115421E-002  0.2121698E+03  0.7818608E-02  0.1139859E+00
         -1   -1    0    0    0  501 -0.00000000000E+00  0.00000000000E+00  0.62237969075E+02  0.62237969075E+02  0.00000000000E+00 0.  1.
          1   -1    0    0  502    0  0.00000000000E+00 -0.00000000000E+00 -0.73461575075E+03  0.73461575075E+03  0.00000000000E+00 0. -1.
          6    1    1    2  502    0 -0.33776600212E+02 -0.11954565680E+03 -0.38566277164E+03  0.44017246190E+03  0.17200000000E+03 0.  1.
         -6    1    1    2    0  501  0.33776600212E+02  0.11954565680E+03 -0.28671501003E+03  0.35668125793E+03  0.17200000000E+03 0. -1.
</event>
<event>
 4    1  0.3115421E-002  0.2083581E+03  0.7818608E-02  0.1142873E+00
          1   -1    0    0  502    0  0.00000000000E+00  0.00000000000E+00  0.99790858718E+03  0.99790858718E+03  0.00000000000E+00 0. -1.
         -1   -1    0    0    0  501 -0.00000000000E+00 -0.00000000000E+00 -0.53143574895E+02  0.53143574895E+02  0.00000000000E+00 0.  1.
          6    1    1    2  502    0 -0.57573886265E+02  0.10253942379E+03  0.69620113869E+03  0.72671116087E+03  0.17200000000E+03 0. -1.
         -6    1    1    2    0  501  0.57573886265E+02 -0.10253942379E+03  0.24856387359E+03  0.32434100121E+03  0.17200000000E+03 0.  1.
</event>
<event>
 4    1  0.3115421E-002  0.1923438E+03  0.7818608E-02  0.1156364E+00
          2   -1    0    0  502    0  0.00000000000E+00  0.00000000000E+00  0.98939643109E+03  0.98939643109E+03  0.00000000000E+00 0. -1.
         -2   -1    0    0    0  501 -0.00000000000E+00 -0.00000000000E+00 -0.46356699277E+02  0.46356699277E+02  0.00000000000E+00 0.  1.
          6    1    1    2  502    0 -0.81679136913E+02  0.27215329717E+02  0.69925083611E+03  0.72522264676E+03  0.17200000000E+03 0. -1.
         -6    1    1    2    0  501  0.81679136913E+02 -0.27215329717E+02  0.24378889570E+03  0.31053048360E+03  0.17200000000E+03 0.  1.
</event>
<event>
 4    1  0.3115421E-002  0.3182427E+03  0.7818608E-02  0.1076461E+00
         -2   -1    0    0    0  501 -0.00000000000E+00  0.00000000000E+00  0.13372761862E+03  0.13372761862E+03  0.00000000000E+00 0.  1.
          2   -1    0    0  502    0  0.00000000000E+00 -0.00000000000E+00 -0.76226920778E+03  0.76226920778E+03  0.00000000000E+00 0. -1.
          6    1    1    2  502    0  0.10632644263E+03 -0.24574189172E+03 -0.35026588022E+03  0.47324895837E+03  0.17200000000E+03 0.  1.
         -6    1    1    2    0  501 -0.10632644263E+03  0.24574189172E+03 -0.27827570894E+03  0.42274786804E+03  0.17200000000E+03 0.  1.
</event>
<event>
 4    1  0.3115421E-002  0.3664745E+03  0.7818608E-02  0.1056049E+00
         -2   -1    0    0    0  501 -0.00000000000E+00  0.00000000000E+00  0.13120673232E+03  0.13120673232E+03  0.00000000000E+00 0.  1.
          2   -1    0    0  502    0  0.00000000000E+00 -0.00000000000E+00 -0.27391502047E+04  0.27391502047E+04  0.00000000000E+00 0. -1.
          6    1    1    2  502    0  0.29226577674E+03  0.13892529756E+03 -0.24397652960E+04  0.24671356311E+04  0.17200000000E+03 0. -1.
         -6    1    1    2    0  501 -0.29226577674E+03 -0.13892529756E+03 -0.16817817637E+03  0.40322130594E+03  0.17200000000E+03 0.  1.
</event>
<event>
 4    1  0.3115421E-002  0.2394818E+03  0.7818608E-02  0.1120139E+00
         -1   -1    0    0    0  501 -0.00000000000E+00  0.00000000000E+00  0.68342640291E+02  0.68342640291E+02  0.00000000000E+00 0.  1.
          1   -1    0    0  502    0  0.00000000000E+00 -0.00000000000E+00 -0.10647146286E+04  0.10647146286E+04  0.00000000000E+00 0. -1.
          6    1    1    2  502    0  0.38079915342E+02 -0.16222653137E+03 -0.75893063183E+03  0.79581859199E+03  0.17200000000E+03 0. -1.
         -6    1    1    2    0  501 -0.38079915342E+02  0.16222653137E+03 -0.23744135649E+03  0.33723867691E+03  0.17200000000E+03 0.  1.
</event>
<event>
 4    1  0.3115421E-002  0.3156654E+03  0.7818608E-02  0.1077662E+00
          2   -1    0    0  502    0  0.00000000000E+00  0.00000000000E+00  0.20425658673E+04  0.20425658673E+04  0.00000000000E+00 0. -1.
         -2   -1    0    0    0  501 -0.00000000000E+00 -0.00000000000E+00 -0.11713946285E+03  0.11713946285E+03  0.00000000000E+00 0.  1.
          6    1    1    2  502    0  0.20371162336E+03  0.16900351515E+03  0.17876095477E+04  0.18152665117E+04  0.17200000000E+03 0. -1.
         -6    1    1    2    0  501 -0.20371162336E+03 -0.16900351515E+03  0.13781685675E+03  0.34443881841E+03  0.17200000000E+03 0.  1.
</event>
<event>
 4    1  0.3115421E-002  0.3204108E+03  0.7818608E-02  0.1075460E+00
         -1   -1    0    0    0  501 -0.00000000000E+00  0.00000000000E+00  0.54292676411E+02  0.54292676411E+02  0.00000000000E+00 0.  1.
          1   -1    0    0  502    0  0.00000000000E+00 -0.00000000000E+00 -0.22838704323E+04  0.22838704323E+04  0.00000000000E+00 0. -1.
          6    1    1    2  502    0 -0.20200111285E+03 -0.17965144735E+03 -0.15997178380E+04  0.16314901940E+04  0.17200000000E+03 0. -1.
         -6    1    1    2    0  501  0.20200111285E+03  0.17965144735E+03 -0.62985991790E+03  0.70667291465E+03  0.17200000000E+03 0.  1.
</event>
<event>
 4    1  0.3115421E-002  0.1941459E+03  0.7818608E-02  0.1154774E+00
          1   -1    0    0  502    0  0.00000000000E+00  0.00000000000E+00  0.62062822849E+03  0.62062822849E+03  0.00000000000E+00 0. -1.
         -1   -1    0    0    0  501 -0.00000000000E+00 -0.00000000000E+00 -0.64211469926E+02  0.64211469926E+02  0.00000000000E+00 0.  1.
          6    1    1    2  502    0 -0.47877185749E+02 -0.76265303279E+02  0.35790612331E+03  0.40717246285E+03  0.17200000000E+03 0. -1.
         -6    1    1    2    0  501  0.47877185749E+02  0.76265303279E+02  0.19851063526E+03  0.27766723557E+03  0.17200000000E+03 0.  1.
</event>
<event>
 4    1  0.3115421E-002  0.2225882E+03  0.7818608E-02  0.1131968E+00
         -1   -1    0    0    0  501 -0.00000000000E+00  0.00000000000E+00  0.27980251967E+02  0.27980251967E+02  0.00000000000E+00 0.  1.
          1   -1    0    0  502    0  0.00000000000E+00 -0.00000000000E+00 -0.25161667819E+04  0.25161667819E+04  0.00000000000E+00 0. -1.
          6    1    1    2  502    0  0.98603327127E+02 -0.10118739401E+03 -0.19364781233E+04  0.19492288287E+04  0.17200000000E+03 0. -1.
         -6    1    1    2    0  501 -0.98603327127E+02  0.10118739401E+03 -0.55170840665E+03  0.59491820513E+03  0.17200000000E+03 0.  1.
</event>
<event>
 4    1  0.3115421E-002  0.5450046E+03  0.7818608E-02  0.1002657E+00
          2   -1    0    0  502    0  0.00000000000E+00  0.00000000000E+00  0.54519082880E+04  0.54519082880E+04  0.00000000000E+00 0. -1.
         -2   -1    0    0    0  501 -0.00000000000E+00 -0.00000000000E+00 -0.54761336490E+02  0.54761336490E+02  0.00000000000E+00 0.  1.
          6    1    1    2  502    0 -0.33589203197E+03  0.39322071557E+03  0.28952765498E+04  0.29461256402E+04  0.17200000000E+03 0. -1.
         -6    1    1    2    0  501  0.33589203197E+03 -0.39322071557E+03  0.25018704017E+04  0.25605439843E+04  0.17200000000E+03 0.  1.
</event>
<event>
 4    1  0.3115421E-002  0.2090502E+03  0.7818608E-02  0.1142320E+00
          2   -1    0    0  502    0  0.00000000000E+00  0.00000000000E+00  0.18347412001E+04  0.18347412001E+04  0.00000000000E+00 0. -1.
         -2   -1    0    0    0  501 -0.00000000000E+00 -0.00000000000E+00 -0.24232268324E+02  0.24232268324E+02  0.00000000000E+00 0.  1.
          6    1    1    2  502    0  0.64742588280E+02 -0.99631309945E+02  0.10266146664E+04  0.10476830026E+04  0.17200000000E+03 0. -1.
         -6    1    1    2    0  501 -0.64742588280E+02  0.99631309945E+02  0.78389426543E+03  0.81129046588E+03  0.17200000000E+03 0. -1.
</event>
<event>
 4    1  0.3115421E-002  0.1936565E+03  0.7818608E-02  0.1155204E+00
         -2   -1    0    0    0  501 -0.00000000000E+00  0.00000000000E+00  0.55983471848E+02  0.55983471848E+02  0.00000000000E+00 0.  1.
          2   -1    0    0  502    0  0.00000000000E+00 -0.00000000000E+00 -0.12284651957E+04  0.12284651957E+04  0.00000000000E+00 0. -1.
          6    1    1    2  502    0 -0.26202146686E+01  0.88949311687E+02 -0.10192984100E+04  0.10375317317E+04  0.17200000000E+03 0. -1.
         -6    1    1    2    0  501  0.26202146686E+01 -0.88949311687E+02 -0.15318331379E+03  0.24691693583E+03  0.17200000000E+03 0.  1.
</event>
<event>
 4    1  0.3115421E-002  0.1998524E+03  0.7818608E-02  0.1149864E+00
          1   -1    0    0  502    0  0.00000000000E+00  0.00000000000E+00  0.13086723832E+03  0.13086723832E+03  0.00000000000E+00 0. -1.
         -1   -1    0    0    0  501 -0.00000000000E+00 -0.00000000000E+00 -0.17445788427E+04  0.17445788427E+04  0.00000000000E+00 0.  1.
          6    1    1    2  502    0  0.10170966074E+03  0.34826019661E+01  0.44902734812E+02  0.20483466308E+03  0.17200000000E+03 0. -1.
         -6    1    1    2    0  501 -0.10170966074E+03 -0.34826019661E+01 -0.16586143392E+04  0.16706114179E+04  0.17200000000E+03 0.  1.
</event>
<event>
 4    1  0.3115421E-002  0.4894798E+03  0.7818608E-02  0.1016562E+00
          2   -1    0    0  502    0  0.00000000000E+00  0.00000000000E+00  0.23213029536E+04  0.23213029536E+04  0.00000000000E+00 0. -1.
         -2   -1    0    0    0  501 -0.00000000000E+00 -0.00000000000E+00 -0.11113020449E+03  0.11113020449E+03  0.00000000000E+00 0.  1.
          6    1    1    2  502    0  0.65926588691E+02  0.45349766686E+03  0.78047820932E+03  0.92126906176E+03  0.17200000000E+03 0. -1.
         -6    1    1    2    0  501 -0.65926588691E+02 -0.45349766686E+03  0.14296945398E+04  0.15111640964E+04  0.17200000000E+03 0.  1.
</event>
<event>
 4    1  0.3115421E-002  0.2249391E+03  0.7818608E-02  0.1130253E+00
         -2   -1    0    0    0  501 -0.00000000000E+00  0.00000000000E+00  0.12292127722E+03  0.12292127722E+03  0.00000000000E+00 0.  1.
          2   -1    0    0  502    0  0.00000000000E+00 -0.00000000000E+00 -0.41684358230E+03  0.41684358230E+03  0.00000000000E+00 0. -1.
          6    1    1    2  502    0 -0.73394732022E+02  0.12500719683E+03 -0.17715547691E+03  0.28632437714E+03  0.17200000000E+03 0. -1.
         -6    1    1    2    0  501  0.73394732022E+02 -0.12500719683E+03 -0.11676682818E+03  0.25344048238E+03  0.17200000000E+03 0.  1.
</event>
<event>
 4    1  0.3115421E-002  0.1870965E+03  0.7818608E-02  0.1161106E+00
          1   -1    0    0  502    0  0.00000000000E+00  0.00000000000E+00  0.60143795921E+03  0.60143795921E+03  0.00000000000E+00 0. -1.
         -1   -1    0    0    0  501 -0.00000000000E+00 -0.00000000000E+00 -0.86985658636E+02  0.86985658636E+02  0.00000000000E+00 0.  1.
          6    1    1    2  502    0  0.20626140710E+01  0.73599290970E+02  0.45522934703E+03  0.49217767971E+03  0.17200000000E+03 0. -1.
         -6    1    1    2    0  501 -0.20626140710E+01 -0.73599290970E+02  0.59222953544E+02  0.19624593814E+03  0.17200000000E+03 0.  1.
</event>
<event>
 4    1  0.3115421E-002  0.2273361E+03  0.7818608E-02  0.1128529E+00
          2   -1    0    0  502    0  0.00000000000E+00  0.00000000000E+00  0.16230651950E+04  0.16230651950E+04  0.00000000000E+00 0. -1.
         -2   -1    0    0    0  501 -0.00000000000E+00 -0.00000000000E+00 -0.79296521905E+02  0.79296521905E+02  0.00000000000E+00 0.  1.
          6    1    1    2  502    0 -0.71194492688E+02 -0.13049537392E+03  0.14303504368E+04  0.14483038599E+04  0.17200000000E+03 0. -1.
         -6    1    1    2    0  501  0.71194492688E+02  0.13049537392E+03  0.11341823628E+03  0.25405785704E+03  0.17200000000E+03 0.  1.
</event>
<event>
 4    1  0.3115421E-002  0.1828616E+03  0.7818608E-02  0.1165062E+00
          1   -1    0    0  502    0  0.00000000000E+00  0.00000000000E+00  0.83417921912E+03  0.83417921912E+03  0.00000000000E+00 0. -1.
         -1   -1    0    0    0  501 -0.00000000000E+00 -0.00000000000E+00 -0.78967039984E+02  0.78967039984E+02  0.00000000000E+00 0.  1.
          6    1    1    2  502    0  0.58544993488E+02  0.20660745614E+02  0.69798201505E+03  0.72153813205E+03  0.17200000000E+03 0. -1.
         -6    1    1    2    0  501 -0.58544993488E+02 -0.20660745614E+02  0.57230164089E+02  0.19160812705E+03  0.17200000000E+03 0.  1.
</event>
<event>
 4    1  0.3115421E-002  0.1850434E+03  0.7818608E-02  0.1163009E+00
          2   -1    0    0  502    0  0.00000000000E+00  0.00000000000E+00  0.30281371591E+04  0.30281371591E+04  0.00000000000E+00 0. -1.
         -2   -1    0    0    0  501 -0.00000000000E+00 -0.00000000000E+00 -0.66409485481E+02  0.66409485481E+02  0.00000000000E+00 0.  1.
          6    1    1    2  502    0 -0.63310195097E+02  0.25472998567E+02  0.28902665127E+04  0.28961839667E+04  0.17200000000E+03 0. -1.
         -6    1    1    2    0  501  0.63310195097E+02 -0.25472998567E+02  0.71461160911E+02  0.19836267789E+03  0.17200000000E+03 0.  1.
</event>
<event>
 4    1  0.3115421E-002  0.2244762E+03  0.7818608E-02  0.1130589E+00
          2   -1    0    0  502    0  0.00000000000E+00  0.00000000000E+00  0.11201092567E+04  0.11201092567E+04  0.00000000000E+00 0. -1.
         -2   -1    0    0    0  501 -0.00000000000E+00 -0.00000000000E+00 -0.46633856117E+02  0.46633856117E+02  0.00000000000E+00 0.  1.
          6    1    1    2  502    0 -0.45447492876E+02 -0.13689444491E+03  0.42708595096E+03  0.48248520512E+03  0.17200000000E+03 0. -1.
         -6    1    1    2    0  501  0.45447492876E+02  0.13689444491E+03  0.64638944963E+03  0.68425790770E+03  0.17200000000E+03 0.  1.
</event>
<event>
 4    1  0.3115421E-002  0.2069771E+03  0.7818608E-02  0.1143982E+00
          2   -1    0    0  502    0  0.00000000000E+00  0.00000000000E+00  0.10463476724E+04  0.10463476724E+04  0.00000000000E+00 0. -1.
         -2   -1    0    0    0  501 -0.00000000000E+00 -0.00000000000E+00 -0.45122972341E+02  0.45122972341E+02  0.00000000000E+00 0.  1.
          6    1    1    2  502    0 -0.11464419596E+03  0.10594197072E+02  0.66673304296E+03  0.69812067671E+03  0.17200000000E+03 0. -1.
         -6    1    1    2    0  501  0.11464419596E+03 -0.10594197072E+02  0.33449165711E+03  0.39334996804E+03  0.17200000000E+03 0. -1.
</event>
<event>
 4    1  0.3115421E-002  0.1729940E+03  0.7818608E-02  0.1174761E+00
         -1   -1    0    0    0  501 -0.00000000000E+00  0.00000000000E+00  0.32533008928E+02  0.32533008928E+02  0.00000000000E+00 0.  1.
          1   -1    0    0  502    0  0.00000000000E+00 -0.00000000000E+00 -0.11615380462E+04  0.11615380462E+04  0.00000000000E+00 0. -1.
          6    1    1    2  502    0 -0.54592652413E+01  0.17694916908E+02 -0.29218745101E+03  0.33955915565E+03  0.17200000000E+03 0.  1.
         -6    1    1    2    0  501  0.54592652413E+01 -0.17694916908E+02 -0.83681758623E+03  0.85451189944E+03  0.17200000000E+03 0. -1.
</event>
<event>
 4    1  0.3115421E-002  0.1853241E+03  0.7818608E-02  0.1162748E+00
         -1   -1    0    0    0  501 -0.00000000000E+00  0.00000000000E+00  0.27849407966E+03  0.27849407966E+03  0.00000000000E+00 0.  1.
          1   -1    0    0  502    0  0.00000000000E+00 -0.00000000000E+00 -0.36219828248E+03  0.36219828248E+03  0.00000000000E+00 0. -1.
          6    1    1    2  502    0 -0.25177119895E+01  0.68954083090E+02 -0.30200642840E+03  0.35433442853E+03  0.17200000000E+03 0. -1.
         -6    1    1    2    0  501  0.25177119895E+01 -0.68954083090E+02  0.21830222558E+03  0.28635793361E+03  0.17200000000E+03 0.  1.
</event>
<event>
 4    1  0.3115421E-002  0.2332861E+03  0.7818608E-02  0.1124348E+00
          1   -1    0    0  502    0  0.00000000000E+00  0.00000000000E+00  0.87549410010E+03  0.87549410010E+03  0.00000000000E+00 0. -1.
         -1   -1    0    0    0  501 -0.00000000000E+00 -0.00000000000E+00 -0.63778479199E+02  0.63778479199E+02  0.00000000000E+00 0.  1.
          6    1    1    2  502    0  0.10141507839E+03  0.12063749431E+03  0.33108978115E+03  0.40502205661E+03  0.17200000000E+03 0. -1.
         -6    1    1    2    0  501 -0.10141507839E+03 -0.12063749431E+03  0.48062583975E+03  0.53425052269E+03  0.17200000000E+03 0.  1.
</event>
<event>
 4    1  0.3115421E-002  0.1969763E+03  0.7818608E-02  0.1152315E+00
         -2   -1    0    0    0  501 -0.00000000000E+00  0.00000000000E+00  0.10677613397E+03  0.10677613397E+03  0.00000000000E+00 0.  1.
          2   -1    0    0  502    0  0.00000000000E+00 -0.00000000000E+00 -0.38793809602E+03  0.38793809602E+03  0.00000000000E+00 0. -1.
          6    1    1    2  502    0 -0.70762991711E+02 -0.64871254601E+02 -0.20282430494E+03  0.28273199208E+03  0.17200000000E+03 0. -1.
         -6    1    1    2    0  501  0.70762991711E+02  0.64871254601E+02 -0.78337657103E+02  0.21198223791E+03  0.17200000000E+03 0.  1.
</event>
<event>
 4    1  0.3115421E-002  0.1827784E+03  0.7818608E-02  0.1165141E+00
          4   -1    0    0  502    0  0.00000000000E+00  0.00000000000E+00  0.38742368592E+02  0.38742368592E+02  0.00000000000E+00 0. -1.
         -4   -1    0    0    0  501 -0.00000000000E+00 -0.00000000000E+00 -0.92208059538E+03  0.92208059538E+03  0.00000000000E+00 0.  1.
          6    1    1    2  502    0  0.61734699257E+02 -0.35735528063E+01 -0.31935638645E+03  0.36796255916E+03  0.17200000000E+03 0. -1.
         -6    1    1    2    0  501 -0.61734699257E+02  0.35735528063E+01 -0.56398184033E+03  0.59286040481E+03  0.17200000000E+03 0.  1.
</event>
<event>
 4    1  0.3115421E-002  0.1811709E+03  0.7818608E-02  0.1166675E+00
          1   -1    0    0  502    0  0.00000000000E+00  0.00000000000E+00  0.16125571372E+04  0.16125571372E+04  0.00000000000E+00 0. -1.
         -1   -1    0    0    0  501 -0.00000000000E+00 -0.00000000000E+00 -0.20686096908E+02  0.20686096908E+02  0.00000000000E+00 0.  1.
          6    1    1    2  502    0 -0.54842885684E+02 -0.15203999839E+02  0.69255412944E+03  0.71585901260E+03  0.17200000000E+03 0.  1.
         -6    1    1    2    0  501  0.54842885684E+02  0.15203999839E+02  0.89931691082E+03  0.91738422147E+03  0.17200000000E+03 0.  1.
</event>
<event>
 4    1  0.3115421E-002  0.2499914E+03  0.7818608E-02  0.1113310E+00
          2   -1    0    0  502    0  0.00000000000E+00  0.00000000000E+00  0.19316024327E+04  0.19316024327E+04  0.00000000000E+00 0. -1.
         -2   -1    0    0    0  501 -0.00000000000E+00 -0.00000000000E+00 -0.56473584224E+02  0.56473584224E+02  0.00000000000E+00 0.  1.
          6    1    1    2  502    0 -0.17963435114E+03 -0.25361157691E+02  0.15871888080E+04  0.16067557377E+04  0.17200000000E+03 0. -1.
         -6    1    1    2    0  501  0.17963435114E+03  0.25361157691E+02  0.28794004048E+03  0.38132027922E+03  0.17200000000E+03 0.  1.
</event>
<event>
 4    1  0.3115421E-002  0.2360578E+03  0.7818608E-02  0.1122447E+00
          2   -1    0    0  502    0  0.00000000000E+00  0.00000000000E+00  0.41097420413E+02  0.41097420413E+02  0.00000000000E+00 0. -1.
         -2   -1    0    0    0  501 -0.00000000000E+00 -0.00000000000E+00 -0.13591135894E+04  0.13591135894E+04  0.00000000000E+00 0.  1.
          6    1    1    2  502    0  0.15290050815E+03 -0.52542417783E+02 -0.69314415262E+03  0.73223772599E+03  0.17200000000E+03 0. -1.
         -6    1    1    2    0  501 -0.15290050815E+03  0.52542417783E+02 -0.62487201639E+03  0.66797328384E+03  0.17200000000E+03 0. -1.
</event>
<event>
 4    1  0.3115421E-002  0.1862615E+03  0.7818608E-02  0.1161877E+00
         -2   -1    0    0    0  501 -0.00000000000E+00  0.00000000000E+00  0.13595171122E+03  0.13595171122E+03  0.00000000000E+00 0.  1.
          2   -1    0    0  502    0  0.00000000000E+00 -0.00000000000E+00 -0.27584598123E+03  0.27584598123E+03  0.00000000000E+00 0. -1.
          6    1    1    2  502    0 -0.43956166803E+02  0.56366787573E+02 -0.12629217646E+03  0.22504015903E+03  0.17200000000E+03 0. -1.
         -6    1    1    2    0  501  0.43956166803E+02 -0.56366787573E+02 -0.13602093560E+02  0.18675753342E+03  0.17200000000E+03 0.  1.
</event>
<event>
 4    1  0.3115421E-002  0.1746349E+03  0.7818608E-02  0.1173099E+00
         -4   -1    0    0    0  501 -0.00000000000E+00  0.00000000000E+00  0.19322313905E+03  0.19322313905E+03  0.00000000000E+00 0.  1.
          4   -1    0    0  502    0  0.00000000000E+00 -0.00000000000E+00 -0.16087131900E+03  0.16087131900E+03  0.00000000000E+00 0. -1.
          6    1    1    2  502    0  0.30205049956E+02  0.10008965095E+01 -0.81480136163E+01  0.17482487513E+03  0.17200000000E+03 0. -1.
         -6    1    1    2    0  501 -0.30205049956E+02 -0.10008965095E+01  0.40499833669E+02  0.17926958293E+03  0.17200000000E+03 0.  1.
</event>
<event>
 4    1  0.3115421E-002  0.3039525E+03  0.7818608E-02  0.1083281E+00
         -2   -1    0    0    0  501 -0.00000000000E+00  0.00000000000E+00  0.92652870533E+03  0.92652870533E+03  0.00000000000E+00 0.  1.
          2   -1    0    0  502    0  0.00000000000E+00 -0.00000000000E+00 -0.13465358937E+03  0.13465358937E+03  0.00000000000E+00 0. -1.
          6    1    1    2  502    0 -0.10700150509E+03  0.22661378479E+03  0.12565688798E+03  0.32890239137E+03  0.17200000000E+03 0. -1.
         -6    1    1    2    0  501  0.10700150509E+03 -0.22661378479E+03  0.66621822797E+03  0.73227990334E+03  0.17200000000E+03 0.  1.
</event>
<event>
 4    1  0.3115421E-002  0.1738796E+03  0.7818608E-02  0.1173861E+00
         -1   -1    0    0    0  501 -0.00000000000E+00  0.00000000000E+00  0.27548563965E+02  0.27548563965E+02  0.00000000000E+00 0.  1.
          1   -1    0    0  502    0  0.00000000000E+00 -0.00000000000E+00 -0.16180785818E+04  0.16180785818E+04  0.00000000000E+00 0. -1.
          6    1    1    2  502    0  0.23181183235E+02 -0.10617777407E+02 -0.12619797526E+04  0.12739022727E+04  0.17200000000E+03 0. -1.
         -6    1    1    2    0  501 -0.23181183235E+02  0.10617777407E+02 -0.32855026517E+03  0.37172487299E+03  0.17200000000E+03 0.  1.
</event>
<event>
 4    1  0.3115421E-002  0.4249585E+03  0.7818608E-02  0.1035464E+00
         -1   -1    0    0    0  501 -0.00000000000E+00  0.00000000000E+00  0.25963192854E+03  0.25963192854E+03  0.00000000000E+00 0.  1.
          1   -1    0    0  502    0  0.00000000000E+00 -0.00000000000E+00 -0.76143070986E+03  0.76143070986E+03  0.00000000000E+00 0. -1.
          6    1    1    2  502    0  0.25693509809E+03 -0.29153062965E+03 -0.40105834261E+03  0.58432657549E+03  0.17200000000E+03 0. -1.
         -6    1    1    2    0  501 -0.25693509809E+03  0.29153062965E+03 -0.10074043870E+03  0.43673606291E+03  0.17200000000E+03 0.  1.
</event>
<event>
 4    1  0.3115421E-002  0.1765467E+03  0.7818608E-02  0.1171188E+00
          2   -1    0    0  502    0  0.00000000000E+00  0.00000000000E+00  0.20322094076E+04  0.20322094076E+04  0.00000000000E+00 0. -1.
         -2   -1    0    0    0  501 -0.00000000000E+00 -0.00000000000E+00 -0.16305875881E+02  0.16305875881E+02  0.00000000000E+00 0.  1.
          6    1    1    2  502    0  0.23457696184E+02 -0.32163481318E+02  0.12575765359E+04  0.12699084599E+04  0.17200000000E+03 0. -1.
         -6    1    1    2    0  501 -0.23457696184E+02  0.32163481318E+02  0.75832699583E+03  0.77860682352E+03  0.17200000000E+03 0.  1.
</event>
<event>
 4    1  0.3115421E-002  0.3178229E+03  0.7818608E-02  0.1076656E+00
          2   -1    0    0  502    0  0.00000000000E+00  0.00000000000E+00  0.14265757519E+04  0.14265757519E+04  0.00000000000E+00 0. -1.
         -2   -1    0    0    0  501 -0.00000000000E+00 -0.00000000000E+00 -0.99563598913E+02  0.99563598913E+02  0.00000000000E+00 0.  1.
          6    1    1    2  502    0  0.10996349539E+03 -0.24358867760E+03  0.10736000401E+04  0.11196555096E+04  0.17200000000E+03 0. -1.
         -6    1    1    2    0  501 -0.10996349539E+03  0.24358867760E+03  0.25341211290E+03  0.40648384118E+03  0.17200000000E+03 0.  1.
</event>
<event>
 4    1  0.3115421E-002  0.3104044E+03  0.7818608E-02  0.1080152E+00
         -2   -1    0    0    0  501 -0.00000000000E+00  0.00000000000E+00  0.47942640166E+02  0.47942640166E+02  0.00000000000E+00 0.  1.
          2   -1    0    0  502    0  0.00000000000E+00 -0.00000000000E+00 -0.20343073232E+04  0.20343073232E+04  0.00000000000E+00 0. -1.
          6    1    1    2  502    0  0.25039628165E+03  0.63785501428E+02 -0.87870410914E+03  0.93191834378E+03  0.17200000000E+03 0. -1.
         -6    1    1    2    0  501 -0.25039628165E+03 -0.63785501428E+02 -0.11076605739E+04  0.11503316196E+04  0.17200000000E+03 0.  1.
</event>
<event>
 4    1  0.3115421E-002  0.2527391E+03  0.7818608E-02  0.1111586E+00
          2   -1    0    0  502    0  0.00000000000E+00  0.00000000000E+00  0.21163787194E+04  0.21163787194E+04  0.00000000000E+00 0. -1.
         -2   -1    0    0    0  501 -0.00000000000E+00 -0.00000000000E+00 -0.52453012992E+02  0.52453012992E+02  0.00000000000E+00 0.  1.
          6    1    1    2  502    0  0.13321495173E+03  0.12863438850E+03  0.17385705867E+04  0.17568451026E+04  0.17200000000E+03 0. -1.
         -6    1    1    2    0  501 -0.13321495173E+03 -0.12863438850E+03  0.32535511963E+03  0.41198662980E+03  0.17200000000E+03 0.  1.
</event>
<event>
 4    1  0.3115421E-002  0.2244176E+03  0.7818608E-02  0.1130632E+00
          2   -1    0    0  502    0  0.00000000000E+00  0.00000000000E+00  0.15896848470E+03  0.15896848470E+03  0.00000000000E+00 0. -1.
         -2   -1    0    0    0  501 -0.00000000000E+00 -0.00000000000E+00 -0.31775422363E+03  0.31775422363E+03  0.00000000000E+00 0.  1.
          6    1    1    2  502    0 -0.70752050727E+02 -0.12559214900E+03 -0.66418164495E+02  0.23403976830E+03  0.17200000000E+03 0. -1.
         -6    1    1    2    0  501  0.70752050727E+02  0.12559214900E+03 -0.92367574435E+02  0.24268294002E+03  0.17200000000E+03 0. -1.
</event>
<event>
 4    1  0.3115421E-002  0.1825433E+03  0.7818608E-02  0.1165364E+00
          2   -1    0    0  502    0  0.00000000000E+00  0.00000000000E+00  0.20998539724E+03  0.20998539724E+03  0.00000000000E+00 0. -1.
         -2   -1    0    0    0  501 -0.00000000000E+00 -0.00000000000E+00 -0.34027925804E+03  0.34027925804E+03  0.00000000000E+00 0.  1.
          6    1    1    2  502    0  0.35257424163E+02 -0.49949562963E+02 -0.26613580755E+03  0.32272327598E+03  0.17200000000E+03 0.  1.
         -6    1    1    2    0  501 -0.35257424163E+02  0.49949562963E+02  0.13584194675E+03  0.22754137931E+03  0.17200000000E+03 0. -1.
</event>
<event>
 4    1  0.3115421E-002  0.2365074E+03  0.7818608E-02  0.1122142E+00
          1   -1    0    0  502    0  0.00000000000E+00  0.00000000000E+00  0.57715173783E+03  0.57715173783E+03  0.00000000000E+00 0. -1.
         -1   -1    0    0    0  501 -0.00000000000E+00 -0.00000000000E+00 -0.97095811316E+02  0.97095811316E+02  0.00000000000E+00 0.  1.
          6    1    1    2  502    0  0.32745285060E+02  0.15899532025E+03  0.25449869832E+03  0.34742675919E+03  0.17200000000E+03 0.  1.
         -6    1    1    2    0  501 -0.32745285060E+02 -0.15899532025E+03  0.22555722820E+03  0.32682078996E+03  0.17200000000E+03 0. -1.
</event>
<event>
 4    1  0.3115421E-002  0.1999313E+03  0.7818608E-02  0.1149797E+00
          2   -1    0    0  502    0  0.00000000000E+00  0.00000000000E+00  0.77975860605E+03  0.77975860605E+03  0.00000000000E+00 0. -1.
         -2   -1    0    0    0  501 -0.00000000000E+00 -0.00000000000E+00 -0.52753496142E+02  0.52753496142E+02  0.00000000000E+00 0.  1.
          6    1    1    2  502    0 -0.38982564056E+02 -0.94174651590E+02  0.29352657985E+03  0.35514836109E+03  0.17200000000E+03 0.  1.
         -6    1    1    2    0  501  0.38982564056E+02  0.94174651590E+02  0.43347853005E+03  0.47736374110E+03  0.17200000000E+03 0.  1.
</event>
<event>
 4    1  0.3115421E-002  0.5241729E+03  0.7818608E-02  0.1007655E+00
         -2   -1    0    0    0  501 -0.00000000000E+00  0.00000000000E+00  0.11052415514E+03  0.11052415514E+03  0.00000000000E+00 0.  1.
          2   -1    0    0  502    0  0.00000000000E+00 -0.00000000000E+00 -0.29847741227E+04  0.29847741227E+04  0.00000000000E+00 0. -1.
          6    1    1    2  502    0  0.15824531340E+03  0.46918187009E+03 -0.20698161159E+04  0.21351571277E+04  0.17200000000E+03 0. -1.
         -6    1    1    2    0  501 -0.15824531340E+03 -0.46918187009E+03 -0.80443385162E+03  0.96014115007E+03  0.17200000000E+03 0.  1.
</event>
<event>
 4    1  0.3115421E-002  0.2019646E+03  0.7818608E-02  0.1148092E+00
         -2   -1    0    0    0  501 -0.00000000000E+00  0.00000000000E+00  0.73886806155E+02  0.73886806155E+02  0.00000000000E+00 0.  1.
          2   -1    0    0  502    0  0.00000000000E+00 -0.00000000000E+00 -0.59331575948E+03  0.59331575948E+03  0.00000000000E+00 0. -1.
          6    1    1    2  502    0 -0.81722105740E+01 -0.10554110783E+03 -0.34768641086E+03  0.40208898364E+03  0.17200000000E+03 0. -1.
         -6    1    1    2    0  501  0.81722105740E+01  0.10554110783E+03 -0.17174254247E+03  0.26511358200E+03  0.17200000000E+03 0.  1.
</event>
<event>
 4    1  0.3115421E-002  0.4088827E+03  0.7818608E-02  0.1040747E+00
         -1   -1    0    0    0  501 -0.00000000000E+00  0.00000000000E+00  0.91948130685E+03  0.91948130685E+03  0.00000000000E+00 0.  1.
          1   -1    0    0  502    0  0.00000000000E+00 -0.00000000000E+00 -0.18744814392E+03  0.18744814392E+03  0.00000000000E+00 0. -1.
          6    1    1    2  502    0 -0.27618839824E+03 -0.24763081967E+03  0.46187353459E+03  0.61685672253E+03  0.17200000000E+03 0. -1.
         -6    1    1    2    0  501  0.27618839824E+03  0.24763081967E+03  0.27015962834E+03  0.49007272823E+03  0.17200000000E+03 0.  1.
</event>
<event>
 4    1  0.3115421E-002  0.1755027E+03  0.7818608E-02  0.1172228E+00
         -1   -1    0    0    0  501 -0.00000000000E+00  0.00000000000E+00  0.10416580513E+04  0.10416580513E+04  0.00000000000E+00 0.  1.
          1   -1    0    0  502    0  0.00000000000E+00 -0.00000000000E+00 -0.29609988473E+02  0.29609988473E+02  0.00000000000E+00 0. -1.
          6    1    1    2  502    0 -0.34847210817E+02 -0.16946282269E+01  0.48619189651E+03  0.51689821058E+03  0.17200000000E+03 0.  1.
         -6    1    1    2    0  501  0.34847210817E+02  0.16946282269E+01  0.52585616630E+03  0.55436982918E+03  0.17200000000E+03 0. -1.
</event>
<event>
 4    1  0.3115421E-002  0.1910823E+03  0.7818608E-02  0.1157489E+00
         -1   -1    0    0    0  501 -0.00000000000E+00  0.00000000000E+00  0.20735878698E+02  0.20735878698E+02  0.00000000000E+00 0.  1.
          1   -1    0    0  502    0  0.00000000000E+00 -0.00000000000E+00 -0.18320662769E+04  0.18320662769E+04  0.00000000000E+00 0. -1.
          6    1    1    2  502    0  0.66387009183E+02 -0.50211738412E+02 -0.10883342196E+04  0.11049813696E+04  0.17200000000E+03 0. -1.
         -6    1    1    2    0  501 -0.66387009183E+02  0.50211738412E+02 -0.72299617864E+03  0.74782078601E+03  0.17200000000E+03 0.  1.
</event>
<event>
 4    1  0.3115421E-002  0.1975705E+03  0.7818608E-02  0.1151805E+00
          2   -1    0    0  502    0  0.00000000000E+00  0.00000000000E+00  0.69916513047E+03  0.69916513047E+03  0.00000000000E+00 0. -1.
         -2   -1    0    0    0  501 -0.00000000000E+00 -0.00000000000E+00 -0.66200506761E+02  0.66200506761E+02  0.00000000000E+00 0.  1.
          6    1    1    2  502    0  0.63280170518E+02  0.73795175690E+02  0.46794885745E+03  0.50794708497E+03  0.17200000000E+03 0. -1.
         -6    1    1    2    0  501 -0.63280170518E+02 -0.73795175690E+02  0.16501576625E+03  0.25741855226E+03  0.17200000000E+03 0.  1.
</event>
<event>
 4    1  0.3115421E-002  0.2135720E+03  0.7818608E-02  0.1138768E+00
         -1   -1    0    0    0  501 -0.00000000000E+00  0.00000000000E+00  0.86371854605E+02  0.86371854605E+02  0.00000000000E+00 0.  1.
          1   -1    0    0  502    0  0.00000000000E+00 -0.00000000000E+00 -0.52978305026E+03  0.52978305026E+03  0.00000000000E+00 0. -1.
          6    1    1    2  502    0 -0.12039253579E+03 -0.39174418632E+02 -0.23906870962E+03  0.32057268391E+03  0.17200000000E+03 0. -1.
         -6    1    1    2    0  501  0.12039253579E+03  0.39174418632E+02 -0.20434248604E+03  0.29558222096E+03  0.17200000000E+03 0. -1.
</event>
<event>
 4    1  0.3115421E-002  0.3092426E+03  0.7818608E-02  0.1080709E+00
         -1   -1    0    0    0  501 -0.00000000000E+00  0.00000000000E+00  0.79294848559E+03  0.79294848559E+03  0.00000000000E+00 0.  1.
          1   -1    0    0  502    0  0.00000000000E+00 -0.00000000000E+00 -0.19884748436E+03  0.19884748436E+03  0.00000000000E+00 0. -1.
          6    1    1    2  502    0 -0.22386218912E+03  0.12622494204E+03 -0.14022620090E+02  0.30956041347E+03  0.17200000000E+03 0. -1.
         -6    1    1    2    0  501  0.22386218912E+03 -0.12622494204E+03  0.60812362132E+03  0.68223555648E+03  0.17200000000E+03 0.  1.
</event>
<event>
 4    1  0.3115421E-002  0.1785441E+03  0.7818608E-02  0.1169220E+00
          1   -1    0    0  502    0  0.00000000000E+00  0.00000000000E+00  0.52028822475E+03  0.52028822475E+03  0.00000000000E+00 0. -1.
         -1   -1    0    0    0  501 -0.00000000000E+00 -0.00000000000E+00 -0.61632132863E+02  0.61632132863E+02  0.00000000000E+00 0.  1.
          6    1    1    2  502    0 -0.32150631377E+02  0.35501225560E+02  0.20702149667E+03  0.27337867546E+03  0.17200000000E+03 0. -1.
         -6    1    1    2    0  501  0.32150631377E+02 -0.35501225560E+02  0.25163459522E+03  0.30854168215E+03  0.17200000000E+03 0. -1.
</event>
<event>
 4    1  0.3115421E-002  0.1836409E+03  0.7818608E-02  0.1164325E+00
         -3   -1    0    0    0  501 -0.00000000000E+00  0.00000000000E+00  0.29060541878E+03  0.29060541878E+03  0.00000000000E+00 0.  1.
          3   -1    0    0  502    0  0.00000000000E+00 -0.00000000000E+00 -0.11614817723E+03  0.11614817723E+03  0.00000000000E+00 0. -1.
          6    1    1    2  502    0  0.46395245551E+02  0.44581068004E+02  0.93220617911E+02  0.20594677477E+03  0.17200000000E+03 0.  1.
         -6    1    1    2    0  501 -0.46395245551E+02 -0.44581068004E+02  0.81236623638E+02  0.20080682123E+03  0.17200000000E+03 0.  1.
</event>
<event>
 4    1  0.3115421E-002  0.2063820E+03  0.7818608E-02  0.1144464E+00
          1   -1    0    0  502    0  0.00000000000E+00  0.00000000000E+00  0.53239321565E+03  0.53239321565E+03  0.00000000000E+00 0. -1.
         -1   -1    0    0    0  501 -0.00000000000E+00 -0.00000000000E+00 -0.85247498047E+02  0.85247498047E+02  0.00000000000E+00 0.  1.
          6    1    1    2  502    0 -0.83238722881E+02 -0.77979680684E+02  0.14698124925E+03  0.25337127544E+03  0.17200000000E+03 0. -1.
         -6    1    1    2    0  501  0.83238722881E+02  0.77979680684E+02  0.30016446835E+03  0.36426943826E+03  0.17200000000E+03 0. -1.
</event>
<event>
 4    1  0.3115421E-002  0.2288016E+03  0.7818608E-02  0.1127486E+00
          2   -1    0    0  502    0  0.00000000000E+00  0.00000000000E+00  0.13094452295E+04  0.13094452295E+04  0.00000000000E+00 0. -1.
         -2   -1    0    0    0  501 -0.00000000000E+00 -0.00000000000E+00 -0.41095436436E+02  0.41095436436E+02  0.00000000000E+00 0.  1.
          6    1    1    2  502    0  0.12104182381E+03 -0.90083491264E+02  0.52286840434E+03  0.57073770400E+03  0.17200000000E+03 0. -1.
         -6    1    1    2    0  501 -0.12104182381E+03  0.90083491264E+02  0.74548138870E+03  0.77980296191E+03  0.17200000000E+03 0.  1.
</event>
<event>
 4    1  0.3115421E-002  0.2519559E+03  0.7818608E-02  0.1112075E+00
         -1   -1    0    0    0  501 -0.00000000000E+00  0.00000000000E+00  0.43212210016E+03  0.43212210016E+03  0.00000000000E+00 0.  1.
          1   -1    0    0  502    0  0.00000000000E+00 -0.00000000000E+00 -0.16534605247E+03  0.16534605247E+03  0.00000000000E+00 0. -1.
          6    1    1    2  502    0  0.97135699861E+02 -0.15640472147E+03  0.33627984374E+02  0.25419013045E+03  0.17200000000E+03 0. -1.
         -6    1    1    2    0  501 -0.97135699861E+02  0.15640472147E+03  0.23314806332E+03  0.34327802218E+03  0.17200000000E+03 0.  1.
</event>
<event>
 4    1  0.3115421E-002  0.9792966E+03  0.7818608E-02  0.9331548E-01
         -1   -1    0    0    0  501 -0.00000000000E+00  0.00000000000E+00  0.66042127767E+03  0.66042127767E+03  0.00000000000E+00 0.  1.
          1   -1    0    0  502    0  0.00000000000E+00 -0.00000000000E+00 -0.16556165939E+04  0.16556165939E+04  0.00000000000E+00 0. -1.
          6    1    1    2  502    0  0.27539057537E+03 -0.92390363907E+03 -0.90357018275E+03  0.13324642503E+04  0.17200000000E+03 0. -1.
         -6    1    1    2    0  501 -0.27539057537E+03  0.92390363907E+03 -0.91625133489E+02  0.98357362123E+03  0.17200000000E+03 0.  1.
</event>
<event>
 4    1  0.3115421E-002  0.1894258E+03  0.7818608E-02  0.1158980E+00
          2   -1    0    0  502    0  0.00000000000E+00  0.00000000000E+00  0.11522219696E+04  0.11522219696E+04  0.00000000000E+00 0. -1.
         -2   -1    0    0    0  501 -0.00000000000E+00 -0.00000000000E+00 -0.36675861832E+02  0.36675861832E+02  0.00000000000E+00 0.  1.
          6    1    1    2  502    0  0.41643891163E+02 -0.67556858852E+02  0.32685888758E+03  0.37778151787E+03  0.17200000000E+03 0.  1.
         -6    1    1    2    0  501 -0.41643891163E+02  0.67556858852E+02  0.78868722020E+03  0.81111631358E+03  0.17200000000E+03 0.  1.
</event>
<event>
 4    1  0.3115421E-002  0.2509599E+03  0.7818608E-02  0.1112700E+00
          2   -1    0    0  502    0  0.00000000000E+00  0.00000000000E+00  0.62058137238E+02  0.62058137238E+02  0.00000000000E+00 0. -1.
         -2   -1    0    0    0  501 -0.00000000000E+00 -0.00000000000E+00 -0.11530056126E+04  0.11530056126E+04  0.00000000000E+00 0.  1.
          6    1    1    2  502    0  0.10610579279E+03 -0.14878989015E+03 -0.75575858875E+03  0.79633655896E+03  0.17200000000E+03 0.  1.
         -6    1    1    2    0  501 -0.10610579279E+03  0.14878989015E+03 -0.33518888663E+03  0.41872719089E+03  0.17200000000E+03 0. -1.
</event>
<event>
 4    1  0.3115421E-002  0.2693067E+03  0.7818608E-02  0.1101677E+00
         -2   -1    0    0    0  501 -0.00000000000E+00  0.00000000000E+00  0.11260655100E+03  0.11260655100E+03  0.00000000000E+00 0.  1.
          2   -1    0    0  502    0  0.00000000000E+00 -0.00000000000E+00 -0.67160887218E+03  0.67160887218E+03  0.00000000000E+00 0. -1.
          6    1    1    2  502    0 -0.19673896926E+03 -0.65083712183E+02 -0.20009621879E+03  0.33550649531E+03  0.17200000000E+03 0.  1.
         -6    1    1    2    0  501  0.19673896926E+03  0.65083712183E+02 -0.35890610239E+03  0.44870892787E+03  0.17200000000E+03 0. -1.
</event>
<event>
 4    1  0.3115421E-002  0.1820726E+03  0.7818608E-02  0.1165812E+00
         -2   -1    0    0    0  501 -0.00000000000E+00  0.00000000000E+00  0.59727395310E+02  0.59727395310E+02  0.00000000000E+00 0.  1.
          2   -1    0    0  502    0  0.00000000000E+00 -0.00000000000E+00 -0.12650430343E+04  0.12650430343E+04  0.00000000000E+00 0. -1.
          6    1    1    2  502    0 -0.18126564268E+02 -0.56902269878E+02 -0.10988974278E+04  0.11138788074E+04  0.17200000000E+03 0. -1.
         -6    1    1    2    0  501  0.18126564268E+02  0.56902269878E+02 -0.10641821112E+03  0.21089162218E+03  0.17200000000E+03 0.  1.
</event>
<event>
 4    1  0.3115421E-002  0.2036505E+03  0.7818608E-02  0.1146695E+00
         -1   -1    0    0    0  501 -0.00000000000E+00  0.00000000000E+00  0.25068266745E+02  0.25068266745E+02  0.00000000000E+00 0.  1.
          1   -1    0    0  502    0  0.00000000000E+00 -0.00000000000E+00 -0.17145990244E+04  0.17145990244E+04  0.00000000000E+00 0. -1.
          6    1    1    2  502    0  0.10005266987E+03  0.43347306103E+02 -0.10077195274E+04  0.10280915190E+04  0.17200000000E+03 0. -1.
         -6    1    1    2    0  501 -0.10005266987E+03 -0.43347306103E+02 -0.68181123030E+03  0.71157577211E+03  0.17200000000E+03 0.  1.
</event>
<event>
 4    1  0.3115421E-002  0.2297360E+03  0.7818608E-02  0.1126826E+00
          2   -1    0    0  502    0  0.00000000000E+00  0.00000000000E+00  0.85627047709E+03  0.85627047709E+03  0.00000000000E+00 0. -1.
         -2   -1    0    0    0  501 -0.00000000000E+00 -0.00000000000E+00 -0.65415543841E+02  0.65415543841E+02  0.00000000000E+00 0.  1.
          6    1    1    2  502    0 -0.15177750527E+03 -0.12578696144E+02  0.50617354533E+03  0.55586895281E+03  0.17200000000E+03 0. -1.
         -6    1    1    2    0  501  0.15177750527E+03  0.12578696144E+02  0.28468138792E+03  0.36581706813E+03  0.17200000000E+03 0.  1.
</event>
<event>
 4    1  0.3115421E-002  0.5345215E+03  0.7818608E-02  0.1005141E+00
          2   -1    0    0  502    0  0.00000000000E+00  0.00000000000E+00  0.14260276565E+04  0.14260276565E+04  0.00000000000E+00 0. -1.
         -2   -1    0    0    0  501 -0.00000000000E+00 -0.00000000000E+00 -0.40539671780E+03  0.40539671780E+03  0.00000000000E+00 0.  1.
          6    1    1    2  502    0  0.94958575877E+02 -0.49710373884E+03  0.11615522061E+04  0.12786386455E+04  0.17200000000E+03 0. -1.
         -6    1    1    2    0  501 -0.94958575877E+02  0.49710373884E+03 -0.14092126743E+03  0.55278572875E+03  0.17200000000E+03 0.  1.
</event>
<event>
 4    1  0.3115421E-002  0.3629496E+03  0.7818608E-02  0.1057422E+00
          1   -1    0    0  502    0  0.00000000000E+00  0.00000000000E+00  0.10721225560E+04  0.10721225560E+04  0.00000000000E+00 0. -1.
         -1   -1    0    0    0  501 -0.00000000000E+00 -0.00000000000E+00 -0.17705771260E+03  0.17705771260E+03  0.00000000000E+00 0.  1.
          6    1    1    2  502    0 -0.16679045141E+03 -0.27263417563E+03  0.79306205686E+03  0.87216963627E+03  0.17200000000E+03 0. -1.
         -6    1    1    2    0  501  0.16679045141E+03  0.27263417563E+03  0.10200278651E+03  0.37701063229E+03  0.17200000000E+03 0.  1.
</event>
<event>
 4    1  0.3115421E-002  0.1940502E+03  0.7818608E-02  0.1154858E+00
         -2   -1    0    0    0  501 -0.00000000000E+00  0.00000000000E+00  0.10316552531E+03  0.10316552531E+03  0.00000000000E+00 0.  1.
          2   -1    0    0  502    0  0.00000000000E+00 -0.00000000000E+00 -0.36559452699E+03  0.36559452699E+03  0.00000000000E+00 0. -1.
          6    1    1    2  502    0  0.87239484448E+02 -0.21465416018E+02 -0.14066034731E+03  0.23966815608E+03  0.17200000000E+03 0. -1.
         -6    1    1    2    0  501 -0.87239484448E+02  0.21465416018E+02 -0.12176865437E+03  0.22909189623E+03  0.17200000000E+03 0. -1.
</event>
<event>
 4    1  0.3115421E-002  0.1994432E+03  0.7818608E-02  0.1150210E+00
         -1   -1    0    0    0  501 -0.00000000000E+00  0.00000000000E+00  0.76374287801E+02  0.76374287801E+02  0.00000000000E+00 0.  1.
          1   -1    0    0  502    0  0.00000000000E+00 -0.00000000000E+00 -0.52490054118E+03  0.52490054118E+03  0.00000000000E+00 0. -1.
          6    1    1    2  502    0 -0.86153308170E+02  0.52642069685E+02 -0.25075654046E+03  0.32040040979E+03  0.17200000000E+03 0. -1.
         -6    1    1    2    0  501  0.86153308170E+02 -0.52642069685E+02 -0.19776971293E+03  0.28087441920E+03  0.17200000000E+03 0.  1.
</event>
<event>
 4    1  0.3115421E-002  0.4247579E+03  0.7818608E-02  0.1035529E+00
          1   -1    0    0  502    0  0.00000000000E+00  0.00000000000E+00  0.12788571560E+04  0.12788571560E+04  0.00000000000E+00 0. -1.
         -1   -1    0    0    0  501 -0.00000000000E+00 -0.00000000000E+00 -0.14152347905E+03  0.14152347905E+03  0.00000000000E+00 0.  1.
          6    1    1    2  502    0 -0.59854408266E+02 -0.38373521190E+03  0.60848901864E+03  0.74207691572E+03  0.17200000000E+03 0. -1.
         -6    1    1    2    0  501  0.59854408266E+02  0.38373521190E+03  0.52884465830E+03  0.67830371933E+03  0.17200000000E+03 0.  1.
</event>
<event>
 4    1  0.3115421E-002  0.1795985E+03  0.7818608E-02  0.1168192E+00
         -2   -1    0    0    0  501 -0.00000000000E+00  0.00000000000E+00  0.72286261384E+02  0.72286261384E+02  0.00000000000E+00 0.  1.
          2   -1    0    0  502    0  0.00000000000E+00 -0.00000000000E+00 -0.56606863888E+03  0.56606863888E+03  0.00000000000E+00 0. -1.
          6    1    1    2  502    0 -0.43481114998E+02 -0.27946502804E+02 -0.39375447211E+03  0.43277961908E+03  0.17200000000E+03 0. -1.
         -6    1    1    2    0  501  0.43481114998E+02  0.27946502804E+02 -0.10002790539E+03  0.20557528119E+03  0.17200000000E+03 0.  1.
</event>
<event>
 4    1  0.3115421E-002  0.1752360E+03  0.7818608E-02  0.1172495E+00
         -1   -1    0    0    0  501 -0.00000000000E+00  0.00000000000E+00  0.70921426475E+02  0.70921426475E+02  0.00000000000E+00 0.  1.
          1   -1    0    0  502    0  0.00000000000E+00 -0.00000000000E+00 -0.44030501226E+03  0.44030501226E+03  0.00000000000E+00 0. -1.
          6    1    1    2  502    0  0.20358689907E+02 -0.26630430630E+02 -0.15172549453E+03  0.23179361894E+03  0.17200000000E+03 0.  1.
         -6    1    1    2    0  501 -0.20358689907E+02  0.26630430630E+02 -0.21765809125E+03  0.27943281979E+03  0.17200000000E+03 0. -1.
</event>
<event>
 4    1  0.3115421E-002  0.1802576E+03  0.7818608E-02  0.1167554E+00
         -2   -1    0    0    0  501 -0.00000000000E+00  0.00000000000E+00  0.22587748871E+03  0.22587748871E+03  0.00000000000E+00 0.  1.
          2   -1    0    0  502    0  0.00000000000E+00 -0.00000000000E+00 -0.14394185708E+03  0.14394185708E+03  0.00000000000E+00 0. -1.
          6    1    1    2  502    0  0.59216380071E+01 -0.53607132097E+02  0.36332122707E+02  0.18388260806E+03  0.17200000000E+03 0. -1.
         -6    1    1    2    0  501 -0.59216380071E+01  0.53607132097E+02  0.45603508921E+02  0.18593673772E+03  0.17200000000E+03 0. -1.
</event>
<event>
 4    1  0.3115421E-002  0.4514515E+03  0.7818608E-02  0.1027290E+00
         -2   -1    0    0    0  501 -0.00000000000E+00  0.00000000000E+00  0.82754367932E+03  0.82754367932E+03  0.00000000000E+00 0.  1.
          2   -1    0    0  502    0  0.00000000000E+00 -0.00000000000E+00 -0.24781450852E+03  0.24781450852E+03  0.00000000000E+00 0. -1.
          6    1    1    2  502    0 -0.25144776645E+03 -0.33316436299E+03  0.24757135491E+03  0.51487867289E+03  0.17200000000E+03 0. -1.
         -6    1    1    2    0  501  0.25144776645E+03  0.33316436299E+03  0.33215781589E+03  0.56047951495E+03  0.17200000000E+03 0.  1.
</event>
<event>
 4    1  0.3115421E-002  0.1873217E+03  0.7818608E-02  0.1160899E+00
          2   -1    0    0  502    0  0.00000000000E+00  0.00000000000E+00  0.16864828877E+04  0.16864828877E+04  0.00000000000E+00 0. -1.
         -2   -1    0    0    0  501 -0.00000000000E+00 -0.00000000000E+00 -0.26749587750E+02  0.26749587750E+02  0.00000000000E+00 0.  1.
          6    1    1    2  502    0  0.11639623612E+02 -0.73279968925E+02  0.12336439280E+04  0.12477847474E+04  0.17200000000E+03 0. -1.
         -6    1    1    2    0  501 -0.11639623612E+02  0.73279968925E+02  0.42608937194E+03  0.46544772807E+03  0.17200000000E+03 0.  1.
</event>
<event>
 4    1  0.3115421E-002  0.2490860E+03  0.7818608E-02  0.1113884E+00
         -2   -1    0    0    0  501 -0.00000000000E+00  0.00000000000E+00  0.22268460671E+03  0.22268460671E+03  0.00000000000E+00 0.  1.
          2   -1    0    0  502    0  0.00000000000E+00 -0.00000000000E+00 -0.69449222002E+03  0.69449222002E+03  0.00000000000E+00 0. -1.
          6    1    1    2  502    0 -0.59640860318E+02 -0.17000819678E+03 -0.59077493517E+03  0.64113870825E+03  0.17200000000E+03 0. -1.
         -6    1    1    2    0  501  0.59640860318E+02  0.17000819678E+03  0.11896732186E+03  0.27603811849E+03  0.17200000000E+03 0.  1.
</event>
<event>
 4    1  0.3115421E-002  0.1866165E+03  0.7818608E-02  0.1161549E+00
          4   -1    0    0  502    0  0.00000000000E+00  0.00000000000E+00  0.54081381581E+03  0.54081381581E+03  0.00000000000E+00 0. -1.
         -4   -1    0    0    0  501 -0.00000000000E+00 -0.00000000000E+00 -0.64502669718E+02  0.64502669718E+02  0.00000000000E+00 0.  1.
          6    1    1    2  502    0  0.25812315847E+02  0.67642079037E+02  0.22579232083E+03  0.29292985278E+03  0.17200000000E+03 0.  1.
         -6    1    1    2    0  501 -0.25812315847E+02 -0.67642079037E+02  0.25051882526E+03  0.31238663274E+03  0.17200000000E+03 0. -1.
</event>
<event>
 4    1  0.3115421E-002  0.2983734E+03  0.7818608E-02  0.1086057E+00
          1   -1    0    0  502    0  0.00000000000E+00  0.00000000000E+00  0.58067896913E+03  0.58067896913E+03  0.00000000000E+00 0. -1.
         -1   -1    0    0    0  501 -0.00000000000E+00 -0.00000000000E+00 -0.48486655862E+03  0.48486655862E+03  0.00000000000E+00 0.  1.
          6    1    1    2  502    0  0.23751842851E+03  0.55024242449E+02  0.48846774064E+03  0.57238746037E+03  0.17200000000E+03 0. -1.
         -6    1    1    2    0  501 -0.23751842851E+03 -0.55024242449E+02 -0.39265533013E+03  0.49315806738E+03  0.17200000000E+03 0.  1.
</event>
<event>
 4    1  0.3115421E-002  0.7851879E+03  0.7818608E-02  0.9581708E-01
          2   -1    0    0  502    0  0.00000000000E+00  0.00000000000E+00  0.21213084593E+04  0.21213084593E+04  0.00000000000E+00 0. -1.
         -2   -1    0    0    0  501 -0.00000000000E+00 -0.00000000000E+00 -0.29359792943E+03  0.29359792943E+03  0.00000000000E+00 0.  1.
          6    1    1    2  502    0 -0.63616492809E+03 -0.42688430309E+03  0.10352158152E+04  0.12993043554E+04  0.17200000000E+03 0. -1.
         -6    1    1    2    0  501  0.63616492809E+03  0.42688430309E+03  0.79249471462E+03  0.11156020333E+04  0.17200000000E+03 0.  1.
</event>
<event>
 4    1  0.3115421E-002  0.2889452E+03  0.7818608E-02  0.1090901E+00
          2   -1    0    0  502    0  0.00000000000E+00  0.00000000000E+00  0.14912606794E+04  0.14912606794E+04  0.00000000000E+00 0. -1.
         -2   -1    0    0    0  501 -0.00000000000E+00 -0.00000000000E+00 -0.61051651529E+02  0.61051651529E+02  0.00000000000E+00 0.  1.
          6    1    1    2  502    0  0.11775269585E+03  0.20009909164E+03  0.49152660897E+03  0.57016467024E+03  0.17200000000E+03 0. -1.
         -6    1    1    2    0  501 -0.11775269585E+03 -0.20009909164E+03  0.93868241890E+03  0.98214766069E+03  0.17200000000E+03 0. -1.
</event>
<event>
 4    1  0.3115421E-002  0.1781679E+03  0.7818608E-02  0.1169588E+00
          1   -1    0    0  502    0  0.00000000000E+00  0.00000000000E+00  0.10122375281E+04  0.10122375281E+04  0.00000000000E+00 0. -1.
         -1   -1    0    0    0  501 -0.00000000000E+00 -0.00000000000E+00 -0.32481320429E+02  0.32481320429E+02  0.00000000000E+00 0.  1.
          6    1    1    2  502    0 -0.18970018864E+02  0.42425577527E+02  0.39282416053E+03  0.43134048308E+03  0.17200000000E+03 0.  1.
         -6    1    1    2    0  501  0.18970018864E+02 -0.42425577527E+02  0.58693204714E+03  0.61337836545E+03  0.17200000000E+03 0. -1.
</event>
<event>
 4    1  0.3115421E-002  0.2481243E+03  0.7818608E-02  0.1114496E+00
         -2   -1    0    0    0  501 -0.00000000000E+00  0.00000000000E+00  0.62539365381E+02  0.62539365381E+02  0.00000000000E+00 0.  1.
          2   -1    0    0  502    0  0.00000000000E+00 -0.00000000000E+00 -0.12067108057E+04  0.12067108057E+04  0.00000000000E+00 0. -1.
          6    1    1    2  502    0  0.11685833027E+03  0.13537285713E+03 -0.84445981355E+03  0.88015797247E+03  0.17200000000E+03 0. -1.
         -6    1    1    2    0  501 -0.11685833027E+03 -0.13537285713E+03 -0.29971162677E+03  0.38909219862E+03  0.17200000000E+03 0.  1.
</event>
<event>
 4    1  0.3115421E-002  0.2258644E+03  0.7818608E-02  0.1129585E+00
          2   -1    0    0  502    0  0.00000000000E+00  0.00000000000E+00  0.90937447692E+03  0.90937447692E+03  0.00000000000E+00 0. -1.
         -2   -1    0    0    0  501 -0.00000000000E+00 -0.00000000000E+00 -0.94083296027E+02  0.94083296027E+02  0.00000000000E+00 0.  1.
          6    1    1    2  502    0  0.12159036947E+03 -0.81526190890E+02  0.72644427877E+03  0.76074701965E+03  0.17200000000E+03 0. -1.
         -6    1    1    2    0  501 -0.12159036947E+03  0.81526190890E+02  0.88846902125E+02  0.24271075330E+03  0.17200000000E+03 0.  1.
</event>
<event>
 4    1  0.3115421E-002  0.1897782E+03  0.7818608E-02  0.1158661E+00
         -1   -1    0    0    0  501 -0.00000000000E+00  0.00000000000E+00  0.28445078839E+02  0.28445078839E+02  0.00000000000E+00 0.  1.
          1   -1    0    0  502    0  0.00000000000E+00 -0.00000000000E+00 -0.30480482768E+04  0.30480482768E+04  0.00000000000E+00 0. -1.
          6    1    1    2  502    0  0.35910616463E+02  0.71709197992E+02 -0.26859343043E+04  0.26926304738E+04  0.17200000000E+03 0. -1.
         -6    1    1    2    0  501 -0.35910616463E+02 -0.71709197992E+02 -0.33366889365E+03  0.38386288182E+03  0.17200000000E+03 0.  1.
</event>
<event>
 4    1  0.3115421E-002  0.3104261E+03  0.7818608E-02  0.1080142E+00
          2   -1    0    0  502    0  0.00000000000E+00  0.00000000000E+00  0.69957196107E+03  0.69957196107E+03  0.00000000000E+00 0. -1.
         -2   -1    0    0    0  501 -0.00000000000E+00 -0.00000000000E+00 -0.16678790524E+03  0.16678790524E+03  0.00000000000E+00 0.  1.
          6    1    1    2  502    0 -0.25493784305E+03 -0.42273481425E+02  0.44714553091E+03  0.54433764968E+03  0.17200000000E+03 0. -1.
         -6    1    1    2    0  501  0.25493784305E+03  0.42273481425E+02  0.85638524920E+02  0.32202221662E+03  0.17200000000E+03 0.  1.
</event>
<event>
 4    1  0.3115421E-002  0.2098665E+03  0.7818608E-02  0.1141672E+00
          1   -1    0    0  502    0  0.00000000000E+00  0.00000000000E+00  0.34582865959E+03  0.34582865959E+03  0.00000000000E+00 0. -1.
         -1   -1    0    0    0  501 -0.00000000000E+00 -0.00000000000E+00 -0.12735774867E+03  0.12735774867E+03  0.00000000000E+00 0.  1.
          6    1    1    2  502    0  0.57359925941E+02 -0.10568719679E+03  0.10909811381E+03  0.23652979327E+03  0.17200000000E+03 0. -1.
         -6    1    1    2    0  501 -0.57359925941E+02  0.10568719679E+03  0.10937279710E+03  0.23665661498E+03  0.17200000000E+03 0. -1.
</event>
<event>
 4    1  0.3115421E-002  0.2240761E+03  0.7818608E-02  0.1130880E+00
         -2   -1    0    0    0  501 -0.00000000000E+00  0.00000000000E+00  0.20721875257E+02  0.20721875257E+02  0.00000000000E+00 0.  1.
          2   -1    0    0  502    0  0.00000000000E+00 -0.00000000000E+00 -0.24472267371E+04  0.24472267371E+04  0.00000000000E+00 0. -1.
          6    1    1    2  502    0  0.22350534853E+02 -0.14186809460E+03 -0.13359070661E+04  0.13545692275E+04  0.17200000000E+03 0. -1.
         -6    1    1    2    0  501 -0.22350534853E+02  0.14186809460E+03 -0.10905977957E+04  0.11133793849E+04  0.17200000000E+03 0.  1.
</event>
<event>
 4    1  0.3115421E-002  0.3082089E+03  0.7818608E-02  0.1081208E+00
          2   -1    0    0  502    0  0.00000000000E+00  0.00000000000E+00  0.21763649646E+03  0.21763649646E+03  0.00000000000E+00 0. -1.
         -2   -1    0    0    0  501 -0.00000000000E+00 -0.00000000000E+00 -0.44985403699E+03  0.44985403699E+03  0.00000000000E+00 0.  1.
          6    1    1    2  502    0  0.14450883939E+03 -0.21101164798E+03 -0.17366659532E+03  0.35376942572E+03  0.17200000000E+03 0.  1.
         -6    1    1    2    0  501 -0.14450883939E+03  0.21101164798E+03 -0.58550945213E+02  0.31372110772E+03  0.17200000000E+03 0.  1.
</event>
<event>
 4    1  0.3115421E-002  0.3457184E+03  0.7818608E-02  0.1064386E+00
         -1   -1    0    0    0  501 -0.00000000000E+00  0.00000000000E+00  0.13335424428E+03  0.13335424428E+03  0.00000000000E+00 0.  1.
          1   -1    0    0  502    0  0.00000000000E+00 -0.00000000000E+00 -0.98872052163E+03  0.98872052163E+03  0.00000000000E+00 0. -1.
          6    1    1    2  502    0  0.74040052980E+02 -0.29061194128E+03 -0.59924188171E+03  0.69181794040E+03  0.17200000000E+03 0. -1.
         -6    1    1    2    0  501 -0.74040052980E+02  0.29061194128E+03 -0.25612439563E+03  0.43025682551E+03  0.17200000000E+03 0.  1.
</event>
<event>
 4    1  0.3115421E-002  0.3008072E+03  0.7818608E-02  0.1084838E+00
          1   -1    0    0  502    0  0.00000000000E+00  0.00000000000E+00  0.26646957420E+03  0.26646957420E+03  0.00000000000E+00 0. -1.
         -1   -1    0    0    0  501 -0.00000000000E+00 -0.00000000000E+00 -0.55713017793E+03  0.55713017793E+03  0.00000000000E+00 0.  1.
          6    1    1    2  502    0 -0.49549059976E+02  0.24175583847E+03  0.11200411051E+03  0.32098273404E+03  0.17200000000E+03 0. -1.
         -6    1    1    2    0  501  0.49549059976E+02 -0.24175583847E+03 -0.40266471424E+03  0.50261701809E+03  0.17200000000E+03 0.  1.
</event>
<event>
 4    1  0.3115421E-002  0.2503676E+03  0.7818608E-02  0.1113073E+00
          2   -1    0    0  502    0  0.00000000000E+00  0.00000000000E+00  0.36013173579E+03  0.36013173579E+03  0.00000000000E+00 0. -1.
         -2   -1    0    0    0  501 -0.00000000000E+00 -0.00000000000E+00 -0.20689320220E+03  0.20689320220E+03  0.00000000000E+00 0.  1.
          6    1    1    2  502    0 -0.52958055654E+02  0.17405563510E+03 -0.36325699211E+02  0.25298908315E+03  0.17200000000E+03 0. -1.
         -6    1    1    2    0  501  0.52958055654E+02 -0.17405563510E+03  0.18956423280E+03  0.31403585484E+03  0.17200000000E+03 0. -1.
</event>
<event>
 4    1  0.3115421E-002  0.1972359E+03  0.7818608E-02  0.1152092E+00
          3   -1    0    0  502    0  0.00000000000E+00  0.00000000000E+00  0.16655596633E+04  0.16655596633E+04  0.00000000000E+00 0. -1.
         -3   -1    0    0    0  501 -0.00000000000E+00 -0.00000000000E+00 -0.47964435079E+02  0.47964435079E+02  0.00000000000E+00 0.  1.
          6    1    1    2  502    0  0.88143196552E+02 -0.39354307267E+02  0.14224696551E+04  0.14360786553E+04  0.17200000000E+03 0. -1.
         -6    1    1    2    0  501 -0.88143196552E+02  0.39354307267E+02  0.19512557320E+03  0.27744544314E+03  0.17200000000E+03 0.  1.
</event>
<event>
 4    1  0.3115421E-002  0.1973758E+03  0.7818608E-02  0.1151972E+00
          2   -1    0    0  502    0  0.00000000000E+00  0.00000000000E+00  0.33242737646E+03  0.33242737646E+03  0.00000000000E+00 0. -1.
         -2   -1    0    0    0  501 -0.00000000000E+00 -0.00000000000E+00 -0.12047243224E+03  0.12047243224E+03  0.00000000000E+00 0.  1.
          6    1    1    2  502    0 -0.26708594041E+02  0.93058286325E+02  0.14335584016E+03  0.24394280181E+03  0.17200000000E+03 0. -1.
         -6    1    1    2    0  501  0.26708594041E+02 -0.93058286325E+02  0.68599104067E+02  0.20895700689E+03  0.17200000000E+03 0.  1.
</event>
<event>
 4    1  0.3115421E-002  0.5141523E+03  0.7818608E-02  0.1010150E+00
          2   -1    0    0  502    0  0.00000000000E+00  0.00000000000E+00  0.11160140032E+04  0.11160140032E+04  0.00000000000E+00 0. -1.
         -2   -1    0    0    0  501 -0.00000000000E+00 -0.00000000000E+00 -0.24935975676E+03  0.24935975676E+03  0.00000000000E+00 0.  1.
          6    1    1    2  502    0 -0.90106387680E+02  0.47607712135E+03  0.28055336697E+03  0.58571561213E+03  0.17200000000E+03 0. -1.
         -6    1    1    2    0  501  0.90106387680E+02 -0.47607712135E+03  0.58610087952E+03  0.77965814787E+03  0.17200000000E+03 0. -1.
</event>
<event>
 4    1  0.3115421E-002  0.1820019E+03  0.7818608E-02  0.1165880E+00
         -2   -1    0    0    0  501 -0.00000000000E+00  0.00000000000E+00  0.78480026267E+02  0.78480026267E+02  0.00000000000E+00 0.  1.
          2   -1    0    0  502    0  0.00000000000E+00 -0.00000000000E+00 -0.47996552972E+03  0.47996552972E+03  0.00000000000E+00 0. -1.
          6    1    1    2  502    0 -0.12090676137E+02 -0.58262266020E+02 -0.10377236814E+03  0.20950747118E+03  0.17200000000E+03 0.  1.
         -6    1    1    2    0  501  0.12090676137E+02  0.58262266020E+02 -0.29771313531E+03  0.34893808481E+03  0.17200000000E+03 0. -1.
</event>
<event>
 4    1  0.3115421E-002  0.4490909E+03  0.7818608E-02  0.1027993E+00
          1   -1    0    0  502    0  0.00000000000E+00  0.00000000000E+00  0.95550226606E+03  0.95550226606E+03  0.00000000000E+00 0. -1.
         -1   -1    0    0    0  501 -0.00000000000E+00 -0.00000000000E+00 -0.37172002446E+03  0.37172002446E+03  0.00000000000E+00 0.  1.
          6    1    1    2  502    0  0.41085400644E+03 -0.57425213518E+02  0.72814498955E+03  0.85549856549E+03  0.17200000000E+03 0. -1.
         -6    1    1    2    0  501 -0.41085400644E+03  0.57425213518E+02 -0.14436274796E+03  0.47172372503E+03  0.17200000000E+03 0.  1.
</event>
<event>
 4    1  0.3115421E-002  0.2084331E+03  0.7818608E-02  0.1142813E+00
         -2   -1    0    0    0  501 -0.00000000000E+00  0.00000000000E+00  0.16405123280E+02  0.16405123280E+02  0.00000000000E+00 0.  1.
          2   -1    0    0  502    0  0.00000000000E+00 -0.00000000000E+00 -0.28576036665E+04  0.28576036665E+04  0.00000000000E+00 0. -1.
          6    1    1    2  502    0  0.11426284392E+03  0.28361045171E+02 -0.18095820235E+04  0.18215464436E+04  0.17200000000E+03 0. -1.
         -6    1    1    2    0  501 -0.11426284392E+03 -0.28361045171E+02 -0.10316165197E+04  0.10524623462E+04  0.17200000000E+03 0.  1.
</event>
<event>
 4    1  0.3115421E-002  0.1766601E+03  0.7818608E-02  0.1171075E+00
          2   -1    0    0  502    0  0.00000000000E+00  0.00000000000E+00  0.45814126073E+03  0.45814126073E+03  0.00000000000E+00 0. -1.
         -2   -1    0    0    0  501 -0.00000000000E+00 -0.00000000000E+00 -0.72764243811E+02  0.72764243811E+02  0.00000000000E+00 0.  1.
          6    1    1    2  502    0 -0.33784454401E+02 -0.21986387175E+02  0.25974865675E+03  0.31413079324E+03  0.17200000000E+03 0.  1.
         -6    1    1    2    0  501  0.33784454401E+02  0.21986387175E+02  0.12562836017E+03  0.21677471130E+03  0.17200000000E+03 0.  1.
</event>
<event>
 4    1  0.3115421E-002  0.1982411E+03  0.7818608E-02  0.1151232E+00
         -1   -1    0    0    0  501 -0.00000000000E+00  0.00000000000E+00  0.19793910167E+02  0.19793910167E+02  0.00000000000E+00 0.  1.
          1   -1    0    0  502    0  0.00000000000E+00 -0.00000000000E+00 -0.20963951791E+04  0.20963951791E+04  0.00000000000E+00 0. -1.
          6    1    1    2  502    0  0.36474122757E+02  0.91570494368E+02 -0.12817294379E+04  0.12969694942E+04  0.17200000000E+03 0. -1.
         -6    1    1    2    0  501 -0.36474122757E+02 -0.91570494368E+02 -0.79487183108E+03  0.81921959505E+03  0.17200000000E+03 0.  1.
</event>
<event>
 4    1  0.3115421E-002  0.2583701E+03  0.7818608E-02  0.1108126E+00
         -2   -1    0    0    0  501 -0.00000000000E+00  0.00000000000E+00  0.51901589611E+02  0.51901589611E+02  0.00000000000E+00 0.  1.
          2   -1    0    0  502    0  0.00000000000E+00 -0.00000000000E+00 -0.12944143844E+04  0.12944143844E+04  0.00000000000E+00 0. -1.
          6    1    1    2  502    0  0.11530729847E+03 -0.15451642694E+03 -0.56758573647E+03  0.62362542244E+03  0.17200000000E+03 0. -1.
         -6    1    1    2    0  501 -0.11530729847E+03  0.15451642694E+03 -0.67492705836E+03  0.72269055160E+03  0.17200000000E+03 0.  1.
</event>
<event>
 4    1  0.3115421E-002  0.1785472E+03  0.7818608E-02  0.1169217E+00
          2   -1    0    0  502    0  0.00000000000E+00  0.00000000000E+00  0.29680541895E+03  0.29680541895E+03  0.00000000000E+00 0. -1.
         -2   -1    0    0    0  501 -0.00000000000E+00 -0.00000000000E+00 -0.11261372327E+03  0.11261372327E+03  0.00000000000E+00 0.  1.
          6    1    1    2  502    0  0.32565964351E+02 -0.35136258490E+02  0.13611158780E+03  0.22451161001E+03  0.17200000000E+03 0.  1.
         -6    1    1    2    0  501 -0.32565964351E+02  0.35136258490E+02  0.48080107871E+02  0.18490753221E+03  0.17200000000E+03 0.  1.
</event>
<event>
 4    1  0.3115421E-002  0.1974640E+03  0.7818608E-02  0.1151896E+00
          2   -1    0    0  502    0  0.00000000000E+00  0.00000000000E+00  0.22825368899E+04  0.22825368899E+04  0.00000000000E+00 0. -1.
         -2   -1    0    0    0  501 -0.00000000000E+00 -0.00000000000E+00 -0.17140234673E+02  0.17140234673E+02  0.00000000000E+00 0.  1.
          6    1    1    2  502    0 -0.96220509400E+02 -0.12233590116E+02  0.11992774624E+04  0.12154252255E+04  0.17200000000E+03 0. -1.
         -6    1    1    2    0  501  0.96220509400E+02  0.12233590116E+02  0.10661191929E+04  0.10842518991E+04  0.17200000000E+03 0. -1.
</event>
<event>
 4    1  0.3115421E-002  0.1922860E+03  0.7818608E-02  0.1156416E+00
         -2   -1    0    0    0  501 -0.00000000000E+00  0.00000000000E+00  0.15938822327E+03  0.15938822327E+03  0.00000000000E+00 0.  1.
          2   -1    0    0  502    0  0.00000000000E+00 -0.00000000000E+00 -0.39921779525E+03  0.39921779525E+03  0.00000000000E+00 0. -1.
          6    1    1    2  502    0 -0.65510691526E+02  0.55661834254E+02 -0.30069293972E+03  0.35691754579E+03  0.17200000000E+03 0. -1.
         -6    1    1    2    0  501  0.65510691526E+02 -0.55661834254E+02  0.60863367739E+02  0.20168847272E+03  0.17200000000E+03 0.  1.
</event>
<event>
 4    1  0.3115421E-002  0.1722274E+03  0.7818608E-02  0.1175545E+00
         -3   -1    0    0    0  501 -0.00000000000E+00  0.00000000000E+00  0.12004479827E+03  0.12004479827E+03  0.00000000000E+00 0.  1.
          3   -1    0    0  502    0  0.00000000000E+00 -0.00000000000E+00 -0.56322683280E+03  0.56322683280E+03  0.00000000000E+00 0. -1.
          6    1    1    2  502    0 -0.19645011632E+01 -0.86275053510E+01 -0.47754202797E+03  0.50765015669E+03  0.17200000000E+03 0. -1.
         -6    1    1    2    0  501  0.19645011632E+01  0.86275053510E+01  0.34359993435E+02  0.17562147438E+03  0.17200000000E+03 0.  1.
</event>
<event>
 4    1  0.3115421E-002  0.4780370E+03  0.7818608E-02  0.1019676E+00
         -1   -1    0    0    0  501 -0.00000000000E+00  0.00000000000E+00  0.73329438405E+03  0.73329438405E+03  0.00000000000E+00 0.  1.
          1   -1    0    0  502    0  0.00000000000E+00 -0.00000000000E+00 -0.21544522801E+04  0.21544522801E+04  0.00000000000E+00 0. -1.
          6    1    1    2  502    0 -0.31373228004E+03 -0.31702907083E+03 -0.20459499015E+04  0.21010545864E+04  0.17200000000E+03 0. -1.
         -6    1    1    2    0  501  0.31373228004E+03  0.31702907083E+03  0.62479200543E+03  0.78669207785E+03  0.17200000000E+03 0.  1.
</event>
<event>
 4    1  0.3115421E-002  0.2548009E+03  0.7818608E-02  0.1110308E+00
         -4   -1    0    0    0  501 -0.00000000000E+00  0.00000000000E+00  0.10524096717E+04  0.10524096717E+04  0.00000000000E+00 0.  1.
          4   -1    0    0  502    0  0.00000000000E+00 -0.00000000000E+00 -0.65267397566E+02  0.65267397566E+02  0.00000000000E+00 0. -1.
          6    1    1    2  502    0  0.18744200283E+03 -0.14316732587E+02  0.62439992205E+03  0.67438767480E+03  0.17200000000E+03 0. -1.
         -6    1    1    2    0  501 -0.18744200283E+03  0.14316732587E+02  0.36274235210E+03  0.44328939449E+03  0.17200000000E+03 0. -1.
</event>
<event>
 4    1  0.3115421E-002  0.1913271E+03  0.7818608E-02  0.1157270E+00
          2   -1    0    0  502    0  0.00000000000E+00  0.00000000000E+00  0.78459238302E+03  0.78459238302E+03  0.00000000000E+00 0. -1.
         -2   -1    0    0    0  501 -0.00000000000E+00 -0.00000000000E+00 -0.26957736204E+03  0.26957736204E+03  0.00000000000E+00 0.  1.
          6    1    1    2  502    0  0.33402201948E+02  0.76852881693E+02  0.73681534150E+03  0.76125089161E+03  0.17200000000E+03 0. -1.
         -6    1    1    2    0  501 -0.33402201948E+02 -0.76852881693E+02 -0.22180032052E+03  0.29291885344E+03  0.17200000000E+03 0.  1.
</event>
<event>
 4    1  0.3115421E-002  0.7011842E+03  0.7818608E-02  0.9715209E-01
          2   -1    0    0  502    0  0.00000000000E+00  0.00000000000E+00  0.16760775131E+04  0.16760775131E+04  0.00000000000E+00 0. -1.
         -2   -1    0    0    0  501 -0.00000000000E+00 -0.00000000000E+00 -0.33588908674E+03  0.33588908674E+03  0.00000000000E+00 0.  1.
          6    1    1    2  502    0  0.19119177157E+03 -0.65231971674E+03  0.10281426788E+04  0.12444824926E+04  0.17200000000E+03 0. -1.
         -6    1    1    2    0  501 -0.19119177157E+03  0.65231971674E+03  0.31204574759E+03  0.76748410729E+03  0.17200000000E+03 0.  1.
</event>
<event>
 4    1  0.3115421E-002  0.3472672E+03  0.7818608E-02  0.1063742E+00
         -2   -1    0    0    0  501 -0.00000000000E+00  0.00000000000E+00  0.39323696666E+03  0.39323696666E+03  0.00000000000E+00 0.  1.
          2   -1    0    0  502    0  0.00000000000E+00 -0.00000000000E+00 -0.58451085169E+03  0.58451085169E+03  0.00000000000E+00 0. -1.
          6    1    1    2  502    0 -0.28562800764E+03 -0.97093445298E+02 -0.43268947712E+03  0.55481048970E+03  0.17200000000E+03 0. -1.
         -6    1    1    2    0  501  0.28562800764E+03  0.97093445298E+02  0.24141559208E+03  0.42293732865E+03  0.17200000000E+03 0.  1.
</event>
<event>
 4    1  0.3115421E-002  0.1748226E+03  0.7818608E-02  0.1172910E+00
          2   -1    0    0  502    0  0.00000000000E+00  0.00000000000E+00  0.88043491571E+03  0.88043491571E+03  0.00000000000E+00 0. -1.
         -2   -1    0    0    0  501 -0.00000000000E+00 -0.00000000000E+00 -0.35706232048E+02  0.35706232048E+02  0.00000000000E+00 0.  1.
          6    1    1    2  502    0  0.15278612323E+01 -0.31250716884E+02  0.49874533351E+03  0.52849772881E+03  0.17200000000E+03 0. -1.
         -6    1    1    2    0  501 -0.15278612323E+01  0.31250716884E+02  0.34598335015E+03  0.38764341894E+03  0.17200000000E+03 0. -1.
</event>
<event>
 4    1  0.3115421E-002  0.1827401E+03  0.7818608E-02  0.1165177E+00
         -1   -1    0    0    0  501 -0.00000000000E+00  0.00000000000E+00  0.13060614237E+03  0.13060614237E+03  0.00000000000E+00 0.  1.
          1   -1    0    0  502    0  0.00000000000E+00 -0.00000000000E+00 -0.89177626832E+03  0.89177626832E+03  0.00000000000E+00 0. -1.
          6    1    1    2  502    0  0.59109593193E+02  0.17775988693E+02 -0.81231821734E+03  0.83261925032E+03  0.17200000000E+03 0. -1.
         -6    1    1    2    0  501 -0.59109593193E+02 -0.17775988693E+02  0.51148091395E+02  0.18976316037E+03  0.17200000000E+03 0.  1.
</event>
<event>
 4    1  0.3115421E-002  0.1977896E+03  0.7818608E-02  0.1151617E+00
          1   -1    0    0  502    0  0.00000000000E+00  0.00000000000E+00  0.81046882376E+03  0.81046882376E+03  0.00000000000E+00 0. -1.
         -1   -1    0    0    0  501 -0.00000000000E+00 -0.00000000000E+00 -0.10418147429E+03  0.10418147429E+03  0.00000000000E+00 0.  1.
          6    1    1    2  502    0 -0.43649599209E+02  0.87358148542E+02  0.68817326446E+03  0.71603294306E+03  0.17200000000E+03 0. -1.
         -6    1    1    2    0  501  0.43649599209E+02 -0.87358148542E+02  0.18114085011E+02  0.19861735499E+03  0.17200000000E+03 0.  1.
</event>
<event>
 4    1  0.3115421E-002  0.3975321E+03  0.7818608E-02  0.1044638E+00
         -2   -1    0    0    0  501 -0.00000000000E+00  0.00000000000E+00  0.38457001684E+03  0.38457001684E+03  0.00000000000E+00 0.  1.
          2   -1    0    0  502    0  0.00000000000E+00 -0.00000000000E+00 -0.16301450689E+04  0.16301450689E+04  0.00000000000E+00 0. -1.
          6    1    1    2  502    0  0.22257725966E+03 -0.28090412544E+03 -0.14939727236E+04  0.15459580405E+04  0.17200000000E+03 0. -1.
         -6    1    1    2    0  501 -0.22257725966E+03  0.28090412544E+03  0.24839767154E+03  0.46875704521E+03  0.17200000000E+03 0.  1.
</event>
<event>
 4    1  0.3115421E-002  0.2831423E+03  0.7818608E-02  0.1093985E+00
          2   -1    0    0  502    0  0.00000000000E+00  0.00000000000E+00  0.69493174119E+03  0.69493174119E+03  0.00000000000E+00 0. -1.
         -2   -1    0    0    0  501 -0.00000000000E+00 -0.00000000000E+00 -0.12835989570E+03  0.12835989570E+03  0.00000000000E+00 0.  1.
          6    1    1    2  502    0  0.17310230809E+03 -0.14360057552E+03  0.15229962462E+03  0.32150382582E+03  0.17200000000E+03 0.  1.
         -6    1    1    2    0  501 -0.17310230809E+03  0.14360057552E+03  0.41427222087E+03  0.50178781107E+03  0.17200000000E+03 0. -1.
</event>
<event>
 4    1  0.3115421E-002  0.1817634E+03  0.7818608E-02  0.1166107E+00
         -2   -1    0    0    0  501 -0.00000000000E+00  0.00000000000E+00  0.10060835884E+03  0.10060835884E+03  0.00000000000E+00 0.  1.
          2   -1    0    0  502    0  0.00000000000E+00 -0.00000000000E+00 -0.60319413694E+03  0.60319413694E+03  0.00000000000E+00 0. -1.
          6    1    1    2  502    0  0.28406789303E+02  0.51448916831E+02 -0.48881853031E+03  0.52151844867E+03  0.17200000000E+03 0. -1.
         -6    1    1    2    0  501 -0.28406789303E+02 -0.51448916831E+02 -0.13767247788E+02  0.18228404712E+03  0.17200000000E+03 0.  1.
</event>
<event>
 4    1  0.3115421E-002  0.1972628E+03  0.7818608E-02  0.1152069E+00
         -1   -1    0    0    0  501 -0.00000000000E+00  0.00000000000E+00  0.14857035155E+03  0.14857035155E+03  0.00000000000E+00 0.  1.
          1   -1    0    0  502    0  0.00000000000E+00 -0.00000000000E+00 -0.52089510660E+03  0.52089510660E+03  0.00000000000E+00 0. -1.
          6    1    1    2  502    0  0.58708257460E+02 -0.76693942166E+02  0.49862226131E+02  0.20346710263E+03  0.17200000000E+03 0.  1.
         -6    1    1    2    0  501 -0.58708257460E+02  0.76693942166E+02 -0.42218698118E+03  0.46599835551E+03  0.17200000000E+03 0. -1.
</event>
<event>
 4    1  0.3115421E-002  0.9948595E+03  0.7818608E-02  0.9314201E-01
         -2   -1    0    0    0  501 -0.00000000000E+00  0.00000000000E+00  0.51754140287E+03  0.51754140287E+03  0.00000000000E+00 0.  1.
          2   -1    0    0  502    0  0.00000000000E+00 -0.00000000000E+00 -0.19622009576E+04  0.19622009576E+04  0.00000000000E+00 0. -1.
          6    1    1    2  502    0 -0.82302715260E+03 -0.53177795283E+03 -0.91985816366E+03  0.13549481637E+04  0.17200000000E+03 0. -1.
         -6    1    1    2    0  501  0.82302715260E+03  0.53177795283E+03 -0.52480139106E+03  0.11247941968E+04  0.17200000000E+03 0.  1.
</event>
<event>
 4    1  0.3115421E-002  0.2692880E+03  0.7818608E-02  0.1101688E+00
          2   -1    0    0  502    0  0.00000000000E+00  0.00000000000E+00  0.14293651917E+03  0.14293651917E+03  0.00000000000E+00 0. -1.
         -2   -1    0    0    0  501 -0.00000000000E+00 -0.00000000000E+00 -0.55534884531E+03  0.55534884531E+03  0.00000000000E+00 0.  1.
          6    1    1    2  502    0 -0.10508151368E+03  0.17857743721E+03 -0.10354065607E+03  0.28850770017E+03  0.17200000000E+03 0. -1.
         -6    1    1    2    0  501  0.10508151368E+03 -0.17857743721E+03 -0.30887167007E+03  0.40977766431E+03  0.17200000000E+03 0.  1.
</event>
<event>
 4    1  0.3115421E-002  0.1928548E+03  0.7818608E-02  0.1155911E+00
         -4   -1    0    0    0  501 -0.00000000000E+00  0.00000000000E+00  0.18674508626E+03  0.18674508626E+03  0.00000000000E+00 0.  1.
          4   -1    0    0  502    0  0.00000000000E+00 -0.00000000000E+00 -0.21303357399E+03  0.21303357399E+03  0.00000000000E+00 0. -1.
          6    1    1    2  502    0 -0.86005746730E+02  0.14559675816E+02 -0.64146679896E+02  0.20324312823E+03  0.17200000000E+03 0. -1.
         -6    1    1    2    0  501  0.86005746730E+02 -0.14559675816E+02  0.37858192165E+02  0.19653553202E+03  0.17200000000E+03 0.  1.
</event>
<event>
 4    1  0.3115421E-002  0.2151036E+03  0.7818608E-02  0.1137587E+00
          2   -1    0    0  502    0  0.00000000000E+00  0.00000000000E+00  0.11673433987E+03  0.11673433987E+03  0.00000000000E+00 0. -1.
         -2   -1    0    0    0  501 -0.00000000000E+00 -0.00000000000E+00 -0.44906190663E+03  0.44906190663E+03  0.00000000000E+00 0.  1.
          6    1    1    2  502    0 -0.56438844502E+02 -0.11619051155E+03 -0.69254927833E+02  0.22597748377E+03  0.17200000000E+03 0. -1.
         -6    1    1    2    0  501  0.56438844502E+02  0.11619051155E+03 -0.26307263893E+03  0.33981876272E+03  0.17200000000E+03 0.  1.
</event>
<event>
 4    1  0.3115421E-002  0.2080187E+03  0.7818608E-02  0.1143145E+00
          2   -1    0    0  502    0  0.00000000000E+00  0.00000000000E+00  0.31423889074E+04  0.31423889074E+04  0.00000000000E+00 0. -1.
         -2   -1    0    0    0  501 -0.00000000000E+00 -0.00000000000E+00 -0.13839700163E+02  0.13839700163E+02  0.00000000000E+00 0.  1.
          6    1    1    2  502    0 -0.10812162266E+03 -0.44693412582E+02  0.16759885780E+04  0.16888485722E+04  0.17200000000E+03 0. -1.
         -6    1    1    2    0  501  0.10812162266E+03  0.44693412582E+02  0.14525606293E+04  0.14673800353E+04  0.17200000000E+03 0.  1.
</event>
<event>
 4    1  0.3115421E-002  0.2044217E+03  0.7818608E-02  0.1146061E+00
          1   -1    0    0  502    0  0.00000000000E+00  0.00000000000E+00  0.12476668565E+03  0.12476668565E+03  0.00000000000E+00 0. -1.
         -1   -1    0    0    0  501 -0.00000000000E+00 -0.00000000000E+00 -0.43317756155E+03  0.43317756155E+03  0.00000000000E+00 0.  1.
          6    1    1    2  502    0 -0.10102910886E+03  0.44691908551E+02 -0.21347895197E+02  0.20553340399E+03  0.17200000000E+03 0. -1.
         -6    1    1    2    0  501  0.10102910886E+03 -0.44691908551E+02 -0.28706298070E+03  0.35241084321E+03  0.17200000000E+03 0.  1.
</event>
<event>
 4    1  0.3115421E-002  0.1787745E+03  0.7818608E-02  0.1168994E+00
         -3   -1    0    0    0  501 -0.00000000000E+00  0.00000000000E+00  0.11946716801E+03  0.11946716801E+03  0.00000000000E+00 0.  1.
          3   -1    0    0  502    0  0.00000000000E+00 -0.00000000000E+00 -0.31007905970E+03  0.31007905970E+03  0.00000000000E+00 0. -1.
          6    1    1    2  502    0  0.29027800127E+02  0.39162492392E+02 -0.15741291721E+02  0.17946615908E+03  0.17200000000E+03 0.  1.
         -6    1    1    2    0  501 -0.29027800127E+02 -0.39162492392E+02 -0.17487059998E+03  0.25008006863E+03  0.17200000000E+03 0. -1.
</event>
<event>
 4    1  0.3115421E-002  0.2665465E+03  0.7818608E-02  0.1103273E+00
          2   -1    0    0  502    0  0.00000000000E+00  0.00000000000E+00  0.53171080467E+03  0.53171080467E+03  0.00000000000E+00 0. -1.
         -2   -1    0    0    0  501 -0.00000000000E+00 -0.00000000000E+00 -0.15697186202E+03  0.15697186202E+03  0.00000000000E+00 0.  1.
          6    1    1    2  502    0 -0.20321894148E+03  0.12848135381E+02  0.54555964359E+02  0.27207235436E+03  0.17200000000E+03 0.  1.
         -6    1    1    2    0  501  0.20321894148E+03 -0.12848135381E+02  0.32018297829E+03  0.41661031233E+03  0.17200000000E+03 0. -1.
</event>
<event>
 4    1  0.3115421E-002  0.1879480E+03  0.7818608E-02  0.1160325E+00
          4   -1    0    0  502    0  0.00000000000E+00  0.00000000000E+00  0.23762759806E+03  0.23762759806E+03  0.00000000000E+00 0. -1.
         -4   -1    0    0    0  501 -0.00000000000E+00 -0.00000000000E+00 -0.16945265442E+03  0.16945265442E+03  0.00000000000E+00 0.  1.
          6    1    1    2  502    0 -0.65403146307E+02  0.38247561106E+02  0.10539521341E+03  0.21548224634E+03  0.17200000000E+03 0. -1.
         -6    1    1    2    0  501  0.65403146307E+02 -0.38247561106E+02 -0.37220269760E+02  0.19159800614E+03  0.17200000000E+03 0.  1.
</event>
<event>
 4    1  0.3115421E-002  0.2869987E+03  0.7818608E-02  0.1091927E+00
          2   -1    0    0  502    0  0.00000000000E+00  0.00000000000E+00  0.35663576801E+03  0.35663576801E+03  0.00000000000E+00 0. -1.
         -2   -1    0    0    0  501 -0.00000000000E+00 -0.00000000000E+00 -0.23200735172E+03  0.23200735172E+03  0.00000000000E+00 0.  1.
          6    1    1    2  502    0  0.17410922837E+03  0.14990073029E+03  0.82098373790E+02  0.29851029350E+03  0.17200000000E+03 0. -1.
         -6    1    1    2    0  501 -0.17410922837E+03 -0.14990073029E+03  0.42530042502E+02  0.29013282624E+03  0.17200000000E+03 0.  1.
</event>
<event>
 4    1  0.3115421E-002  0.4291616E+03  0.7818608E-02  0.1034125E+00
          2   -1    0    0  502    0  0.00000000000E+00  0.00000000000E+00  0.10448932843E+04  0.10448932843E+04  0.00000000000E+00 0. -1.
         -2   -1    0    0    0  501 -0.00000000000E+00 -0.00000000000E+00 -0.28782057521E+03  0.28782057521E+03  0.00000000000E+00 0.  1.
          6    1    1    2  502    0  0.37981555716E+02  0.39134781476E+03  0.79338403580E+03  0.90201881297E+03  0.17200000000E+03 0. -1.
         -6    1    1    2    0  501 -0.37981555716E+02 -0.39134781476E+03 -0.36311326689E+02  0.43069504657E+03  0.17200000000E+03 0.  1.
</event>
<event>
 4    1  0.3115421E-002  0.3898645E+03  0.7818608E-02  0.1047347E+00
         -2   -1    0    0    0  501 -0.00000000000E+00  0.00000000000E+00  0.56823525767E+03  0.56823525767E+03  0.00000000000E+00 0.  1.
          2   -1    0    0  502    0  0.00000000000E+00 -0.00000000000E+00 -0.27209748590E+03  0.27209748590E+03  0.00000000000E+00 0. -1.
          6    1    1    2  502    0  0.20844068912E+03 -0.28100327830E+03  0.93363479696E+02  0.40088789285E+03  0.17200000000E+03 0. -1.
         -6    1    1    2    0  501 -0.20844068912E+03  0.28100327830E+03  0.20277429208E+03  0.43944485072E+03  0.17200000000E+03 0.  1.
</event>
<event>
 4    1  0.3115421E-002  0.2632958E+03  0.7818608E-02  0.1105179E+00
         -1   -1    0    0    0  501 -0.00000000000E+00  0.00000000000E+00  0.22036185609E+03  0.22036185609E+03  0.00000000000E+00 0.  1.
          1   -1    0    0  502    0  0.00000000000E+00 -0.00000000000E+00 -0.32046035067E+03  0.32046035067E+03  0.00000000000E+00 0. -1.
          6    1    1    2  502    0 -0.15951858460E+03  0.11955954757E+03 -0.86633717472E+02  0.27718236822E+03  0.17200000000E+03 0.  1.
         -6    1    1    2    0  501  0.15951858460E+03 -0.11955954757E+03 -0.13464777115E+02  0.26363983855E+03  0.17200000000E+03 0. -1.
</event>
<event>
 4    1  0.3115421E-002  0.2196511E+03  0.7818608E-02  0.1134143E+00
         -2   -1    0    0    0  501 -0.00000000000E+00  0.00000000000E+00  0.83866077273E+02  0.83866077273E+02  0.00000000000E+00 0.  1.
          2   -1    0    0  502    0  0.00000000000E+00 -0.00000000000E+00 -0.59160562201E+03  0.59160562201E+03  0.00000000000E+00 0. -1.
          6    1    1    2  502    0 -0.13607619157E+03  0.12077279634E+02 -0.19776783523E+03  0.29556506432E+03  0.17200000000E+03 0.  1.
         -6    1    1    2    0  501  0.13607619157E+03 -0.12077279634E+02 -0.30997170950E+03  0.37990663496E+03  0.17200000000E+03 0.  1.
</event>
<event>
 4    1  0.3115421E-002  0.2287890E+03  0.7818608E-02  0.1127495E+00
          1   -1    0    0  502    0  0.00000000000E+00  0.00000000000E+00  0.13992007340E+04  0.13992007340E+04  0.00000000000E+00 0. -1.
         -1   -1    0    0    0  501 -0.00000000000E+00 -0.00000000000E+00 -0.43390005106E+02  0.43390005106E+02  0.00000000000E+00 0.  1.
          6    1    1    2  502    0  0.73972190337E+02  0.13148589494E+03  0.94567455705E+03  0.97295672738E+03  0.17200000000E+03 0. -1.
         -6    1    1    2    0  501 -0.73972190337E+02 -0.13148589494E+03  0.41013617184E+03  0.46963401172E+03  0.17200000000E+03 0.  1.
</event>
<event>
 4    1  0.3115421E-002  0.2071193E+03  0.7818608E-02  0.1143868E+00
         -2   -1    0    0    0  501 -0.00000000000E+00  0.00000000000E+00  0.12382993565E+02  0.12382993565E+02  0.00000000000E+00 0.  1.
          2   -1    0    0  502    0  0.00000000000E+00 -0.00000000000E+00 -0.36437000439E+04  0.36437000439E+04  0.00000000000E+00 0. -1.
          6    1    1    2  502    0 -0.96366451632E+02  0.63465726631E+02 -0.22212859442E+04  0.22309212531E+04  0.17200000000E+03 0. -1.
         -6    1    1    2    0  501  0.96366451632E+02 -0.63465726631E+02 -0.14100311061E+04  0.14251617844E+04  0.17200000000E+03 0. -1.
</event>
<event>
 4    1  0.3115421E-002  0.2381765E+03  0.7818608E-02  0.1121014E+00
          1   -1    0    0  502    0  0.00000000000E+00  0.00000000000E+00  0.30768271203E+04  0.30768271203E+04  0.00000000000E+00 0. -1.
         -1   -1    0    0    0  501 -0.00000000000E+00 -0.00000000000E+00 -0.22121435601E+02  0.22121435601E+02  0.00000000000E+00 0.  1.
          6    1    1    2  502    0  0.10812873852E+02 -0.16439927387E+03  0.21596949943E+04  0.21727886477E+04  0.17200000000E+03 0. -1.
         -6    1    1    2    0  501 -0.10812873852E+02  0.16439927387E+03  0.89501069038E+03  0.92615990811E+03  0.17200000000E+03 0.  1.
</event>
<event>
 4    1  0.3115421E-002  0.1823116E+03  0.7818608E-02  0.1165584E+00
          2   -1    0    0  502    0  0.00000000000E+00  0.00000000000E+00  0.16382484500E+03  0.16382484500E+03  0.00000000000E+00 0. -1.
         -2   -1    0    0    0  501 -0.00000000000E+00 -0.00000000000E+00 -0.25107769302E+03  0.25107769302E+03  0.00000000000E+00 0.  1.
          6    1    1    2  502    0 -0.31382069813E+02 -0.51659218039E+02  0.47261300326E+02  0.18833783375E+03  0.17200000000E+03 0. -1.
         -6    1    1    2    0  501  0.31382069813E+02  0.51659218039E+02 -0.13451414834E+03  0.22656470426E+03  0.17200000000E+03 0.  1.
</event>
<event>
 4    1  0.3115421E-002  0.2909194E+03  0.7818608E-02  0.1089870E+00
          1   -1    0    0  502    0  0.00000000000E+00  0.00000000000E+00  0.34396719221E+04  0.34396719221E+04  0.00000000000E+00 0. -1.
         -1   -1    0    0    0  501 -0.00000000000E+00 -0.00000000000E+00 -0.31604155268E+03  0.31604155268E+03  0.00000000000E+00 0.  1.
          6    1    1    2  502    0 -0.21400062966E+03 -0.96196896982E+02  0.33650910096E+04  0.33776429082E+04  0.17200000000E+03 0. -1.
         -6    1    1    2    0  501  0.21400062966E+03  0.96196896982E+02 -0.24146064023E+03  0.37807056652E+03  0.17200000000E+03 0.  1.
</event>
<event>
 4    1  0.3115421E-002  0.2033902E+03  0.7818608E-02  0.1146910E+00
          2   -1    0    0  502    0  0.00000000000E+00  0.00000000000E+00  0.30762910706E+04  0.30762910706E+04  0.00000000000E+00 0. -1.
         -2   -1    0    0    0  501 -0.00000000000E+00 -0.00000000000E+00 -0.16354338876E+02  0.16354338876E+02  0.00000000000E+00 0.  1.
          6    1    1    2  502    0  0.30766123565E+02 -0.10410098116E+03  0.21819192678E+04  0.21913783927E+04  0.17200000000E+03 0. -1.
         -6    1    1    2    0  501 -0.30766123565E+02  0.10410098116E+03  0.87801746390E+03  0.90126701679E+03  0.17200000000E+03 0.  1.
</event>
<event>
 4    1  0.3115421E-002  0.1789809E+03  0.7818608E-02  0.1168793E+00
          1   -1    0    0  502    0  0.00000000000E+00  0.00000000000E+00  0.56244307015E+03  0.56244307015E+03  0.00000000000E+00 0. -1.
         -1   -1    0    0    0  501 -0.00000000000E+00 -0.00000000000E+00 -0.61598177741E+02  0.61598177741E+02  0.00000000000E+00 0.  1.
          6    1    1    2  502    0 -0.16705038591E+02 -0.46595167410E+02  0.33608450143E+03  0.38077153260E+03  0.17200000000E+03 0.  1.
         -6    1    1    2    0  501  0.16705038591E+02  0.46595167410E+02  0.16476039098E+03  0.24326971529E+03  0.17200000000E+03 0.  1.
</event>
<event>
 4    1  0.3115421E-002  0.3461563E+03  0.7818608E-02  0.1064204E+00
          1   -1    0    0  502    0  0.00000000000E+00  0.00000000000E+00  0.75183882851E+03  0.75183882851E+03  0.00000000000E+00 0. -1.
         -1   -1    0    0    0  501 -0.00000000000E+00 -0.00000000000E+00 -0.16220166689E+03  0.16220166689E+03  0.00000000000E+00 0.  1.
          6    1    1    2  502    0  0.11350384964E+03  0.27813133781E+03  0.35515232216E+03  0.49594086028E+03  0.17200000000E+03 0.  1.
         -6    1    1    2    0  501 -0.11350384964E+03 -0.27813133781E+03  0.23448483946E+03  0.41809963512E+03  0.17200000000E+03 0. -1.
</event>
<event>
 4    1  0.3115421E-002  0.2198420E+03  0.7818608E-02  0.1134001E+00
         -2   -1    0    0    0  501 -0.00000000000E+00  0.00000000000E+00  0.21108489534E+03  0.21108489534E+03  0.00000000000E+00 0.  1.
          2   -1    0    0  502    0  0.00000000000E+00 -0.00000000000E+00 -0.36262402152E+03  0.36262402152E+03  0.00000000000E+00 0. -1.
          6    1    1    2  502    0 -0.39844209902E+00 -0.13691729790E+03  0.98385728403E+02  0.24085318510E+03  0.17200000000E+03 0.  1.
         -6    1    1    2    0  501  0.39844209902E+00  0.13691729790E+03 -0.24992485458E+03  0.33285573175E+03  0.17200000000E+03 0. -1.
</event>
<event>
 4    1  0.3115421E-002  0.1782868E+03  0.7818608E-02  0.1169471E+00
         -2   -1    0    0    0  501 -0.00000000000E+00  0.00000000000E+00  0.20528278385E+02  0.20528278385E+02  0.00000000000E+00 0.  1.
          2   -1    0    0  502    0  0.00000000000E+00 -0.00000000000E+00 -0.38473416501E+04  0.38473416501E+04  0.00000000000E+00 0. -1.
          6    1    1    2  502    0 -0.46099359857E+02  0.87764150210E+01 -0.34083495254E+04  0.34130093266E+04  0.17200000000E+03 0. -1.
         -6    1    1    2    0  501  0.46099359857E+02 -0.87764150210E+01 -0.41846384634E+03  0.45486060187E+03  0.17200000000E+03 0.  1.
</event>
<event>
 4    1  0.3115421E-002  0.1733781E+03  0.7818608E-02  0.1174370E+00
         -1   -1    0    0    0  501 -0.00000000000E+00  0.00000000000E+00  0.66458521143E+02  0.66458521143E+02  0.00000000000E+00 0.  1.
          1   -1    0    0  502    0  0.00000000000E+00 -0.00000000000E+00 -0.45331972501E+03  0.45331972501E+03  0.00000000000E+00 0. -1.
          6    1    1    2  502    0  0.16216448180E+02  0.14594484613E+02 -0.20568532884E+03  0.26901008657E+03  0.17200000000E+03 0. -1.
         -6    1    1    2    0  501 -0.16216448180E+02 -0.14594484613E+02 -0.18117587503E+03  0.25076815959E+03  0.17200000000E+03 0.  1.
</event>
<event>
 4    1  0.3115421E-002  0.3595957E+03  0.7818608E-02  0.1058744E+00
          2   -1    0    0  502    0  0.00000000000E+00  0.00000000000E+00  0.13700213310E+04  0.13700213310E+04  0.00000000000E+00 0. -1.
         -2   -1    0    0    0  501 -0.00000000000E+00 -0.00000000000E+00 -0.22315699761E+03  0.22315699761E+03  0.00000000000E+00 0.  1.
          6    1    1    2  502    0 -0.21337822588E+03 -0.23279781223E+03  0.11785505089E+04  0.12321892674E+04  0.17200000000E+03 0. -1.
         -6    1    1    2    0  501  0.21337822588E+03  0.23279781223E+03 -0.31686175427E+02  0.36098906129E+03  0.17200000000E+03 0.  1.
</event>
<event>
 4    1  0.3115421E-002  0.2736321E+03  0.7818608E-02  0.1099219E+00
         -1   -1    0    0    0  501 -0.00000000000E+00  0.00000000000E+00  0.88617723020E+02  0.88617723020E+02  0.00000000000E+00 0.  1.
          1   -1    0    0  502    0  0.00000000000E+00 -0.00000000000E+00 -0.84663092791E+03  0.84663092791E+03  0.00000000000E+00 0. -1.
          6    1    1    2  502    0  0.14254443619E+03  0.15802416008E+03 -0.40005142420E+03  0.48468102238E+03  0.17200000000E+03 0. -1.
         -6    1    1    2    0  501 -0.14254443619E+03 -0.15802416008E+03 -0.35796178070E+03  0.45056762855E+03  0.17200000000E+03 0. -1.
</event>
<event>
 4    1  0.3115421E-002  0.4146174E+03  0.7818608E-02  0.1038833E+00
          2   -1    0    0  502    0  0.00000000000E+00  0.00000000000E+00  0.12310630770E+04  0.12310630770E+04  0.00000000000E+00 0. -1.
         -2   -1    0    0    0  501 -0.00000000000E+00 -0.00000000000E+00 -0.14366257301E+03  0.14366257301E+03  0.00000000000E+00 0.  1.
          6    1    1    2  502    0  0.31147269157E+03 -0.21285759693E+03  0.65869574898E+03  0.77832363699E+03  0.17200000000E+03 0. -1.
         -6    1    1    2    0  501 -0.31147269157E+03  0.21285759693E+03  0.42870475495E+03  0.59640201298E+03  0.17200000000E+03 0.  1.
</event>
<event>
 4    1  0.3115421E-002  0.2397247E+03  0.7818608E-02  0.1119976E+00
          1   -1    0    0  502    0  0.00000000000E+00  0.00000000000E+00  0.57701016765E+03  0.57701016765E+03  0.00000000000E+00 0. -1.
         -1   -1    0    0    0  501 -0.00000000000E+00 -0.00000000000E+00 -0.51426578291E+03  0.51426578291E+03  0.00000000000E+00 0.  1.
          6    1    1    2  502    0  0.13924190466E+03  0.92171757368E+02  0.52133367026E+03  0.57380897223E+03  0.17200000000E+03 0. -1.
         -6    1    1    2    0  501 -0.13924190466E+03 -0.92171757368E+02 -0.45858928552E+03  0.51746697833E+03  0.17200000000E+03 0.  1.
</event>
<event>
 4    1  0.3115421E-002  0.1856067E+03  0.7818608E-02  0.1162485E+00
          2   -1    0    0  502    0  0.00000000000E+00  0.00000000000E+00  0.10521253974E+04  0.10521253974E+04  0.00000000000E+00 0. -1.
         -2   -1    0    0    0  501 -0.00000000000E+00 -0.00000000000E+00 -0.45292627715E+02  0.45292627715E+02  0.00000000000E+00 0.  1.
          6    1    1    2  502    0  0.69701619063E+02  0.27430977321E+01  0.79224627677E+03  0.81369773463E+03  0.17200000000E+03 0. -1.
         -6    1    1    2    0  501 -0.69701619063E+02 -0.27430977321E+01  0.21458649286E+03  0.28372029044E+03  0.17200000000E+03 0.  1.
</event>
<event>
 4    1  0.3115421E-002  0.1853787E+03  0.7818608E-02  0.1162697E+00
         -2   -1    0    0    0  501 -0.00000000000E+00  0.00000000000E+00  0.97001547715E+02  0.97001547715E+02  0.00000000000E+00 0.  1.
          2   -1    0    0  502    0  0.00000000000E+00 -0.00000000000E+00 -0.49745021781E+03  0.49745021781E+03  0.00000000000E+00 0. -1.
          6    1    1    2  502    0 -0.68844710475E+02  0.64554243514E+01 -0.35968187563E+03  0.40464344591E+03  0.17200000000E+03 0. -1.
         -6    1    1    2    0  501  0.68844710475E+02 -0.64554243514E+01 -0.40766794470E+02  0.18980831962E+03  0.17200000000E+03 0.  1.
</event>
<event>
 4    1  0.3115421E-002  0.2645578E+03  0.7818608E-02  0.1104435E+00
          1   -1    0    0  502    0  0.00000000000E+00  0.00000000000E+00  0.34200003539E+03  0.34200003539E+03  0.00000000000E+00 0. -1.
         -1   -1    0    0    0  501 -0.00000000000E+00 -0.00000000000E+00 -0.26117729732E+03  0.26117729732E+03  0.00000000000E+00 0.  1.
          6    1    1    2  502    0 -0.19542703983E+03 -0.47065102685E+02  0.18071544866E+03  0.32038870950E+03  0.17200000000E+03 0. -1.
         -6    1    1    2    0  501  0.19542703983E+03  0.47065102685E+02 -0.99892710592E+02  0.28278862321E+03  0.17200000000E+03 0. -1.
</event>
<event>
 4    1  0.3115421E-002  0.3207371E+03  0.7818608E-02  0.1075311E+00
          2   -1    0    0  502    0  0.00000000000E+00  0.00000000000E+00  0.35515302434E+03  0.35515302434E+03  0.00000000000E+00 0. -1.
         -2   -1    0    0    0  501 -0.00000000000E+00 -0.00000000000E+00 -0.30610943227E+03  0.30610943227E+03  0.00000000000E+00 0.  1.
          6    1    1    2  502    0  0.24328058007E+02  0.26962276001E+03 -0.52131475501E+02  0.32494611531E+03  0.17200000000E+03 0. -1.
         -6    1    1    2    0  501 -0.24328058007E+02 -0.26962276001E+03  0.10117506758E+03  0.33631634129E+03  0.17200000000E+03 0.  1.
</event>
<event>
 4    1  0.3115421E-002  0.2219309E+03  0.7818608E-02  0.1132452E+00
         -1   -1    0    0    0  501 -0.00000000000E+00  0.00000000000E+00  0.12861410294E+02  0.12861410294E+02  0.00000000000E+00 0.  1.
          1   -1    0    0  502    0  0.00000000000E+00 -0.00000000000E+00 -0.39670831482E+04  0.39670831482E+04  0.00000000000E+00 0. -1.
          6    1    1    2  502    0 -0.87351682415E+02 -0.10972231486E+03 -0.16065763338E+04  0.16218325496E+04  0.17200000000E+03 0.  1.
         -6    1    1    2    0  501  0.87351682415E+02  0.10972231486E+03 -0.23476454041E+04  0.23581120088E+04  0.17200000000E+03 0.  1.
</event>
<event>
 4    1  0.3115421E-002  0.2836969E+03  0.7818608E-02  0.1093687E+00
         -2   -1    0    0    0  501 -0.00000000000E+00  0.00000000000E+00  0.48186577698E+02  0.48186577698E+02  0.00000000000E+00 0.  1.
          2   -1    0    0  502    0  0.00000000000E+00 -0.00000000000E+00 -0.16703320883E+04  0.16703320883E+04  0.00000000000E+00 0. -1.
          6    1    1    2  502    0  0.22457408255E+03  0.21596401935E+02 -0.81687007412E+03  0.86473154281E+03  0.17200000000E+03 0.  1.
         -6    1    1    2    0  501 -0.22457408255E+03 -0.21596401935E+02 -0.80527543653E+03  0.85378712324E+03  0.17200000000E+03 0.  1.
</event>
<event>
 4    1  0.3115421E-002  0.2276992E+03  0.7818608E-02  0.1128270E+00
          2   -1    0    0  502    0  0.00000000000E+00  0.00000000000E+00  0.70980803879E+03  0.70980803879E+03  0.00000000000E+00 0. -1.
         -2   -1    0    0    0  501 -0.00000000000E+00 -0.00000000000E+00 -0.10740022013E+03  0.10740022013E+03  0.00000000000E+00 0.  1.
          6    1    1    2  502    0  0.41529720090E+02  0.14331152003E+03  0.53230692102E+03  0.57896249238E+03  0.17200000000E+03 0. -1.
         -6    1    1    2    0  501 -0.41529720090E+02 -0.14331152003E+03  0.70100897637E+02  0.23824576654E+03  0.17200000000E+03 0.  1.
</event>
<event>
 4    1  0.3115421E-002  0.1998997E+03  0.7818608E-02  0.1149824E+00
          2   -1    0    0  502    0  0.00000000000E+00  0.00000000000E+00  0.43765491426E+03  0.43765491426E+03  0.00000000000E+00 0. -1.
         -2   -1    0    0    0  501 -0.00000000000E+00 -0.00000000000E+00 -0.32817380367E+03  0.32817380367E+03  0.00000000000E+00 0.  1.
          6    1    1    2  502    0 -0.85905507247E+02 -0.54736938899E+02  0.38005551518E+03  0.42942063676E+03  0.17200000000E+03 0. -1.
         -6    1    1    2    0  501  0.85905507247E+02  0.54736938899E+02 -0.27057440459E+03  0.33640808117E+03  0.17200000000E+03 0.  1.
</event>
<event>
 4    1  0.3115421E-002  0.2048162E+03  0.7818608E-02  0.1145738E+00
         -2   -1    0    0    0  501 -0.00000000000E+00  0.00000000000E+00  0.78031454589E+03  0.78031454589E+03  0.00000000000E+00 0.  1.
          2   -1    0    0  502    0  0.00000000000E+00 -0.00000000000E+00 -0.97512605385E+02  0.97512605385E+02  0.00000000000E+00 0. -1.
          6    1    1    2  502    0 -0.22049644409E+02 -0.10899302959E+03  0.63540336294E+03  0.66759800850E+03  0.17200000000E+03 0.  1.
         -6    1    1    2    0  501  0.22049644409E+02  0.10899302959E+03  0.47398577573E+02  0.21022914278E+03  0.17200000000E+03 0. -1.
</event>
<event>
 4    1  0.3115421E-002  0.3087555E+03  0.7818608E-02  0.1080944E+00
         -1   -1    0    0    0  501 -0.00000000000E+00  0.00000000000E+00  0.73975411049E+03  0.73975411049E+03  0.00000000000E+00 0.  1.
          1   -1    0    0  502    0  0.00000000000E+00 -0.00000000000E+00 -0.13407587860E+03  0.13407587860E+03  0.00000000000E+00 0. -1.
          6    1    1    2  502    0  0.94614805500E+02  0.23831492736E+03  0.38895626111E+03  0.49660541588E+03  0.17200000000E+03 0. -1.
         -6    1    1    2    0  501 -0.94614805500E+02 -0.23831492736E+03  0.21672197077E+03  0.37722457322E+03  0.17200000000E+03 0.  1.
</event>
<event>
 4    1  0.3115421E-002  0.2917438E+03  0.7818608E-02  0.1089442E+00
          2   -1    0    0  502    0  0.00000000000E+00  0.00000000000E+00  0.25460846360E+03  0.25460846360E+03  0.00000000000E+00 0. -1.
         -2   -1    0    0    0  501 -0.00000000000E+00 -0.00000000000E+00 -0.99614710779E+03  0.99614710779E+03  0.00000000000E+00 0.  1.
          6    1    1    2  502    0 -0.21294202289E+03 -0.10092651536E+03  0.13898512296E+03  0.32315836833E+03  0.17200000000E+03 0. -1.
         -6    1    1    2    0  501  0.21294202289E+03  0.10092651536E+03 -0.88052376716E+03  0.92759720307E+03  0.17200000000E+03 0.  1.
</event>
<event>
 4    1  0.3115421E-002  0.2303324E+03  0.7818608E-02  0.1126406E+00
         -4   -1    0    0    0  501 -0.00000000000E+00  0.00000000000E+00  0.32994981496E+03  0.32994981496E+03  0.00000000000E+00 0.  1.
          4   -1    0    0  502    0  0.00000000000E+00 -0.00000000000E+00 -0.18804984880E+03  0.18804984880E+03  0.00000000000E+00 0. -1.
          6    1    1    2  502    0 -0.14384365858E+03 -0.52707089908E+02 -0.27658650012E+02  0.23198714697E+03  0.17200000000E+03 0. -1.
         -6    1    1    2    0  501  0.14384365858E+03  0.52707089908E+02  0.16955861617E+03  0.28601251679E+03  0.17200000000E+03 0.  1.
</event>
<event>
 4    1  0.3115421E-002  0.3317754E+03  0.7818608E-02  0.1070354E+00
          1   -1    0    0  502    0  0.00000000000E+00  0.00000000000E+00  0.19801784730E+03  0.19801784730E+03  0.00000000000E+00 0. -1.
         -1   -1    0    0    0  501 -0.00000000000E+00 -0.00000000000E+00 -0.63834155734E+03  0.63834155734E+03  0.00000000000E+00 0.  1.
          6    1    1    2  502    0 -0.16953705296E+03  0.22748216326E+03 -0.37045933664E+03  0.49730781919E+03  0.17200000000E+03 0. -1.
         -6    1    1    2    0  501  0.16953705296E+03 -0.22748216326E+03 -0.69864373395E+02  0.33905158545E+03  0.17200000000E+03 0.  1.
</event>
<event>
 4    1  0.3115421E-002  0.3806064E+03  0.7818608E-02  0.1050710E+00
          2   -1    0    0  502    0  0.00000000000E+00  0.00000000000E+00  0.35043812618E+03  0.35043812618E+03  0.00000000000E+00 0. -1.
         -2   -1    0    0    0  501 -0.00000000000E+00 -0.00000000000E+00 -0.83101624548E+03  0.83101624548E+03  0.00000000000E+00 0.  1.
          6    1    1    2  502    0  0.22541001948E+03  0.25390458734E+03  0.17849060959E+03  0.42038091544E+03  0.17200000000E+03 0. -1.
         -6    1    1    2    0  501 -0.22541001948E+03 -0.25390458734E+03 -0.65906872889E+03  0.76107345622E+03  0.17200000000E+03 0.  1.
</event>
<event>
 4    1  0.3115421E-002  0.1984797E+03  0.7818608E-02  0.1151028E+00
         -1   -1    0    0    0  501 -0.00000000000E+00  0.00000000000E+00  0.26715907123E+02  0.26715907123E+02  0.00000000000E+00 0.  1.
          1   -1    0    0  502    0  0.00000000000E+00 -0.00000000000E+00 -0.16658397160E+04  0.16658397160E+04  0.00000000000E+00 0. -1.
          6    1    1    2  502    0 -0.97054677633E+02 -0.19763393972E+02 -0.11063301469E+04  0.11239931477E+04  0.17200000000E+03 0. -1.
         -6    1    1    2    0  501  0.97054677633E+02  0.19763393972E+02 -0.53279366204E+03  0.56856247546E+03  0.17200000000E+03 0.  1.
</event>
<event>
 4    1  0.3115421E-002  0.2339773E+03  0.7818608E-02  0.1123871E+00
          2   -1    0    0  502    0  0.00000000000E+00  0.00000000000E+00  0.72374465642E+03  0.72374465642E+03  0.00000000000E+00 0. -1.
         -2   -1    0    0    0  501 -0.00000000000E+00 -0.00000000000E+00 -0.84870283945E+02  0.84870283945E+02  0.00000000000E+00 0.  1.
          6    1    1    2  502    0  0.11481838453E+03 -0.10944462583E+03  0.45275796772E+03  0.50964219300E+03  0.17200000000E+03 0.  1.
         -6    1    1    2    0  501 -0.11481838453E+03  0.10944462583E+03  0.18611640476E+03  0.29897274737E+03  0.17200000000E+03 0.  1.
</event>
<event>
 4    1  0.3115421E-002  0.2177501E+03  0.7818608E-02  0.1135572E+00
         -1   -1    0    0    0  501 -0.00000000000E+00  0.00000000000E+00  0.11475452013E+03  0.11475452013E+03  0.00000000000E+00 0.  1.
          1   -1    0    0  502    0  0.00000000000E+00 -0.00000000000E+00 -0.74737582563E+03  0.74737582563E+03  0.00000000000E+00 0. -1.
          6    1    1    2  502    0  0.63550832854E+02 -0.11744108072E+03 -0.60456054217E+03  0.64257961760E+03  0.17200000000E+03 0. -1.
         -6    1    1    2    0  501 -0.63550832854E+02  0.11744108072E+03 -0.28060763323E+02  0.21955072816E+03  0.17200000000E+03 0.  1.
</event>
<event>
 4    1  0.3115421E-002  0.2755616E+03  0.7818608E-02  0.1098138E+00
         -2   -1    0    0    0  501 -0.00000000000E+00  0.00000000000E+00  0.23380089428E+03  0.23380089428E+03  0.00000000000E+00 0.  1.
          2   -1    0    0  502    0  0.00000000000E+00 -0.00000000000E+00 -0.32615998983E+03  0.32615998983E+03  0.00000000000E+00 0. -1.
          6    1    1    2  502    0 -0.19458355404E+03 -0.92127136127E+02 -0.27976727539E+02  0.27697809660E+03  0.17200000000E+03 0. -1.
         -6    1    1    2    0  501  0.19458355404E+03  0.92127136127E+02 -0.64382368006E+02  0.28298278750E+03  0.17200000000E+03 0.  1.
</event>
<event>
 4    1  0.3115421E-002  0.2578822E+03  0.7818608E-02  0.1108422E+00
         -1   -1    0    0    0  501 -0.00000000000E+00  0.00000000000E+00  0.20765742851E+03  0.20765742851E+03  0.00000000000E+00 0.  1.
          1   -1    0    0  502    0  0.00000000000E+00 -0.00000000000E+00 -0.99190130370E+03  0.99190130370E+03  0.00000000000E+00 0. -1.
          6    1    1    2  502    0 -0.15237751213E+03  0.11704829099E+03 -0.88566811600E+03  0.92244849196E+03  0.17200000000E+03 0. -1.
         -6    1    1    2    0  501  0.15237751213E+03 -0.11704829099E+03  0.10142424080E+03  0.27711024025E+03  0.17200000000E+03 0.  1.
</event>
<event>
 4    1  0.3115421E-002  0.1819112E+03  0.7818608E-02  0.1165966E+00
         -1   -1    0    0    0  501 -0.00000000000E+00  0.00000000000E+00  0.22160780247E+03  0.22160780247E+03  0.00000000000E+00 0.  1.
          1   -1    0    0  502    0  0.00000000000E+00 -0.00000000000E+00 -0.73563840463E+03  0.73563840463E+03  0.00000000000E+00 0. -1.
          6    1    1    2  502    0  0.48398260986E+02 -0.34136582847E+02 -0.68430870106E+03  0.70807492280E+03  0.17200000000E+03 0. -1.
         -6    1    1    2    0  501 -0.48398260986E+02  0.34136582847E+02  0.17027809890E+03  0.24917128430E+03  0.17200000000E+03 0.  1.
</event>
<event>
 4    1  0.3115421E-002  0.1981554E+03  0.7818608E-02  0.1151305E+00
          2   -1    0    0  502    0  0.00000000000E+00  0.00000000000E+00  0.54354479240E+03  0.54354479240E+03  0.00000000000E+00 0. -1.
         -2   -1    0    0    0  501 -0.00000000000E+00 -0.00000000000E+00 -0.10359255370E+03  0.10359255370E+03  0.00000000000E+00 0.  1.
          6    1    1    2  502    0 -0.65715499424E+02 -0.73232872417E+02  0.39798426385E+03  0.44458638614E+03  0.17200000000E+03 0. -1.
         -6    1    1    2    0  501  0.65715499424E+02  0.73232872417E+02  0.41967974845E+02  0.20255095996E+03  0.17200000000E+03 0.  1.
</event>
<event>
 4    1  0.3115421E-002  0.2925605E+03  0.7818608E-02  0.1089020E+00
          3   -1    0    0  502    0  0.00000000000E+00  0.00000000000E+00  0.21349859872E+03  0.21349859872E+03  0.00000000000E+00 0. -1.
         -3   -1    0    0    0  501 -0.00000000000E+00 -0.00000000000E+00 -0.45642825450E+03  0.45642825450E+03  0.00000000000E+00 0.  1.
          6    1    1    2  502    0  0.23360091846E+03 -0.37924719778E+02 -0.46315451169E+01  0.29259720553E+03  0.17200000000E+03 0. -1.
         -6    1    1    2    0  501 -0.23360091846E+03  0.37924719778E+02 -0.23829811066E+03  0.37732964768E+03  0.17200000000E+03 0. -1.
</event>
<event>
 4    1  0.3115421E-002  0.1817712E+03  0.7818608E-02  0.1166100E+00
         -1   -1    0    0    0  501 -0.00000000000E+00  0.00000000000E+00  0.20134743191E+03  0.20134743191E+03  0.00000000000E+00 0.  1.
          1   -1    0    0  502    0  0.00000000000E+00 -0.00000000000E+00 -0.16550225054E+03  0.16550225054E+03  0.00000000000E+00 0. -1.
          6    1    1    2  502    0  0.40885508110E+02  0.42251053642E+02  0.10287557548E+01  0.18177413085E+03  0.17200000000E+03 0. -1.
         -6    1    1    2    0  501 -0.40885508110E+02 -0.42251053642E+02  0.34816425611E+02  0.18507555160E+03  0.17200000000E+03 0.  1.
</event>
<event>
 4    1  0.3115421E-002  0.2009368E+03  0.7818608E-02  0.1148951E+00
         -1   -1    0    0    0  501 -0.00000000000E+00  0.00000000000E+00  0.16965221111E+03  0.16965221111E+03  0.00000000000E+00 0.  1.
          1   -1    0    0  502    0  0.00000000000E+00 -0.00000000000E+00 -0.27145332942E+03  0.27145332942E+03  0.00000000000E+00 0. -1.
          6    1    1    2  502    0  0.48955766086E+02  0.91623796683E+02  0.26536224909E+02  0.20268142091E+03  0.17200000000E+03 0. -1.
         -6    1    1    2    0  501 -0.48955766086E+02 -0.91623796683E+02 -0.12833734322E+03  0.23842411962E+03  0.17200000000E+03 0.  1.
</event>
<event>
 4    1  0.3115421E-002  0.2405319E+03  0.7818608E-02  0.1119439E+00
          1   -1    0    0  502    0  0.00000000000E+00  0.00000000000E+00  0.26906395908E+04  0.26906395908E+04  0.00000000000E+00 0. -1.
         -1   -1    0    0    0  501 -0.00000000000E+00 -0.00000000000E+00 -0.21999641290E+02  0.21999641290E+02  0.00000000000E+00 0.  1.
          6    1    1    2  502    0  0.16812874081E+03 -0.20841655973E+01  0.11304414303E+04  0.11557480022E+04  0.17200000000E+03 0.  1.
         -6    1    1    2    0  501 -0.16812874081E+03  0.20841655973E+01  0.15381985191E+04  0.15568912298E+04  0.17200000000E+03 0. -1.
</event>
<event>
 4    1  0.3115421E-002  0.2035116E+03  0.7818608E-02  0.1146810E+00
          1   -1    0    0  502    0  0.00000000000E+00  0.00000000000E+00  0.60727585548E+03  0.60727585548E+03  0.00000000000E+00 0. -1.
         -1   -1    0    0    0  501 -0.00000000000E+00 -0.00000000000E+00 -0.87259259751E+02  0.87259259751E+02  0.00000000000E+00 0.  1.
          6    1    1    2  502    0 -0.79343981556E+02  0.74414430194E+02  0.42230032239E+03  0.46877983865E+03  0.17200000000E+03 0. -1.
         -6    1    1    2    0  501  0.79343981556E+02 -0.74414430194E+02  0.97716273337E+02  0.22575527658E+03  0.17200000000E+03 0.  1.
</event>
<event>
 4    1  0.3115421E-002  0.7109457E+03  0.7818608E-02  0.9698695E-01
         -1   -1    0    0    0  501 -0.00000000000E+00  0.00000000000E+00  0.48310742185E+03  0.48310742185E+03  0.00000000000E+00 0.  1.
          1   -1    0    0  502    0  0.00000000000E+00 -0.00000000000E+00 -0.15228690143E+04  0.15228690143E+04  0.00000000000E+00 0. -1.
          6    1    1    2  502    0  0.61833714937E+03  0.30580859762E+03 -0.10810027074E+04  0.12938356086E+04  0.17200000000E+03 0. -1.
         -6    1    1    2    0  501 -0.61833714937E+03 -0.30580859762E+03  0.41241114982E+02  0.71214082753E+03  0.17200000000E+03 0.  1.
</event>
<event>
 4    1  0.3115421E-002  0.2196565E+03  0.7818608E-02  0.1134139E+00
          1   -1    0    0  502    0  0.00000000000E+00  0.00000000000E+00  0.18841753952E+04  0.18841753952E+04  0.00000000000E+00 0. -1.
         -1   -1    0    0    0  501 -0.00000000000E+00 -0.00000000000E+00 -0.29345061625E+02  0.29345061625E+02  0.00000000000E+00 0.  1.
          6    1    1    2  502    0 -0.87920767228E+02 -0.10457020895E+03  0.12688680261E+04  0.12877402912E+04  0.17200000000E+03 0. -1.
         -6    1    1    2    0  501  0.87920767228E+02  0.10457020895E+03  0.58596230742E+03  0.62578016557E+03  0.17200000000E+03 0.  1.
</event>
<event>
 4    1  0.3115421E-002  0.4088657E+03  0.7818608E-02  0.1040752E+00
         -2   -1    0    0    0  501 -0.00000000000E+00  0.00000000000E+00  0.13638388644E+03  0.13638388644E+03  0.00000000000E+00 0.  1.
          2   -1    0    0  502    0  0.00000000000E+00 -0.00000000000E+00 -0.12267793486E+04  0.12267793486E+04  0.00000000000E+00 0. -1.
          6    1    1    2  502    0 -0.37075229591E+03  0.11398882016E+02 -0.56503551149E+03  0.69744987539E+03  0.17200000000E+03 0. -1.
         -6    1    1    2    0  501  0.37075229591E+03 -0.11398882016E+02 -0.52535995064E+03  0.66571335962E+03  0.17200000000E+03 0.  1.
</event>
<event>
 4    1  0.3115421E-002  0.3813701E+03  0.7818608E-02  0.1050429E+00
         -2   -1    0    0    0  501 -0.00000000000E+00  0.00000000000E+00  0.81889092472E+02  0.81889092472E+02  0.00000000000E+00 0.  1.
          2   -1    0    0  502    0  0.00000000000E+00 -0.00000000000E+00 -0.17766747339E+04  0.17766747339E+04  0.00000000000E+00 0. -1.
          6    1    1    2  502    0 -0.34018876384E+03 -0.11433508308E+02 -0.86412389937E+03  0.94453863532E+03  0.17200000000E+03 0. -1.
         -6    1    1    2    0  501  0.34018876384E+03  0.11433508308E+02 -0.83066174204E+03  0.91402519104E+03  0.17200000000E+03 0.  1.
</event>
<event>
 4    1  0.3115421E-002  0.5549939E+03  0.7818608E-02  0.1000345E+00
          2   -1    0    0  502    0  0.00000000000E+00  0.00000000000E+00  0.35817243746E+03  0.35817243746E+03  0.00000000000E+00 0. -1.
         -2   -1    0    0    0  501 -0.00000000000E+00 -0.00000000000E+00 -0.10537539784E+04  0.10537539784E+04  0.00000000000E+00 0.  1.
          6    1    1    2  502    0  0.10955650856E+03  0.51617012193E+03 -0.45051134193E+02  0.55681938547E+03  0.17200000000E+03 0. -1.
         -6    1    1    2    0  501 -0.10955650856E+03 -0.51617012193E+03 -0.65053040677E+03  0.85510703043E+03  0.17200000000E+03 0.  1.
</event>
<event>
 4    1  0.3115421E-002  0.2571148E+03  0.7818608E-02  0.1108889E+00
          1   -1    0    0  502    0  0.00000000000E+00  0.00000000000E+00  0.16392536469E+04  0.16392536469E+04  0.00000000000E+00 0. -1.
         -1   -1    0    0    0  501 -0.00000000000E+00 -0.00000000000E+00 -0.44934788235E+02  0.44934788235E+02  0.00000000000E+00 0.  1.
          6    1    1    2  502    0 -0.12256449714E+03  0.14663539582E+03  0.10667864737E+04  0.10973337577E+04  0.17200000000E+03 0. -1.
         -6    1    1    2    0  501  0.12256449714E+03 -0.14663539582E+03  0.52753238497E+03  0.58685467746E+03  0.17200000000E+03 0.  1.
</event>
<event>
 4    1  0.3115421E-002  0.1740722E+03  0.7818608E-02  0.1173666E+00
          1   -1    0    0  502    0  0.00000000000E+00  0.00000000000E+00  0.97641209932E+03  0.97641209932E+03  0.00000000000E+00 0. -1.
         -1   -1    0    0    0  501 -0.00000000000E+00 -0.00000000000E+00 -0.31366372377E+02  0.31366372377E+02  0.00000000000E+00 0.  1.
          6    1    1    2  502    0 -0.17101590542E+02 -0.20607813657E+02  0.42058694113E+03  0.45518624916E+03  0.17200000000E+03 0.  1.
         -6    1    1    2    0  501  0.17101590542E+02  0.20607813657E+02  0.52445878582E+03  0.55259222254E+03  0.17200000000E+03 0. -1.
</event>
<event>
 4    1  0.3115421E-002  0.1979335E+03  0.7818608E-02  0.1151494E+00
          1   -1    0    0  502    0  0.00000000000E+00  0.00000000000E+00  0.11338221786E+04  0.11338221786E+04  0.00000000000E+00 0. -1.
         -1   -1    0    0    0  501 -0.00000000000E+00 -0.00000000000E+00 -0.36396316128E+02  0.36396316128E+02  0.00000000000E+00 0.  1.
          6    1    1    2  502    0  0.55784828081E+02  0.80509135409E+02  0.41705884025E+03  0.46164460807E+03  0.17200000000E+03 0.  1.
         -6    1    1    2    0  501 -0.55784828081E+02 -0.80509135409E+02  0.68036702221E+03  0.70857388665E+03  0.17200000000E+03 0. -1.
</event>
<event>
 4    1  0.3115421E-002  0.1808992E+03  0.7818608E-02  0.1166936E+00
          1   -1    0    0  502    0  0.00000000000E+00  0.00000000000E+00  0.35987082184E+03  0.35987082184E+03  0.00000000000E+00 0. -1.
         -1   -1    0    0    0  501 -0.00000000000E+00 -0.00000000000E+00 -0.91174752677E+02  0.91174752677E+02  0.00000000000E+00 0.  1.
          6    1    1    2  502    0 -0.55558637685E+02 -0.73308921255E+01  0.12275995667E+03  0.21861955805E+03  0.17200000000E+03 0.  1.
         -6    1    1    2    0  501  0.55558637685E+02  0.73308921255E+01  0.14593611250E+03  0.23242601647E+03  0.17200000000E+03 0.  1.
</event>
<event>
 4    1  0.3115421E-002  0.1887193E+03  0.7818608E-02  0.1159622E+00
          2   -1    0    0  502    0  0.00000000000E+00  0.00000000000E+00  0.97035546752E+02  0.97035546752E+02  0.00000000000E+00 0. -1.
         -2   -1    0    0    0  501 -0.00000000000E+00 -0.00000000000E+00 -0.39241049753E+03  0.39241049753E+03  0.00000000000E+00 0.  1.
          6    1    1    2  502    0  0.24830296355E+02  0.73582867359E+02 -0.85449944175E+02  0.20716340156E+03  0.17200000000E+03 0. -1.
         -6    1    1    2    0  501 -0.24830296355E+02 -0.73582867359E+02 -0.20992500660E+03  0.28228264272E+03  0.17200000000E+03 0.  1.
</event>
<event>
 4    1  0.3115421E-002  0.2417973E+03  0.7818608E-02  0.1118601E+00
          1   -1    0    0  502    0  0.00000000000E+00  0.00000000000E+00  0.47719039784E+03  0.47719039784E+03  0.00000000000E+00 0. -1.
         -1   -1    0    0    0  501 -0.00000000000E+00 -0.00000000000E+00 -0.18690265977E+03  0.18690265977E+03  0.00000000000E+00 0.  1.
          6    1    1    2  502    0 -0.13840066553E+03  0.98626599760E+02  0.34002578518E+03  0.41723313026E+03  0.17200000000E+03 0. -1.
         -6    1    1    2    0  501  0.13840066553E+03 -0.98626599760E+02 -0.49738047110E+02  0.24685992735E+03  0.17200000000E+03 0.  1.
</event>
<event>
 4    1  0.3115421E-002  0.2724690E+03  0.7818608E-02  0.1099875E+00
         -2   -1    0    0    0  501 -0.00000000000E+00  0.00000000000E+00  0.27844822347E+03  0.27844822347E+03  0.00000000000E+00 0.  1.
          2   -1    0    0  502    0  0.00000000000E+00 -0.00000000000E+00 -0.13681841518E+04  0.13681841518E+04  0.00000000000E+00 0. -1.
          6    1    1    2  502    0  0.14155605334E+02 -0.21084353500E+03 -0.12836215793E+04  0.13122209175E+04  0.17200000000E+03 0. -1.
         -6    1    1    2    0  501 -0.14155605334E+02  0.21084353500E+03  0.19388565101E+03  0.33441145776E+03  0.17200000000E+03 0.  1.
</event>
<event>
 4    1  0.3115421E-002  0.1895198E+03  0.7818608E-02  0.1158895E+00
          2   -1    0    0  502    0  0.00000000000E+00  0.00000000000E+00  0.28284108718E+03  0.28284108718E+03  0.00000000000E+00 0. -1.
         -2   -1    0    0    0  501 -0.00000000000E+00 -0.00000000000E+00 -0.12711407965E+03  0.12711407965E+03  0.00000000000E+00 0.  1.
          6    1    1    2  502    0 -0.17960079914E+02 -0.77531891089E+02  0.84288675903E+02  0.20741827184E+03  0.17200000000E+03 0.  1.
         -6    1    1    2    0  501  0.17960079914E+02  0.77531891089E+02  0.71438331631E+02  0.20253689499E+03  0.17200000000E+03 0.  1.
</event>
<event>
 4    1  0.3115421E-002  0.1832882E+03  0.7818608E-02  0.1164658E+00
          1   -1    0    0  502    0  0.00000000000E+00  0.00000000000E+00  0.16625088003E+04  0.16625088003E+04  0.00000000000E+00 0. -1.
         -1   -1    0    0    0  501 -0.00000000000E+00 -0.00000000000E+00 -0.46584481955E+02  0.46584481955E+02  0.00000000000E+00 0.  1.
          6    1    1    2  502    0 -0.61271320607E+02 -0.16012677206E+02  0.16493326185E+03  0.24657161520E+03  0.17200000000E+03 0.  1.
         -6    1    1    2    0  501  0.61271320607E+02  0.16012677206E+02  0.14509910565E+04  0.14625216671E+04  0.17200000000E+03 0. -1.
</event>
<event>
 4    1  0.3115421E-002  0.6282119E+03  0.7818608E-02  0.9848544E-01
         -2   -1    0    0    0  501 -0.00000000000E+00  0.00000000000E+00  0.45354809690E+03  0.45354809690E+03  0.00000000000E+00 0.  1.
          2   -1    0    0  502    0  0.00000000000E+00 -0.00000000000E+00 -0.14414219156E+04  0.14414219156E+04  0.00000000000E+00 0. -1.
          6    1    1    2  502    0 -0.38718581727E+03 -0.46384623545E+03 -0.10904255160E+04  0.12584426857E+04  0.17200000000E+03 0. -1.
         -6    1    1    2    0  501  0.38718581727E+03  0.46384623545E+03  0.10255169725E+03  0.63652732686E+03  0.17200000000E+03 0.  1.
</event>
<event>
 4    1  0.3115421E-002  0.6022230E+03  0.7818608E-02  0.9900805E-01
         -2   -1    0    0    0  501 -0.00000000000E+00  0.00000000000E+00  0.59147343607E+03  0.59147343607E+03  0.00000000000E+00 0.  1.
          2   -1    0    0  502    0  0.00000000000E+00 -0.00000000000E+00 -0.86750716003E+03  0.86750716003E+03  0.00000000000E+00 0. -1.
          6    1    1    2  502    0  0.29162746693E+03 -0.49803811402E+03 -0.53301010134E+03  0.80422155568E+03  0.17200000000E+03 0. -1.
         -6    1    1    2    0  501 -0.29162746693E+03  0.49803811402E+03  0.25697637738E+03  0.65475904042E+03  0.17200000000E+03 0.  1.
</event>
<event>
 4    1  0.3115421E-002  0.5367653E+03  0.7818608E-02  0.1004604E+00
         -2   -1    0    0    0  501 -0.00000000000E+00  0.00000000000E+00  0.15994951827E+03  0.15994951827E+03  0.00000000000E+00 0.  1.
          2   -1    0    0  502    0  0.00000000000E+00 -0.00000000000E+00 -0.23325154045E+04  0.23325154045E+04  0.00000000000E+00 0. -1.
          6    1    1    2  502    0  0.16701911411E+03  0.48024749013E+03 -0.16810161783E+04  0.17646337942E+04  0.17200000000E+03 0. -1.
         -6    1    1    2    0  501 -0.16701911411E+03 -0.48024749013E+03 -0.49154970801E+03  0.72783112856E+03  0.17200000000E+03 0.  1.
</event>
<event>
 4    1  0.3115421E-002  0.1987620E+03  0.7818608E-02  0.1150788E+00
          2   -1    0    0  502    0  0.00000000000E+00  0.00000000000E+00  0.61953452352E+02  0.61953452352E+02  0.00000000000E+00 0. -1.
         -2   -1    0    0    0  501 -0.00000000000E+00 -0.00000000000E+00 -0.68612707083E+03  0.68612707083E+03  0.00000000000E+00 0.  1.
          6    1    1    2  502    0  0.69850135151E+02 -0.71016033615E+02 -0.41148107867E+03  0.45697154891E+03  0.17200000000E+03 0. -1.
         -6    1    1    2    0  501 -0.69850135151E+02  0.71016033615E+02 -0.21269253981E+03  0.29110897427E+03  0.17200000000E+03 0.  1.
</event>
<event>
 4    1  0.3115421E-002  0.3823167E+03  0.7818608E-02  0.1050081E+00
          3   -1    0    0  502    0  0.00000000000E+00  0.00000000000E+00  0.87096277613E+03  0.87096277613E+03  0.00000000000E+00 0. -1.
         -3   -1    0    0    0  501 -0.00000000000E+00 -0.00000000000E+00 -0.16791315509E+03  0.16791315509E+03  0.00000000000E+00 0.  1.
          6    1    1    2  502    0 -0.15321646361E+03 -0.30513401464E+03  0.33937166420E+03  0.51121343690E+03  0.17200000000E+03 0. -1.
         -6    1    1    2    0  501  0.15321646361E+03  0.30513401464E+03  0.36367795684E+03  0.52766249431E+03  0.17200000000E+03 0.  1.
</event>
<event>
 4    1  0.3115421E-002  0.2931709E+03  0.7818608E-02  0.1088705E+00
         -2   -1    0    0    0  501 -0.00000000000E+00  0.00000000000E+00  0.58186579658E+02  0.58186579658E+02  0.00000000000E+00 0.  1.
          2   -1    0    0  502    0  0.00000000000E+00 -0.00000000000E+00 -0.17776481242E+04  0.17776481242E+04  0.00000000000E+00 0. -1.
          6    1    1    2  502    0 -0.19504832843E+03 -0.13535623992E+03 -0.12371428293E+04  0.12714053414E+04  0.17200000000E+03 0. -1.
         -6    1    1    2    0  501  0.19504832843E+03  0.13535623992E+03 -0.48231871528E+03  0.56442936247E+03  0.17200000000E+03 0.  1.
</event>
<event>
 4    1  0.3115421E-002  0.2821059E+03  0.7818608E-02  0.1094544E+00
         -1   -1    0    0    0  501 -0.00000000000E+00  0.00000000000E+00  0.48393816987E+02  0.48393816987E+02  0.00000000000E+00 0.  1.
          1   -1    0    0  502    0  0.00000000000E+00 -0.00000000000E+00 -0.20875577831E+04  0.20875577831E+04  0.00000000000E+00 0. -1.
          6    1    1    2  502    0  0.17058731680E+03 -0.14456738984E+03 -0.15115886857E+04  0.15376879130E+04  0.17200000000E+03 0. -1.
         -6    1    1    2    0  501 -0.17058731680E+03  0.14456738984E+03 -0.52757528040E+03  0.59826368714E+03  0.17200000000E+03 0.  1.
</event>
<event>
 4    1  0.3115421E-002  0.1861005E+03  0.7818608E-02  0.1162026E+00
          2   -1    0    0  502    0  0.00000000000E+00  0.00000000000E+00  0.14773244985E+04  0.14773244985E+04  0.00000000000E+00 0. -1.
         -2   -1    0    0    0  501 -0.00000000000E+00 -0.00000000000E+00 -0.83799334019E+02  0.83799334019E+02  0.00000000000E+00 0.  1.
          6    1    1    2  502    0 -0.53869529417E+01  0.70854612526E+02  0.13592037883E+04  0.13718849564E+04  0.17200000000E+03 0. -1.
         -6    1    1    2    0  501  0.53869529417E+01 -0.70854612526E+02  0.34321376163E+02  0.18923887613E+03  0.17200000000E+03 0.  1.
</event>
<event>
 4    1  0.3115421E-002  0.4833377E+03  0.7818608E-02  0.1018222E+00
          2   -1    0    0  502    0  0.00000000000E+00  0.00000000000E+00  0.29443756011E+04  0.29443756011E+04  0.00000000000E+00 0. -1.
         -2   -1    0    0    0  501 -0.00000000000E+00 -0.00000000000E+00 -0.12538156829E+03  0.12538156829E+03  0.00000000000E+00 0.  1.
          6    1    1    2  502    0 -0.42273251393E+03 -0.15914938565E+03  0.23395732436E+04  0.23889784987E+04  0.17200000000E+03 0. -1.
         -6    1    1    2    0  501  0.42273251393E+03  0.15914938565E+03  0.47942078920E+03  0.68077867064E+03  0.17200000000E+03 0.  1.
</event>
<event>
 4    1  0.3115421E-002  0.2450088E+03  0.7818608E-02  0.1116500E+00
          4   -1    0    0  502    0  0.00000000000E+00  0.00000000000E+00  0.22020873935E+03  0.22020873935E+03  0.00000000000E+00 0. -1.
         -4   -1    0    0    0  501 -0.00000000000E+00 -0.00000000000E+00 -0.28339041834E+03  0.28339041834E+03  0.00000000000E+00 0.  1.
          6    1    1    2  502    0 -0.39515177842E+02 -0.16995254732E+03  0.17538803205E+02  0.24563576132E+03  0.17200000000E+03 0. -1.
         -6    1    1    2    0  501  0.39515177842E+02  0.16995254732E+03 -0.80720482196E+02  0.25796339637E+03  0.17200000000E+03 0. -1.
</event>
<event>
 4    1  0.3115421E-002  0.2276178E+03  0.7818608E-02  0.1128328E+00
          2   -1    0    0  502    0  0.00000000000E+00  0.00000000000E+00  0.16844221124E+03  0.16844221124E+03  0.00000000000E+00 0. -1.
         -2   -1    0    0    0  501 -0.00000000000E+00 -0.00000000000E+00 -0.63017915932E+03  0.63017915932E+03  0.00000000000E+00 0.  1.
          6    1    1    2  502    0 -0.55010932551E+02  0.13856279735E+03  0.54830674454E+02  0.23412871326E+03  0.17200000000E+03 0. -1.
         -6    1    1    2    0  501  0.55010932551E+02 -0.13856279735E+03 -0.51656762253E+03  0.56449265731E+03  0.17200000000E+03 0.  1.
</event>
<event>
 4    1  0.3115421E-002  0.1874571E+03  0.7818608E-02  0.1160775E+00
          3   -1    0    0  502    0  0.00000000000E+00  0.00000000000E+00  0.33662067992E+03  0.33662067992E+03  0.00000000000E+00 0. -1.
         -3   -1    0    0    0  501 -0.00000000000E+00 -0.00000000000E+00 -0.30772670550E+03  0.30772670550E+03  0.00000000000E+00 0.  1.
          6    1    1    2  502    0 -0.31110533821E+02 -0.67737069790E+02  0.27633419422E+03  0.33391729939E+03  0.17200000000E+03 0. -1.
         -6    1    1    2    0  501  0.31110533821E+02  0.67737069790E+02 -0.24744021980E+03  0.31043008603E+03  0.17200000000E+03 0.  1.
</event>
<event>
 4    1  0.3115421E-002  0.1957954E+03  0.7818608E-02  0.1153336E+00
          2   -1    0    0  502    0  0.00000000000E+00  0.00000000000E+00  0.50065701509E+02  0.50065701509E+02  0.00000000000E+00 0. -1.
         -2   -1    0    0    0  501 -0.00000000000E+00 -0.00000000000E+00 -0.94467644118E+03  0.94467644118E+03  0.00000000000E+00 0.  1.
          6    1    1    2  502    0 -0.35111037299E+02 -0.86712412239E+02 -0.23082211043E+03  0.30267916024E+03  0.17200000000E+03 0. -1.
         -6    1    1    2    0  501  0.35111037299E+02  0.86712412239E+02 -0.66378862924E+03  0.69206298245E+03  0.17200000000E+03 0.  1.
</event>
<event>
 4    1  0.3115421E-002  0.2489451E+03  0.7818608E-02  0.1113973E+00
          1   -1    0    0  502    0  0.00000000000E+00  0.00000000000E+00  0.36021863966E+03  0.36021863966E+03  0.00000000000E+00 0. -1.
         -1   -1    0    0    0  501 -0.00000000000E+00 -0.00000000000E+00 -0.31240319919E+03  0.31240319919E+03  0.00000000000E+00 0.  1.
          6    1    1    2  502    0 -0.72878086969E+02 -0.16455526439E+03  0.24933311326E+03  0.35233599300E+03  0.17200000000E+03 0. -1.
         -6    1    1    2    0  501  0.72878086969E+02  0.16455526439E+03 -0.20151767280E+03  0.32028584584E+03  0.17200000000E+03 0.  1.
</event>
<event>
 4    1  0.3115421E-002  0.2188351E+03  0.7818608E-02  0.1134754E+00
          2   -1    0    0  502    0  0.00000000000E+00  0.00000000000E+00  0.73387908240E+03  0.73387908240E+03  0.00000000000E+00 0. -1.
         -2   -1    0    0    0  501 -0.00000000000E+00 -0.00000000000E+00 -0.11400817766E+03  0.11400817766E+03  0.00000000000E+00 0.  1.
          6    1    1    2  502    0  0.13499913812E+03 -0.89471479099E+01  0.58716809996E+03  0.62662205225E+03  0.17200000000E+03 0. -1.
         -6    1    1    2    0  501 -0.13499913812E+03  0.89471479099E+01  0.32702804775E+02  0.22126520781E+03  0.17200000000E+03 0.  1.
</event>
<event>
 4    1  0.3115421E-002  0.1976538E+03  0.7818608E-02  0.1151734E+00
         -2   -1    0    0    0  501 -0.00000000000E+00  0.00000000000E+00  0.69965360753E+02  0.69965360753E+02  0.00000000000E+00 0.  1.
          2   -1    0    0  502    0  0.00000000000E+00 -0.00000000000E+00 -0.56170325385E+03  0.56170325385E+03  0.00000000000E+00 0. -1.
          6    1    1    2  502    0  0.92641802208E+02  0.30008611017E+02 -0.27017473107E+03  0.33475574015E+03  0.17200000000E+03 0.  1.
         -6    1    1    2    0  501 -0.92641802208E+02 -0.30008611017E+02 -0.22156316203E+03  0.29691287446E+03  0.17200000000E+03 0.  1.
</event>
<event>
 4    1  0.3115421E-002  0.2132503E+03  0.7818608E-02  0.1139018E+00
          1   -1    0    0  502    0  0.00000000000E+00  0.00000000000E+00  0.17395145993E+03  0.17395145993E+03  0.00000000000E+00 0. -1.
         -1   -1    0    0    0  501 -0.00000000000E+00 -0.00000000000E+00 -0.96383656111E+03  0.96383656111E+03  0.00000000000E+00 0.  1.
          6    1    1    2  502    0  0.59177430701E+02 -0.11130906137E+03  0.90708968133E+02  0.23174078698E+03  0.17200000000E+03 0. -1.
         -6    1    1    2    0  501 -0.59177430701E+02  0.11130906137E+03 -0.88059406931E+03  0.90604723406E+03  0.17200000000E+03 0.  1.
</event>
<event>
 4    1  0.3115421E-002  0.4964837E+03  0.7818608E-02  0.1014701E+00
          1   -1    0    0  502    0  0.00000000000E+00  0.00000000000E+00  0.48068625036E+03  0.48068625036E+03  0.00000000000E+00 0. -1.
         -1   -1    0    0    0  501 -0.00000000000E+00 -0.00000000000E+00 -0.16209738990E+04  0.16209738990E+04  0.00000000000E+00 0.  1.
          6    1    1    2  502    0  0.11661286233E+03 -0.45090296708E+03  0.29871333851E+03  0.57941841875E+03  0.17200000000E+03 0. -1.
         -6    1    1    2    0  501 -0.11661286233E+03  0.45090296708E+03 -0.14390009872E+04  0.15222417306E+04  0.17200000000E+03 0.  1.
</event>
<event>
 4    1  0.3115421E-002  0.2601528E+03  0.7818608E-02  0.1107051E+00
         -2   -1    0    0    0  501 -0.00000000000E+00  0.00000000000E+00  0.43536324955E+02  0.43536324955E+02  0.00000000000E+00 0.  1.
          2   -1    0    0  502    0  0.00000000000E+00 -0.00000000000E+00 -0.17991223898E+04  0.17991223898E+04  0.00000000000E+00 0. -1.
          6    1    1    2  502    0 -0.19199643073E+03 -0.35112193475E+02 -0.12174857196E+04  0.12449702699E+04  0.17200000000E+03 0. -1.
         -6    1    1    2    0  501  0.19199643073E+03  0.35112193475E+02 -0.53810034525E+03  0.59768844485E+03  0.17200000000E+03 0.  1.
</event>
<event>
 4    1  0.3115421E-002  0.1987485E+03  0.7818608E-02  0.1150799E+00
         -2   -1    0    0    0  501 -0.00000000000E+00  0.00000000000E+00  0.44251245064E+02  0.44251245064E+02  0.00000000000E+00 0.  1.
          2   -1    0    0  502    0  0.00000000000E+00 -0.00000000000E+00 -0.92239485178E+03  0.92239485178E+03  0.00000000000E+00 0. -1.
          6    1    1    2  502    0  0.60110678490E+02 -0.79395623723E+02 -0.52586206158E+03  0.56216711621E+03  0.17200000000E+03 0.  1.
         -6    1    1    2    0  501 -0.60110678490E+02  0.79395623723E+02 -0.35228154513E+03  0.40447898064E+03  0.17200000000E+03 0.  1.
</event>
<event>
 4    1  0.3115421E-002  0.1787782E+03  0.7818608E-02  0.1168991E+00
         -2   -1    0    0    0  501 -0.00000000000E+00  0.00000000000E+00  0.17318385154E+02  0.17318385154E+02  0.00000000000E+00 0.  1.
          2   -1    0    0  502    0  0.00000000000E+00 -0.00000000000E+00 -0.21697390692E+04  0.21697390692E+04  0.00000000000E+00 0. -1.
          6    1    1    2  502    0 -0.19924634149E+02  0.44504523972E+02 -0.65350541838E+03  0.67751824739E+03  0.17200000000E+03 0.  1.
         -6    1    1    2    0  501  0.19924634149E+02 -0.44504523972E+02 -0.14989152656E+04  0.15095392069E+04  0.17200000000E+03 0. -1.
</event>
<event>
 4    1  0.3115421E-002  0.2238183E+03  0.7818608E-02  0.1131068E+00
          1   -1    0    0  502    0  0.00000000000E+00  0.00000000000E+00  0.11447316907E+04  0.11447316907E+04  0.00000000000E+00 0. -1.
         -1   -1    0    0    0  501 -0.00000000000E+00 -0.00000000000E+00 -0.50935598186E+02  0.50935598186E+02  0.00000000000E+00 0.  1.
          6    1    1    2  502    0 -0.82894007053E+02 -0.11678711248E+03  0.77126935130E+03  0.80308844987E+03  0.17200000000E+03 0.  1.
         -6    1    1    2    0  501  0.82894007053E+02  0.11678711248E+03  0.32252674118E+03  0.39257883899E+03  0.17200000000E+03 0.  1.
</event>
<event>
 4    1  0.3115421E-002  0.2027384E+03  0.7818608E-02  0.1147449E+00
         -2   -1    0    0    0  501 -0.00000000000E+00  0.00000000000E+00  0.19830232999E+02  0.19830232999E+02  0.00000000000E+00 0.  1.
          2   -1    0    0  502    0  0.00000000000E+00 -0.00000000000E+00 -0.21298599309E+04  0.21298599309E+04  0.00000000000E+00 0. -1.
          6    1    1    2  502    0 -0.85852641215E+02 -0.64406470643E+02 -0.12310394342E+04  0.12476221215E+04  0.17200000000E+03 0. -1.
         -6    1    1    2    0  501  0.85852641215E+02  0.64406470643E+02 -0.87899026376E+03  0.90206804247E+03  0.17200000000E+03 0.  1.
</event>
<event>
 4    1  0.3115421E-002  0.3860923E+03  0.7818608E-02  0.1048705E+00
          2   -1    0    0  502    0  0.00000000000E+00  0.00000000000E+00  0.23680358263E+04  0.23680358263E+04  0.00000000000E+00 0. -1.
         -2   -1    0    0    0  501 -0.00000000000E+00 -0.00000000000E+00 -0.67293429342E+02  0.67293429342E+02  0.00000000000E+00 0.  1.
          6    1    1    2  502    0  0.24458528790E+03  0.24425655202E+03  0.14597360854E+04  0.15099326691E+04  0.17200000000E+03 0. -1.
         -6    1    1    2    0  501 -0.24458528790E+03 -0.24425655202E+03  0.84100631155E+03  0.92539658652E+03  0.17200000000E+03 0.  1.
</event>
<event>
 4    1  0.3115421E-002  0.2228668E+03  0.7818608E-02  0.1131764E+00
          2   -1    0    0  502    0  0.00000000000E+00  0.00000000000E+00  0.73059571663E+02  0.73059571663E+02  0.00000000000E+00 0. -1.
         -2   -1    0    0    0  501 -0.00000000000E+00 -0.00000000000E+00 -0.13023045907E+04  0.13023045907E+04  0.00000000000E+00 0.  1.
          6    1    1    2  502    0  0.13764346635E+03  0.33761901162E+02 -0.13919416696E+03  0.26276340292E+03  0.17200000000E+03 0. -1.
         -6    1    1    2    0  501 -0.13764346635E+03 -0.33761901162E+02 -0.10900508521E+04  0.11126007594E+04  0.17200000000E+03 0.  1.
</event>
<event>
 4    1  0.3115421E-002  0.4669642E+03  0.7818608E-02  0.1022781E+00
          2   -1    0    0  502    0  0.00000000000E+00  0.00000000000E+00  0.10472173581E+04  0.10472173581E+04  0.00000000000E+00 0. -1.
         -2   -1    0    0    0  501 -0.00000000000E+00 -0.00000000000E+00 -0.21228976266E+03  0.21228976266E+03  0.00000000000E+00 0.  1.
          6    1    1    2  502    0 -0.49464776995E+02 -0.43130597326E+03  0.33030999923E+03  0.57197928487E+03  0.17200000000E+03 0. -1.
         -6    1    1    2    0  501  0.49464776995E+02  0.43130597326E+03  0.50461759624E+03  0.68752783592E+03  0.17200000000E+03 0.  1.
</event>
<event>
 4    1  0.3115421E-002  0.2556120E+03  0.7818608E-02  0.1109809E+00
         -2   -1    0    0    0  501 -0.00000000000E+00  0.00000000000E+00  0.51305374063E+03  0.51305374063E+03  0.00000000000E+00 0.  1.
          2   -1    0    0  502    0  0.00000000000E+00 -0.00000000000E+00 -0.57674542063E+03  0.57674542063E+03  0.00000000000E+00 0. -1.
          6    1    1    2  502    0 -0.18867762240E+03  0.12419903928E+02 -0.51283868747E+03  0.57301048731E+03  0.17200000000E+03 0. -1.
         -6    1    1    2    0  501  0.18867762240E+03 -0.12419903928E+02  0.44914700747E+03  0.51678867395E+03  0.17200000000E+03 0.  1.
</event>
<event>
 4    1  0.3115421E-002  0.2997710E+03  0.7818608E-02  0.1085355E+00
         -1   -1    0    0    0  501 -0.00000000000E+00  0.00000000000E+00  0.77898864462E+03  0.77898864462E+03  0.00000000000E+00 0.  1.
          1   -1    0    0  502    0  0.00000000000E+00 -0.00000000000E+00 -0.30650877688E+03  0.30650877688E+03  0.00000000000E+00 0. -1.
          6    1    1    2  502    0 -0.76058289907E+02  0.23343908506E+03 -0.19237296230E+03  0.35618818976E+03  0.17200000000E+03 0. -1.
         -6    1    1    2    0  501  0.76058289907E+02 -0.23343908506E+03  0.66485283004E+03  0.72930923174E+03  0.17200000000E+03 0.  1.
</event>
<event>
 4    1  0.3115421E-002  0.2695333E+03  0.7818608E-02  0.1101547E+00
          2   -1    0    0  502    0  0.00000000000E+00  0.00000000000E+00  0.38755212338E+03  0.38755212338E+03  0.00000000000E+00 0. -1.
         -2   -1    0    0    0  501 -0.00000000000E+00 -0.00000000000E+00 -0.18749794301E+03  0.18749794301E+03  0.00000000000E+00 0.  1.
          6    1    1    2  502    0  0.23449223444E+02 -0.20619007362E+03  0.10442663726E+03  0.28905559173E+03  0.17200000000E+03 0. -1.
         -6    1    1    2    0  501 -0.23449223444E+02  0.20619007362E+03  0.95627543103E+02  0.28599447466E+03  0.17200000000E+03 0.  1.
</event>
<event>
 4    1  0.3115421E-002  0.2203328E+03  0.7818608E-02  0.1133635E+00
         -1   -1    0    0    0  501 -0.00000000000E+00  0.00000000000E+00  0.12670569445E+03  0.12670569445E+03  0.00000000000E+00 0.  1.
          1   -1    0    0  502    0  0.00000000000E+00 -0.00000000000E+00 -0.40758865742E+03  0.40758865742E+03  0.00000000000E+00 0. -1.
          6    1    1    2  502    0  0.13105422090E+03  0.42277046674E+02 -0.75018647296E+02  0.23275385052E+03  0.17200000000E+03 0.  1.
         -6    1    1    2    0  501 -0.13105422090E+03 -0.42277046674E+02 -0.20586431567E+03  0.30154050136E+03  0.17200000000E+03 0. -1.
</event>
<event>
 4    1  0.3115421E-002  0.2281304E+03  0.7818608E-02  0.1127963E+00
         -1   -1    0    0    0  501 -0.00000000000E+00  0.00000000000E+00  0.77226381859E+03  0.77226381859E+03  0.00000000000E+00 0.  1.
          1   -1    0    0  502    0  0.00000000000E+00 -0.00000000000E+00 -0.19032598765E+03  0.19032598765E+03  0.00000000000E+00 0. -1.
          6    1    1    2  502    0 -0.11210927245E+01  0.14986070183E+03  0.67778123486E+03  0.71514396392E+03  0.17200000000E+03 0.  1.
         -6    1    1    2    0  501  0.11210927245E+01 -0.14986070183E+03 -0.95843403920E+02  0.24744584231E+03  0.17200000000E+03 0. -1.
</event>
<event>
 4    1  0.3115421E-002  0.3317460E+03  0.7818608E-02  0.1070367E+00
         -2   -1    0    0    0  501 -0.00000000000E+00  0.00000000000E+00  0.23569692796E+03  0.23569692796E+03  0.00000000000E+00 0.  1.
          2   -1    0    0  502    0  0.00000000000E+00 -0.00000000000E+00 -0.48386679339E+03  0.48386679339E+03  0.00000000000E+00 0. -1.
          6    1    1    2  502    0 -0.27536141924E+03 -0.68172657388E+02 -0.19138457283E+03  0.38299278993E+03  0.17200000000E+03 0. -1.
         -6    1    1    2    0  501  0.27536141924E+03  0.68172657388E+02 -0.56785292593E+02  0.33657093142E+03  0.17200000000E+03 0.  1.
</event>
<event>
 4    1  0.3115421E-002  0.3335074E+03  0.7818608E-02  0.1069595E+00
         -2   -1    0    0    0  501 -0.00000000000E+00  0.00000000000E+00  0.10705367444E+03  0.10705367444E+03  0.00000000000E+00 0.  1.
          2   -1    0    0  502    0  0.00000000000E+00 -0.00000000000E+00 -0.15661282314E+04  0.15661282314E+04  0.00000000000E+00 0. -1.
          6    1    1    2  502    0 -0.25565624713E+03 -0.12760518235E+03 -0.12148969390E+04  0.12598419630E+04  0.17200000000E+03 0. -1.
         -6    1    1    2    0  501  0.25565624713E+03  0.12760518235E+03 -0.24417761794E+03  0.41333994286E+03  0.17200000000E+03 0.  1.
</event>
<event>
 4    1  0.3115421E-002  0.3403925E+03  0.7818608E-02  0.1066629E+00
         -1   -1    0    0    0  501 -0.00000000000E+00  0.00000000000E+00  0.13699266672E+04  0.13699266672E+04  0.00000000000E+00 0.  1.
          1   -1    0    0  502    0  0.00000000000E+00 -0.00000000000E+00 -0.92865732610E+02  0.92865732610E+02  0.00000000000E+00 0. -1.
          6    1    1    2  502    0  0.28861039378E+03  0.54654234728E+02  0.42004815221E+03  0.54065469104E+03  0.17200000000E+03 0. -1.
         -6    1    1    2    0  501 -0.28861039378E+03 -0.54654234728E+02  0.85701278239E+03  0.92213770878E+03  0.17200000000E+03 0.  1.
</event>
<event>
 4    1  0.3115421E-002  0.3474747E+03  0.7818608E-02  0.1063656E+00
         -1   -1    0    0    0  501 -0.00000000000E+00  0.00000000000E+00  0.78411109624E+02  0.78411109624E+02  0.00000000000E+00 0.  1.
          1   -1    0    0  502    0  0.00000000000E+00 -0.00000000000E+00 -0.15775249862E+04  0.15775249862E+04  0.00000000000E+00 0. -1.
          6    1    1    2  502    0  0.28821963836E+03  0.89911608522E+02 -0.62154524655E+03  0.71207945539E+03  0.17200000000E+03 0. -1.
         -6    1    1    2    0  501 -0.28821963836E+03 -0.89911608522E+02 -0.87756863004E+03  0.94385664044E+03  0.17200000000E+03 0.  1.
</event>
<event>
 4    1  0.3115421E-002  0.1791577E+03  0.7818608E-02  0.1168621E+00
          2   -1    0    0  502    0  0.00000000000E+00  0.00000000000E+00  0.26567486206E+03  0.26567486206E+03  0.00000000000E+00 0. -1.
         -2   -1    0    0    0  501 -0.00000000000E+00 -0.00000000000E+00 -0.12622694990E+03  0.12622694990E+03  0.00000000000E+00 0.  1.
          6    1    1    2  502    0  0.30629862607E+02 -0.39690023650E+02  0.29149618528E+02  0.18151359927E+03  0.17200000000E+03 0.  1.
         -6    1    1    2    0  501 -0.30629862607E+02  0.39690023650E+02  0.11029829363E+03  0.21038821269E+03  0.17200000000E+03 0. -1.
</event>
<event>
 4    1  0.3115421E-002  0.2400725E+03  0.7818608E-02  0.1119745E+00
          1   -1    0    0  502    0  0.00000000000E+00  0.00000000000E+00  0.43587662992E+03  0.43587662992E+03  0.00000000000E+00 0. -1.
         -1   -1    0    0    0  501 -0.00000000000E+00 -0.00000000000E+00 -0.13225674885E+03  0.13225674885E+03  0.00000000000E+00 0.  1.
          6    1    1    2  502    0 -0.12489264596E+03  0.11159141351E+03  0.15604435930E+03  0.28632963285E+03  0.17200000000E+03 0. -1.
         -6    1    1    2    0  501  0.12489264596E+03 -0.11159141351E+03  0.14757552178E+03  0.28180374591E+03  0.17200000000E+03 0. -1.
</event>
<event>
 4    1  0.3115421E-002  0.6723383E+03  0.7818608E-02  0.9765743E-01
         -2   -1    0    0    0  501 -0.00000000000E+00  0.00000000000E+00  0.12515249193E+03  0.12515249193E+03  0.00000000000E+00 0.  1.
          2   -1    0    0  502    0  0.00000000000E+00 -0.00000000000E+00 -0.41988765767E+04  0.41988765767E+04  0.00000000000E+00 0. -1.
          6    1    1    2  502    0 -0.64027662305E+03 -0.11180624101E+03 -0.28452148490E+04  0.29235742383E+04  0.17200000000E+03 0. -1.
         -6    1    1    2    0  501  0.64027662305E+03  0.11180624101E+03 -0.12285092357E+04  0.14004548304E+04  0.17200000000E+03 0.  1.
</event>
<event>
 4    1  0.3115421E-002  0.2200528E+03  0.7818608E-02  0.1133844E+00
          1   -1    0    0  502    0  0.00000000000E+00  0.00000000000E+00  0.59226931532E+03  0.59226931532E+03  0.00000000000E+00 0. -1.
         -1   -1    0    0    0  501 -0.00000000000E+00 -0.00000000000E+00 -0.87940787226E+02  0.87940787226E+02  0.00000000000E+00 0.  1.
          6    1    1    2  502    0 -0.13569653447E+03 -0.20632456040E+02  0.34233815715E+03  0.40696272747E+03  0.17200000000E+03 0. -1.
         -6    1    1    2    0  501  0.13569653447E+03  0.20632456040E+02  0.16199037095E+03  0.27324737508E+03  0.17200000000E+03 0. -1.
</event>
<event>
 4    1  0.3115421E-002  0.2421342E+03  0.7818608E-02  0.1118379E+00
          2   -1    0    0  502    0  0.00000000000E+00  0.00000000000E+00  0.21127722427E+04  0.21127722427E+04  0.00000000000E+00 0. -1.
         -2   -1    0    0    0  501 -0.00000000000E+00 -0.00000000000E+00 -0.40548223668E+02  0.40548223668E+02  0.00000000000E+00 0.  1.
          6    1    1    2  502    0  0.11735427511E+03  0.12358372227E+03  0.16409949796E+04  0.16587626368E+04  0.17200000000E+03 0. -1.
         -6    1    1    2    0  501 -0.11735427511E+03 -0.12358372227E+03  0.43122903942E+03  0.49455782952E+03  0.17200000000E+03 0.  1.
</event>
<event>
 4    1  0.3115421E-002  0.2554309E+03  0.7818608E-02  0.1109920E+00
         -4   -1    0    0    0  501 -0.00000000000E+00  0.00000000000E+00  0.12639951559E+03  0.12639951559E+03  0.00000000000E+00 0.  1.
          4   -1    0    0  502    0  0.00000000000E+00 -0.00000000000E+00 -0.54274493744E+03  0.54274493744E+03  0.00000000000E+00 0. -1.
          6    1    1    2  502    0  0.46475358137E+02  0.18303275588E+03 -0.13415368328E+03  0.28851717345E+03  0.17200000000E+03 0. -1.
         -6    1    1    2    0  501 -0.46475358137E+02 -0.18303275588E+03 -0.28219173857E+03  0.38062727957E+03  0.17200000000E+03 0.  1.
</event>
<event>
 4    1  0.3115421E-002  0.2155913E+03  0.7818608E-02  0.1137213E+00
         -1   -1    0    0    0  501 -0.00000000000E+00  0.00000000000E+00  0.14989786337E+03  0.14989786337E+03  0.00000000000E+00 0.  1.
          1   -1    0    0  502    0  0.00000000000E+00 -0.00000000000E+00 -0.35487590638E+03  0.35487590638E+03  0.00000000000E+00 0. -1.
          6    1    1    2  502    0  0.79825178360E+02 -0.10258432784E+03 -0.19216397670E+03  0.28880200373E+03  0.17200000000E+03 0. -1.
         -6    1    1    2    0  501 -0.79825178360E+02  0.10258432784E+03 -0.12814066315E+02  0.21597176601E+03  0.17200000000E+03 0.  1.
</event>
<event>
 4    1  0.3115421E-002  0.3622410E+03  0.7818608E-02  0.1057700E+00
          2   -1    0    0  502    0  0.00000000000E+00  0.00000000000E+00  0.83656816709E+03  0.83656816709E+03  0.00000000000E+00 0. -1.
         -2   -1    0    0    0  501 -0.00000000000E+00 -0.00000000000E+00 -0.31842195016E+03  0.31842195016E+03  0.00000000000E+00 0.  1.
          6    1    1    2  502    0  0.19680285750E+03 -0.25080511751E+03  0.67043605574E+03  0.76203876314E+03  0.17200000000E+03 0. -1.
         -6    1    1    2    0  501 -0.19680285750E+03  0.25080511751E+03 -0.15228983881E+03  0.39295135411E+03  0.17200000000E+03 0.  1.
</event>
<event>
 4    1  0.3115421E-002  0.3444855E+03  0.7818608E-02  0.1064901E+00
          2   -1    0    0  502    0  0.00000000000E+00  0.00000000000E+00  0.11818126041E+04  0.11818126041E+04  0.00000000000E+00 0. -1.
         -2   -1    0    0    0  501 -0.00000000000E+00 -0.00000000000E+00 -0.13816826824E+03  0.13816826824E+03  0.00000000000E+00 0.  1.
          6    1    1    2  502    0 -0.13924460091E+03  0.26400229285E+03  0.86682112752E+03  0.93276424493E+03  0.17200000000E+03 0. -1.
         -6    1    1    2    0  501  0.13924460091E+03 -0.26400229285E+03  0.17682320829E+03  0.38721662736E+03  0.17200000000E+03 0.  1.
</event>
<event>
 4    1  0.3115421E-002  0.2625247E+03  0.7818608E-02  0.1105636E+00
          1   -1    0    0  502    0  0.00000000000E+00  0.00000000000E+00  0.19616416057E+04  0.19616416057E+04  0.00000000000E+00 0. -1.
         -1   -1    0    0    0  501 -0.00000000000E+00 -0.00000000000E+00 -0.52967339090E+02  0.52967339090E+02  0.00000000000E+00 0.  1.
          6    1    1    2  502    0  0.19513816780E+03  0.35444544430E+02  0.15388308146E+04  0.15610635785E+04  0.17200000000E+03 0. -1.
         -6    1    1    2    0  501 -0.19513816780E+03 -0.35444544430E+02  0.36984345203E+03  0.45354536628E+03  0.17200000000E+03 0.  1.
</event>
<event>
 4    1  0.3115421E-002  0.5572946E+03  0.7818608E-02  0.9998195E-01
          1   -1    0    0  502    0  0.00000000000E+00  0.00000000000E+00  0.72790229207E+03  0.72790229207E+03  0.00000000000E+00 0. -1.
         -1   -1    0    0    0  501 -0.00000000000E+00 -0.00000000000E+00 -0.52523585182E+03  0.52523585182E+03  0.00000000000E+00 0.  1.
          6    1    1    2  502    0  0.32809349051E+02  0.52907167264E+03  0.37275536294E+03  0.67046539715E+03  0.17200000000E+03 0. -1.
         -6    1    1    2    0  501 -0.32809349051E+02 -0.52907167264E+03 -0.17008892269E+03  0.58267274674E+03  0.17200000000E+03 0.  1.
</event>
<event>
 4    1  0.3115421E-002  0.2380482E+03  0.7818608E-02  0.1121100E+00
          2   -1    0    0  502    0  0.00000000000E+00  0.00000000000E+00  0.43926193817E+04  0.43926193817E+04  0.00000000000E+00 0. -1.
         -2   -1    0    0    0  501 -0.00000000000E+00 -0.00000000000E+00 -0.13442215981E+02  0.13442215981E+02  0.00000000000E+00 0.  1.
          6    1    1    2  502    0 -0.13237801067E+03 -0.97770214602E+02  0.26318448937E+04  0.26425885978E+04  0.17200000000E+03 0. -1.
         -6    1    1    2    0  501  0.13237801067E+03  0.97770214602E+02  0.17473322720E+04  0.17634729999E+04  0.17200000000E+03 0.  1.
</event>
<event>
 4    1  0.3115421E-002  0.1736299E+03  0.7818608E-02  0.1174114E+00
         -1   -1    0    0    0  501 -0.00000000000E+00  0.00000000000E+00  0.64884301786E+03  0.64884301786E+03  0.00000000000E+00 0.  1.
          1   -1    0    0  502    0  0.00000000000E+00 -0.00000000000E+00 -0.46881297638E+02  0.46881297638E+02  0.00000000000E+00 0. -1.
          6    1    1    2  502    0  0.84892923967E+01  0.22164634228E+02  0.26813101902E+03  0.31943948168E+03  0.17200000000E+03 0. -1.
         -6    1    1    2    0  501 -0.84892923967E+01 -0.22164634228E+02  0.33383070121E+03  0.37628483382E+03  0.17200000000E+03 0.  1.
</event>
<event>
 4    1  0.3115421E-002  0.3179163E+03  0.7818608E-02  0.1076612E+00
          2   -1    0    0  502    0  0.00000000000E+00  0.00000000000E+00  0.12507006879E+04  0.12507006879E+04  0.00000000000E+00 0. -1.
         -2   -1    0    0    0  501 -0.00000000000E+00 -0.00000000000E+00 -0.14850676413E+03  0.14850676413E+03  0.00000000000E+00 0.  1.
          6    1    1    2  502    0 -0.16383581089E+03  0.21129275175E+03  0.78752693790E+02  0.32752524582E+03  0.17200000000E+03 0. -1.
         -6    1    1    2    0  501  0.16383581089E+03 -0.21129275175E+03  0.10234412300E+04  0.10716822062E+04  0.17200000000E+03 0. -1.
</event>
<event>
 4    1  0.3115421E-002  0.3565559E+03  0.7818608E-02  0.1059956E+00
          2   -1    0    0  502    0  0.00000000000E+00  0.00000000000E+00  0.17019021912E+04  0.17019021912E+04  0.00000000000E+00 0. -1.
         -2   -1    0    0    0  501 -0.00000000000E+00 -0.00000000000E+00 -0.17132346812E+03  0.17132346812E+03  0.00000000000E+00 0.  1.
          6    1    1    2  502    0 -0.25704176800E+03  0.17741939643E+03  0.14686741297E+04  0.15113357708E+04  0.17200000000E+03 0. -1.
         -6    1    1    2    0  501  0.25704176800E+03 -0.17741939643E+03  0.61904593326E+02  0.36188988850E+03  0.17200000000E+03 0.  1.
</event>
<event>
 4    1  0.3115421E-002  0.1765295E+03  0.7818608E-02  0.1171205E+00
         -2   -1    0    0    0  501 -0.00000000000E+00  0.00000000000E+00  0.15017761656E+03  0.15017761656E+03  0.00000000000E+00 0.  1.
          2   -1    0    0  502    0  0.00000000000E+00 -0.00000000000E+00 -0.22503763076E+03  0.22503763076E+03  0.00000000000E+00 0. -1.
          6    1    1    2  502    0 -0.38749347144E+02 -0.87828889614E+01 -0.89795206829E+02  0.19805511913E+03  0.17200000000E+03 0. -1.
         -6    1    1    2    0  501  0.38749347144E+02  0.87828889614E+01  0.14935192632E+02  0.17716012819E+03  0.17200000000E+03 0.  1.
</event>
<event>
 4    1  0.3115421E-002  0.2093055E+03  0.7818608E-02  0.1142117E+00
         -2   -1    0    0    0  501 -0.00000000000E+00  0.00000000000E+00  0.52013410063E+03  0.52013410063E+03  0.00000000000E+00 0.  1.
          2   -1    0    0  502    0  0.00000000000E+00 -0.00000000000E+00 -0.87856614087E+02  0.87856614087E+02  0.00000000000E+00 0. -1.
          6    1    1    2  502    0 -0.85999333137E+02 -0.82637197798E+02  0.27793645711E+03  0.34793313431E+03  0.17200000000E+03 0.  1.
         -6    1    1    2    0  501  0.85999333137E+02  0.82637197798E+02  0.15434102943E+03  0.26005758040E+03  0.17200000000E+03 0.  1.
</event>
<event>
 4    1  0.3115421E-002  0.1967898E+03  0.7818608E-02  0.1152476E+00
          1   -1    0    0  502    0  0.00000000000E+00  0.00000000000E+00  0.14603312698E+03  0.14603312698E+03  0.00000000000E+00 0. -1.
         -1   -1    0    0    0  501 -0.00000000000E+00 -0.00000000000E+00 -0.28942376643E+03  0.28942376643E+03  0.00000000000E+00 0.  1.
          6    1    1    2  502    0  0.66352427066E+02 -0.68844557273E+02 -0.86899749250E+01  0.19698155576E+03  0.17200000000E+03 0. -1.
         -6    1    1    2    0  501 -0.66352427066E+02  0.68844557273E+02 -0.13470066453E+03  0.23847533765E+03  0.17200000000E+03 0.  1.
</event>
<event>
 4    1  0.3115421E-002  0.4419186E+03  0.7818608E-02  0.1030160E+00
          3   -1    0    0  502    0  0.00000000000E+00  0.00000000000E+00  0.12580008082E+03  0.12580008082E+03  0.00000000000E+00 0. -1.
         -3   -1    0    0    0  501 -0.00000000000E+00 -0.00000000000E+00 -0.19763389005E+04  0.19763389005E+04  0.00000000000E+00 0.  1.
          6    1    1    2  502    0  0.27579922358E+03 -0.29940420411E+03 -0.14120712118E+04  0.14796071088E+04  0.17200000000E+03 0. -1.
         -6    1    1    2    0  501 -0.27579922358E+03  0.29940420411E+03 -0.43846760786E+03  0.62253187253E+03  0.17200000000E+03 0.  1.
</event>
<event>
 4    1  0.3115421E-002  0.2977837E+03  0.7818608E-02  0.1086354E+00
         -1   -1    0    0    0  501 -0.00000000000E+00  0.00000000000E+00  0.14023520339E+03  0.14023520339E+03  0.00000000000E+00 0.  1.
          1   -1    0    0  502    0  0.00000000000E+00 -0.00000000000E+00 -0.76610817362E+03  0.76610817362E+03  0.00000000000E+00 0. -1.
          6    1    1    2  502    0  0.23642182877E+03  0.56531802297E+02 -0.50230511742E+03  0.58393968590E+03  0.17200000000E+03 0. -1.
         -6    1    1    2    0  501 -0.23642182877E+03 -0.56531802297E+02 -0.12356785282E+03  0.32240369111E+03  0.17200000000E+03 0.  1.
</event>
<event>
 4    1  0.3115421E-002  0.2691879E+03  0.7818608E-02  0.1101745E+00
         -2   -1    0    0    0  501 -0.00000000000E+00  0.00000000000E+00  0.31758203787E+03  0.31758203787E+03  0.00000000000E+00 0.  1.
          2   -1    0    0  502    0  0.00000000000E+00 -0.00000000000E+00 -0.47622620611E+03  0.47622620611E+03  0.00000000000E+00 0. -1.
          6    1    1    2  502    0  0.12426171100E+02 -0.20669716044E+03 -0.36577653686E+03  0.45415261838E+03  0.17200000000E+03 0. -1.
         -6    1    1    2    0  501 -0.12426171100E+02  0.20669716044E+03  0.20713236862E+03  0.33965562559E+03  0.17200000000E+03 0.  1.
</event>
<event>
 4    1  0.3115421E-002  0.2378870E+03  0.7818608E-02  0.1121209E+00
         -2   -1    0    0    0  501 -0.00000000000E+00  0.00000000000E+00  0.72583424724E+02  0.72583424724E+02  0.00000000000E+00 0.  1.
          2   -1    0    0  502    0  0.00000000000E+00 -0.00000000000E+00 -0.16251554170E+04  0.16251554170E+04  0.00000000000E+00 0. -1.
          6    1    1    2  502    0  0.16069150226E+03  0.34415972292E+02 -0.13885654511E+04  0.14087953116E+04  0.17200000000E+03 0. -1.
         -6    1    1    2    0  501 -0.16069150226E+03 -0.34415972292E+02 -0.16400654120E+03  0.28894353013E+03  0.17200000000E+03 0.  1.
</event>
<event>
 4    1  0.3115421E-002  0.2774098E+03  0.7818608E-02  0.1097112E+00
         -2   -1    0    0    0  501 -0.00000000000E+00  0.00000000000E+00  0.10176559536E+03  0.10176559536E+03  0.00000000000E+00 0.  1.
          2   -1    0    0  502    0  0.00000000000E+00 -0.00000000000E+00 -0.75621017591E+03  0.75621017591E+03  0.00000000000E+00 0. -1.
          6    1    1    2  502    0  0.90758588216E+02 -0.19782580587E+03 -0.32708423222E+03  0.42888257807E+03  0.17200000000E+03 0. -1.
         -6    1    1    2    0  501 -0.90758588216E+02  0.19782580587E+03 -0.32736034833E+03  0.42909319321E+03  0.17200000000E+03 0.  1.
</event>
<event>
 4    1  0.3115421E-002  0.1763019E+03  0.7818608E-02  0.1171431E+00
         -2   -1    0    0    0  501 -0.00000000000E+00  0.00000000000E+00  0.75179459975E+02  0.75179459975E+02  0.00000000000E+00 0.  1.
          2   -1    0    0  502    0  0.00000000000E+00 -0.00000000000E+00 -0.41813389226E+03  0.41813389226E+03  0.00000000000E+00 0. -1.
          6    1    1    2  502    0 -0.22459735856E+02  0.31526685804E+02 -0.14534997274E+03  0.22849285815E+03  0.17200000000E+03 0. -1.
         -6    1    1    2    0  501  0.22459735856E+02 -0.31526685804E+02 -0.19760445955E+03  0.26482049408E+03  0.17200000000E+03 0. -1.
</event>
<event>
 4    1  0.3115421E-002  0.4490801E+03  0.7818608E-02  0.1027997E+00
          2   -1    0    0  502    0  0.00000000000E+00  0.00000000000E+00  0.18199701318E+04  0.18199701318E+04  0.00000000000E+00 0. -1.
         -2   -1    0    0    0  501 -0.00000000000E+00 -0.00000000000E+00 -0.11376461290E+03  0.11376461290E+03  0.00000000000E+00 0.  1.
          6    1    1    2  502    0  0.30563632740E+03 -0.28049123779E+03  0.69731530958E+03  0.82941035687E+03  0.17200000000E+03 0. -1.
         -6    1    1    2    0  501 -0.30563632740E+03  0.28049123779E+03  0.10088902094E+04  0.11043243879E+04  0.17200000000E+03 0.  1.
</event>
<event>
 4    1  0.3115421E-002  0.3214485E+03  0.7818608E-02  0.1074985E+00
          1   -1    0    0  502    0  0.00000000000E+00  0.00000000000E+00  0.11971032527E+03  0.11971032527E+03  0.00000000000E+00 0. -1.
         -1   -1    0    0    0  501 -0.00000000000E+00 -0.00000000000E+00 -0.92403429367E+03  0.92403429367E+03  0.00000000000E+00 0.  1.
          6    1    1    2  502    0 -0.27141220772E+03  0.89746427074E+01 -0.26821338410E+03  0.41864967470E+03  0.17200000000E+03 0. -1.
         -6    1    1    2    0  501  0.27141220772E+03 -0.89746427074E+01 -0.53611058430E+03  0.62509494424E+03  0.17200000000E+03 0.  1.
</event>
<event>
 4    1  0.3115421E-002  0.5437620E+03  0.7818608E-02  0.1002948E+00
         -2   -1    0    0    0  501 -0.00000000000E+00  0.00000000000E+00  0.74263200480E+03  0.74263200480E+03  0.00000000000E+00 0.  1.
          2   -1    0    0  502    0  0.00000000000E+00 -0.00000000000E+00 -0.79664470573E+03  0.79664470573E+03  0.00000000000E+00 0. -1.
          6    1    1    2  502    0 -0.16537650057E+03 -0.48861403730E+03 -0.57134229648E+03  0.78873892013E+03  0.17200000000E+03 0. -1.
         -6    1    1    2    0  501  0.16537650057E+03  0.48861403730E+03  0.51732959554E+03  0.75053779040E+03  0.17200000000E+03 0.  1.
</event>
<event>
 4    1  0.3115421E-002  0.2131101E+03  0.7818608E-02  0.1139127E+00
         -1   -1    0    0    0  501 -0.00000000000E+00  0.00000000000E+00  0.62938980003E+02  0.62938980003E+02  0.00000000000E+00 0.  1.
          1   -1    0    0  502    0  0.00000000000E+00 -0.00000000000E+00 -0.74999802715E+03  0.74999802715E+03  0.00000000000E+00 0. -1.
          6    1    1    2  502    0  0.12449244405E+03  0.18263213704E+02 -0.42264194863E+03  0.47333088885E+03  0.17200000000E+03 0. -1.
         -6    1    1    2    0  501 -0.12449244405E+03 -0.18263213704E+02 -0.26441709851E+03  0.33960611830E+03  0.17200000000E+03 0.  1.
</event>
<event>
 4    1  0.3115421E-002  0.2553421E+03  0.7818608E-02  0.1109975E+00
          4   -1    0    0  502    0  0.00000000000E+00  0.00000000000E+00  0.72105943547E+03  0.72105943547E+03  0.00000000000E+00 0. -1.
         -4   -1    0    0    0  501 -0.00000000000E+00 -0.00000000000E+00 -0.10219234947E+03  0.10219234947E+03  0.00000000000E+00 0.  1.
          6    1    1    2  502    0 -0.13646952400E+03  0.13035206833E+03  0.44913125302E+03  0.51664153447E+03  0.17200000000E+03 0. -1.
         -6    1    1    2    0  501  0.13646952400E+03 -0.13035206833E+03  0.16973583298E+03  0.30661025047E+03  0.17200000000E+03 0.  1.
</event>
<event>
 4    1  0.3115421E-002  0.6960307E+03  0.7818608E-02  0.9724044E-01
         -2   -1    0    0    0  501 -0.00000000000E+00  0.00000000000E+00  0.17430618642E+03  0.17430618642E+03  0.00000000000E+00 0.  1.
          2   -1    0    0  502    0  0.00000000000E+00 -0.00000000000E+00 -0.28513836046E+04  0.28513836046E+04  0.00000000000E+00 0. -1.
          6    1    1    2  502    0 -0.25815896747E+03  0.62307996148E+03 -0.10980911004E+04  0.13001010560E+04  0.17200000000E+03 0. -1.
         -6    1    1    2    0  501  0.25815896747E+03 -0.62307996148E+03 -0.15789863178E+04  0.17255887351E+04  0.17200000000E+03 0.  1.
</event>
<event>
 4    1  0.3115421E-002  0.2408841E+03  0.7818608E-02  0.1119205E+00
         -1   -1    0    0    0  501 -0.00000000000E+00  0.00000000000E+00  0.10454888827E+03  0.10454888827E+03  0.00000000000E+00 0.  1.
          1   -1    0    0  502    0  0.00000000000E+00 -0.00000000000E+00 -0.75273700577E+03  0.75273700577E+03  0.00000000000E+00 0. -1.
          6    1    1    2  502    0  0.91513231622E+02 -0.14165614242E+03 -0.54378530888E+03  0.59475002850E+03  0.17200000000E+03 0. -1.
         -6    1    1    2    0  501 -0.91513231622E+02  0.14165614242E+03 -0.10440280862E+03  0.26253586554E+03  0.17200000000E+03 0.  1.
</event>
<event>
 4    1  0.3115421E-002  0.4218046E+03  0.7818608E-02  0.1036481E+00
          1   -1    0    0  502    0  0.00000000000E+00  0.00000000000E+00  0.13039682407E+04  0.13039682407E+04  0.00000000000E+00 0. -1.
         -1   -1    0    0    0  501 -0.00000000000E+00 -0.00000000000E+00 -0.13843943766E+03  0.13843943766E+03  0.00000000000E+00 0.  1.
          6    1    1    2  502    0  0.19725073766E+03  0.33079787197E+03  0.49618586760E+03  0.65124457834E+03  0.17200000000E+03 0. -1.
         -6    1    1    2    0  501 -0.19725073766E+03 -0.33079787197E+03  0.66934293542E+03  0.79116310000E+03  0.17200000000E+03 0.  1.
</event>
<event>
 4    1  0.3115421E-002  0.1729522E+03  0.7818608E-02  0.1174804E+00
          2   -1    0    0  502    0  0.00000000000E+00  0.00000000000E+00  0.13724703273E+04  0.13724703273E+04  0.00000000000E+00 0. -1.
         -2   -1    0    0    0  501 -0.00000000000E+00 -0.00000000000E+00 -0.47819559432E+02  0.47819559432E+02  0.00000000000E+00 0.  1.
          6    1    1    2  502    0 -0.27720673614E+01 -0.17909826641E+02  0.11862143085E+04  0.11987563688E+04  0.17200000000E+03 0. -1.
         -6    1    1    2    0  501  0.27720673614E+01  0.17909826641E+02  0.13843645937E+03  0.22153351785E+03  0.17200000000E+03 0.  1.
</event>
<event>
 4    1  0.3115421E-002  0.2265561E+03  0.7818608E-02  0.1129088E+00
          1   -1    0    0  502    0  0.00000000000E+00  0.00000000000E+00  0.81548168722E+03  0.81548168722E+03  0.00000000000E+00 0. -1.
         -1   -1    0    0    0  501 -0.00000000000E+00 -0.00000000000E+00 -0.69728387357E+02  0.69728387357E+02  0.00000000000E+00 0.  1.
          6    1    1    2  502    0  0.33516877977E+02 -0.14359759773E+03  0.51096163197E+03  0.55893598965E+03  0.17200000000E+03 0. -1.
         -6    1    1    2    0  501 -0.33516877977E+02  0.14359759773E+03  0.23479166790E+03  0.32627408493E+03  0.17200000000E+03 0.  1.
</event>
<event>
 4    1  0.3115421E-002  0.1842862E+03  0.7818608E-02  0.1163718E+00
         -2   -1    0    0    0  501 -0.00000000000E+00  0.00000000000E+00  0.50811972830E+02  0.50811972830E+02  0.00000000000E+00 0.  1.
          2   -1    0    0  502    0  0.00000000000E+00 -0.00000000000E+00 -0.73389087591E+03  0.73389087591E+03  0.00000000000E+00 0. -1.
          6    1    1    2  502    0  0.58563131236E+02  0.30785615646E+02 -0.22431005214E+03  0.29030396821E+03  0.17200000000E+03 0.  1.
         -6    1    1    2    0  501 -0.58563131236E+02 -0.30785615646E+02 -0.45876885094E+03  0.49439888053E+03  0.17200000000E+03 0.  1.
</event>
<event>
 4    1  0.3115421E-002  0.1772408E+03  0.7818608E-02  0.1170500E+00
          2   -1    0    0  502    0  0.00000000000E+00  0.00000000000E+00  0.20073055404E+04  0.20073055404E+04  0.00000000000E+00 0. -1.
         -2   -1    0    0    0  501 -0.00000000000E+00 -0.00000000000E+00 -0.17359824390E+02  0.17359824390E+02  0.00000000000E+00 0.  1.
          6    1    1    2  502    0  0.42554743694E+02  0.44021149919E+01  0.67726400692E+03  0.70007201051E+03  0.17200000000E+03 0.  1.
         -6    1    1    2    0  501 -0.42554743694E+02 -0.44021149919E+01  0.13126817091E+04  0.13245933543E+04  0.17200000000E+03 0. -1.
</event>
<event>
 4    1  0.3115421E-002  0.2162644E+03  0.7818608E-02  0.1136699E+00
         -2   -1    0    0    0  501 -0.00000000000E+00  0.00000000000E+00  0.39681281575E+02  0.39681281575E+02  0.00000000000E+00 0.  1.
          2   -1    0    0  502    0  0.00000000000E+00 -0.00000000000E+00 -0.24078637828E+04  0.24078637828E+04  0.00000000000E+00 0. -1.
          6    1    1    2  502    0  0.10893803426E+03 -0.72930032411E+02 -0.30971427939E+03  0.37774756093E+03  0.17200000000E+03 0.  1.
         -6    1    1    2    0  501 -0.10893803426E+03  0.72930032411E+02 -0.20584682218E+04  0.20697975034E+04  0.17200000000E+03 0. -1.
</event>
<event>
 4    1  0.3115421E-002  0.2626781E+03  0.7818608E-02  0.1105545E+00
          1   -1    0    0  502    0  0.00000000000E+00  0.00000000000E+00  0.97351718380E+03  0.97351718380E+03  0.00000000000E+00 0. -1.
         -1   -1    0    0    0  501 -0.00000000000E+00 -0.00000000000E+00 -0.85809157137E+02  0.85809157137E+02  0.00000000000E+00 0.  1.
          6    1    1    2  502    0  0.19328330637E+03 -0.45357996629E+02  0.66480559632E+03  0.71481904373E+03  0.17200000000E+03 0. -1.
         -6    1    1    2    0  501 -0.19328330637E+03  0.45357996629E+02  0.22290243035E+03  0.34450729721E+03  0.17200000000E+03 0.  1.
</event>
<event>
 4    1  0.3115421E-002  0.3543493E+03  0.7818608E-02  0.1060844E+00
          1   -1    0    0  502    0  0.00000000000E+00  0.00000000000E+00  0.13968454655E+03  0.13968454655E+03  0.00000000000E+00 0. -1.
         -1   -1    0    0    0  501 -0.00000000000E+00 -0.00000000000E+00 -0.90319457831E+03  0.90319457831E+03  0.00000000000E+00 0.  1.
          6    1    1    2  502    0 -0.19663703736E+03 -0.23940198098E+03 -0.34582863649E+03  0.49513723227E+03  0.17200000000E+03 0.  1.
         -6    1    1    2    0  501  0.19663703736E+03  0.23940198098E+03 -0.41768139526E+03  0.54774189259E+03  0.17200000000E+03 0.  1.
</event>
<event>
 4    1  0.3115421E-002  0.1739975E+03  0.7818608E-02  0.1173742E+00
         -2   -1    0    0    0  501 -0.00000000000E+00  0.00000000000E+00  0.10558403049E+03  0.10558403049E+03  0.00000000000E+00 0.  1.
          2   -1    0    0  502    0  0.00000000000E+00 -0.00000000000E+00 -0.33547441507E+03  0.33547441507E+03  0.00000000000E+00 0. -1.
          6    1    1    2  502    0 -0.73607041091E+00 -0.26278756933E+02 -0.19899881480E+03  0.26434001429E+03  0.17200000000E+03 0. -1.
         -6    1    1    2    0  501  0.73607041091E+00  0.26278756933E+02 -0.30891569778E+02  0.17671843127E+03  0.17200000000E+03 0.  1.
</event>
<event>
 4    1  0.3115421E-002  0.2033992E+03  0.7818608E-02  0.1146902E+00
         -1   -1    0    0    0  501 -0.00000000000E+00  0.00000000000E+00  0.61280496761E+02  0.61280496761E+02  0.00000000000E+00 0.  1.
          1   -1    0    0  502    0  0.00000000000E+00 -0.00000000000E+00 -0.14907871643E+04  0.14907871643E+04  0.00000000000E+00 0. -1.
          6    1    1    2  502    0 -0.10772048975E+03 -0.13547271130E+02 -0.12887789916E+04  0.13047308235E+04  0.17200000000E+03 0. -1.
         -6    1    1    2    0  501  0.10772048975E+03  0.13547271130E+02 -0.14072767594E+03  0.24733683762E+03  0.17200000000E+03 0.  1.
</event>
<event>
 4    1  0.3115421E-002  0.1793290E+03  0.7818608E-02  0.1168454E+00
          2   -1    0    0  502    0  0.00000000000E+00  0.00000000000E+00  0.62064237865E+03  0.62064237865E+03  0.00000000000E+00 0. -1.
         -2   -1    0    0    0  501 -0.00000000000E+00 -0.00000000000E+00 -0.64071348888E+02  0.64071348888E+02  0.00000000000E+00 0.  1.
          6    1    1    2  502    0 -0.34155306533E+02  0.37527600971E+02  0.42801885103E+03  0.46406792890E+03  0.17200000000E+03 0. -1.
         -6    1    1    2    0  501  0.34155306533E+02 -0.37527600971E+02  0.12855217873E+03  0.22064579864E+03  0.17200000000E+03 0.  1.
</event>
<event>
 4    1  0.3115421E-002  0.4838400E+03  0.7818608E-02  0.1018085E+00
          1   -1    0    0  502    0  0.00000000000E+00  0.00000000000E+00  0.80705225880E+03  0.80705225880E+03  0.00000000000E+00 0. -1.
         -1   -1    0    0    0  501 -0.00000000000E+00 -0.00000000000E+00 -0.53278503680E+03  0.53278503680E+03  0.00000000000E+00 0.  1.
          6    1    1    2  502    0 -0.44750977773E+03 -0.65208161958E+02  0.58929658937E+03  0.76247726248E+03  0.17200000000E+03 0. -1.
         -6    1    1    2    0  501  0.44750977773E+03  0.65208161958E+02 -0.31502936737E+03  0.57736003313E+03  0.17200000000E+03 0.  1.
</event>
<event>
 4    1  0.3115421E-002  0.2183786E+03  0.7818608E-02  0.1135098E+00
         -2   -1    0    0    0  501 -0.00000000000E+00  0.00000000000E+00  0.80685324765E+02  0.80685324765E+02  0.00000000000E+00 0.  1.
          2   -1    0    0  502    0  0.00000000000E+00 -0.00000000000E+00 -0.59298875270E+03  0.59298875270E+03  0.00000000000E+00 0. -1.
          6    1    1    2  502    0 -0.13445459641E+03  0.52139155931E+01 -0.23690163430E+03  0.32219808775E+03  0.17200000000E+03 0. -1.
         -6    1    1    2    0  501  0.13445459641E+03 -0.52139155931E+01 -0.27540179363E+03  0.35147598972E+03  0.17200000000E+03 0. -1.
</event>
<event>
 4    1  0.3115421E-002  0.4693745E+03  0.7818608E-02  0.1022097E+00
          2   -1    0    0  502    0  0.00000000000E+00  0.00000000000E+00  0.17675010244E+04  0.17675010244E+04  0.00000000000E+00 0. -1.
         -2   -1    0    0    0  501 -0.00000000000E+00 -0.00000000000E+00 -0.13940216096E+03  0.13940216096E+03  0.00000000000E+00 0.  1.
          6    1    1    2  502    0  0.38048177878E+03 -0.21438754682E+03  0.11242529088E+04  0.12183008689E+04  0.17200000000E+03 0. -1.
         -6    1    1    2    0  501 -0.38048177878E+03  0.21438754682E+03  0.50384595460E+03  0.68860231642E+03  0.17200000000E+03 0.  1.
</event>
<event>
 4    1  0.3115421E-002  0.4259304E+03  0.7818608E-02  0.1035153E+00
          2   -1    0    0  502    0  0.00000000000E+00  0.00000000000E+00  0.85918210666E+03  0.85918210666E+03  0.00000000000E+00 0. -1.
         -2   -1    0    0    0  501 -0.00000000000E+00 -0.00000000000E+00 -0.21597542137E+03  0.21597542137E+03  0.00000000000E+00 0.  1.
          6    1    1    2  502    0  0.38854201208E+03  0.29457998660E+02  0.40195379708E+03  0.58564795212E+03  0.17200000000E+03 0. -1.
         -6    1    1    2    0  501 -0.38854201208E+03 -0.29457998660E+02  0.24125288821E+03  0.48950957591E+03  0.17200000000E+03 0.  1.
</event>
<event>
 4    1  0.3115421E-002  0.5705063E+03  0.7818608E-02  0.9968559E-01
         -1   -1    0    0    0  501 -0.00000000000E+00  0.00000000000E+00  0.23272429421E+03  0.23272429421E+03  0.00000000000E+00 0.  1.
          1   -1    0    0  502    0  0.00000000000E+00 -0.00000000000E+00 -0.14425835647E+04  0.14425835647E+04  0.00000000000E+00 0. -1.
          6    1    1    2  502    0 -0.47259699822E+03  0.26934264275E+03 -0.45858773819E+03  0.73197001001E+03  0.17200000000E+03 0. -1.
         -6    1    1    2    0  501  0.47259699822E+03 -0.26934264275E+03 -0.75127153226E+03  0.94333784887E+03  0.17200000000E+03 0.  1.
</event>
<event>
 4    1  0.3115421E-002  0.1932812E+03  0.7818608E-02  0.1155535E+00
         -2   -1    0    0    0  501 -0.00000000000E+00  0.00000000000E+00  0.20475303234E+03  0.20475303234E+03  0.00000000000E+00 0.  1.
          2   -1    0    0  502    0  0.00000000000E+00 -0.00000000000E+00 -0.15452629778E+04  0.15452629778E+04  0.00000000000E+00 0. -1.
          6    1    1    2  502    0  0.67812585481E+02  0.56347835058E+02 -0.14919839811E+04  0.15044513369E+04  0.17200000000E+03 0. -1.
         -6    1    1    2    0  501 -0.67812585481E+02 -0.56347835058E+02  0.15147403565E+03  0.24556467323E+03  0.17200000000E+03 0.  1.
</event>
<event>
 4    1  0.3115421E-002  0.4091984E+03  0.7818608E-02  0.1040640E+00
          2   -1    0    0  502    0  0.00000000000E+00  0.00000000000E+00  0.30756644341E+04  0.30756644341E+04  0.00000000000E+00 0. -1.
         -2   -1    0    0    0  501 -0.00000000000E+00 -0.00000000000E+00 -0.59914176605E+02  0.59914176605E+02  0.00000000000E+00 0.  1.
          6    1    1    2  502    0  0.34210339154E+03 -0.14430717387E+03  0.19817123470E+04  0.20235184993E+04  0.17200000000E+03 0. -1.
         -6    1    1    2    0  501 -0.34210339154E+03  0.14430717387E+03  0.10340379105E+04  0.11120601113E+04  0.17200000000E+03 0.  1.
</event>
<event>
 4    1  0.3115421E-002  0.3596506E+03  0.7818608E-02  0.1058722E+00
          2   -1    0    0  502    0  0.00000000000E+00  0.00000000000E+00  0.65541310889E+03  0.65541310889E+03  0.00000000000E+00 0. -1.
         -2   -1    0    0    0  501 -0.00000000000E+00 -0.00000000000E+00 -0.22314879786E+03  0.22314879786E+03  0.00000000000E+00 0.  1.
          6    1    1    2  502    0 -0.26029386862E+03  0.17891802809E+03  0.66780821792E+02  0.36579808225E+03  0.17200000000E+03 0.  1.
         -6    1    1    2    0  501  0.26029386862E+03 -0.17891802809E+03  0.36548348923E+03  0.51276382450E+03  0.17200000000E+03 0.  1.
</event>
<event>
 4    1  0.3115421E-002  0.1903660E+03  0.7818608E-02  0.1158132E+00
         -1   -1    0    0    0  501 -0.00000000000E+00  0.00000000000E+00  0.55908643586E+03  0.55908643586E+03  0.00000000000E+00 0.  1.
          1   -1    0    0  502    0  0.00000000000E+00 -0.00000000000E+00 -0.72392521139E+02  0.72392521139E+02  0.00000000000E+00 0. -1.
          6    1    1    2  502    0 -0.76672179850E+02  0.27867583127E+02  0.14121982711E+03  0.23702798342E+03  0.17200000000E+03 0. -1.
         -6    1    1    2    0  501  0.76672179850E+02 -0.27867583127E+02  0.34547408760E+03  0.39445097358E+03  0.17200000000E+03 0.  1.
</event>
<event>
 4    1  0.3115421E-002  0.2473465E+03  0.7818608E-02  0.1114993E+00
         -2   -1    0    0    0  501 -0.00000000000E+00  0.00000000000E+00  0.57303431930E+02  0.57303431930E+02  0.00000000000E+00 0.  1.
          2   -1    0    0  502    0  0.00000000000E+00 -0.00000000000E+00 -0.11077541560E+04  0.11077541560E+04  0.00000000000E+00 0. -1.
          6    1    1    2  502    0  0.97887119151E+02  0.14837248943E+03 -0.63605717661E+03  0.68245806877E+03  0.17200000000E+03 0. -1.
         -6    1    1    2    0  501 -0.97887119151E+02 -0.14837248943E+03 -0.41439354747E+03  0.48259951916E+03  0.17200000000E+03 0.  1.
</event>
<event>
 4    1  0.3115421E-002  0.7142639E+03  0.7818608E-02  0.9693145E-01
         -2   -1    0    0    0  501 -0.00000000000E+00  0.00000000000E+00  0.31666206244E+03  0.31666206244E+03  0.00000000000E+00 0.  1.
          2   -1    0    0  502    0  0.00000000000E+00 -0.00000000000E+00 -0.23390890558E+04  0.23390890558E+04  0.00000000000E+00 0. -1.
          6    1    1    2  502    0 -0.37072498382E+03 -0.58579174952E+03 -0.17520077629E+04  0.18920106206E+04  0.17200000000E+03 0. -1.
         -6    1    1    2    0  501  0.37072498382E+03  0.58579174952E+03 -0.27041923047E+03  0.76374049758E+03  0.17200000000E+03 0.  1.
</event>
<event>
 4    1  0.3115421E-002  0.8996804E+03  0.7818608E-02  0.9425981E-01
         -2   -1    0    0    0  501 -0.00000000000E+00  0.00000000000E+00  0.31805092559E+03  0.31805092559E+03  0.00000000000E+00 0.  1.
          2   -1    0    0  502    0  0.00000000000E+00 -0.00000000000E+00 -0.39013138210E+04  0.39013138210E+04  0.00000000000E+00 0. -1.
          6    1    1    2  502    0  0.82558000477E+03  0.31346195741E+03 -0.30355707977E+04  0.31660882507E+04  0.17200000000E+03 0. -1.
         -6    1    1    2    0  501 -0.82558000477E+03 -0.31346195741E+03 -0.54769209770E+03  0.10532764959E+04  0.17200000000E+03 0.  1.
</event>
<event>
 4    1  0.3115421E-002  0.1772360E+03  0.7818608E-02  0.1170505E+00
         -2   -1    0    0    0  501 -0.00000000000E+00  0.00000000000E+00  0.21143600600E+03  0.21143600600E+03  0.00000000000E+00 0.  1.
          2   -1    0    0  502    0  0.00000000000E+00 -0.00000000000E+00 -0.15247071105E+03  0.15247071105E+03  0.00000000000E+00 0. -1.
          6    1    1    2  502    0 -0.93484064677E+01 -0.41727933801E+02  0.58593374807E+02  0.18667028884E+03  0.17200000000E+03 0. -1.
         -6    1    1    2    0  501  0.93484064677E+01  0.41727933801E+02  0.37192013919E+00  0.17723642822E+03  0.17200000000E+03 0. -1.
</event>
<event>
 4    1  0.3115421E-002  0.1770552E+03  0.7818608E-02  0.1170684E+00
         -4   -1    0    0    0  501 -0.00000000000E+00  0.00000000000E+00  0.50457664061E+03  0.50457664061E+03  0.00000000000E+00 0.  1.
          4   -1    0    0  502    0  0.00000000000E+00 -0.00000000000E+00 -0.70645550610E+02  0.70645550610E+02  0.00000000000E+00 0. -1.
          6    1    1    2  502    0  0.33657214316E+02 -0.25134420638E+02  0.11710130579E+03  0.21227638351E+03  0.17200000000E+03 0. -1.
         -6    1    1    2    0  501 -0.33657214316E+02  0.25134420638E+02  0.31682978421E+03  0.36294580772E+03  0.17200000000E+03 0.  1.
</event>
<event>
 4    1  0.3115421E-002  0.5190572E+03  0.7818608E-02  0.1008921E+00
         -1   -1    0    0    0  501 -0.00000000000E+00  0.00000000000E+00  0.24655635260E+03  0.24655635260E+03  0.00000000000E+00 0.  1.
          1   -1    0    0  502    0  0.00000000000E+00 -0.00000000000E+00 -0.17343920750E+04  0.17343920750E+04  0.00000000000E+00 0. -1.
          6    1    1    2  502    0 -0.35053720807E+02 -0.48847476327E+03 -0.13463686447E+04  0.14429583796E+04  0.17200000000E+03 0. -1.
         -6    1    1    2    0  501  0.35053720807E+02  0.48847476327E+03 -0.14146707765E+03  0.53799004800E+03  0.17200000000E+03 0.  1.
</event>
<event>
 4    1  0.3115421E-002  0.2340361E+03  0.7818608E-02  0.1123831E+00
         -1   -1    0    0    0  501 -0.00000000000E+00  0.00000000000E+00  0.30169337477E+02  0.30169337477E+02  0.00000000000E+00 0.  1.
          1   -1    0    0  502    0  0.00000000000E+00 -0.00000000000E+00 -0.18226957879E+04  0.18226957879E+04  0.00000000000E+00 0. -1.
          6    1    1    2  502    0  0.97494554725E+02  0.12523460096E+03 -0.95441112008E+03  0.98268686753E+03  0.17200000000E+03 0. -1.
         -6    1    1    2    0  501 -0.97494554725E+02 -0.12523460096E+03 -0.83811533035E+03  0.87017825786E+03  0.17200000000E+03 0.  1.
</event>
<event>
 4    1  0.3115421E-002  0.3701145E+03  0.7818608E-02  0.1054649E+00
          2   -1    0    0  502    0  0.00000000000E+00  0.00000000000E+00  0.11597091638E+04  0.11597091638E+04  0.00000000000E+00 0. -1.
         -2   -1    0    0    0  501 -0.00000000000E+00 -0.00000000000E+00 -0.15384963533E+03  0.15384963533E+03  0.00000000000E+00 0.  1.
          6    1    1    2  502    0 -0.17324255613E+03  0.27818658707E+03  0.81943873885E+03  0.89914659940E+03  0.17200000000E+03 0. -1.
         -6    1    1    2    0  501  0.17324255613E+03 -0.27818658707E+03  0.18642078962E+03  0.41441219972E+03  0.17200000000E+03 0.  1.
</event>
<event>
 4    1  0.3115421E-002  0.4134350E+03  0.7818608E-02  0.1039224E+00
         -1   -1    0    0    0  501 -0.00000000000E+00  0.00000000000E+00  0.58746996077E+03  0.58746996077E+03  0.00000000000E+00 0.  1.
          1   -1    0    0  502    0  0.00000000000E+00 -0.00000000000E+00 -0.29245761904E+03  0.29245761904E+03  0.00000000000E+00 0. -1.
          6    1    1    2  502    0  0.17475997389E+03  0.33287146158E+03  0.17902211255E+03  0.45053010465E+03  0.17200000000E+03 0. -1.
         -6    1    1    2    0  501 -0.17475997389E+03 -0.33287146158E+03  0.11599022918E+03  0.42939747516E+03  0.17200000000E+03 0.  1.
</event>
<event>
 4    1  0.3115421E-002  0.2520417E+03  0.7818608E-02  0.1112021E+00
          2   -1    0    0  502    0  0.00000000000E+00  0.00000000000E+00  0.46594085951E+03  0.46594085951E+03  0.00000000000E+00 0. -1.
         -2   -1    0    0    0  501 -0.00000000000E+00 -0.00000000000E+00 -0.13646676687E+03  0.13646676687E+03  0.00000000000E+00 0.  1.
          6    1    1    2  502    0 -0.12993767188E+03  0.13060321727E+03  0.17402365610E+03  0.30628292772E+03  0.17200000000E+03 0.  1.
         -6    1    1    2    0  501  0.12993767188E+03 -0.13060321727E+03  0.15545043654E+03  0.29612469866E+03  0.17200000000E+03 0.  1.
</event>
<event>
 4    1  0.3115421E-002  0.2340101E+03  0.7818608E-02  0.1123849E+00
         -1   -1    0    0    0  501 -0.00000000000E+00  0.00000000000E+00  0.67095610423E+03  0.67095610423E+03  0.00000000000E+00 0.  1.
          1   -1    0    0  502    0  0.00000000000E+00 -0.00000000000E+00 -0.94556604605E+02  0.94556604605E+02  0.00000000000E+00 0. -1.
          6    1    1    2  502    0  0.14953212593E+03 -0.53074006819E+02  0.14660246611E+03  0.27613943933E+03  0.17200000000E+03 0. -1.
         -6    1    1    2    0  501 -0.14953212593E+03  0.53074006819E+02  0.42979703351E+03  0.48937326950E+03  0.17200000000E+03 0.  1.
</event>
<event>
 4    1  0.3115421E-002  0.2017230E+03  0.7818608E-02  0.1148293E+00
          2   -1    0    0  502    0  0.00000000000E+00  0.00000000000E+00  0.20861384508E+03  0.20861384508E+03  0.00000000000E+00 0. -1.
         -2   -1    0    0    0  501 -0.00000000000E+00 -0.00000000000E+00 -0.26534193400E+03  0.26534193400E+03  0.00000000000E+00 0.  1.
          6    1    1    2  502    0 -0.77339615687E+02 -0.71601262382E+02  0.93598820703E+02  0.22238007142E+03  0.17200000000E+03 0. -1.
         -6    1    1    2    0  501  0.77339615687E+02  0.71601262382E+02 -0.15032690961E+03  0.25157570766E+03  0.17200000000E+03 0.  1.
</event>
<event>
 4    1  0.3115421E-002  0.2193674E+03  0.7818608E-02  0.1134356E+00
          1   -1    0    0  502    0  0.00000000000E+00  0.00000000000E+00  0.52248795125E+02  0.52248795125E+02  0.00000000000E+00 0. -1.
         -1   -1    0    0    0  501 -0.00000000000E+00 -0.00000000000E+00 -0.16452814144E+04  0.16452814144E+04  0.00000000000E+00 0.  1.
          6    1    1    2  502    0 -0.37428699625E+02 -0.13090886291E+03 -0.23337687572E+03  0.32029174836E+03  0.17200000000E+03 0. -1.
         -6    1    1    2    0  501  0.37428699625E+02  0.13090886291E+03 -0.13596557436E+04  0.13772384612E+04  0.17200000000E+03 0.  1.
</event>
<event>
 4    1  0.3115421E-002  0.3057152E+03  0.7818608E-02  0.1082418E+00
         -2   -1    0    0    0  501 -0.00000000000E+00  0.00000000000E+00  0.19588909230E+03  0.19588909230E+03  0.00000000000E+00 0.  1.
          2   -1    0    0  502    0  0.00000000000E+00 -0.00000000000E+00 -0.95040053673E+03  0.95040053673E+03  0.00000000000E+00 0. -1.
          6    1    1    2  502    0 -0.18953679588E+03 -0.16719325271E+03 -0.78171265222E+03  0.83936669661E+03  0.17200000000E+03 0. -1.
         -6    1    1    2    0  501  0.18953679588E+03  0.16719325271E+03  0.27201207784E+02  0.30692293242E+03  0.17200000000E+03 0.  1.
</event>
<event>
 4    1  0.3115421E-002  0.3496161E+03  0.7818608E-02  0.1062773E+00
         -1   -1    0    0    0  501 -0.00000000000E+00  0.00000000000E+00  0.11215439335E+03  0.11215439335E+03  0.00000000000E+00 0.  1.
          1   -1    0    0  502    0  0.00000000000E+00 -0.00000000000E+00 -0.11098279600E+04  0.11098279600E+04  0.00000000000E+00 0. -1.
          6    1    1    2  502    0 -0.12267434365E+01  0.30437790273E+03 -0.58081298968E+03  0.67791971616E+03  0.17200000000E+03 0. -1.
         -6    1    1    2    0  501  0.12267434365E+01 -0.30437790273E+03 -0.41686057699E+03  0.54406263722E+03  0.17200000000E+03 0.  1.
</event>
<event>
 4    1  0.3115421E-002  0.2706287E+03  0.7818608E-02  0.1100920E+00
          2   -1    0    0  502    0  0.00000000000E+00  0.00000000000E+00  0.19942488482E+03  0.19942488482E+03  0.00000000000E+00 0. -1.
         -2   -1    0    0    0  501 -0.00000000000E+00 -0.00000000000E+00 -0.43635332377E+03  0.43635332377E+03  0.00000000000E+00 0.  1.
          6    1    1    2  502    0  0.91850403293E+02 -0.18766836325E+03  0.80351275054E+01  0.27074799062E+03  0.17200000000E+03 0. -1.
         -6    1    1    2    0  501 -0.91850403293E+02  0.18766836325E+03 -0.24496356645E+03  0.36503021798E+03  0.17200000000E+03 0.  1.
</event>
<event>
 4    1  0.3115421E-002  0.1741493E+03  0.7818608E-02  0.1173589E+00
          2   -1    0    0  502    0  0.00000000000E+00  0.00000000000E+00  0.70144461576E+03  0.70144461576E+03  0.00000000000E+00 0. -1.
         -2   -1    0    0    0  501 -0.00000000000E+00 -0.00000000000E+00 -0.44295278051E+02  0.44295278051E+02  0.00000000000E+00 0.  1.
          6    1    1    2  502    0  0.19945204025E+02 -0.18605605182E+02  0.38622343601E+03  0.42367029897E+03  0.17200000000E+03 0. -1.
         -6    1    1    2    0  501 -0.19945204025E+02  0.18605605182E+02  0.27092590170E+03  0.32206959484E+03  0.17200000000E+03 0.  1.
</event>
<event>
 4    1  0.3115421E-002  0.1925969E+03  0.7818608E-02  0.1156140E+00
         -1   -1    0    0    0  501 -0.00000000000E+00  0.00000000000E+00  0.77736399703E+02  0.77736399703E+02  0.00000000000E+00 0.  1.
          1   -1    0    0  502    0  0.00000000000E+00 -0.00000000000E+00 -0.11301286785E+04  0.11301286785E+04  0.00000000000E+00 0. -1.
          6    1    1    2  502    0  0.32953033603E+01  0.86594964416E+02 -0.98525358463E+03  0.10039014757E+04  0.17200000000E+03 0. -1.
         -6    1    1    2    0  501 -0.32953033603E+01 -0.86594964416E+02 -0.67138694148E+02  0.20396360248E+03  0.17200000000E+03 0.  1.
</event>
<event>
 4    1  0.3115421E-002  0.1799879E+03  0.7818608E-02  0.1167815E+00
          2   -1    0    0  502    0  0.00000000000E+00  0.00000000000E+00  0.66544764723E+03  0.66544764723E+03  0.00000000000E+00 0. -1.
         -2   -1    0    0    0  501 -0.00000000000E+00 -0.00000000000E+00 -0.54169504115E+02  0.54169504115E+02  0.00000000000E+00 0.  1.
          6    1    1    2  502    0 -0.12063372911E+02 -0.51634435350E+02  0.19112400564E+03  0.26253385574E+03  0.17200000000E+03 0.  1.
         -6    1    1    2    0  501  0.12063372911E+02  0.51634435350E+02  0.42015413747E+03  0.45708329560E+03  0.17200000000E+03 0. -1.
</event>
<event>
 4    1  0.3115421E-002  0.1924019E+03  0.7818608E-02  0.1156313E+00
         -1   -1    0    0    0  501 -0.00000000000E+00  0.00000000000E+00  0.62389725276E+02  0.62389725276E+02  0.00000000000E+00 0.  1.
          1   -1    0    0  502    0  0.00000000000E+00 -0.00000000000E+00 -0.12358514992E+04  0.12358514992E+04  0.00000000000E+00 0. -1.
          6    1    1    2  502    0  0.86217555384E+02  0.10194596203E+01 -0.10547695147E+04  0.10721740695E+04  0.17200000000E+03 0. -1.
         -6    1    1    2    0  501 -0.86217555384E+02 -0.10194596203E+01 -0.11869225918E+03  0.22606715494E+03  0.17200000000E+03 0.  1.
</event>
<event>
 4    1  0.3115421E-002  0.1735107E+03  0.7818608E-02  0.1174235E+00
          2   -1    0    0  502    0  0.00000000000E+00  0.00000000000E+00  0.73730540683E+03  0.73730540683E+03  0.00000000000E+00 0. -1.
         -2   -1    0    0    0  501 -0.00000000000E+00 -0.00000000000E+00 -0.53876235198E+02  0.53876235198E+02  0.00000000000E+00 0.  1.
          6    1    1    2  502    0 -0.17701871687E+01  0.22778112036E+02  0.53636244682E+03  0.56372923493E+03  0.17200000000E+03 0. -1.
         -6    1    1    2    0  501  0.17701871687E+01 -0.22778112036E+02  0.14706672482E+03  0.22745240711E+03  0.17200000000E+03 0.  1.
</event>
<event>
 4    1  0.3115421E-002  0.2197460E+03  0.7818608E-02  0.1134073E+00
         -2   -1    0    0    0  501 -0.00000000000E+00  0.00000000000E+00  0.31989668659E+03  0.31989668659E+03  0.00000000000E+00 0.  1.
          2   -1    0    0  502    0  0.00000000000E+00 -0.00000000000E+00 -0.51407482134E+03  0.51407482134E+03  0.00000000000E+00 0. -1.
          6    1    1    2  502    0 -0.13673745631E+03  0.26743392045E+01 -0.44754728272E+03  0.49858485167E+03  0.17200000000E+03 0. -1.
         -6    1    1    2    0  501  0.13673745631E+03 -0.26743392045E+01  0.25336914797E+03  0.33538665625E+03  0.17200000000E+03 0.  1.
</event>
<event>
 4    1  0.3115421E-002  0.2019622E+03  0.7818608E-02  0.1148094E+00
          1   -1    0    0  502    0  0.00000000000E+00  0.00000000000E+00  0.18190270095E+03  0.18190270095E+03  0.00000000000E+00 0. -1.
         -1   -1    0    0    0  501 -0.00000000000E+00 -0.00000000000E+00 -0.24386961174E+03  0.24386961174E+03  0.00000000000E+00 0.  1.
          6    1    1    2  502    0  0.98493346614E+02 -0.38778877314E+02  0.29424285506E+02  0.20409441254E+03  0.17200000000E+03 0. -1.
         -6    1    1    2    0  501 -0.98493346614E+02  0.38778877314E+02 -0.91391196298E+02  0.22167790015E+03  0.17200000000E+03 0.  1.
</event>
<event>
 4    1  0.3115421E-002  0.2124256E+03  0.7818608E-02  0.1139659E+00
         -1   -1    0    0    0  501 -0.00000000000E+00  0.00000000000E+00  0.56761916352E+02  0.56761916352E+02  0.00000000000E+00 0.  1.
          1   -1    0    0  502    0  0.00000000000E+00 -0.00000000000E+00 -0.42540384413E+04  0.42540384413E+04  0.00000000000E+00 0. -1.
          6    1    1    2  502    0  0.93846014630E+02 -0.82058261988E+02 -0.40422347701E+04  0.40478125660E+04  0.17200000000E+03 0. -1.
         -6    1    1    2    0  501 -0.93846014630E+02  0.82058261988E+02 -0.15504175489E+03  0.26298779170E+03  0.17200000000E+03 0.  1.
</event>
<event>
 4    1  0.3115421E-002  0.2081638E+03  0.7818608E-02  0.1143028E+00
          2   -1    0    0  502    0  0.00000000000E+00  0.00000000000E+00  0.16226081850E+04  0.16226081850E+04  0.00000000000E+00 0. -1.
         -2   -1    0    0    0  501 -0.00000000000E+00 -0.00000000000E+00 -0.22240518798E+03  0.22240518798E+03  0.00000000000E+00 0.  1.
          6    1    1    2  502    0 -0.71264994383E+02 -0.93110009461E+02  0.15654526958E+04  0.15792321919E+04  0.17200000000E+03 0. -1.
         -6    1    1    2    0  501  0.71264994383E+02  0.93110009461E+02 -0.16524969873E+03  0.26578118108E+03  0.17200000000E+03 0.  1.
</event>
<event>
 4    1  0.3115421E-002  0.1854900E+03  0.7818608E-02  0.1162593E+00
         -2   -1    0    0    0  501 -0.00000000000E+00  0.00000000000E+00  0.13794341656E+02  0.13794341656E+02  0.00000000000E+00 0.  1.
          2   -1    0    0  502    0  0.00000000000E+00 -0.00000000000E+00 -0.26636457211E+04  0.26636457211E+04  0.00000000000E+00 0. -1.
          6    1    1    2  502    0  0.25437310836E+02 -0.64618120962E+02 -0.16625243668E+04  0.16728400487E+04  0.17200000000E+03 0. -1.
         -6    1    1    2    0  501 -0.25437310836E+02  0.64618120962E+02 -0.98732701258E+03  0.10046000140E+04  0.17200000000E+03 0. -1.
</event>
<event>
 4    1  0.3115421E-002  0.1748702E+03  0.7818608E-02  0.1172862E+00
          1   -1    0    0  502    0  0.00000000000E+00  0.00000000000E+00  0.36217811264E+03  0.36217811264E+03  0.00000000000E+00 0. -1.
         -1   -1    0    0    0  501 -0.00000000000E+00 -0.00000000000E+00 -0.15318489568E+03  0.15318489568E+03  0.00000000000E+00 0.  1.
          6    1    1    2  502    0 -0.65662273815E+01 -0.30862187482E+02  0.27712781677E+03  0.32768798694E+03  0.17200000000E+03 0. -1.
         -6    1    1    2    0  501  0.65662273815E+01  0.30862187482E+02 -0.68134599816E+02  0.18767502138E+03  0.17200000000E+03 0.  1.
</event>
<event>
 4    1  0.3115421E-002  0.1747370E+03  0.7818608E-02  0.1172996E+00
          2   -1    0    0  502    0  0.00000000000E+00  0.00000000000E+00  0.62110265787E+03  0.62110265787E+03  0.00000000000E+00 0. -1.
         -2   -1    0    0    0  501 -0.00000000000E+00 -0.00000000000E+00 -0.62748747576E+02  0.62748747576E+02  0.00000000000E+00 0.  1.
          6    1    1    2  502    0  0.30775548333E+02  0.13761729337E+01  0.43829838367E+03  0.47184584490E+03  0.17200000000E+03 0. -1.
         -6    1    1    2    0  501 -0.30775548333E+02 -0.13761729337E+01  0.12005552663E+03  0.21200556054E+03  0.17200000000E+03 0.  1.
</event>
<event>
 4    1  0.3115421E-002  0.2085321E+03  0.7818608E-02  0.1142734E+00
         -1   -1    0    0    0  501 -0.00000000000E+00  0.00000000000E+00  0.29477042554E+03  0.29477042554E+03  0.00000000000E+00 0.  1.
          1   -1    0    0  502    0  0.00000000000E+00 -0.00000000000E+00 -0.14787040213E+03  0.14787040213E+03  0.00000000000E+00 0. -1.
          6    1    1    2  502    0 -0.89278706070E+02 -0.77012715105E+02  0.84165519027E+02  0.22487658891E+03  0.17200000000E+03 0. -1.
         -6    1    1    2    0  501  0.89278706070E+02  0.77012715105E+02  0.62734504386E+02  0.21776423877E+03  0.17200000000E+03 0.  1.
</event>
<event>
 4    1  0.3115421E-002  0.2375298E+03  0.7818608E-02  0.1121449E+00
          1   -1    0    0  502    0  0.00000000000E+00  0.00000000000E+00  0.56923444563E+03  0.56923444563E+03  0.00000000000E+00 0. -1.
         -1   -1    0    0    0  501 -0.00000000000E+00 -0.00000000000E+00 -0.23839602911E+03  0.23839602911E+03  0.00000000000E+00 0.  1.
          6    1    1    2  502    0 -0.67050992556E+01  0.16368092287E+03  0.47407695094E+03  0.53025405070E+03  0.17200000000E+03 0. -1.
         -6    1    1    2    0  501  0.67050992556E+01 -0.16368092287E+03 -0.14323853443E+03  0.27737642404E+03  0.17200000000E+03 0.  1.
</event>
<event>
 4    1  0.3115421E-002  0.5563056E+03  0.7818608E-02  0.1000045E+00
         -2   -1    0    0    0  501 -0.00000000000E+00  0.00000000000E+00  0.32010508205E+03  0.32010508205E+03  0.00000000000E+00 0.  1.
          2   -1    0    0  502    0  0.00000000000E+00 -0.00000000000E+00 -0.12043788409E+04  0.12043788409E+04  0.00000000000E+00 0. -1.
          6    1    1    2  502    0 -0.49441965484E+03  0.18825820125E+03 -0.78068458852E+03  0.95861586267E+03  0.17200000000E+03 0. -1.
         -6    1    1    2    0  501  0.49441965484E+03 -0.18825820125E+03 -0.10358917033E+03  0.56586806027E+03  0.17200000000E+03 0.  1.
</event>
<event>
 4    1  0.3115421E-002  0.4080764E+03  0.7818608E-02  0.1041018E+00
          2   -1    0    0  502    0  0.00000000000E+00  0.00000000000E+00  0.36532629528E+04  0.36532629528E+04  0.00000000000E+00 0. -1.
         -2   -1    0    0    0  501 -0.00000000000E+00 -0.00000000000E+00 -0.71408525901E+02  0.71408525901E+02  0.00000000000E+00 0.  1.
          6    1    1    2  502    0  0.61423796098E+01 -0.37000621234E+03  0.29109022882E+04  0.29393670165E+04  0.17200000000E+03 0. -1.
         -6    1    1    2    0  501 -0.61423796098E+01  0.37000621234E+03  0.67095213873E+03  0.78530446228E+03  0.17200000000E+03 0.  1.
</event>
<event>
 4    1  0.3115421E-002  0.3223098E+03  0.7818608E-02  0.1074591E+00
         -1   -1    0    0    0  501 -0.00000000000E+00  0.00000000000E+00  0.14790573756E+04  0.14790573756E+04  0.00000000000E+00 0.  1.
          1   -1    0    0  502    0  0.00000000000E+00 -0.00000000000E+00 -0.39687530312E+03  0.39687530312E+03  0.00000000000E+00 0. -1.
          6    1    1    2  502    0  0.26997057296E+03  0.37623187730E+02 -0.30983966515E+03  0.44708414490E+03  0.17200000000E+03 0. -1.
         -6    1    1    2    0  501 -0.26997057296E+03 -0.37623187730E+02  0.13920217376E+04  0.14288485338E+04  0.17200000000E+03 0.  1.
</event>
<event>
 4    1  0.3115421E-002  0.3511613E+03  0.7818608E-02  0.1062139E+00
         -2   -1    0    0    0  501 -0.00000000000E+00  0.00000000000E+00  0.12412392866E+03  0.12412392866E+03  0.00000000000E+00 0.  1.
          2   -1    0    0  502    0  0.00000000000E+00 -0.00000000000E+00 -0.37263794232E+04  0.37263794232E+04  0.00000000000E+00 0. -1.
          6    1    1    2  502    0 -0.23856418089E+03  0.19187849848E+03 -0.34498825102E+04  0.34677086903E+04  0.17200000000E+03 0. -1.
         -6    1    1    2    0  501  0.23856418089E+03 -0.19187849848E+03 -0.15237298439E+03  0.38279466160E+03  0.17200000000E+03 0.  1.
</event>
<event>
 4    1  0.3115421E-002  0.2530221E+03  0.7818608E-02  0.1111410E+00
         -2   -1    0    0    0  501 -0.00000000000E+00  0.00000000000E+00  0.54692603252E+03  0.54692603252E+03  0.00000000000E+00 0.  1.
          2   -1    0    0  502    0  0.00000000000E+00 -0.00000000000E+00 -0.63344445558E+03  0.63344445558E+03  0.00000000000E+00 0. -1.
          6    1    1    2  502    0 -0.52902013529E+02  0.17786945386E+03 -0.57613128547E+03  0.62924353294E+03  0.17200000000E+03 0. -1.
         -6    1    1    2    0  501  0.52902013529E+02 -0.17786945386E+03  0.48961286242E+03  0.55112695516E+03  0.17200000000E+03 0.  1.
</event>
<event>
 4    1  0.3115421E-002  0.1815538E+03  0.7818608E-02  0.1166308E+00
         -1   -1    0    0    0  501 -0.00000000000E+00  0.00000000000E+00  0.60936047479E+02  0.60936047479E+02  0.00000000000E+00 0.  1.
          1   -1    0    0  502    0  0.00000000000E+00 -0.00000000000E+00 -0.61115962443E+03  0.61115962443E+03  0.00000000000E+00 0. -1.
          6    1    1    2  502    0  0.56119034825E+02  0.15113686437E+02 -0.16119111390E+03  0.24278456456E+03  0.17200000000E+03 0.  1.
         -6    1    1    2    0  501 -0.56119034825E+02 -0.15113686437E+02 -0.38903246305E+03  0.42931110735E+03  0.17200000000E+03 0. -1.
</event>
<event>
 4    1  0.3115421E-002  0.2024343E+03  0.7818608E-02  0.1147701E+00
         -3   -1    0    0    0  501 -0.00000000000E+00  0.00000000000E+00  0.56340776300E+03  0.56340776300E+03  0.00000000000E+00 0.  1.
          3   -1    0    0  502    0  0.00000000000E+00 -0.00000000000E+00 -0.53833412108E+03  0.53833412108E+03  0.00000000000E+00 0. -1.
          6    1    1    2  502    0  0.10294721385E+03  0.28240432407E+02 -0.49976963824E+03  0.53921177859E+03  0.17200000000E+03 0. -1.
         -6    1    1    2    0  501 -0.10294721385E+03 -0.28240432407E+02  0.52484328016E+03  0.56253010550E+03  0.17200000000E+03 0.  1.
</event>
<event>
 4    1  0.3115421E-002  0.5736717E+03  0.7818608E-02  0.9961587E-01
         -1   -1    0    0    0  501 -0.00000000000E+00  0.00000000000E+00  0.34704963488E+03  0.34704963488E+03  0.00000000000E+00 0.  1.
          1   -1    0    0  502    0  0.00000000000E+00 -0.00000000000E+00 -0.94972836805E+03  0.94972836805E+03  0.00000000000E+00 0. -1.
          6    1    1    2  502    0 -0.22686851326E+03 -0.49804201172E+03 -0.32668673338E+03  0.66016921279E+03  0.17200000000E+03 0. -1.
         -6    1    1    2    0  501  0.22686851326E+03  0.49804201172E+03 -0.27599199978E+03  0.63660879014E+03  0.17200000000E+03 0.  1.
</event>
<event>
 4    1  0.3115421E-002  0.1903306E+03  0.7818608E-02  0.1158163E+00
          2   -1    0    0  502    0  0.00000000000E+00  0.00000000000E+00  0.73918328678E+02  0.73918328678E+02  0.00000000000E+00 0. -1.
         -2   -1    0    0    0  501 -0.00000000000E+00 -0.00000000000E+00 -0.59747145691E+03  0.59747145691E+03  0.00000000000E+00 0.  1.
          6    1    1    2  502    0 -0.71618332472E+01  0.81181549771E+02 -0.11945347570E+03  0.22471063334E+03  0.17200000000E+03 0. -1.
         -6    1    1    2    0  501  0.71618332472E+01 -0.81181549771E+02 -0.40409965253E+03  0.44667915225E+03  0.17200000000E+03 0.  1.
</event>
<event>
 4    1  0.3115421E-002  0.2278107E+03  0.7818608E-02  0.1128190E+00
          1   -1    0    0  502    0  0.00000000000E+00  0.00000000000E+00  0.85017649377E+02  0.85017649377E+02  0.00000000000E+00 0. -1.
         -1   -1    0    0    0  501 -0.00000000000E+00 -0.00000000000E+00 -0.62471328451E+03  0.62471328451E+03  0.00000000000E+00 0.  1.
          6    1    1    2  502    0 -0.65329630217E+02  0.13433453356E+03 -0.21619837727E+03  0.31406920547E+03  0.17200000000E+03 0.  1.
         -6    1    1    2    0  501  0.65329630217E+02 -0.13433453356E+03 -0.32349725787E+03  0.39566172842E+03  0.17200000000E+03 0.  1.
</event>
<event>
 4    1  0.3115421E-002  0.2471928E+03  0.7818608E-02  0.1115092E+00
          2   -1    0    0  502    0  0.00000000000E+00  0.00000000000E+00  0.38333125145E+03  0.38333125145E+03  0.00000000000E+00 0. -1.
         -2   -1    0    0    0  501 -0.00000000000E+00 -0.00000000000E+00 -0.16133030653E+03  0.16133030653E+03  0.00000000000E+00 0.  1.
          6    1    1    2  502    0  0.17460775296E+03 -0.32130928333E+02  0.14076377261E+03  0.28446213039E+03  0.17200000000E+03 0.  1.
         -6    1    1    2    0  501 -0.17460775296E+03  0.32130928333E+02  0.81237172310E+02  0.26019942758E+03  0.17200000000E+03 0.  1.
</event>
<event>
 4    1  0.3115421E-002  0.2195319E+03  0.7818608E-02  0.1134233E+00
          1   -1    0    0  502    0  0.00000000000E+00  0.00000000000E+00  0.75407026871E+02  0.75407026871E+02  0.00000000000E+00 0. -1.
         -1   -1    0    0    0  501 -0.00000000000E+00 -0.00000000000E+00 -0.64234696335E+03  0.64234696335E+03  0.00000000000E+00 0.  1.
          6    1    1    2  502    0 -0.11274973581E+03 -0.76796707728E+02 -0.25803857671E+03  0.33878923288E+03  0.17200000000E+03 0. -1.
         -6    1    1    2    0  501  0.11274973581E+03  0.76796707728E+02 -0.30890135977E+03  0.37896475735E+03  0.17200000000E+03 0.  1.
</event>
<event>
 4    1  0.3115421E-002  0.1861836E+03  0.7818608E-02  0.1161949E+00
         -2   -1    0    0    0  501 -0.00000000000E+00  0.00000000000E+00  0.10862798534E+03  0.10862798534E+03  0.00000000000E+00 0.  1.
          2   -1    0    0  502    0  0.00000000000E+00 -0.00000000000E+00 -0.11818010843E+04  0.11818010843E+04  0.00000000000E+00 0. -1.
          6    1    1    2  502    0  0.62102721974E+01 -0.71005366282E+02 -0.10878503590E+04  0.11036678545E+04  0.17200000000E+03 0. -1.
         -6    1    1    2    0  501 -0.62102721974E+01  0.71005366282E+02  0.14677260006E+02  0.18676121515E+03  0.17200000000E+03 0.  1.
</event>
<event>
 4    1  0.3115421E-002  0.5380202E+03  0.7818608E-02  0.1004305E+00
          3   -1    0    0  502    0  0.00000000000E+00  0.00000000000E+00  0.51827275788E+03  0.51827275788E+03  0.00000000000E+00 0. -1.
         -3   -1    0    0    0  501 -0.00000000000E+00 -0.00000000000E+00 -0.55952924893E+03  0.55952924893E+03  0.00000000000E+00 0.  1.
          6    1    1    2  502    0 -0.30888839170E+03  0.40554858975E+03 -0.43515738413E+02  0.53977709905E+03  0.17200000000E+03 0. -1.
         -6    1    1    2    0  501  0.30888839170E+03 -0.40554858975E+03  0.22592473583E+01  0.53802490776E+03  0.17200000000E+03 0.  1.
</event>
<event>
 4    1  0.3115421E-002  0.1028345E+04  0.7818608E-02  0.9277992E-01
         -2   -1    0    0    0  501 -0.00000000000E+00  0.00000000000E+00  0.21743064883E+04  0.21743064883E+04  0.00000000000E+00 0.  1.
          2   -1    0    0  502    0  0.00000000000E+00 -0.00000000000E+00 -0.53130892852E+03  0.53130892852E+03  0.00000000000E+00 0. -1.
          6    1    1    2  502    0  0.12658420437E+03  0.10059252096E+04  0.42801394840E+03  0.11138622123E+04  0.17200000000E+03 0. -1.
         -6    1    1    2    0  501 -0.12658420437E+03 -0.10059252096E+04  0.12149836114E+04  0.15917532045E+04  0.17200000000E+03 0.  1.
</event>
<event>
 4    1  0.3115421E-002  0.3471956E+03  0.7818608E-02  0.1063772E+00
         -1   -1    0    0    0  501 -0.00000000000E+00  0.00000000000E+00  0.20741453136E+03  0.20741453136E+03  0.00000000000E+00 0.  1.
          1   -1    0    0  502    0  0.00000000000E+00 -0.00000000000E+00 -0.23883603100E+04  0.23883603100E+04  0.00000000000E+00 0. -1.
          6    1    1    2  502    0 -0.20364039942E+03 -0.22246654132E+03 -0.22194576429E+04  0.22464498666E+04  0.17200000000E+03 0. -1.
         -6    1    1    2    0  501  0.20364039942E+03  0.22246654132E+03  0.38511864325E+02  0.34932497474E+03  0.17200000000E+03 0.  1.
</event>
<event>
 4    1  0.3115421E-002  0.2003899E+03  0.7818608E-02  0.1149411E+00
          2   -1    0    0  502    0  0.00000000000E+00  0.00000000000E+00  0.25070749653E+04  0.25070749653E+04  0.00000000000E+00 0. -1.
         -2   -1    0    0    0  501 -0.00000000000E+00 -0.00000000000E+00 -0.16021226671E+02  0.16021226671E+02  0.00000000000E+00 0.  1.
          6    1    1    2  502    0 -0.47187902203E+02  0.91353132479E+02  0.12657516155E+04  0.12815159949E+04  0.17200000000E+03 0. -1.
         -6    1    1    2    0  501  0.47187902203E+02 -0.91353132479E+02  0.12253021231E+04  0.12415801971E+04  0.17200000000E+03 0.  1.
</event>
<event>
 4    1  0.3115421E-002  0.2176659E+03  0.7818608E-02  0.1135635E+00
          1   -1    0    0  502    0  0.00000000000E+00  0.00000000000E+00  0.34667934733E+03  0.34667934733E+03  0.00000000000E+00 0. -1.
         -1   -1    0    0    0  501 -0.00000000000E+00 -0.00000000000E+00 -0.13890328293E+03  0.13890328293E+03  0.00000000000E+00 0.  1.
          6    1    1    2  502    0 -0.89901876947E+02  0.98549864702E+02  0.13471827676E+03  0.25598327563E+03  0.17200000000E+03 0. -1.
         -6    1    1    2    0  501  0.89901876947E+02 -0.98549864702E+02  0.73057787643E+02  0.22959935463E+03  0.17200000000E+03 0.  1.
</event>
<event>
 4    1  0.3115421E-002  0.2085426E+03  0.7818608E-02  0.1142725E+00
          3   -1    0    0  502    0  0.00000000000E+00  0.00000000000E+00  0.87457995205E+03  0.87457995205E+03  0.00000000000E+00 0. -1.
         -3   -1    0    0    0  501 -0.00000000000E+00 -0.00000000000E+00 -0.50924538221E+02  0.50924538221E+02  0.00000000000E+00 0.  1.
          6    1    1    2  502    0 -0.85722856453E+02 -0.80979126146E+02  0.48279745618E+03  0.52591197998E+03  0.17200000000E+03 0. -1.
         -6    1    1    2    0  501  0.85722856453E+02  0.80979126146E+02  0.34085795764E+03  0.39959251029E+03  0.17200000000E+03 0.  1.
</event>
<event>
 4    1  0.3115421E-002  0.2375903E+03  0.7818608E-02  0.1121409E+00
         -1   -1    0    0    0  501 -0.00000000000E+00  0.00000000000E+00  0.18319675417E+03  0.18319675417E+03  0.00000000000E+00 0.  1.
          1   -1    0    0  502    0  0.00000000000E+00 -0.00000000000E+00 -0.30813504463E+03  0.30813504463E+03  0.00000000000E+00 0. -1.
          6    1    1    2  502    0 -0.63194484709E+02 -0.15123367599E+03 -0.62039854702E+02  0.24555673728E+03  0.17200000000E+03 0. -1.
         -6    1    1    2    0  501  0.63194484709E+02  0.15123367599E+03 -0.62898435755E+02  0.24577506153E+03  0.17200000000E+03 0.  1.
</event>
<event>
 4    1  0.3115421E-002  0.1791057E+03  0.7818608E-02  0.1168671E+00
          2   -1    0    0  502    0  0.00000000000E+00  0.00000000000E+00  0.31059829601E+03  0.31059829601E+03  0.00000000000E+00 0. -1.
         -2   -1    0    0    0  501 -0.00000000000E+00 -0.00000000000E+00 -0.16166817553E+03  0.16166817553E+03  0.00000000000E+00 0.  1.
          6    1    1    2  502    0 -0.17813104743E+02 -0.46664022862E+02  0.21637223706E+03  0.28088393101E+03  0.17200000000E+03 0. -1.
         -6    1    1    2    0  501  0.17813104743E+02  0.46664022862E+02 -0.67442116581E+02  0.19138254053E+03  0.17200000000E+03 0.  1.
</event>
<event>
 4    1  0.3115421E-002  0.2706766E+03  0.7818608E-02  0.1100893E+00
         -2   -1    0    0    0  501 -0.00000000000E+00  0.00000000000E+00  0.31226901916E+02  0.31226901916E+02  0.00000000000E+00 0.  1.
          2   -1    0    0  502    0  0.00000000000E+00 -0.00000000000E+00 -0.23598534698E+04  0.23598534698E+04  0.00000000000E+00 0. -1.
          6    1    1    2  502    0  0.74955123690E+02  0.19509883322E+03 -0.12551154904E+04  0.12839706849E+04  0.17200000000E+03 0. -1.
         -6    1    1    2    0  501 -0.74955123690E+02 -0.19509883322E+03 -0.10735110774E+04  0.11071096868E+04  0.17200000000E+03 0.  1.
</event>
<event>
 4    1  0.3115421E-002  0.2415556E+03  0.7818608E-02  0.1118761E+00
         -2   -1    0    0    0  501 -0.00000000000E+00  0.00000000000E+00  0.50615219921E+02  0.50615219921E+02  0.00000000000E+00 0.  1.
          2   -1    0    0  502    0  0.00000000000E+00 -0.00000000000E+00 -0.14454547168E+04  0.14454547168E+04  0.00000000000E+00 0. -1.
          6    1    1    2  502    0  0.16294082207E+03  0.47068221048E+02 -0.36083158832E+03  0.43422179132E+03  0.17200000000E+03 0. -1.
         -6    1    1    2    0  501 -0.16294082207E+03 -0.47068221048E+02 -0.10340079086E+04  0.10618481455E+04  0.17200000000E+03 0.  1.
</event>
<event>
 4    1  0.3115421E-002  0.1726375E+03  0.7818608E-02  0.1175125E+00
         -1   -1    0    0    0  501 -0.00000000000E+00  0.00000000000E+00  0.27263143732E+03  0.27263143732E+03  0.00000000000E+00 0.  1.
          1   -1    0    0  502    0  0.00000000000E+00 -0.00000000000E+00 -0.32992510063E+03  0.32992510063E+03  0.00000000000E+00 0. -1.
          6    1    1    2  502    0  0.92137184308E+01 -0.11610768736E+02  0.21771261804E+03  0.27785335451E+03  0.17200000000E+03 0.  1.
         -6    1    1    2    0  501 -0.92137184308E+01  0.11610768736E+02 -0.27500628135E+03  0.32470318345E+03  0.17200000000E+03 0. -1.
</event>
<event>
 4    1  0.3115421E-002  0.3669948E+03  0.7818608E-02  0.1055848E+00
          1   -1    0    0  502    0  0.00000000000E+00  0.00000000000E+00  0.49837212739E+03  0.49837212739E+03  0.00000000000E+00 0. -1.
         -1   -1    0    0    0  501 -0.00000000000E+00 -0.00000000000E+00 -0.27296672704E+03  0.27296672704E+03  0.00000000000E+00 0.  1.
          6    1    1    2  502    0  0.16278668821E+02 -0.32378416311E+03  0.15117652907E+03  0.39691248693E+03  0.17200000000E+03 0. -1.
         -6    1    1    2    0  501 -0.16278668821E+02  0.32378416311E+03  0.74228871288E+02  0.37442636749E+03  0.17200000000E+03 0.  1.
</event>
<event>
 4    1  0.3115421E-002  0.3303396E+03  0.7818608E-02  0.1070987E+00
          2   -1    0    0  502    0  0.00000000000E+00  0.00000000000E+00  0.15934816860E+03  0.15934816860E+03  0.00000000000E+00 0. -1.
         -2   -1    0    0    0  501 -0.00000000000E+00 -0.00000000000E+00 -0.12706896959E+04  0.12706896959E+04  0.00000000000E+00 0.  1.
          6    1    1    2  502    0 -0.10115910268E+03  0.26326243498E+03 -0.70159222125E+02  0.33770784737E+03  0.17200000000E+03 0.  1.
         -6    1    1    2    0  501  0.10115910268E+03 -0.26326243498E+03 -0.10411823052E+04  0.10923300171E+04  0.17200000000E+03 0.  1.
</event>
<event>
 4    1  0.3115421E-002  0.2831152E+03  0.7818608E-02  0.1094000E+00
         -1   -1    0    0    0  501 -0.00000000000E+00  0.00000000000E+00  0.36707170637E+02  0.36707170637E+02  0.00000000000E+00 0.  1.
          1   -1    0    0  502    0  0.00000000000E+00 -0.00000000000E+00 -0.23375714775E+04  0.23375714775E+04  0.00000000000E+00 0. -1.
          6    1    1    2  502    0 -0.67312881567E+02 -0.21456741756E+03 -0.14550975508E+04  0.14823842562E+04  0.17200000000E+03 0.  1.
         -6    1    1    2    0  501  0.67312881567E+02  0.21456741756E+03 -0.84576675615E+03  0.89189439202E+03  0.17200000000E+03 0.  1.
</event>
<event>
 4    1  0.3115421E-002  0.1792166E+03  0.7818608E-02  0.1168563E+00
          1   -1    0    0  502    0  0.00000000000E+00  0.00000000000E+00  0.79967119136E+03  0.79967119136E+03  0.00000000000E+00 0. -1.
         -1   -1    0    0    0  501 -0.00000000000E+00 -0.00000000000E+00 -0.95683425217E+02  0.95683425217E+02  0.00000000000E+00 0.  1.
          6    1    1    2  502    0  0.25606585142E+02 -0.43346199920E+02  0.69300323381E+03  0.71580169902E+03  0.17200000000E+03 0. -1.
         -6    1    1    2    0  501 -0.25606585142E+02  0.43346199920E+02  0.10984532327E+02  0.17955291755E+03  0.17200000000E+03 0.  1.
</event>
<event>
 4    1  0.3115421E-002  0.1745873E+03  0.7818608E-02  0.1173147E+00
          2   -1    0    0  502    0  0.00000000000E+00  0.00000000000E+00  0.25234216690E+04  0.25234216690E+04  0.00000000000E+00 0. -1.
         -2   -1    0    0    0  501 -0.00000000000E+00 -0.00000000000E+00 -0.13721284453E+02  0.13721284453E+02  0.00000000000E+00 0.  1.
          6    1    1    2  502    0  0.29351724518E+02  0.59340388539E+01  0.16937088351E+04  0.17026832808E+04  0.17200000000E+03 0. -1.
         -6    1    1    2    0  501 -0.29351724518E+02 -0.59340388539E+01  0.81599154941E+03  0.83445967264E+03  0.17200000000E+03 0.  1.
</event>
<event>
 4    1  0.3115421E-002  0.1833080E+03  0.7818608E-02  0.1164639E+00
         -1   -1    0    0    0  501 -0.00000000000E+00  0.00000000000E+00  0.69149841172E+02  0.69149841172E+02  0.00000000000E+00 0.  1.
          1   -1    0    0  502    0  0.00000000000E+00 -0.00000000000E+00 -0.10995036648E+04  0.10995036648E+04  0.00000000000E+00 0. -1.
          6    1    1    2  502    0 -0.44558781571E+02  0.45081630022E+02 -0.95168422296E+03  0.96917733084E+03  0.17200000000E+03 0. -1.
         -6    1    1    2    0  501  0.44558781571E+02 -0.45081630022E+02 -0.78669600684E+02  0.19947617515E+03  0.17200000000E+03 0.  1.
</event>
<event>
 4    1  0.3115421E-002  0.2018044E+03  0.7818608E-02  0.1148225E+00
         -2   -1    0    0    0  501 -0.00000000000E+00  0.00000000000E+00  0.84018543299E+02  0.84018543299E+02  0.00000000000E+00 0.  1.
          2   -1    0    0  502    0  0.00000000000E+00 -0.00000000000E+00 -0.71817373867E+03  0.71817373867E+03  0.00000000000E+00 0. -1.
          6    1    1    2  502    0 -0.84668478715E+02  0.63025980276E+02 -0.54576331562E+03  0.58187852869E+03  0.17200000000E+03 0. -1.
         -6    1    1    2    0  501  0.84668478715E+02 -0.63025980276E+02 -0.88391879753E+02  0.22031375328E+03  0.17200000000E+03 0.  1.
</event>
<event>
 4    1  0.3115421E-002  0.4228025E+03  0.7818608E-02  0.1036158E+00
          2   -1    0    0  502    0  0.00000000000E+00  0.00000000000E+00  0.57377009687E+03  0.57377009687E+03  0.00000000000E+00 0. -1.
         -2   -1    0    0    0  501 -0.00000000000E+00 -0.00000000000E+00 -0.33603730409E+03  0.33603730409E+03  0.00000000000E+00 0.  1.
          6    1    1    2  502    0  0.38623557663E+03 -0.49564277292E-01  0.24164896341E+03  0.48698680129E+03  0.17200000000E+03 0. -1.
         -6    1    1    2    0  501 -0.38623557663E+03  0.49564277292E-01 -0.39161706287E+01  0.42282059967E+03  0.17200000000E+03 0.  1.
</event>
<event>
 4    1  0.3115421E-002  0.1845565E+03  0.7818608E-02  0.1163465E+00
         -2   -1    0    0    0  501 -0.00000000000E+00  0.00000000000E+00  0.19109517479E+02  0.19109517479E+02  0.00000000000E+00 0.  1.
          2   -1    0    0  502    0  0.00000000000E+00 -0.00000000000E+00 -0.26968776391E+04  0.26968776391E+04  0.00000000000E+00 0. -1.
          6    1    1    2  502    0 -0.20645309673E+02  0.63646568190E+02 -0.21296533274E+04  0.21376352377E+04  0.17200000000E+03 0. -1.
         -6    1    1    2    0  501  0.20645309673E+02 -0.63646568190E+02 -0.54811479425E+03  0.57835191893E+03  0.17200000000E+03 0.  1.
</event>
<event>
 4    1  0.3115421E-002  0.1829433E+03  0.7818608E-02  0.1164985E+00
         -2   -1    0    0    0  501 -0.00000000000E+00  0.00000000000E+00  0.69304474466E+02  0.69304474466E+02  0.00000000000E+00 0.  1.
          2   -1    0    0  502    0  0.00000000000E+00 -0.00000000000E+00 -0.97170692268E+03  0.97170692268E+03  0.00000000000E+00 0. -1.
          6    1    1    2  502    0  0.52006162992E+02  0.34345230524E+02 -0.82036529821E+03  0.84051618566E+03  0.17200000000E+03 0. -1.
         -6    1    1    2    0  501 -0.52006162992E+02 -0.34345230524E+02 -0.82037150007E+02  0.20049521149E+03  0.17200000000E+03 0.  1.
</event>
<event>
 4    1  0.3115421E-002  0.2811968E+03  0.7818608E-02  0.1095037E+00
         -2   -1    0    0    0  501 -0.00000000000E+00  0.00000000000E+00  0.49209473065E+03  0.49209473065E+03  0.00000000000E+00 0.  1.
          2   -1    0    0  502    0  0.00000000000E+00 -0.00000000000E+00 -0.13179891712E+04  0.13179891712E+04  0.00000000000E+00 0. -1.
          6    1    1    2  502    0 -0.19739541829E+03 -0.10258005705E+03 -0.12610271507E+04  0.12919988754E+04  0.17200000000E+03 0. -1.
         -6    1    1    2    0  501  0.19739541829E+03  0.10258005705E+03  0.43513271010E+03  0.51808502648E+03  0.17200000000E+03 0.  1.
</event>
<event>
 4    1  0.3115421E-002  0.5185361E+03  0.7818608E-02  0.1009051E+00
          2   -1    0    0  502    0  0.00000000000E+00  0.00000000000E+00  0.89235593437E+03  0.89235593437E+03  0.00000000000E+00 0. -1.
         -2   -1    0    0    0  501 -0.00000000000E+00 -0.00000000000E+00 -0.35366529413E+03  0.35366529413E+03  0.00000000000E+00 0.  1.
          6    1    1    2  502    0  0.40743191267E+03 -0.27073027128E+03  0.50904171757E+03  0.72663822737E+03  0.17200000000E+03 0. -1.
         -6    1    1    2    0  501 -0.40743191267E+03  0.27073027128E+03  0.29648922665E+02  0.51938300113E+03  0.17200000000E+03 0.  1.
</event>
<event>
 4    1  0.3115421E-002  0.1911777E+03  0.7818608E-02  0.1157403E+00
         -1   -1    0    0    0  501 -0.00000000000E+00  0.00000000000E+00  0.29558414012E+03  0.29558414012E+03  0.00000000000E+00 0.  1.
          1   -1    0    0  502    0  0.00000000000E+00 -0.00000000000E+00 -0.19130291104E+03  0.19130291104E+03  0.00000000000E+00 0. -1.
          6    1    1    2  502    0 -0.17920844471E+02  0.81509263143E+02 -0.92630314091E+02  0.21243655931E+03  0.17200000000E+03 0. -1.
         -6    1    1    2    0  501  0.17920844471E+02 -0.81509263143E+02  0.19691154317E+03  0.27445049185E+03  0.17200000000E+03 0.  1.
</event>
<event>
 4    1  0.3115421E-002  0.3484390E+03  0.7818608E-02  0.1063258E+00
          2   -1    0    0  502    0  0.00000000000E+00  0.00000000000E+00  0.37762882119E+03  0.37762882119E+03  0.00000000000E+00 0. -1.
         -2   -1    0    0    0  501 -0.00000000000E+00 -0.00000000000E+00 -0.65092398715E+03  0.65092398715E+03  0.00000000000E+00 0.  1.
          6    1    1    2  502    0 -0.28878294465E+03  0.91815646683E+02  0.22920448664E+03  0.41706642012E+03  0.17200000000E+03 0. -1.
         -6    1    1    2    0  501  0.28878294465E+03 -0.91815646683E+02 -0.50249965261E+03  0.61148638821E+03  0.17200000000E+03 0.  1.
</event>
<event>
 4    1  0.3115421E-002  0.1761841E+03  0.7818608E-02  0.1171548E+00
          1   -1    0    0  502    0  0.00000000000E+00  0.00000000000E+00  0.55411210101E+03  0.55411210101E+03  0.00000000000E+00 0. -1.
         -1   -1    0    0    0  501 -0.00000000000E+00 -0.00000000000E+00 -0.56208112794E+02  0.56208112794E+02  0.00000000000E+00 0.  1.
          6    1    1    2  502    0  0.22429855772E+02  0.30882462788E+02  0.26665100606E+03  0.31959909882E+03  0.17200000000E+03 0.  1.
         -6    1    1    2    0  501 -0.22429855772E+02 -0.30882462788E+02  0.23125298216E+03  0.29072111498E+03  0.17200000000E+03 0. -1.
</event>
<event>
 4    1  0.3115421E-002  0.3109378E+03  0.7818608E-02  0.1079897E+00
         -1   -1    0    0    0  501 -0.00000000000E+00  0.00000000000E+00  0.17990910443E+03  0.17990910443E+03  0.00000000000E+00 0.  1.
          1   -1    0    0  502    0  0.00000000000E+00 -0.00000000000E+00 -0.66679751552E+03  0.66679751552E+03  0.00000000000E+00 0. -1.
          6    1    1    2  502    0  0.18729931887E+03 -0.17893370230E+03 -0.42994335362E+03  0.53059739162E+03  0.17200000000E+03 0. -1.
         -6    1    1    2    0  501 -0.18729931887E+03  0.17893370230E+03 -0.56945057459E+02  0.31610922833E+03  0.17200000000E+03 0.  1.
</event>
<event>
 4    1  0.3115421E-002  0.1965569E+03  0.7818608E-02  0.1152677E+00
          2   -1    0    0  502    0  0.00000000000E+00  0.00000000000E+00  0.24175540226E+04  0.24175540226E+04  0.00000000000E+00 0. -1.
         -2   -1    0    0    0  501 -0.00000000000E+00 -0.00000000000E+00 -0.19758896252E+02  0.19758896252E+02  0.00000000000E+00 0.  1.
          6    1    1    2  502    0  0.78885344247E+02  0.53176354400E+02  0.17317811031E+04  0.17429000003E+04  0.17200000000E+03 0.  1.
         -6    1    1    2    0  501 -0.78885344247E+02 -0.53176354400E+02  0.66601402324E+03  0.69441291848E+03  0.17200000000E+03 0.  1.
</event>
<event>
 4    1  0.3115421E-002  0.2603951E+03  0.7818608E-02  0.1106906E+00
          3   -1    0    0  502    0  0.00000000000E+00  0.00000000000E+00  0.99677613350E+03  0.99677613350E+03  0.00000000000E+00 0. -1.
         -3   -1    0    0    0  501 -0.00000000000E+00 -0.00000000000E+00 -0.71370519390E+02  0.71370519390E+02  0.00000000000E+00 0.  1.
          6    1    1    2  502    0  0.56606972540E+02 -0.18712894818E+03  0.34707028439E+03  0.43389327593E+03  0.17200000000E+03 0. -1.
         -6    1    1    2    0  501 -0.56606972540E+02  0.18712894818E+03  0.57833532971E+03  0.63425337696E+03  0.17200000000E+03 0.  1.
</event>
<event>
 4    1  0.3115421E-002  0.9201090E+03  0.7818608E-02  0.9400788E-01
         -2   -1    0    0    0  501 -0.00000000000E+00  0.00000000000E+00  0.60783084085E+03  0.60783084085E+03  0.00000000000E+00 0.  1.
          2   -1    0    0  502    0  0.00000000000E+00 -0.00000000000E+00 -0.19868700571E+04  0.19868700571E+04  0.00000000000E+00 0. -1.
          6    1    1    2  502    0 -0.83633366738E+03 -0.34287400218E+03 -0.13989064245E+04  0.16743774273E+04  0.17200000000E+03 0.  1.
         -6    1    1    2    0  501  0.83633366738E+03  0.34287400218E+03  0.19867208295E+02  0.92032347060E+03  0.17200000000E+03 0.  1.
</event>
<event>
 4    1  0.3115421E-002  0.1833645E+03  0.7818608E-02  0.1164586E+00
          1   -1    0    0  502    0  0.00000000000E+00  0.00000000000E+00  0.74098923539E+02  0.74098923539E+02  0.00000000000E+00 0. -1.
         -1   -1    0    0    0  501 -0.00000000000E+00 -0.00000000000E+00 -0.51762366559E+03  0.51762366559E+03  0.00000000000E+00 0.  1.
          6    1    1    2  502    0 -0.92618021559E+01  0.62870868583E+02 -0.11783365465E+03  0.21796168761E+03  0.17200000000E+03 0. -1.
         -6    1    1    2    0  501  0.92618021559E+01 -0.62870868583E+02 -0.32569108739E+03  0.37376090152E+03  0.17200000000E+03 0.  1.
</event>
<event>
 4    1  0.3115421E-002  0.1762889E+03  0.7818608E-02  0.1171444E+00
         -2   -1    0    0    0  501 -0.00000000000E+00  0.00000000000E+00  0.11423583924E+04  0.11423583924E+04  0.00000000000E+00 0.  1.
          2   -1    0    0  502    0  0.00000000000E+00 -0.00000000000E+00 -0.55346305505E+02  0.55346305505E+02  0.00000000000E+00 0. -1.
          6    1    1    2  502    0  0.34957367395E+02 -0.16484827465E+02  0.11648607119E+03  0.21129782737E+03  0.17200000000E+03 0. -1.
         -6    1    1    2    0  501 -0.34957367395E+02  0.16484827465E+02  0.97052601574E+03  0.98640687057E+03  0.17200000000E+03 0.  1.
</event>
<event>
 4    1  0.3115421E-002  0.6862723E+03  0.7818608E-02  0.9741001E-01
         -2   -1    0    0    0  501 -0.00000000000E+00  0.00000000000E+00  0.49453283453E+03  0.49453283453E+03  0.00000000000E+00 0.  1.
          2   -1    0    0  502    0  0.00000000000E+00 -0.00000000000E+00 -0.17775701990E+04  0.17775701990E+04  0.00000000000E+00 0. -1.
          6    1    1    2  502    0  0.23741995017E+03  0.62049772084E+03  0.13253106590E+03  0.69895217128E+03  0.17200000000E+03 0. -1.
         -6    1    1    2    0  501 -0.23741995017E+03 -0.62049772084E+03 -0.14155684304E+04  0.15731508622E+04  0.17200000000E+03 0.  1.
</event>
<event>
 4    1  0.3115421E-002  0.1964109E+03  0.7818608E-02  0.1152803E+00
         -2   -1    0    0    0  501 -0.00000000000E+00  0.00000000000E+00  0.24957592639E+02  0.24957592639E+02  0.00000000000E+00 0.  1.
          2   -1    0    0  502    0  0.00000000000E+00 -0.00000000000E+00 -0.17019508287E+04  0.17019508287E+04  0.00000000000E+00 0. -1.
          6    1    1    2  502    0 -0.82709918789E+02 -0.46392896772E+02 -0.11001108383E+04  0.11175066390E+04  0.17200000000E+03 0. -1.
         -6    1    1    2    0  501  0.82709918789E+02  0.46392896772E+02 -0.57688239768E+03  0.60940178232E+03  0.17200000000E+03 0.  1.
</event>
<event>
 4    1  0.3115421E-002  0.2212220E+03  0.7818608E-02  0.1132975E+00
          1   -1    0    0  502    0  0.00000000000E+00  0.00000000000E+00  0.20784752630E+03  0.20784752630E+03  0.00000000000E+00 0. -1.
         -1   -1    0    0    0  501 -0.00000000000E+00 -0.00000000000E+00 -0.27688763089E+03  0.27688763089E+03  0.00000000000E+00 0.  1.
          6    1    1    2  502    0 -0.13570245061E+03 -0.30659908619E+02 -0.12827253140E+03  0.25572060420E+03  0.17200000000E+03 0.  1.
         -6    1    1    2    0  501  0.13570245061E+03  0.30659908619E+02  0.59232426803E+02  0.22901455300E+03  0.17200000000E+03 0.  1.
</event>
<event>
 4    1  0.3115421E-002  0.2301936E+03  0.7818608E-02  0.1126504E+00
          1   -1    0    0  502    0  0.00000000000E+00  0.00000000000E+00  0.49307208801E+03  0.49307208801E+03  0.00000000000E+00 0. -1.
         -1   -1    0    0    0  501 -0.00000000000E+00 -0.00000000000E+00 -0.11569043568E+03  0.11569043568E+03  0.00000000000E+00 0.  1.
          6    1    1    2  502    0 -0.15295730010E+03  0.30232131868E+01  0.10754043471E+03  0.25407483261E+03  0.17200000000E+03 0.  1.
         -6    1    1    2    0  501  0.15295730010E+03 -0.30232131868E+01  0.26984121762E+03  0.35468769107E+03  0.17200000000E+03 0. -1.
</event>
<event>
 4    1  0.3115421E-002  0.2269297E+03  0.7818608E-02  0.1128820E+00
         -2   -1    0    0    0  501 -0.00000000000E+00  0.00000000000E+00  0.14773744488E+03  0.14773744488E+03  0.00000000000E+00 0.  1.
          2   -1    0    0  502    0  0.00000000000E+00 -0.00000000000E+00 -0.39890291579E+03  0.39890291579E+03  0.00000000000E+00 0. -1.
          6    1    1    2  502    0 -0.83864849025E+02 -0.12198260747E+03 -0.22266892859E+03  0.31792848439E+03  0.17200000000E+03 0.  1.
         -6    1    1    2    0  501  0.83864849025E+02  0.12198260747E+03 -0.28496542321E+02  0.22871187628E+03  0.17200000000E+03 0.  1.
</event>
<event>
 4    1  0.3115421E-002  0.2006528E+03  0.7818608E-02  0.1149189E+00
          2   -1    0    0  502    0  0.00000000000E+00  0.00000000000E+00  0.73791221607E+03  0.73791221607E+03  0.00000000000E+00 0. -1.
         -2   -1    0    0    0  501 -0.00000000000E+00 -0.00000000000E+00 -0.89835934487E+02  0.89835934487E+02  0.00000000000E+00 0.  1.
          6    1    1    2  502    0  0.39076412832E+02  0.95658591782E+02  0.64695605536E+02  0.21082469874E+03  0.17200000000E+03 0.  1.
         -6    1    1    2    0  501 -0.39076412832E+02 -0.95658591782E+02  0.58338067605E+03  0.61692345182E+03  0.17200000000E+03 0. -1.
</event>
<event>
 4    1  0.3115421E-002  0.2394146E+03  0.7818608E-02  0.1120183E+00
          2   -1    0    0  502    0  0.00000000000E+00  0.00000000000E+00  0.16431153735E+04  0.16431153735E+04  0.00000000000E+00 0. -1.
         -2   -1    0    0    0  501 -0.00000000000E+00 -0.00000000000E+00 -0.18411931012E+03  0.18411931012E+03  0.00000000000E+00 0.  1.
          6    1    1    2  502    0  0.45269929200E+02 -0.16026844229E+03  0.15520240817E+04  0.15703815110E+04  0.17200000000E+03 0. -1.
         -6    1    1    2    0  501 -0.45269929200E+02  0.16026844229E+03 -0.93028018292E+02  0.25685317260E+03  0.17200000000E+03 0.  1.
</event>
<event>
 4    1  0.3115421E-002  0.3700161E+03  0.7818608E-02  0.1054687E+00
          2   -1    0    0  502    0  0.00000000000E+00  0.00000000000E+00  0.87457310813E+03  0.87457310813E+03  0.00000000000E+00 0. -1.
         -2   -1    0    0    0  501 -0.00000000000E+00 -0.00000000000E+00 -0.15671170633E+03  0.15671170633E+03  0.00000000000E+00 0.  1.
          6    1    1    2  502    0  0.20744695209E+03 -0.25356204648E+03  0.34222278419E+03  0.50401228494E+03  0.17200000000E+03 0. -1.
         -6    1    1    2    0  501 -0.20744695209E+03  0.25356204648E+03  0.37563861761E+03  0.52727252952E+03  0.17200000000E+03 0.  1.
</event>
<event>
 4    1  0.3115421E-002  0.1965273E+03  0.7818608E-02  0.1152702E+00
         -2   -1    0    0    0  501 -0.00000000000E+00  0.00000000000E+00  0.78542201829E+03  0.78542201829E+03  0.00000000000E+00 0.  1.
          2   -1    0    0  502    0  0.00000000000E+00 -0.00000000000E+00 -0.63186618979E+02  0.63186618979E+02  0.00000000000E+00 0. -1.
          6    1    1    2  502    0  0.48522770765E+02  0.81758827126E+02  0.56092541877E+03  0.59435703960E+03  0.17200000000E+03 0. -1.
         -6    1    1    2    0  501 -0.48522770765E+02 -0.81758827126E+02  0.16130998054E+03  0.25425159767E+03  0.17200000000E+03 0. -1.
</event>
<event>
 4    1  0.3115421E-002  0.2216561E+03  0.7818608E-02  0.1132654E+00
         -2   -1    0    0    0  501 -0.00000000000E+00  0.00000000000E+00  0.72891268457E+03  0.72891268457E+03  0.00000000000E+00 0.  1.
          2   -1    0    0  502    0  0.00000000000E+00 -0.00000000000E+00 -0.44219905531E+03  0.44219905531E+03  0.00000000000E+00 0. -1.
          6    1    1    2  502    0 -0.10185710360E+03  0.95773487042E+02 -0.39572728094E+03  0.45357635659E+03  0.17200000000E+03 0. -1.
         -6    1    1    2    0  501  0.10185710360E+03 -0.95773487042E+02  0.68244091020E+03  0.71753538330E+03  0.17200000000E+03 0.  1.
</event>
<event>
 4    1  0.3115421E-002  0.7920167E+03  0.7818608E-02  0.9571645E-01
          2   -1    0    0  502    0  0.00000000000E+00  0.00000000000E+00  0.96214949468E+03  0.96214949468E+03  0.00000000000E+00 0. -1.
         -2   -1    0    0    0  501 -0.00000000000E+00 -0.00000000000E+00 -0.65511688563E+03  0.65511688563E+03  0.00000000000E+00 0.  1.
          6    1    1    2  502    0 -0.35911573346E+03 -0.68464760256E+03  0.20958071239E+03  0.81927683033E+03  0.17200000000E+03 0. -1.
         -6    1    1    2    0  501  0.35911573346E+03  0.68464760256E+03  0.97451896665E+02  0.79798954998E+03  0.17200000000E+03 0.  1.
</event>
<event>
 4    1  0.3115421E-002  0.1740861E+03  0.7818608E-02  0.1173652E+00
         -1   -1    0    0    0  501 -0.00000000000E+00  0.00000000000E+00  0.14222093491E+03  0.14222093491E+03  0.00000000000E+00 0.  1.
          1   -1    0    0  502    0  0.00000000000E+00 -0.00000000000E+00 -0.15434078614E+04  0.15434078614E+04  0.00000000000E+00 0. -1.
          6    1    1    2  502    0 -0.74893657428E+01 -0.25804969306E+02 -0.14830660951E+04  0.14932484822E+04  0.17200000000E+03 0. -1.
         -6    1    1    2    0  501  0.74893657428E+01  0.25804969306E+02  0.81879168576E+02  0.19238031419E+03  0.17200000000E+03 0.  1.
</event>
<event>
 4    1  0.3115421E-002  0.1838254E+03  0.7818608E-02  0.1164151E+00
          2   -1    0    0  502    0  0.00000000000E+00  0.00000000000E+00  0.16242556606E+04  0.16242556606E+04  0.00000000000E+00 0. -1.
         -2   -1    0    0    0  501 -0.00000000000E+00 -0.00000000000E+00 -0.26145543788E+02  0.26145543788E+02  0.00000000000E+00 0.  1.
          6    1    1    2  502    0  0.79317825149E+01  0.64380577804E+02  0.11720261234E+04  0.11863545026E+04  0.17200000000E+03 0.  1.
         -6    1    1    2    0  501 -0.79317825149E+01 -0.64380577804E+02  0.42608399341E+03  0.46404670175E+03  0.17200000000E+03 0.  1.
</event>
<event>
 4    1  0.3115421E-002  0.1981276E+03  0.7818608E-02  0.1151328E+00
         -3   -1    0    0    0  501 -0.00000000000E+00  0.00000000000E+00  0.60912313868E+03  0.60912313868E+03  0.00000000000E+00 0.  1.
          3   -1    0    0  502    0  0.00000000000E+00 -0.00000000000E+00 -0.73239590189E+02  0.73239590189E+02  0.00000000000E+00 0. -1.
          6    1    1    2  502    0  0.91142636426E+02  0.36926340534E+02  0.38617420106E+03  0.43403346456E+03  0.17200000000E+03 0. -1.
         -6    1    1    2    0  501 -0.91142636426E+02 -0.36926340534E+02  0.14970934743E+03  0.24832926430E+03  0.17200000000E+03 0.  1.
</event>
<event>
 4    1  0.3115421E-002  0.1744261E+03  0.7818608E-02  0.1173309E+00
          1   -1    0    0  502    0  0.00000000000E+00  0.00000000000E+00  0.14528692593E+04  0.14528692593E+04  0.00000000000E+00 0. -1.
         -1   -1    0    0    0  501 -0.00000000000E+00 -0.00000000000E+00 -0.20959472972E+02  0.20959472972E+02  0.00000000000E+00 0.  1.
          6    1    1    2  502    0 -0.39889555067E+01  0.28714819507E+02  0.73786588173E+03  0.75820215777E+03  0.17200000000E+03 0. -1.
         -6    1    1    2    0  501  0.39889555067E+01 -0.28714819507E+02  0.69404390464E+03  0.71562657455E+03  0.17200000000E+03 0.  1.
</event>
<event>
 4    1  0.3115421E-002  0.2053630E+03  0.7818608E-02  0.1145292E+00
         -2   -1    0    0    0  501 -0.00000000000E+00  0.00000000000E+00  0.32320981505E+02  0.32320981505E+02  0.00000000000E+00 0.  1.
          2   -1    0    0  502    0  0.00000000000E+00 -0.00000000000E+00 -0.16068636698E+04  0.16068636698E+04  0.00000000000E+00 0. -1.
          6    1    1    2  502    0 -0.10108821287E+03 -0.48694360943E+02 -0.11425941778E+04  0.11609028481E+04  0.17200000000E+03 0. -1.
         -6    1    1    2    0  501  0.10108821287E+03  0.48694360943E+02 -0.43194851052E+03  0.47828180324E+03  0.17200000000E+03 0.  1.
</event>
<event>
 4    1  0.3115421E-002  0.2037471E+03  0.7818608E-02  0.1146616E+00
         -2   -1    0    0    0  501 -0.00000000000E+00  0.00000000000E+00  0.35220042553E+02  0.35220042553E+02  0.00000000000E+00 0.  1.
          2   -1    0    0  502    0  0.00000000000E+00 -0.00000000000E+00 -0.25774293169E+04  0.25774293169E+04  0.00000000000E+00 0. -1.
          6    1    1    2  502    0  0.74910886790E+02 -0.79481039146E+02 -0.22334455325E+04  0.22427197380E+04  0.17200000000E+03 0. -1.
         -6    1    1    2    0  501 -0.74910886790E+02  0.79481039146E+02 -0.30876374176E+03  0.36992962137E+03  0.17200000000E+03 0.  1.
</event>
<event>
 4    1  0.3115421E-002  0.1902282E+03  0.7818608E-02  0.1158256E+00
          1   -1    0    0  502    0  0.00000000000E+00  0.00000000000E+00  0.72805352803E+03  0.72805352803E+03  0.00000000000E+00 0. -1.
         -1   -1    0    0    0  501 -0.00000000000E+00 -0.00000000000E+00 -0.68418468312E+02  0.68418468312E+02  0.00000000000E+00 0.  1.
          6    1    1    2  502    0 -0.13308217064E+02  0.80160160642E+02  0.53809829430E+03  0.57073333030E+03  0.17200000000E+03 0. -1.
         -6    1    1    2    0  501  0.13308217064E+02 -0.80160160642E+02  0.12153676542E+03  0.22573866604E+03  0.17200000000E+03 0.  1.
</event>
<event>
 4    1  0.3115421E-002  0.2373887E+03  0.7818608E-02  0.1121545E+00
         -1   -1    0    0    0  501 -0.00000000000E+00  0.00000000000E+00  0.36391831355E+03  0.36391831355E+03  0.00000000000E+00 0.  1.
          1   -1    0    0  502    0  0.00000000000E+00 -0.00000000000E+00 -0.19390070894E+03  0.19390070894E+03  0.00000000000E+00 0. -1.
          6    1    1    2  502    0 -0.14916493042E+03  0.67225133337E+02 -0.40154854878E+02  0.24076089257E+03  0.17200000000E+03 0. -1.
         -6    1    1    2    0  501  0.14916493042E+03 -0.67225133337E+02  0.21017245949E+03  0.31705812992E+03  0.17200000000E+03 0.  1.
</event>
<event>
 4    1  0.3115421E-002  0.1737475E+03  0.7818608E-02  0.1173995E+00
         -2   -1    0    0    0  501 -0.00000000000E+00  0.00000000000E+00  0.58086770866E+02  0.58086770866E+02  0.00000000000E+00 0.  1.
          2   -1    0    0  502    0  0.00000000000E+00 -0.00000000000E+00 -0.64074943715E+03  0.64074943715E+03  0.00000000000E+00 0. -1.
          6    1    1    2  502    0 -0.23242211945E+02 -0.79994327032E+01 -0.44319970568E+03  0.47604009333E+03  0.17200000000E+03 0. -1.
         -6    1    1    2    0  501  0.23242211945E+02  0.79994327032E+01 -0.13946296060E+03  0.22279611469E+03  0.17200000000E+03 0.  1.
</event>
<event>
 4    1  0.3115421E-002  0.6011049E+03  0.7818608E-02  0.9903116E-01
          2   -1    0    0  502    0  0.00000000000E+00  0.00000000000E+00  0.18076803046E+04  0.18076803046E+04  0.00000000000E+00 0. -1.
         -2   -1    0    0    0  501 -0.00000000000E+00 -0.00000000000E+00 -0.19992715491E+03  0.19992715491E+03  0.00000000000E+00 0.  1.
          6    1    1    2  502    0 -0.57560305978E+03 -0.20597833668E+02  0.81855018397E+03  0.10155548025E+04  0.17200000000E+03 0. -1.
         -6    1    1    2    0  501  0.57560305978E+03  0.20597833668E+02  0.78920296569E+03  0.99205265699E+03  0.17200000000E+03 0.  1.
</event>
<event>
 4    1  0.3115421E-002  0.3093112E+03  0.7818608E-02  0.1080676E+00
          1   -1    0    0  502    0  0.00000000000E+00  0.00000000000E+00  0.13168587671E+04  0.13168587671E+04  0.00000000000E+00 0. -1.
         -1   -1    0    0    0  501 -0.00000000000E+00 -0.00000000000E+00 -0.92300906472E+03  0.92300906472E+03  0.00000000000E+00 0.  1.
          6    1    1    2  502    0 -0.16590918298E+03 -0.19637611556E+03  0.12718788499E+04  0.13089496723E+04  0.17200000000E+03 0. -1.
         -6    1    1    2    0  501  0.16590918298E+03  0.19637611556E+03 -0.87802914754E+03  0.93091815950E+03  0.17200000000E+03 0.  1.
</event>
<event>
 4    1  0.3115421E-002  0.2487072E+03  0.7818608E-02  0.1114125E+00
          1   -1    0    0  502    0  0.00000000000E+00  0.00000000000E+00  0.72191252103E+03  0.72191252103E+03  0.00000000000E+00 0. -1.
         -1   -1    0    0    0  501 -0.00000000000E+00 -0.00000000000E+00 -0.31494080814E+03  0.31494080814E+03  0.00000000000E+00 0.  1.
          6    1    1    2  502    0 -0.17761230951E+03 -0.26928516648E+02  0.64580465083E+03  0.69203968422E+03  0.17200000000E+03 0. -1.
         -6    1    1    2    0  501  0.17761230951E+03  0.26928516648E+02 -0.23883293795E+03  0.34481364495E+03  0.17200000000E+03 0.  1.
</event>
<event>
 4    1  0.3115421E-002  0.1940674E+03  0.7818608E-02  0.1154843E+00
          4   -1    0    0  502    0  0.00000000000E+00  0.00000000000E+00  0.79146291899E+02  0.79146291899E+02  0.00000000000E+00 0. -1.
         -4   -1    0    0    0  501 -0.00000000000E+00 -0.00000000000E+00 -0.55546822113E+03  0.55546822113E+03  0.00000000000E+00 0.  1.
          6    1    1    2  502    0 -0.80085719559E+02  0.40797534490E+02 -0.11803333578E+03  0.22714319196E+03  0.17200000000E+03 0. -1.
         -6    1    1    2    0  501  0.80085719559E+02 -0.40797534490E+02 -0.35828859345E+03  0.40747132107E+03  0.17200000000E+03 0.  1.
</event>
<event>
 4    1  0.3115421E-002  0.2884298E+03  0.7818608E-02  0.1091172E+00
          2   -1    0    0  502    0  0.00000000000E+00  0.00000000000E+00  0.30138668109E+03  0.30138668109E+03  0.00000000000E+00 0. -1.
         -2   -1    0    0    0  501 -0.00000000000E+00 -0.00000000000E+00 -0.28541325868E+03  0.28541325868E+03  0.00000000000E+00 0.  1.
          6    1    1    2  502    0  0.22881131285E+03  0.35399208031E+02  0.61185687445E+02  0.29484811202E+03  0.17200000000E+03 0. -1.
         -6    1    1    2    0  501 -0.22881131285E+03 -0.35399208031E+02 -0.45212265037E+02  0.29195182775E+03  0.17200000000E+03 0.  1.
</event>
<event>
 4    1  0.3115421E-002  0.2364405E+03  0.7818608E-02  0.1122187E+00
         -1   -1    0    0    0  501 -0.00000000000E+00  0.00000000000E+00  0.16542930996E+03  0.16542930996E+03  0.00000000000E+00 0.  1.
          1   -1    0    0  502    0  0.00000000000E+00 -0.00000000000E+00 -0.33793460767E+03  0.33793460767E+03  0.00000000000E+00 0. -1.
          6    1    1    2  502    0  0.73938692997E+02 -0.14440632290E+03 -0.86694804817E+02  0.25183348784E+03  0.17200000000E+03 0. -1.
         -6    1    1    2    0  501 -0.73938692997E+02  0.14440632290E+03 -0.85810492890E+02  0.25153042978E+03  0.17200000000E+03 0.  1.
</event>
<event>
 4    1  0.3115421E-002  0.2332652E+03  0.7818608E-02  0.1124362E+00
          3   -1    0    0  502    0  0.00000000000E+00  0.00000000000E+00  0.27247372532E+03  0.27247372532E+03  0.00000000000E+00 0. -1.
         -3   -1    0    0    0  501 -0.00000000000E+00 -0.00000000000E+00 -0.39718587372E+03  0.39718587372E+03  0.00000000000E+00 0.  1.
          6    1    1    2  502    0 -0.27562398808E+02 -0.15514179746E+03  0.17374425625E+03  0.29086032684E+03  0.17200000000E+03 0. -1.
         -6    1    1    2    0  501  0.27562398808E+02  0.15514179746E+03 -0.29845640464E+03  0.37879927220E+03  0.17200000000E+03 0.  1.
</event>
<event>
 4    1  0.3115421E-002  0.4774020E+03  0.7818608E-02  0.1019852E+00
          1   -1    0    0  502    0  0.00000000000E+00  0.00000000000E+00  0.28169332674E+04  0.28169332674E+04  0.00000000000E+00 0. -1.
         -1   -1    0    0    0  501 -0.00000000000E+00 -0.00000000000E+00 -0.92885903819E+02  0.92885903819E+02  0.00000000000E+00 0.  1.
          6    1    1    2  502    0 -0.17345048845E+03 -0.41017506070E+03  0.18844801652E+04  0.19440108398E+04  0.17200000000E+03 0. -1.
         -6    1    1    2    0  501  0.17345048845E+03  0.41017506070E+03  0.83956719837E+03  0.96580833137E+03  0.17200000000E+03 0.  1.
</event>
<event>
 4    1  0.3115421E-002  0.2982322E+03  0.7818608E-02  0.1086128E+00
          2   -1    0    0  502    0  0.00000000000E+00  0.00000000000E+00  0.13101505328E+04  0.13101505328E+04  0.00000000000E+00 0. -1.
         -2   -1    0    0    0  501 -0.00000000000E+00 -0.00000000000E+00 -0.68795948051E+02  0.68795948051E+02  0.00000000000E+00 0.  1.
          6    1    1    2  502    0 -0.24353080267E+03 -0.71556812011E+01  0.69991956713E+03  0.76080868559E+03  0.17200000000E+03 0. -1.
         -6    1    1    2    0  501  0.24353080267E+03  0.71556812011E+01  0.54143501761E+03  0.61813779525E+03  0.17200000000E+03 0. -1.
</event>
<event>
 4    1  0.3115421E-002  0.1843648E+03  0.7818608E-02  0.1163644E+00
          2   -1    0    0  502    0  0.00000000000E+00  0.00000000000E+00  0.34032511497E+03  0.34032511497E+03  0.00000000000E+00 0. -1.
         -2   -1    0    0    0  501 -0.00000000000E+00 -0.00000000000E+00 -0.25419309986E+03  0.25419309986E+03  0.00000000000E+00 0.  1.
          6    1    1    2  502    0 -0.51021283521E+02  0.42464291740E+02  0.27467744495E+03  0.33081427751E+03  0.17200000000E+03 0. -1.
         -6    1    1    2    0  501  0.51021283521E+02 -0.42464291740E+02 -0.18854542983E+03  0.26370393732E+03  0.17200000000E+03 0.  1.
</event>
<event>
 4    1  0.3115421E-002  0.2191056E+03  0.7818608E-02  0.1134552E+00
          1   -1    0    0  502    0  0.00000000000E+00  0.00000000000E+00  0.70890083572E+03  0.70890083572E+03  0.00000000000E+00 0. -1.
         -1   -1    0    0    0  501 -0.00000000000E+00 -0.00000000000E+00 -0.12717400152E+03  0.12717400152E+03  0.00000000000E+00 0.  1.
          6    1    1    2  502    0 -0.12796784933E+03 -0.45249397596E+02  0.57669083535E+03  0.61691133725E+03  0.17200000000E+03 0. -1.
         -6    1    1    2    0  501  0.12796784933E+03  0.45249397596E+02  0.50359988465E+01  0.21916350000E+03  0.17200000000E+03 0.  1.
</event>
<event>
 4    1  0.3115421E-002  0.4543714E+03  0.7818608E-02  0.1026426E+00
          4   -1    0    0  502    0  0.00000000000E+00  0.00000000000E+00  0.18198207303E+03  0.18198207303E+03  0.00000000000E+00 0. -1.
         -4   -1    0    0    0  501 -0.00000000000E+00 -0.00000000000E+00 -0.12337699670E+04  0.12337699670E+04  0.00000000000E+00 0.  1.
          6    1    1    2  502    0  0.19789228152E+03  0.37109030190E+03 -0.72671658801E+03  0.85707080603E+03  0.17200000000E+03 0. -1.
         -6    1    1    2    0  501 -0.19789228152E+03 -0.37109030190E+03 -0.32507130591E+03  0.55868123396E+03  0.17200000000E+03 0.  1.
</event>
<event>
 4    1  0.3115421E-002  0.2030067E+03  0.7818608E-02  0.1147227E+00
          1   -1    0    0  502    0  0.00000000000E+00  0.00000000000E+00  0.23756453893E+04  0.23756453893E+04  0.00000000000E+00 0. -1.
         -1   -1    0    0    0  501 -0.00000000000E+00 -0.00000000000E+00 -0.17405073280E+02  0.17405073280E+02  0.00000000000E+00 0.  1.
          6    1    1    2  502    0 -0.24336711402E+02  0.10504968881E+03  0.12478855466E+04  0.12642903345E+04  0.17200000000E+03 0.  1.
         -6    1    1    2    0  501  0.24336711402E+02 -0.10504968881E+03  0.11103547695E+04  0.11287601281E+04  0.17200000000E+03 0.  1.
</event>
<event>
 4    1  0.3115421E-002  0.2165932E+03  0.7818608E-02  0.1136449E+00
          1   -1    0    0  502    0  0.00000000000E+00  0.00000000000E+00  0.14078759222E+03  0.14078759222E+03  0.00000000000E+00 0. -1.
         -1   -1    0    0    0  501 -0.00000000000E+00 -0.00000000000E+00 -0.60161997069E+03  0.60161997069E+03  0.00000000000E+00 0.  1.
          6    1    1    2  502    0  0.10158486984E+03  0.83720603033E+02 -0.47835587326E+03  0.52510662406E+03  0.17200000000E+03 0.  1.
         -6    1    1    2    0  501 -0.10158486984E+03 -0.83720603033E+02  0.17523494787E+02  0.21730093884E+03  0.17200000000E+03 0. -1.
</event>
<event>
 4    1  0.3115421E-002  0.3510587E+03  0.7818608E-02  0.1062181E+00
          2   -1    0    0  502    0  0.00000000000E+00  0.00000000000E+00  0.23266083702E+04  0.23266083702E+04  0.00000000000E+00 0. -1.
         -2   -1    0    0    0  501 -0.00000000000E+00 -0.00000000000E+00 -0.86156779035E+02  0.86156779035E+02  0.00000000000E+00 0.  1.
          6    1    1    2  502    0 -0.30585179057E+03 -0.10625184700E+02  0.37150842218E+03  0.51113669414E+03  0.17200000000E+03 0. -1.
         -6    1    1    2    0  501  0.30585179057E+03  0.10625184700E+02  0.18689431690E+04  0.19016284551E+04  0.17200000000E+03 0. -1.
</event>
<event>
 4    1  0.3115421E-002  0.2149912E+03  0.7818608E-02  0.1137673E+00
          2   -1    0    0  502    0  0.00000000000E+00  0.00000000000E+00  0.47694196826E+03  0.47694196826E+03  0.00000000000E+00 0. -1.
         -2   -1    0    0    0  501 -0.00000000000E+00 -0.00000000000E+00 -0.10862372271E+03  0.10862372271E+03  0.00000000000E+00 0.  1.
          6    1    1    2  502    0  0.52719194917E+02 -0.11771965362E+03  0.28029827148E+03  0.35325394740E+03  0.17200000000E+03 0. -1.
         -6    1    1    2    0  501 -0.52719194917E+02  0.11771965362E+03  0.88019974071E+02  0.23231174356E+03  0.17200000000E+03 0.  1.
</event>
<event>
 4    1  0.3115421E-002  0.2188147E+03  0.7818608E-02  0.1134770E+00
          1   -1    0    0  502    0  0.00000000000E+00  0.00000000000E+00  0.38568926109E+03  0.38568926109E+03  0.00000000000E+00 0. -1.
         -1   -1    0    0    0  501 -0.00000000000E+00 -0.00000000000E+00 -0.17308881980E+03  0.17308881980E+03  0.00000000000E+00 0.  1.
          6    1    1    2  502    0  0.22692654376E+01  0.13524326070E+03  0.25487363036E+03  0.33591733594E+03  0.17200000000E+03 0. -1.
         -6    1    1    2    0  501 -0.22692654376E+01 -0.13524326070E+03 -0.42273189071E+02  0.22286074496E+03  0.17200000000E+03 0.  1.
</event>
<event>
 4    1  0.3115421E-002  0.1949026E+03  0.7818608E-02  0.1154112E+00
          2   -1    0    0  502    0  0.00000000000E+00  0.00000000000E+00  0.18897120189E+04  0.18897120189E+04  0.00000000000E+00 0. -1.
         -2   -1    0    0    0  501 -0.00000000000E+00 -0.00000000000E+00 -0.21779183854E+02  0.21779183854E+02  0.00000000000E+00 0.  1.
          6    1    1    2  502    0  0.88187835839E+02  0.25018705770E+02  0.11991881881E+04  0.12149235945E+04  0.17200000000E+03 0. -1.
         -6    1    1    2    0  501 -0.88187835839E+02 -0.25018705770E+02  0.66874464692E+03  0.69656760821E+03  0.17200000000E+03 0.  1.
</event>
<event>
 4    1  0.3115421E-002  0.1890076E+03  0.7818608E-02  0.1159359E+00
          2   -1    0    0  502    0  0.00000000000E+00  0.00000000000E+00  0.52469435652E+03  0.52469435652E+03  0.00000000000E+00 0. -1.
         -2   -1    0    0    0  501 -0.00000000000E+00 -0.00000000000E+00 -0.10242586828E+03  0.10242586828E+03  0.00000000000E+00 0.  1.
          6    1    1    2  502    0 -0.66028492177E+02  0.42191444246E+02  0.39269452381E+03  0.43581288276E+03  0.17200000000E+03 0. -1.
         -6    1    1    2    0  501  0.66028492177E+02 -0.42191444246E+02  0.29573964433E+02  0.19130734204E+03  0.17200000000E+03 0.  1.
</event>
<event>
 4    1  0.3115421E-002  0.2327535E+03  0.7818608E-02  0.1124717E+00
          1   -1    0    0  502    0  0.00000000000E+00  0.00000000000E+00  0.11808782762E+04  0.11808782762E+04  0.00000000000E+00 0. -1.
         -1   -1    0    0    0  501 -0.00000000000E+00 -0.00000000000E+00 -0.47185921763E+02  0.47185921763E+02  0.00000000000E+00 0.  1.
          6    1    1    2  502    0 -0.57319225764E+02 -0.14596121967E+03  0.46454526042E+03  0.51959260028E+03  0.17200000000E+03 0.  1.
         -6    1    1    2    0  501  0.57319225764E+02  0.14596121967E+03  0.66914709402E+03  0.70847159768E+03  0.17200000000E+03 0.  1.
</event>
<event>
 4    1  0.3115421E-002  0.2139793E+03  0.7818608E-02  0.1138453E+00
          2   -1    0    0  502    0  0.00000000000E+00  0.00000000000E+00  0.19892336728E+04  0.19892336728E+04  0.00000000000E+00 0. -1.
         -2   -1    0    0    0  501 -0.00000000000E+00 -0.00000000000E+00 -0.97805104767E+02  0.97805104767E+02  0.00000000000E+00 0.  1.
          6    1    1    2  502    0 -0.10603980856E+03 -0.70417955220E+02  0.18582180306E+04  0.18704976286E+04  0.17200000000E+03 0. -1.
         -6    1    1    2    0  501  0.10603980856E+03  0.70417955220E+02  0.33210537502E+02  0.21654114902E+03  0.17200000000E+03 0.  1.
</event>
<event>
 4    1  0.3115421E-002  0.2301518E+03  0.7818608E-02  0.1126533E+00
         -1   -1    0    0    0  501 -0.00000000000E+00  0.00000000000E+00  0.14135700392E+02  0.14135700392E+02  0.00000000000E+00 0.  1.
          1   -1    0    0  502    0  0.00000000000E+00 -0.00000000000E+00 -0.44824162190E+04  0.44824162190E+04  0.00000000000E+00 0. -1.
          6    1    1    2  502    0 -0.11726995849E+02 -0.15247409037E+03 -0.31446593773E+04  0.31530703243E+04  0.17200000000E+03 0. -1.
         -6    1    1    2    0  501  0.11726995849E+02  0.15247409037E+03 -0.13236211414E+04  0.13434815952E+04  0.17200000000E+03 0.  1.
</event>
<event>
 4    1  0.3115421E-002  0.2950165E+03  0.7818608E-02  0.1087759E+00
          1   -1    0    0  502    0  0.00000000000E+00  0.00000000000E+00  0.10260313347E+04  0.10260313347E+04  0.00000000000E+00 0. -1.
         -1   -1    0    0    0  501 -0.00000000000E+00 -0.00000000000E+00 -0.87157990202E+02  0.87157990202E+02  0.00000000000E+00 0.  1.
          6    1    1    2  502    0 -0.23892440458E+03 -0.19127044155E+02  0.37840425682E+03  0.47981714903E+03  0.17200000000E+03 0.  1.
         -6    1    1    2    0  501  0.23892440458E+03  0.19127044155E+02  0.56046908764E+03  0.63337217584E+03  0.17200000000E+03 0.  1.
</event>
<event>
 4    1  0.3115421E-002  0.4249564E+03  0.7818608E-02  0.1035465E+00
         -1   -1    0    0    0  501 -0.00000000000E+00  0.00000000000E+00  0.18781518274E+03  0.18781518274E+03  0.00000000000E+00 0.  1.
          1   -1    0    0  502    0  0.00000000000E+00 -0.00000000000E+00 -0.11134416914E+04  0.11134416914E+04  0.00000000000E+00 0. -1.
          6    1    1    2  502    0  0.76387171676E+02  0.38101037071E+03 -0.70314456305E+03  0.82158394527E+03  0.17200000000E+03 0. -1.
         -6    1    1    2    0  501 -0.76387171676E+02 -0.38101037071E+03 -0.22248194566E+03  0.47967292891E+03  0.17200000000E+03 0.  1.
</event>
<event>
 4    1  0.3115421E-002  0.5139936E+03  0.7818608E-02  0.1010190E+00
          2   -1    0    0  502    0  0.00000000000E+00  0.00000000000E+00  0.25119289838E+04  0.25119289838E+04  0.00000000000E+00 0. -1.
         -2   -1    0    0    0  501 -0.00000000000E+00 -0.00000000000E+00 -0.12762057477E+03  0.12762057477E+03  0.00000000000E+00 0.  1.
          6    1    1    2  502    0 -0.18714387595E+03  0.44674665809E+03  0.17456512835E+04  0.18197493812E+04  0.17200000000E+03 0. -1.
         -6    1    1    2    0  501  0.18714387595E+03 -0.44674665809E+03  0.63865712554E+03  0.81980017738E+03  0.17200000000E+03 0.  1.
</event>
<event>
 4    1  0.3115421E-002  0.1949752E+03  0.7818608E-02  0.1154049E+00
         -2   -1    0    0    0  501 -0.00000000000E+00  0.00000000000E+00  0.23059199378E+02  0.23059199378E+02  0.00000000000E+00 0.  1.
          2   -1    0    0  502    0  0.00000000000E+00 -0.00000000000E+00 -0.16991934800E+04  0.16991934800E+04  0.00000000000E+00 0. -1.
          6    1    1    2  502    0  0.90993684958E+02  0.12306845608E+02 -0.68947052563E+03  0.71650883795E+03  0.17200000000E+03 0. -1.
         -6    1    1    2    0  501 -0.90993684958E+02 -0.12306845608E+02 -0.98666375495E+03  0.10057438414E+04  0.17200000000E+03 0.  1.
</event>
<event>
 4    1  0.3115421E-002  0.1871491E+03  0.7818608E-02  0.1161058E+00
          2   -1    0    0  502    0  0.00000000000E+00  0.00000000000E+00  0.20019467892E+03  0.20019467892E+03  0.00000000000E+00 0. -1.
         -2   -1    0    0    0  501 -0.00000000000E+00 -0.00000000000E+00 -0.18519033513E+03  0.18519033513E+03  0.00000000000E+00 0.  1.
          6    1    1    2  502    0 -0.41298324867E+02  0.61116696847E+02  0.52805907921E+02  0.19445633490E+03  0.17200000000E+03 0. -1.
         -6    1    1    2    0  501  0.41298324867E+02 -0.61116696847E+02 -0.37801564130E+02  0.19092867915E+03  0.17200000000E+03 0.  1.
</event>
<event>
 4    1  0.3115421E-002  0.1754058E+03  0.7818608E-02  0.1172325E+00
          2   -1    0    0  502    0  0.00000000000E+00  0.00000000000E+00  0.11443578444E+04  0.11443578444E+04  0.00000000000E+00 0. -1.
         -2   -1    0    0    0  501 -0.00000000000E+00 -0.00000000000E+00 -0.56358015913E+02  0.56358015913E+02  0.00000000000E+00 0.  1.
          6    1    1    2  502    0 -0.10464606925E+02  0.32766977878E+02  0.97814757784E+03  0.99375040471E+03  0.17200000000E+03 0. -1.
         -6    1    1    2    0  501  0.10464606925E+02 -0.32766977878E+02  0.10985225064E+03  0.20696545559E+03  0.17200000000E+03 0.  1.
</event>
<event>
 4    1  0.3115421E-002  0.1927817E+03  0.7818608E-02  0.1155976E+00
         -1   -1    0    0    0  501 -0.00000000000E+00  0.00000000000E+00  0.11077836874E+03  0.11077836874E+03  0.00000000000E+00 0.  1.
          1   -1    0    0  502    0  0.00000000000E+00 -0.00000000000E+00 -0.42064581125E+03  0.42064581125E+03  0.00000000000E+00 0. -1.
          6    1    1    2  502    0 -0.57587160227E+02  0.65303075589E+02 -0.27448829970E+03  0.33542301558E+03  0.17200000000E+03 0. -1.
         -6    1    1    2    0  501  0.57587160227E+02 -0.65303075589E+02 -0.35379142805E+02  0.19600116441E+03  0.17200000000E+03 0.  1.
</event>
<event>
 4    1  0.3115421E-002  0.3310710E+03  0.7818608E-02  0.1070664E+00
          2   -1    0    0  502    0  0.00000000000E+00  0.00000000000E+00  0.88014218372E+03  0.88014218372E+03  0.00000000000E+00 0. -1.
         -2   -1    0    0    0  501 -0.00000000000E+00 -0.00000000000E+00 -0.15392820587E+03  0.15392820587E+03  0.00000000000E+00 0.  1.
          6    1    1    2  502    0 -0.27521011960E+03  0.65447807125E+02  0.13716938306E+03  0.35836219811E+03  0.17200000000E+03 0.  1.
         -6    1    1    2    0  501  0.27521011960E+03 -0.65447807125E+02  0.58904459479E+03  0.67570819148E+03  0.17200000000E+03 0.  1.
</event>
<event>
 4    1  0.3115421E-002  0.1873503E+03  0.7818608E-02  0.1160873E+00
          2   -1    0    0  502    0  0.00000000000E+00  0.00000000000E+00  0.20792910960E+04  0.20792910960E+04  0.00000000000E+00 0. -1.
         -2   -1    0    0    0  501 -0.00000000000E+00 -0.00000000000E+00 -0.26365457131E+02  0.26365457131E+02  0.00000000000E+00 0.  1.
          6    1    1    2  502    0  0.69100558871E+02 -0.27225986373E+02  0.16579291751E+04  0.16684811330E+04  0.17200000000E+03 0. -1.
         -6    1    1    2    0  501 -0.69100558871E+02  0.27225986373E+02  0.39499646381E+03  0.43717542016E+03  0.17200000000E+03 0.  1.
</event>
<event>
 4    1  0.3115421E-002  0.2550015E+03  0.7818608E-02  0.1110184E+00
          1   -1    0    0  502    0  0.00000000000E+00  0.00000000000E+00  0.17198812174E+03  0.17198812174E+03  0.00000000000E+00 0. -1.
         -1   -1    0    0    0  501 -0.00000000000E+00 -0.00000000000E+00 -0.38113035294E+03  0.38113035294E+03  0.00000000000E+00 0.  1.
          6    1    1    2  502    0  0.73992005733E+02 -0.17310959704E+03 -0.79840922915E+02  0.26720838773E+03  0.17200000000E+03 0.  1.
         -6    1    1    2    0  501 -0.73992005733E+02  0.17310959704E+03 -0.12930130828E+03  0.28591008696E+03  0.17200000000E+03 0.  1.
</event>
<event>
 4    1  0.3115421E-002  0.1889860E+03  0.7818608E-02  0.1159379E+00
          2   -1    0    0  502    0  0.00000000000E+00  0.00000000000E+00  0.12473807644E+04  0.12473807644E+04  0.00000000000E+00 0. -1.
         -2   -1    0    0    0  501 -0.00000000000E+00 -0.00000000000E+00 -0.61328324037E+02  0.61328324037E+02  0.00000000000E+00 0.  1.
          6    1    1    2  502    0  0.94306122059E+00  0.78299482333E+02  0.10708066459E+04  0.10873557703E+04  0.17200000000E+03 0. -1.
         -6    1    1    2    0  501 -0.94306122059E+00 -0.78299482333E+02  0.11524579441E+03  0.22135331808E+03  0.17200000000E+03 0.  1.
</event>
<event>
 4    1  0.3115421E-002  0.1864226E+03  0.7818608E-02  0.1161728E+00
          3   -1    0    0  502    0  0.00000000000E+00  0.00000000000E+00  0.54984087479E+03  0.54984087479E+03  0.00000000000E+00 0. -1.
         -3   -1    0    0    0  501 -0.00000000000E+00 -0.00000000000E+00 -0.22745322215E+03  0.22745322215E+03  0.00000000000E+00 0.  1.
          6    1    1    2  502    0 -0.68736771196E+02  0.21086418187E+02  0.49145537335E+03  0.52562511806E+03  0.17200000000E+03 0. -1.
         -6    1    1    2    0  501  0.68736771196E+02 -0.21086418187E+02 -0.16906772070E+03  0.25166897888E+03  0.17200000000E+03 0.  1.
</event>
<event>
 4    1  0.3115421E-002  0.2247008E+03  0.7818608E-02  0.1130426E+00
          2   -1    0    0  502    0  0.00000000000E+00  0.00000000000E+00  0.30848340065E+03  0.30848340065E+03  0.00000000000E+00 0. -1.
         -2   -1    0    0    0  501 -0.00000000000E+00 -0.00000000000E+00 -0.26784510052E+03  0.26784510052E+03  0.00000000000E+00 0.  1.
          6    1    1    2  502    0  0.14325265996E+03  0.19625117618E+02  0.20002967457E+03  0.30083606920E+03  0.17200000000E+03 0. -1.
         -6    1    1    2    0  501 -0.14325265996E+03 -0.19625117618E+02 -0.15939137444E+03  0.27549243197E+03  0.17200000000E+03 0.  1.
</event>
<event>
 4    1  0.3115421E-002  0.4809039E+03  0.7818608E-02  0.1018887E+00
         -2   -1    0    0    0  501 -0.00000000000E+00  0.00000000000E+00  0.46069253478E+03  0.46069253478E+03  0.00000000000E+00 0.  1.
          2   -1    0    0  502    0  0.00000000000E+00 -0.00000000000E+00 -0.50518835515E+03  0.50518835515E+03  0.00000000000E+00 0. -1.
          6    1    1    2  502    0  0.28693032256E+03 -0.34547866177E+03  0.16107143731E+02  0.48117351945E+03  0.17200000000E+03 0. -1.
         -6    1    1    2    0  501 -0.28693032256E+03  0.34547866177E+03 -0.60602964106E+02  0.48470737048E+03  0.17200000000E+03 0.  1.
</event>
<event>
 4    1  0.3115421E-002  0.1725179E+03  0.7818608E-02  0.1175247E+00
         -1   -1    0    0    0  501 -0.00000000000E+00  0.00000000000E+00  0.16114736357E+03  0.16114736357E+03  0.00000000000E+00 0.  1.
          1   -1    0    0  502    0  0.00000000000E+00 -0.00000000000E+00 -0.28111948909E+03  0.28111948909E+03  0.00000000000E+00 0. -1.
          6    1    1    2  502    0  0.66977999126E+01 -0.11557362746E+02 -0.18949868056E+03  0.25626584457E+03  0.17200000000E+03 0. -1.
         -6    1    1    2    0  501 -0.66977999126E+01  0.11557362746E+02  0.69526555042E+02  0.18600100810E+03  0.17200000000E+03 0.  1.
</event>
<event>
 4    1  0.3115421E-002  0.2065269E+03  0.7818608E-02  0.1144346E+00
          1   -1    0    0  502    0  0.00000000000E+00  0.00000000000E+00  0.15590313428E+04  0.15590313428E+04  0.00000000000E+00 0. -1.
         -1   -1    0    0    0  501 -0.00000000000E+00 -0.00000000000E+00 -0.27513492671E+02  0.27513492671E+02  0.00000000000E+00 0.  1.
          6    1    1    2  502    0 -0.17435093583E+02  0.11298393561E+03  0.70629256756E+03  0.73586856379E+03  0.17200000000E+03 0. -1.
         -6    1    1    2    0  501  0.17435093583E+02 -0.11298393561E+03  0.82522528254E+03  0.85067627165E+03  0.17200000000E+03 0.  1.
</event>
<event>
 4    1  0.3115421E-002  0.2275598E+03  0.7818608E-02  0.1128369E+00
          1   -1    0    0  502    0  0.00000000000E+00  0.00000000000E+00  0.44281926939E+03  0.44281926939E+03  0.00000000000E+00 0. -1.
         -1   -1    0    0    0  501 -0.00000000000E+00 -0.00000000000E+00 -0.23838158756E+03  0.23838158756E+03  0.00000000000E+00 0.  1.
          6    1    1    2  502    0 -0.11240786510E+03 -0.97795423024E+02  0.34532266855E+03  0.41355920775E+03  0.17200000000E+03 0. -1.
         -6    1    1    2    0  501  0.11240786510E+03  0.97795423024E+02 -0.14088498673E+03  0.26764164920E+03  0.17200000000E+03 0.  1.
</event>
<event>
 4    1  0.3115421E-002  0.2047156E+03  0.7818608E-02  0.1145820E+00
         -1   -1    0    0    0  501 -0.00000000000E+00  0.00000000000E+00  0.92480554422E+03  0.92480554422E+03  0.00000000000E+00 0.  1.
          1   -1    0    0  502    0  0.00000000000E+00 -0.00000000000E+00 -0.12270166109E+03  0.12270166109E+03  0.00000000000E+00 0. -1.
          6    1    1    2  502    0 -0.87450190747E+02  0.68388101082E+02 -0.14889421683E+02  0.20525633513E+03  0.17200000000E+03 0. -1.
         -6    1    1    2    0  501  0.87450190747E+02 -0.68388101082E+02  0.81699330481E+03  0.84225087019E+03  0.17200000000E+03 0.  1.
</event>
<event>
 4    1  0.3115421E-002  0.1742165E+03  0.7818608E-02  0.1173521E+00
          2   -1    0    0  502    0  0.00000000000E+00  0.00000000000E+00  0.64957956963E+03  0.64957956963E+03  0.00000000000E+00 0. -1.
         -2   -1    0    0    0  501 -0.00000000000E+00 -0.00000000000E+00 -0.52947844317E+02  0.52947844317E+02  0.00000000000E+00 0.  1.
          6    1    1    2  502    0 -0.27595906055E+02 -0.24190542275E+01  0.41874051458E+03  0.45353611146E+03  0.17200000000E+03 0. -1.
         -6    1    1    2    0  501  0.27595906055E+02  0.24190542275E+01  0.17789121074E+03  0.24899130248E+03  0.17200000000E+03 0.  1.
</event>
<event>
 4    1  0.3115421E-002  0.6411155E+03  0.7818608E-02  0.9823595E-01
          2   -1    0    0  502    0  0.00000000000E+00  0.00000000000E+00  0.42837695321E+03  0.42837695321E+03  0.00000000000E+00 0. -1.
         -2   -1    0    0    0  501 -0.00000000000E+00 -0.00000000000E+00 -0.13290676029E+04  0.13290676029E+04  0.00000000000E+00 0.  1.
          6    1    1    2  502    0  0.15952647230E+03 -0.59665436488E+03 -0.91371016072E+03  0.11161968394E+04  0.17200000000E+03 0.  1.
         -6    1    1    2    0  501 -0.15952647230E+03  0.59665436488E+03  0.13019511032E+02  0.64124771670E+03  0.17200000000E+03 0.  1.
</event>
<event>
 4    1  0.3115421E-002  0.1738398E+03  0.7818608E-02  0.1173902E+00
          2   -1    0    0  502    0  0.00000000000E+00  0.00000000000E+00  0.55813482692E+03  0.55813482692E+03  0.00000000000E+00 0. -1.
         -2   -1    0    0    0  501 -0.00000000000E+00 -0.00000000000E+00 -0.21764033777E+03  0.21764033777E+03  0.00000000000E+00 0.  1.
          6    1    1    2  502    0 -0.17737389574E+02  0.17935004116E+02  0.50644027256E+03  0.53544563593E+03  0.17200000000E+03 0. -1.
         -6    1    1    2    0  501  0.17737389574E+02 -0.17935004116E+02 -0.16594578342E+03  0.24032952876E+03  0.17200000000E+03 0.  1.
</event>
<event>
 4    1  0.3115421E-002  0.2259372E+03  0.7818608E-02  0.1129532E+00
         -2   -1    0    0    0  501 -0.00000000000E+00  0.00000000000E+00  0.17869135281E+03  0.17869135281E+03  0.00000000000E+00 0.  1.
          2   -1    0    0  502    0  0.00000000000E+00 -0.00000000000E+00 -0.66235225959E+03  0.66235225959E+03  0.00000000000E+00 0. -1.
          6    1    1    2  502    0 -0.14107022958E+03  0.39532358279E+02  0.75293337647E+02  0.23815268993E+03  0.17200000000E+03 0.  1.
         -6    1    1    2    0  501  0.14107022958E+03 -0.39532358279E+02 -0.55895424444E+03  0.60289092247E+03  0.17200000000E+03 0. -1.
</event>
<event>
 4    1  0.3115421E-002  0.2602863E+03  0.7818608E-02  0.1106971E+00
          2   -1    0    0  502    0  0.00000000000E+00  0.00000000000E+00  0.54860309979E+03  0.54860309979E+03  0.00000000000E+00 0. -1.
         -2   -1    0    0    0  501 -0.00000000000E+00 -0.00000000000E+00 -0.12837669675E+03  0.12837669675E+03  0.00000000000E+00 0.  1.
          6    1    1    2  502    0  0.18474980456E+03 -0.63501700201E+02  0.27612955617E+03  0.37946869173E+03  0.17200000000E+03 0. -1.
         -6    1    1    2    0  501 -0.18474980456E+03  0.63501700201E+02  0.14409684687E+03  0.29751110482E+03  0.17200000000E+03 0.  1.
</event>
<event>
 4    1  0.3115421E-002  0.3177181E+03  0.7818608E-02  0.1076704E+00
          2   -1    0    0  502    0  0.00000000000E+00  0.00000000000E+00  0.19157063412E+04  0.19157063412E+04  0.00000000000E+00 0. -1.
         -2   -1    0    0    0  501 -0.00000000000E+00 -0.00000000000E+00 -0.63922196424E+02  0.63922196424E+02  0.00000000000E+00 0.  1.
          6    1    1    2  502    0  0.13235466567E+03  0.23204098531E+03  0.51103591566E+03  0.60174951889E+03  0.17200000000E+03 0.  1.
         -6    1    1    2    0  501 -0.13235466567E+03 -0.23204098531E+03  0.13407482291E+04  0.13778790187E+04  0.17200000000E+03 0. -1.
</event>
<event>
 4    1  0.3115421E-002  0.5574160E+03  0.7818608E-02  0.9997918E-01
         -2   -1    0    0    0  501 -0.00000000000E+00  0.00000000000E+00  0.24641908848E+03  0.24641908848E+03  0.00000000000E+00 0.  1.
          2   -1    0    0  502    0  0.00000000000E+00 -0.00000000000E+00 -0.21143208170E+04  0.21143208170E+04  0.00000000000E+00 0. -1.
          6    1    1    2  502    0  0.26431280563E+03 -0.45963831087E+03 -0.16838647928E+04  0.17737286366E+04  0.17200000000E+03 0. -1.
         -6    1    1    2    0  501 -0.26431280563E+03  0.45963831087E+03 -0.18403693574E+03  0.58701126885E+03  0.17200000000E+03 0.  1.
</event>
<event>
 4    1  0.3115421E-002  0.1814723E+03  0.7818608E-02  0.1166386E+00
         -2   -1    0    0    0  501 -0.00000000000E+00  0.00000000000E+00  0.22432344409E+02  0.22432344409E+02  0.00000000000E+00 0.  1.
          2   -1    0    0  502    0  0.00000000000E+00 -0.00000000000E+00 -0.16060437618E+04  0.16060437618E+04  0.00000000000E+00 0. -1.
          6    1    1    2  502    0 -0.25316795580E+02  0.52031246773E+02 -0.10304632957E+04  0.10463205984E+04  0.17200000000E+03 0. -1.
         -6    1    1    2    0  501  0.25316795580E+02 -0.52031246773E+02 -0.55314812166E+03  0.58215550781E+03  0.17200000000E+03 0.  1.
</event>
<event>
 4    1  0.3115421E-002  0.1720544E+03  0.7818608E-02  0.1175722E+00
          1   -1    0    0  502    0  0.00000000000E+00  0.00000000000E+00  0.10063310363E+04  0.10063310363E+04  0.00000000000E+00 0. -1.
         -1   -1    0    0    0  501 -0.00000000000E+00 -0.00000000000E+00 -0.36518890336E+02  0.36518890336E+02  0.00000000000E+00 0.  1.
          6    1    1    2  502    0  0.34902239590E+01  0.25582814425E+01  0.71485724060E+03  0.73527110708E+03  0.17200000000E+03 0. -1.
         -6    1    1    2    0  501 -0.34902239590E+01 -0.25582814425E+01  0.25495490533E+03  0.30757881952E+03  0.17200000000E+03 0.  1.
</event>
<event>
 4    1  0.3115421E-002  0.7668857E+03  0.7818608E-02  0.9609226E-01
          1   -1    0    0  502    0  0.00000000000E+00  0.00000000000E+00  0.13271061532E+04  0.13271061532E+04  0.00000000000E+00 0. -1.
         -1   -1    0    0    0  501 -0.00000000000E+00 -0.00000000000E+00 -0.47804042357E+03  0.47804042357E+03  0.00000000000E+00 0.  1.
          6    1    1    2  502    0  0.58713750694E+03  0.46238431011E+03  0.66835452428E+03  0.10172568370E+04  0.17200000000E+03 0. -1.
         -6    1    1    2    0  501 -0.58713750694E+03 -0.46238431011E+03  0.18071120533E+03  0.78788973976E+03  0.17200000000E+03 0.  1.
</event>
<event>
 4    1  0.3115421E-002  0.2016418E+03  0.7818608E-02  0.1148361E+00
         -1   -1    0    0    0  501 -0.00000000000E+00  0.00000000000E+00  0.39257469329E+03  0.39257469329E+03  0.00000000000E+00 0.  1.
          1   -1    0    0  502    0  0.00000000000E+00 -0.00000000000E+00 -0.50475740514E+03  0.50475740514E+03  0.00000000000E+00 0. -1.
          6    1    1    2  502    0 -0.98456351366E+02 -0.37172203814E+02 -0.45608663184E+03  0.49867267982E+03  0.17200000000E+03 0. -1.
         -6    1    1    2    0  501  0.98456351366E+02  0.37172203814E+02  0.34390391999E+03  0.39865941861E+03  0.17200000000E+03 0.  1.
</event>
<event>
 4    1  0.3115421E-002  0.2766125E+03  0.7818608E-02  0.1097554E+00
         -1   -1    0    0    0  501 -0.00000000000E+00  0.00000000000E+00  0.86263788069E+02  0.86263788069E+02  0.00000000000E+00 0.  1.
          1   -1    0    0  502    0  0.00000000000E+00 -0.00000000000E+00 -0.89401519691E+03  0.89401519691E+03  0.00000000000E+00 0. -1.
          6    1    1    2  502    0  0.19211671766E+03 -0.10010811075E+03 -0.44734768213E+03  0.52596046976E+03  0.17200000000E+03 0. -1.
         -6    1    1    2    0  501 -0.19211671766E+03  0.10010811075E+03 -0.36040372671E+03  0.45431851522E+03  0.17200000000E+03 0.  1.
</event>
<event>
 4    1  0.3115421E-002  0.2112715E+03  0.7818608E-02  0.1140563E+00
          2   -1    0    0  502    0  0.00000000000E+00  0.00000000000E+00  0.19569296204E+04  0.19569296204E+04  0.00000000000E+00 0. -1.
         -2   -1    0    0    0  501 -0.00000000000E+00 -0.00000000000E+00 -0.27735298625E+02  0.27735298625E+02  0.00000000000E+00 0.  1.
          6    1    1    2  502    0  0.10851723245E+03 -0.57233191073E+02  0.54638111947E+03  0.58580539056E+03  0.17200000000E+03 0.  1.
         -6    1    1    2    0  501 -0.10851723245E+03  0.57233191073E+02  0.13828132023E+04  0.13988595285E+04  0.17200000000E+03 0. -1.
</event>
<event>
 4    1  0.3115421E-002  0.3884888E+03  0.7818608E-02  0.1047840E+00
          2   -1    0    0  502    0  0.00000000000E+00  0.00000000000E+00  0.45173660224E+03  0.45173660224E+03  0.00000000000E+00 0. -1.
         -2   -1    0    0    0  501 -0.00000000000E+00 -0.00000000000E+00 -0.72908526481E+03  0.72908526481E+03  0.00000000000E+00 0.  1.
          6    1    1    2  502    0 -0.27256768719E+03 -0.21690175962E+03  0.29589364962E+03  0.48834062837E+03  0.17200000000E+03 0. -1.
         -6    1    1    2    0  501  0.27256768719E+03  0.21690175962E+03 -0.57324231220E+03  0.69248123868E+03  0.17200000000E+03 0.  1.
</event>
<event>
 4    1  0.3115421E-002  0.4249606E+03  0.7818608E-02  0.1035464E+00
         -2   -1    0    0    0  501 -0.00000000000E+00  0.00000000000E+00  0.26966369473E+03  0.26966369473E+03  0.00000000000E+00 0.  1.
          2   -1    0    0  502    0  0.00000000000E+00 -0.00000000000E+00 -0.74235833720E+03  0.74235833720E+03  0.00000000000E+00 0. -1.
          6    1    1    2  502    0 -0.31466582358E+03 -0.22801953629E+03 -0.78032619369E+02  0.43206548016E+03  0.17200000000E+03 0. -1.
         -6    1    1    2    0  501  0.31466582358E+03  0.22801953629E+03 -0.39466202310E+03  0.57995655177E+03  0.17200000000E+03 0.  1.
</event>
<event>
 4    1  0.3115421E-002  0.1743559E+03  0.7818608E-02  0.1173380E+00
          2   -1    0    0  502    0  0.00000000000E+00  0.00000000000E+00  0.18175191249E+04  0.18175191249E+04  0.00000000000E+00 0. -1.
         -2   -1    0    0    0  501 -0.00000000000E+00 -0.00000000000E+00 -0.17120124934E+02  0.17120124934E+02  0.00000000000E+00 0.  1.
          6    1    1    2  502    0  0.31028569709E+01 -0.28396149717E+02  0.76103115214E+03  0.78074860458E+03  0.17200000000E+03 0.  1.
         -6    1    1    2    0  501 -0.31028569709E+01  0.28396149717E+02  0.10393678479E+04  0.10538906453E+04  0.17200000000E+03 0. -1.
</event>
<event>
 4    1  0.3115421E-002  0.1856540E+03  0.7818608E-02  0.1162441E+00
          2   -1    0    0  502    0  0.00000000000E+00  0.00000000000E+00  0.34576225291E+03  0.34576225291E+03  0.00000000000E+00 0. -1.
         -2   -1    0    0    0  501 -0.00000000000E+00 -0.00000000000E+00 -0.16885558275E+03  0.16885558275E+03  0.00000000000E+00 0.  1.
          6    1    1    2  502    0  0.56312197900E+02  0.41380394189E+02  0.25313946434E+03  0.31392194741E+03  0.17200000000E+03 0. -1.
         -6    1    1    2    0  501 -0.56312197900E+02 -0.41380394189E+02 -0.76232794181E+02  0.20069588826E+03  0.17200000000E+03 0.  1.
</event>
<event>
 4    1  0.3115421E-002  0.1733311E+03  0.7818608E-02  0.1174418E+00
          2   -1    0    0  502    0  0.00000000000E+00  0.00000000000E+00  0.24140090926E+04  0.24140090926E+04  0.00000000000E+00 0. -1.
         -2   -1    0    0    0  501 -0.00000000000E+00 -0.00000000000E+00 -0.59904058190E+02  0.59904058190E+02  0.00000000000E+00 0.  1.
          6    1    1    2  502    0  0.16972835124E+02 -0.13099580219E+02  0.22780424870E+04  0.22846271575E+04  0.17200000000E+03 0. -1.
         -6    1    1    2    0  501 -0.16972835124E+02  0.13099580219E+02  0.76062547370E+02  0.18928599327E+03  0.17200000000E+03 0.  1.
</event>
<event>
 4    1  0.3115421E-002  0.3122778E+03  0.7818608E-02  0.1079259E+00
          1   -1    0    0  502    0  0.00000000000E+00  0.00000000000E+00  0.74814374697E+03  0.74814374697E+03  0.00000000000E+00 0. -1.
         -1   -1    0    0    0  501 -0.00000000000E+00 -0.00000000000E+00 -0.24879002320E+03  0.24879002320E+03  0.00000000000E+00 0.  1.
          6    1    1    2  502    0 -0.40623736496E+01  0.26060873702E+03  0.59361213717E+03  0.67074047596E+03  0.17200000000E+03 0. -1.
         -6    1    1    2    0  501  0.40623736496E+01 -0.26060873702E+03 -0.94258413393E+02  0.32619329421E+03  0.17200000000E+03 0.  1.
</event>
<event>
 4    1  0.3115421E-002  0.1790522E+03  0.7818608E-02  0.1168723E+00
          2   -1    0    0  502    0  0.00000000000E+00  0.00000000000E+00  0.96235078079E+03  0.96235078079E+03  0.00000000000E+00 0. -1.
         -2   -1    0    0    0  501 -0.00000000000E+00 -0.00000000000E+00 -0.36685333824E+02  0.36685333824E+02  0.00000000000E+00 0.  1.
          6    1    1    2  502    0 -0.49310496185E+02 -0.66459043745E+01  0.61426202008E+03  0.63982616576E+03  0.17200000000E+03 0. -1.
         -6    1    1    2    0  501  0.49310496185E+02  0.66459043745E+01  0.31140342689E+03  0.35920994885E+03  0.17200000000E+03 0.  1.
</event>
<event>
 4    1  0.3115421E-002  0.2781468E+03  0.7818608E-02  0.1096705E+00
         -2   -1    0    0    0  501 -0.00000000000E+00  0.00000000000E+00  0.93420704490E+02  0.93420704490E+02  0.00000000000E+00 0.  1.
          2   -1    0    0  502    0  0.00000000000E+00 -0.00000000000E+00 -0.21359511766E+04  0.21359511766E+04  0.00000000000E+00 0. -1.
          6    1    1    2  502    0  0.19325430434E+03 -0.10214903822E+03 -0.18934911317E+04  0.19138114635E+04  0.17200000000E+03 0. -1.
         -6    1    1    2    0  501 -0.19325430434E+03  0.10214903822E+03 -0.14903934047E+03  0.31556041761E+03  0.17200000000E+03 0.  1.
</event>
<event>
 4    1  0.3115421E-002  0.3449947E+03  0.7818608E-02  0.1064688E+00
          2   -1    0    0  502    0  0.00000000000E+00  0.00000000000E+00  0.12868341808E+04  0.12868341808E+04  0.00000000000E+00 0. -1.
         -2   -1    0    0    0  501 -0.00000000000E+00 -0.00000000000E+00 -0.10527950948E+03  0.10527950948E+03  0.00000000000E+00 0.  1.
          6    1    1    2  502    0 -0.28432776731E+03 -0.92709432876E+02  0.83336739966E+03  0.90195484423E+03  0.17200000000E+03 0. -1.
         -6    1    1    2    0  501  0.28432776731E+03  0.92709432876E+02  0.34818727163E+03  0.49015884602E+03  0.17200000000E+03 0.  1.
</event>
<event>
 4    1  0.3115421E-002  0.2517438E+03  0.7818608E-02  0.1112208E+00
         -1   -1    0    0    0  501 -0.00000000000E+00  0.00000000000E+00  0.40315481465E+03  0.40315481465E+03  0.00000000000E+00 0.  1.
          1   -1    0    0  502    0  0.00000000000E+00 -0.00000000000E+00 -0.15830225707E+03  0.15830225707E+03  0.00000000000E+00 0. -1.
          6    1    1    2  502    0 -0.11017676066E+03 -0.14714620715E+03  0.98974358692E+02  0.27050110637E+03  0.17200000000E+03 0.  1.
         -6    1    1    2    0  501  0.11017676066E+03  0.14714620715E+03  0.14587819889E+03  0.29095596536E+03  0.17200000000E+03 0. -1.
</event>
<event>
 4    1  0.3115421E-002  0.7918553E+03  0.7818608E-02  0.9571882E-01
         -2   -1    0    0    0  501 -0.00000000000E+00  0.00000000000E+00  0.23994792650E+03  0.23994792650E+03  0.00000000000E+00 0.  1.
          2   -1    0    0  502    0  0.00000000000E+00 -0.00000000000E+00 -0.31010995219E+04  0.31010995219E+04  0.00000000000E+00 0. -1.
          6    1    1    2  502    0  0.71922691191E+03 -0.28313146645E+03 -0.20931807742E+04  0.22379545419E+04  0.17200000000E+03 0. -1.
         -6    1    1    2    0  501 -0.71922691191E+03  0.28313146645E+03 -0.76797082114E+03  0.11030929064E+04  0.17200000000E+03 0.  1.
</event>
<event>
 4    1  0.3115421E-002  0.2217570E+03  0.7818608E-02  0.1132580E+00
          2   -1    0    0  502    0  0.00000000000E+00  0.00000000000E+00  0.92042315592E+03  0.92042315592E+03  0.00000000000E+00 0. -1.
         -2   -1    0    0    0  501 -0.00000000000E+00 -0.00000000000E+00 -0.76969734241E+02  0.76969734241E+02  0.00000000000E+00 0.  1.
          6    1    1    2  502    0  0.50879126423E+02 -0.13039746873E+03  0.14592475647E+03  0.26546227587E+03  0.17200000000E+03 0.  1.
         -6    1    1    2    0  501 -0.50879126423E+02  0.13039746873E+03  0.69752866521E+03  0.73193061430E+03  0.17200000000E+03 0.  1.
</event>
<event>
 4    1  0.3115421E-002  0.4059408E+03  0.7818608E-02  0.1041742E+00
          2   -1    0    0  502    0  0.00000000000E+00  0.00000000000E+00  0.35212733694E+04  0.35212733694E+04  0.00000000000E+00 0. -1.
         -2   -1    0    0    0  501 -0.00000000000E+00 -0.00000000000E+00 -0.47976066843E+02  0.47976066843E+02  0.00000000000E+00 0.  1.
          6    1    1    2  502    0 -0.36769964367E+03 -0.93076733293E+00  0.20163238344E+04  0.20567813932E+04  0.17200000000E+03 0. -1.
         -6    1    1    2    0  501  0.36769964367E+03  0.93076733293E+00  0.14569734682E+04  0.15124680431E+04  0.17200000000E+03 0.  1.
</event>
<event>
 4    1  0.3115421E-002  0.2466106E+03  0.7818608E-02  0.1115466E+00
         -2   -1    0    0    0  501 -0.00000000000E+00  0.00000000000E+00  0.94332728248E+03  0.94332728248E+03  0.00000000000E+00 0.  1.
          2   -1    0    0  502    0  0.00000000000E+00 -0.00000000000E+00 -0.68274563081E+02  0.68274563081E+02  0.00000000000E+00 0. -1.
          6    1    1    2  502    0 -0.57392205863E+02 -0.16714942297E+03  0.31813491675E+03  0.40252530374E+03  0.17200000000E+03 0. -1.
         -6    1    1    2    0  501  0.57392205863E+02  0.16714942297E+03  0.55691780265E+03  0.60907654182E+03  0.17200000000E+03 0.  1.
</event>
<event>
 4    1  0.3115421E-002  0.2161273E+03  0.7818608E-02  0.1136804E+00
          2   -1    0    0  502    0  0.00000000000E+00  0.00000000000E+00  0.22434016457E+03  0.22434016457E+03  0.00000000000E+00 0. -1.
         -2   -1    0    0    0  501 -0.00000000000E+00 -0.00000000000E+00 -0.21322361582E+03  0.21322361582E+03  0.00000000000E+00 0.  1.
          6    1    1    2  502    0  0.12085304923E+03  0.50215153235E+02 -0.27972690848E+02  0.21793001756E+03  0.17200000000E+03 0. -1.
         -6    1    1    2    0  501 -0.12085304923E+03 -0.50215153235E+02  0.39089239602E+02  0.21963376283E+03  0.17200000000E+03 0.  1.
</event>
<event>
 4    1  0.3115421E-002  0.1907154E+03  0.7818608E-02  0.1157818E+00
          1   -1    0    0  502    0  0.00000000000E+00  0.00000000000E+00  0.49756619581E+03  0.49756619581E+03  0.00000000000E+00 0. -1.
         -1   -1    0    0    0  501 -0.00000000000E+00 -0.00000000000E+00 -0.73101033113E+02  0.73101033113E+02  0.00000000000E+00 0.  1.
          6    1    1    2  502    0 -0.10181668835E+02 -0.81759984436E+02  0.21296784501E+03  0.28588050728E+03  0.17200000000E+03 0.  1.
         -6    1    1    2    0  501  0.10181668835E+02  0.81759984436E+02  0.21149731769E+03  0.28478672164E+03  0.17200000000E+03 0.  1.
</event>
<event>
 4    1  0.3115421E-002  0.2251658E+03  0.7818608E-02  0.1130089E+00
          2   -1    0    0  502    0  0.00000000000E+00  0.00000000000E+00  0.62921920084E+03  0.62921920084E+03  0.00000000000E+00 0. -1.
         -2   -1    0    0    0  501 -0.00000000000E+00 -0.00000000000E+00 -0.84892716934E+02  0.84892716934E+02  0.00000000000E+00 0.  1.
          6    1    1    2  502    0 -0.14492485033E+03 -0.10603549857E+02  0.35268316307E+03  0.41843166829E+03  0.17200000000E+03 0. -1.
         -6    1    1    2    0  501  0.14492485033E+03  0.10603549857E+02  0.19164332083E+03  0.29568024948E+03  0.17200000000E+03 0.  1.
</event>
<event>
 4    1  0.3115421E-002  0.2017341E+03  0.7818608E-02  0.1148284E+00
         -2   -1    0    0    0  501 -0.00000000000E+00  0.00000000000E+00  0.87791903111E+02  0.87791903111E+02  0.00000000000E+00 0.  1.
          2   -1    0    0  502    0  0.00000000000E+00 -0.00000000000E+00 -0.12025066733E+04  0.12025066733E+04  0.00000000000E+00 0. -1.
          6    1    1    2  502    0 -0.90280057379E+02  0.54425723525E+02 -0.10630930497E+04  0.10820644530E+04  0.17200000000E+03 0. -1.
         -6    1    1    2    0  501  0.90280057379E+02 -0.54425723525E+02 -0.51621720548E+02  0.20823412346E+03  0.17200000000E+03 0.  1.
</event>
<event>
 4    1  0.3115421E-002  0.2105401E+03  0.7818608E-02  0.1141139E+00
          1   -1    0    0  502    0  0.00000000000E+00  0.00000000000E+00  0.17540852563E+03  0.17540852563E+03  0.00000000000E+00 0. -1.
         -1   -1    0    0    0  501 -0.00000000000E+00 -0.00000000000E+00 -0.91921229614E+03  0.91921229614E+03  0.00000000000E+00 0.  1.
          6    1    1    2  502    0 -0.88885086977E+01  0.12109560734E+03  0.94142464768E+02  0.23062947638E+03  0.17200000000E+03 0. -1.
         -6    1    1    2    0  501  0.88885086977E+01 -0.12109560734E+03 -0.83794623527E+03  0.86399134539E+03  0.17200000000E+03 0.  1.
</event>
<event>
 4    1  0.3115421E-002  0.2367922E+03  0.7818608E-02  0.1121948E+00
         -1   -1    0    0    0  501 -0.00000000000E+00  0.00000000000E+00  0.75349045092E+02  0.75349045092E+02  0.00000000000E+00 0.  1.
          1   -1    0    0  502    0  0.00000000000E+00 -0.00000000000E+00 -0.98527509550E+03  0.98527509550E+03  0.00000000000E+00 0. -1.
          6    1    1    2  502    0  0.15959853949E+03  0.31856638754E+02 -0.71731200268E+03  0.75538536419E+03  0.17200000000E+03 0. -1.
         -6    1    1    2    0  501 -0.15959853949E+03 -0.31856638754E+02 -0.19261404773E+03  0.30523877641E+03  0.17200000000E+03 0.  1.
</event>
<event>
 4    1  0.3115421E-002  0.1984686E+03  0.7818608E-02  0.1151038E+00
          2   -1    0    0  502    0  0.00000000000E+00  0.00000000000E+00  0.54076583927E+03  0.54076583927E+03  0.00000000000E+00 0. -1.
         -2   -1    0    0    0  501 -0.00000000000E+00 -0.00000000000E+00 -0.10376530738E+03  0.10376530738E+03  0.00000000000E+00 0.  1.
          6    1    1    2  502    0  0.26315359733E+02  0.95463541517E+02  0.42570382365E+02  0.20298281546E+03  0.17200000000E+03 0.  1.
         -6    1    1    2    0  501 -0.26315359733E+02 -0.95463541517E+02  0.39443014953E+03  0.44154833118E+03  0.17200000000E+03 0. -1.
</event>
<event>
 4    1  0.3115421E-002  0.1870078E+03  0.7818608E-02  0.1161188E+00
         -2   -1    0    0    0  501 -0.00000000000E+00  0.00000000000E+00  0.90811299694E+02  0.90811299694E+02  0.00000000000E+00 0.  1.
          2   -1    0    0  502    0  0.00000000000E+00 -0.00000000000E+00 -0.15905480057E+04  0.15905480057E+04  0.00000000000E+00 0. -1.
          6    1    1    2  502    0 -0.63970236676E+02  0.35996181110E+02 -0.14817324210E+04  0.14934868207E+04  0.17200000000E+03 0. -1.
         -6    1    1    2    0  501  0.63970236676E+02 -0.35996181110E+02 -0.18004285058E+02  0.18787248472E+03  0.17200000000E+03 0.  1.
</event>
<event>
 4    1  0.3115421E-002  0.4944345E+03  0.7818608E-02  0.1015242E+00
         -1   -1    0    0    0  501 -0.00000000000E+00  0.00000000000E+00  0.20699856459E+03  0.20699856459E+03  0.00000000000E+00 0.  1.
          1   -1    0    0  502    0  0.00000000000E+00 -0.00000000000E+00 -0.27498562871E+04  0.27498562871E+04  0.00000000000E+00 0. -1.
          6    1    1    2  502    0 -0.45749794635E+03 -0.74680263757E+02 -0.23881287013E+04  0.24387751448E+04  0.17200000000E+03 0. -1.
         -6    1    1    2    0  501  0.45749794635E+03  0.74680263757E+02 -0.15472902118E+03  0.51807970690E+03  0.17200000000E+03 0.  1.
</event>
<event>
 4    1  0.3115421E-002  0.1969842E+03  0.7818608E-02  0.1152309E+00
          2   -1    0    0  502    0  0.00000000000E+00  0.00000000000E+00  0.11362700352E+04  0.11362700352E+04  0.00000000000E+00 0. -1.
         -2   -1    0    0    0  501 -0.00000000000E+00 -0.00000000000E+00 -0.55300905099E+02  0.55300905099E+02  0.00000000000E+00 0.  1.
          6    1    1    2  502    0 -0.95688464695E+02  0.79045288181E+01  0.90894937490E+03  0.93004931589E+03  0.17200000000E+03 0. -1.
         -6    1    1    2    0  501  0.95688464695E+02 -0.79045288181E+01  0.17201975518E+03  0.26152162439E+03  0.17200000000E+03 0.  1.
</event>
<event>
 4    1  0.3115421E-002  0.2152070E+03  0.7818608E-02  0.1137508E+00
          2   -1    0    0  502    0  0.00000000000E+00  0.00000000000E+00  0.70898095777E+03  0.70898095777E+03  0.00000000000E+00 0. -1.
         -2   -1    0    0    0  501 -0.00000000000E+00 -0.00000000000E+00 -0.49640108524E+03  0.49640108524E+03  0.00000000000E+00 0.  1.
          6    1    1    2  502    0 -0.12883772932E+03 -0.11441139680E+02  0.66792654915E+03  0.70174064670E+03  0.17200000000E+03 0. -1.
         -6    1    1    2    0  501  0.12883772932E+03  0.11441139680E+02 -0.45534667661E+03  0.50364139631E+03  0.17200000000E+03 0.  1.
</event>
<event>
 4    1  0.3115421E-002  0.2128602E+03  0.7818608E-02  0.1139321E+00
         -1   -1    0    0    0  501 -0.00000000000E+00  0.00000000000E+00  0.16721733138E+03  0.16721733138E+03  0.00000000000E+00 0.  1.
          1   -1    0    0  502    0  0.00000000000E+00 -0.00000000000E+00 -0.78010377579E+03  0.78010377579E+03  0.00000000000E+00 0. -1.
          6    1    1    2  502    0  0.64664240930E+02 -0.10744293137E+03 -0.68910108098E+03  0.72122794411E+03  0.17200000000E+03 0. -1.
         -6    1    1    2    0  501 -0.64664240930E+02  0.10744293137E+03  0.76214636562E+02  0.22609316306E+03  0.17200000000E+03 0.  1.
</event>
<event>
 4    1  0.3115421E-002  0.2299883E+03  0.7818608E-02  0.1126648E+00
         -1   -1    0    0    0  501 -0.00000000000E+00  0.00000000000E+00  0.93073638419E+02  0.93073638419E+02  0.00000000000E+00 0.  1.
          1   -1    0    0  502    0  0.00000000000E+00 -0.00000000000E+00 -0.26583396607E+04  0.26583396607E+04  0.00000000000E+00 0. -1.
          6    1    1    2  502    0 -0.30044774998E+02 -0.14969283262E+03 -0.25024561805E+04  0.25130025006E+04  0.17200000000E+03 0. -1.
         -6    1    1    2    0  501  0.30044774998E+02  0.14969283262E+03 -0.62809841818E+02  0.23841079857E+03  0.17200000000E+03 0.  1.
</event>
<event>
 4    1  0.3115421E-002  0.2498658E+03  0.7818608E-02  0.1113390E+00
         -2   -1    0    0    0  501 -0.00000000000E+00  0.00000000000E+00  0.88971447703E+02  0.88971447703E+02  0.00000000000E+00 0.  1.
          2   -1    0    0  502    0  0.00000000000E+00 -0.00000000000E+00 -0.74143419720E+03  0.74143419720E+03  0.00000000000E+00 0. -1.
          6    1    1    2  502    0  0.17660610623E+03 -0.40733460589E+02 -0.42232704298E+03  0.49070669733E+03  0.17200000000E+03 0. -1.
         -6    1    1    2    0  501 -0.17660610623E+03  0.40733460589E+02 -0.23013570651E+03  0.33969894757E+03  0.17200000000E+03 0. -1.
</event>
<event>
 4    1  0.3115421E-002  0.3730611E+03  0.7818608E-02  0.1053529E+00
         -1   -1    0    0    0  501 -0.00000000000E+00  0.00000000000E+00  0.31308977004E+03  0.31308977004E+03  0.00000000000E+00 0.  1.
          1   -1    0    0  502    0  0.00000000000E+00 -0.00000000000E+00 -0.51347191461E+03  0.51347191461E+03  0.00000000000E+00 0. -1.
          6    1    1    2  502    0 -0.20921729610E+03  0.25655160861E+03 -0.25163807845E+03  0.44999591931E+03  0.17200000000E+03 0. -1.
         -6    1    1    2    0  501  0.20921729610E+03 -0.25655160861E+03  0.51255933871E+02  0.37656576534E+03  0.17200000000E+03 0.  1.
</event>
<event>
 4    1  0.3115421E-002  0.2386767E+03  0.7818608E-02  0.1120677E+00
          2   -1    0    0  502    0  0.00000000000E+00  0.00000000000E+00  0.19434426921E+04  0.19434426921E+04  0.00000000000E+00 0. -1.
         -2   -1    0    0    0  501 -0.00000000000E+00 -0.00000000000E+00 -0.30299223729E+02  0.30299223729E+02  0.00000000000E+00 0.  1.
          6    1    1    2  502    0 -0.15224756312E+03 -0.64832542452E+02  0.77845340070E+03  0.81422126974E+03  0.17200000000E+03 0. -1.
         -6    1    1    2    0  501  0.15224756312E+03  0.64832542452E+02  0.11346900677E+04  0.11595206461E+04  0.17200000000E+03 0. -1.
</event>
<event>
 4    1  0.3115421E-002  0.3316133E+03  0.7818608E-02  0.1070425E+00
          2   -1    0    0  502    0  0.00000000000E+00  0.00000000000E+00  0.17216029632E+04  0.17216029632E+04  0.00000000000E+00 0. -1.
         -2   -1    0    0    0  501 -0.00000000000E+00 -0.00000000000E+00 -0.15943666305E+03  0.15943666305E+03  0.00000000000E+00 0.  1.
          6    1    1    2  502    0  0.60020584871E+02 -0.27709367170E+03  0.15092245446E+04  0.15452268764E+04  0.17200000000E+03 0. -1.
         -6    1    1    2    0  501 -0.60020584871E+02  0.27709367170E+03  0.52941755592E+02  0.33581274989E+03  0.17200000000E+03 0.  1.
</event>
<event>
 4    1  0.3115421E-002  0.6944154E+03  0.7818608E-02  0.9726830E-01
         -1   -1    0    0    0  501 -0.00000000000E+00  0.00000000000E+00  0.20931925896E+03  0.20931925896E+03  0.00000000000E+00 0.  1.
          1   -1    0    0  502    0  0.00000000000E+00 -0.00000000000E+00 -0.24074381743E+04  0.24074381743E+04  0.00000000000E+00 0. -1.
          6    1    1    2  502    0 -0.15817415223E+03  0.65391875681E+03 -0.13706314228E+04  0.15365035958E+04  0.17200000000E+03 0. -1.
         -6    1    1    2    0  501  0.15817415223E+03 -0.65391875681E+03 -0.82748749260E+03  0.10802538375E+04  0.17200000000E+03 0.  1.
</event>
<event>
 4    1  0.3115421E-002  0.4232652E+03  0.7818608E-02  0.1036009E+00
         -1   -1    0    0    0  501 -0.00000000000E+00  0.00000000000E+00  0.25950056710E+03  0.25950056710E+03  0.00000000000E+00 0.  1.
          1   -1    0    0  502    0  0.00000000000E+00 -0.00000000000E+00 -0.69472009856E+03  0.69472009856E+03  0.00000000000E+00 0. -1.
          6    1    1    2  502    0  0.11913707088E+03  0.36793445402E+03 -0.25533038701E+03  0.49431468787E+03  0.17200000000E+03 0. -1.
         -6    1    1    2    0  501 -0.11913707088E+03 -0.36793445402E+03 -0.17988914445E+03  0.45990597779E+03  0.17200000000E+03 0.  1.
</event>
<event>
 4    1  0.3115421E-002  0.2573713E+03  0.7818608E-02  0.1108733E+00
          2   -1    0    0  502    0  0.00000000000E+00  0.00000000000E+00  0.16102897311E+04  0.16102897311E+04  0.00000000000E+00 0. -1.
         -2   -1    0    0    0  501 -0.00000000000E+00 -0.00000000000E+00 -0.11929298129E+03  0.11929298129E+03  0.00000000000E+00 0.  1.
          6    1    1    2  502    0 -0.19026883636E+03  0.21301706778E+02  0.14454843045E+04  0.14682182628E+04  0.17200000000E+03 0. -1.
         -6    1    1    2    0  501  0.19026883636E+03 -0.21301706778E+02  0.45512445284E+02  0.26136444953E+03  0.17200000000E+03 0.  1.
</event>
<event>
 4    1  0.3115421E-002  0.2142496E+03  0.7818608E-02  0.1138244E+00
          2   -1    0    0  502    0  0.00000000000E+00  0.00000000000E+00  0.33408251127E+04  0.33408251127E+04  0.00000000000E+00 0. -1.
         -2   -1    0    0    0  501 -0.00000000000E+00 -0.00000000000E+00 -0.14896417859E+02  0.14896417859E+02  0.00000000000E+00 0.  1.
          6    1    1    2  502    0  0.12701990465E+03 -0.13594642786E+02  0.21304584447E+04  0.21412043469E+04  0.17200000000E+03 0. -1.
         -6    1    1    2    0  501 -0.12701990465E+03  0.13594642786E+02  0.11954702501E+04  0.12145171837E+04  0.17200000000E+03 0.  1.
</event>
<event>
 4    1  0.3115421E-002  0.2856544E+03  0.7818608E-02  0.1092640E+00
         -1   -1    0    0    0  501 -0.00000000000E+00  0.00000000000E+00  0.17273327616E+03  0.17273327616E+03  0.00000000000E+00 0.  1.
          1   -1    0    0  502    0  0.00000000000E+00 -0.00000000000E+00 -0.54759711520E+03  0.54759711520E+03  0.00000000000E+00 0. -1.
          6    1    1    2  502    0 -0.16527121095E+03  0.15716181176E+03 -0.32090232726E+03  0.42962391913E+03  0.17200000000E+03 0. -1.
         -6    1    1    2    0  501  0.16527121095E+03 -0.15716181176E+03 -0.53961511770E+02  0.29070647223E+03  0.17200000000E+03 0.  1.
</event>
<event>
 4    1  0.3115421E-002  0.1850614E+03  0.7818608E-02  0.1162993E+00
         -1   -1    0    0    0  501 -0.00000000000E+00  0.00000000000E+00  0.44893420914E+02  0.44893420914E+02  0.00000000000E+00 0.  1.
          1   -1    0    0  502    0  0.00000000000E+00 -0.00000000000E+00 -0.91010997348E+03  0.91010997348E+03  0.00000000000E+00 0. -1.
          6    1    1    2  502    0  0.39233293585E+02 -0.55896817184E+02 -0.62467202373E+03  0.65150812944E+03  0.17200000000E+03 0. -1.
         -6    1    1    2    0  501 -0.39233293585E+02  0.55896817184E+02 -0.24054452884E+03  0.30349526496E+03  0.17200000000E+03 0.  1.
</event>
<event>
 4    1  0.3115421E-002  0.6266025E+03  0.7818608E-02  0.9851701E-01
          1   -1    0    0  502    0  0.00000000000E+00  0.00000000000E+00  0.26840126564E+04  0.26840126564E+04  0.00000000000E+00 0. -1.
         -1   -1    0    0    0  501 -0.00000000000E+00 -0.00000000000E+00 -0.14630485421E+03  0.14630485421E+03  0.00000000000E+00 0.  1.
          6    1    1    2  502    0  0.97646477925E+02 -0.59456859593E+03  0.12523465248E+04  0.14003579786E+04  0.17200000000E+03 0. -1.
         -6    1    1    2    0  501 -0.97646477925E+02  0.59456859593E+03  0.12853612774E+04  0.14299595320E+04  0.17200000000E+03 0.  1.
</event>
<event>
 4    1  0.3115421E-002  0.1870337E+03  0.7818608E-02  0.1161164E+00
          2   -1    0    0  502    0  0.00000000000E+00  0.00000000000E+00  0.51402259683E+03  0.51402259683E+03  0.00000000000E+00 0. -1.
         -2   -1    0    0    0  501 -0.00000000000E+00 -0.00000000000E+00 -0.72897228021E+02  0.72897228021E+02  0.00000000000E+00 0.  1.
          6    1    1    2  502    0  0.69739275019E+02 -0.23109117463E+02  0.29619967101E+03  0.35030821129E+03  0.17200000000E+03 0. -1.
         -6    1    1    2    0  501 -0.69739275019E+02  0.23109117463E+02  0.14492569780E+03  0.23661161357E+03  0.17200000000E+03 0.  1.
</event>
<event>
 4    1  0.3115421E-002  0.8759842E+03  0.7818608E-02  0.9456110E-01
          2   -1    0    0  502    0  0.00000000000E+00  0.00000000000E+00  0.67364961446E+03  0.67364961446E+03  0.00000000000E+00 0. -1.
         -2   -1    0    0    0  501 -0.00000000000E+00 -0.00000000000E+00 -0.12653382691E+04  0.12653382691E+04  0.00000000000E+00 0.  1.
          6    1    1    2  502    0 -0.57974189153E+03 -0.63376944169E+03  0.10388950908E+02  0.87604583003E+03  0.17200000000E+03 0. -1.
         -6    1    1    2    0  501  0.57974189153E+03  0.63376944169E+03 -0.60207760550E+03  0.10629420535E+04  0.17200000000E+03 0.  1.
</event>
<event>
 4    1  0.3115421E-002  0.2033184E+03  0.7818608E-02  0.1146969E+00
         -1   -1    0    0    0  501 -0.00000000000E+00  0.00000000000E+00  0.41427006535E+02  0.41427006535E+02  0.00000000000E+00 0.  1.
          1   -1    0    0  502    0  0.00000000000E+00 -0.00000000000E+00 -0.10150446880E+04  0.10150446880E+04  0.00000000000E+00 0. -1.
          6    1    1    2  502    0  0.89560654015E+01  0.10804696863E+03 -0.41807757430E+03  0.46489484475E+03  0.17200000000E+03 0. -1.
         -6    1    1    2    0  501 -0.89560654015E+01 -0.10804696863E+03 -0.55554010713E+03  0.59157684976E+03  0.17200000000E+03 0.  1.
</event>
<event>
 4    1  0.3115421E-002  0.1862906E+03  0.7818608E-02  0.1161850E+00
         -2   -1    0    0    0  501 -0.00000000000E+00  0.00000000000E+00  0.44591267451E+02  0.44591267451E+02  0.00000000000E+00 0.  1.
          2   -1    0    0  502    0  0.00000000000E+00 -0.00000000000E+00 -0.78365822831E+03  0.78365822831E+03  0.00000000000E+00 0. -1.
          6    1    1    2  502    0  0.67124228137E+02 -0.24789540314E+02 -0.40386289852E+03  0.44475771395E+03  0.17200000000E+03 0. -1.
         -6    1    1    2    0  501 -0.67124228137E+02  0.24789540314E+02 -0.33520406233E+03  0.38349178181E+03  0.17200000000E+03 0.  1.
</event>
<event>
 4    1  0.3115421E-002  0.1910444E+03  0.7818608E-02  0.1157523E+00
         -1   -1    0    0    0  501 -0.00000000000E+00  0.00000000000E+00  0.23189736501E+02  0.23189736501E+02  0.00000000000E+00 0.  1.
          1   -1    0    0  502    0  0.00000000000E+00 -0.00000000000E+00 -0.15904012239E+04  0.15904012239E+04  0.00000000000E+00 0. -1.
          6    1    1    2  502    0  0.80284063707E+02  0.21643595100E+02 -0.86582372549E+03  0.88665026911E+03  0.17200000000E+03 0. -1.
         -6    1    1    2    0  501 -0.80284063707E+02 -0.21643595100E+02 -0.70138776186E+03  0.72694069124E+03  0.17200000000E+03 0.  1.
</event>
<event>
 4    1  0.3115421E-002  0.1915307E+03  0.7818608E-02  0.1157088E+00
          2   -1    0    0  502    0  0.00000000000E+00  0.00000000000E+00  0.48640660916E+03  0.48640660916E+03  0.00000000000E+00 0. -1.
         -2   -1    0    0    0  501 -0.00000000000E+00 -0.00000000000E+00 -0.16450258261E+03  0.16450258261E+03  0.00000000000E+00 0.  1.
          6    1    1    2  502    0  0.80874776222E+02  0.23648786289E+02 -0.78547379622E+02  0.20701131700E+03  0.17200000000E+03 0.  1.
         -6    1    1    2    0  501 -0.80874776222E+02 -0.23648786289E+02  0.40045140617E+03  0.44389787477E+03  0.17200000000E+03 0. -1.
</event>
<event>
 4    1  0.3115421E-002  0.1814429E+03  0.7818608E-02  0.1166414E+00
         -2   -1    0    0    0  501 -0.00000000000E+00  0.00000000000E+00  0.82102836723E+02  0.82102836723E+02  0.00000000000E+00 0.  1.
          2   -1    0    0  502    0  0.00000000000E+00 -0.00000000000E+00 -0.62719028033E+03  0.62719028033E+03  0.00000000000E+00 0. -1.
          6    1    1    2  502    0  0.18914653917E+02  0.54587084613E+02 -0.48553077866E+03  0.51832581545E+03  0.17200000000E+03 0. -1.
         -6    1    1    2    0  501 -0.18914653917E+02 -0.54587084613E+02 -0.59556664942E+02  0.19096730159E+03  0.17200000000E+03 0.  1.
</event>
<event>
 4    1  0.3115421E-002  0.3609145E+03  0.7818608E-02  0.1058222E+00
          2   -1    0    0  502    0  0.00000000000E+00  0.00000000000E+00  0.11980990290E+04  0.11980990290E+04  0.00000000000E+00 0. -1.
         -2   -1    0    0    0  501 -0.00000000000E+00 -0.00000000000E+00 -0.14601541381E+03  0.14601541381E+03  0.00000000000E+00 0.  1.
          6    1    1    2  502    0  0.59678308180E+02 -0.31163088170E+03  0.18639699126E+03  0.40620579175E+03  0.17200000000E+03 0. -1.
         -6    1    1    2    0  501 -0.59678308180E+02  0.31163088170E+03  0.86568662396E+03  0.93790865109E+03  0.17200000000E+03 0.  1.
</event>
<event>
 4    1  0.3115421E-002  0.1769758E+03  0.7818608E-02  0.1170762E+00
          2   -1    0    0  502    0  0.00000000000E+00  0.00000000000E+00  0.13732681606E+04  0.13732681606E+04  0.00000000000E+00 0. -1.
         -2   -1    0    0    0  501 -0.00000000000E+00 -0.00000000000E+00 -0.12445995613E+03  0.12445995613E+03  0.00000000000E+00 0.  1.
          6    1    1    2  502    0 -0.23287387050E+02 -0.34556131073E+02  0.13011843927E+04  0.13131645946E+04  0.17200000000E+03 0. -1.
         -6    1    1    2    0  501  0.23287387050E+02  0.34556131073E+02 -0.52376188305E+02  0.18456352210E+03  0.17200000000E+03 0.  1.
</event>
<event>
 4    1  0.3115421E-002  0.2259107E+03  0.7818608E-02  0.1129552E+00
          2   -1    0    0  502    0  0.00000000000E+00  0.00000000000E+00  0.21720019108E+04  0.21720019108E+04  0.00000000000E+00 0. -1.
         -2   -1    0    0    0  501 -0.00000000000E+00 -0.00000000000E+00 -0.67164501036E+02  0.67164501036E+02  0.00000000000E+00 0.  1.
          6    1    1    2  502    0 -0.12761342310E+03  0.71878206090E+02  0.19551642277E+04  0.19681724568E+04  0.17200000000E+03 0. -1.
         -6    1    1    2    0  501  0.12761342310E+03 -0.71878206090E+02  0.14967318209E+03  0.27099395510E+03  0.17200000000E+03 0.  1.
</event>
<event>
 4    1  0.3115421E-002  0.5109835E+03  0.7818608E-02  0.1010951E+00
          2   -1    0    0  502    0  0.00000000000E+00  0.00000000000E+00  0.28054868756E+04  0.28054868756E+04  0.00000000000E+00 0. -1.
         -2   -1    0    0    0  501 -0.00000000000E+00 -0.00000000000E+00 -0.16061032208E+03  0.16061032208E+03  0.00000000000E+00 0.  1.
          6    1    1    2  502    0 -0.30911567806E+03 -0.36873793693E+03  0.22841680901E+04  0.23406255643E+04  0.17200000000E+03 0. -1.
         -6    1    1    2    0  501  0.30911567806E+03  0.36873793693E+03  0.36070846345E+03  0.62547163338E+03  0.17200000000E+03 0.  1.
</event>
<event>
 4    1  0.3115421E-002  0.3309163E+03  0.7818608E-02  0.1070732E+00
          1   -1    0    0  502    0  0.00000000000E+00  0.00000000000E+00  0.22282112170E+03  0.22282112170E+03  0.00000000000E+00 0. -1.
         -1   -1    0    0    0  501 -0.00000000000E+00 -0.00000000000E+00 -0.50755288803E+03  0.50755288803E+03  0.00000000000E+00 0.  1.
          6    1    1    2  502    0 -0.28250700224E+03 -0.10552699701E+02 -0.77320129061E+02  0.33982932208E+03  0.17200000000E+03 0. -1.
         -6    1    1    2    0  501  0.28250700224E+03  0.10552699701E+02 -0.20741163727E+03  0.39054468766E+03  0.17200000000E+03 0.  1.
</event>
<event>
 4    1  0.3115421E-002  0.2376541E+03  0.7818608E-02  0.1121365E+00
          2   -1    0    0  502    0  0.00000000000E+00  0.00000000000E+00  0.59781511562E+03  0.59781511562E+03  0.00000000000E+00 0. -1.
         -2   -1    0    0    0  501 -0.00000000000E+00 -0.00000000000E+00 -0.11724879564E+03  0.11724879564E+03  0.00000000000E+00 0.  1.
          6    1    1    2  502    0 -0.12303999504E+03 -0.10842808124E+03  0.39784967363E+03  0.46342620986E+03  0.17200000000E+03 0. -1.
         -6    1    1    2    0  501  0.12303999504E+03  0.10842808124E+03  0.82716646345E+02  0.25163770140E+03  0.17200000000E+03 0.  1.
</event>
<event>
 4    1  0.3115421E-002  0.5712262E+03  0.7818608E-02  0.9966969E-01
          1   -1    0    0  502    0  0.00000000000E+00  0.00000000000E+00  0.46391488679E+03  0.46391488679E+03  0.00000000000E+00 0. -1.
         -1   -1    0    0    0  501 -0.00000000000E+00 -0.00000000000E+00 -0.75794335380E+03  0.75794335380E+03  0.00000000000E+00 0.  1.
          6    1    1    2  502    0 -0.53605903346E+03  0.96726864421E+02  0.16931777733E+02  0.57147708506E+03  0.17200000000E+03 0. -1.
         -6    1    1    2    0  501  0.53605903346E+03 -0.96726864421E+02 -0.31096024474E+03  0.65038115552E+03  0.17200000000E+03 0.  1.
</event>
<event>
 4    1  0.3115421E-002  0.3244975E+03  0.7818608E-02  0.1073598E+00
          1   -1    0    0  502    0  0.00000000000E+00  0.00000000000E+00  0.99647181553E+03  0.99647181553E+03  0.00000000000E+00 0. -1.
         -1   -1    0    0    0  501 -0.00000000000E+00 -0.00000000000E+00 -0.11491057040E+03  0.11491057040E+03  0.00000000000E+00 0.  1.
          6    1    1    2  502    0  0.12178042271E+02 -0.27489330085E+03  0.28321241209E+03  0.43070628267E+03  0.17200000000E+03 0.  1.
         -6    1    1    2    0  501 -0.12178042271E+02  0.27489330085E+03  0.59834883303E+03  0.68067610326E+03  0.17200000000E+03 0. -1.
</event>
<event>
 4    1  0.3115421E-002  0.1072090E+04  0.7818608E-02  0.9232830E-01
         -2   -1    0    0    0  501 -0.00000000000E+00  0.00000000000E+00  0.12399376225E+04  0.12399376225E+04  0.00000000000E+00 0.  1.
          2   -1    0    0  502    0  0.00000000000E+00 -0.00000000000E+00 -0.18699011306E+04  0.18699011306E+04  0.00000000000E+00 0. -1.
          6    1    1    2  502    0 -0.10582015147E+04  0.16362398064E+01 -0.14191620664E+04  0.17785944152E+04  0.17200000000E+03 0. -1.
         -6    1    1    2    0  501  0.10582015147E+04 -0.16362398064E+01  0.78919855828E+03  0.13312443379E+04  0.17200000000E+03 0.  1.
</event>
<event>
 4    1  0.3115421E-002  0.1752976E+03  0.7818608E-02  0.1172433E+00
         -1   -1    0    0    0  501 -0.00000000000E+00  0.00000000000E+00  0.34549732536E+02  0.34549732536E+02  0.00000000000E+00 0.  1.
          1   -1    0    0  502    0  0.00000000000E+00 -0.00000000000E+00 -0.16028221121E+04  0.16028221121E+04  0.00000000000E+00 0. -1.
          6    1    1    2  502    0 -0.34422809334E+01  0.33666137661E+02 -0.13303234259E+04  0.13418232654E+04  0.17200000000E+03 0. -1.
         -6    1    1    2    0  501  0.34422809334E+01 -0.33666137661E+02 -0.23794895363E+03  0.29554857918E+03  0.17200000000E+03 0.  1.
</event>
<event>
 4    1  0.3115421E-002  0.2075767E+03  0.7818608E-02  0.1143499E+00
          2   -1    0    0  502    0  0.00000000000E+00  0.00000000000E+00  0.30020822492E+04  0.30020822492E+04  0.00000000000E+00 0. -1.
         -2   -1    0    0    0  501 -0.00000000000E+00 -0.00000000000E+00 -0.54657948077E+02  0.54657948077E+02  0.00000000000E+00 0.  1.
          6    1    1    2  502    0  0.33728387628E+02 -0.11120468768E+03  0.27861613097E+04  0.27938831276E+04  0.17200000000E+03 0. -1.
         -6    1    1    2    0  501 -0.33728387628E+02  0.11120468768E+03  0.16126299136E+03  0.26285706967E+03  0.17200000000E+03 0.  1.
</event>
<event>
 4    1  0.3115421E-002  0.3200604E+03  0.7818608E-02  0.1075621E+00
          1   -1    0    0  502    0  0.00000000000E+00  0.00000000000E+00  0.27504764801E+03  0.27504764801E+03  0.00000000000E+00 0. -1.
         -1   -1    0    0    0  501 -0.00000000000E+00 -0.00000000000E+00 -0.73753685241E+03  0.73753685241E+03  0.00000000000E+00 0.  1.
          6    1    1    2  502    0  0.25616082251E+03 -0.85066518752E+02  0.12497154740E+03  0.34359360772E+03  0.17200000000E+03 0. -1.
         -6    1    1    2    0  501 -0.25616082251E+03  0.85066518752E+02 -0.58746075181E+03  0.66899089270E+03  0.17200000000E+03 0.  1.
</event>
<event>
 4    1  0.3115421E-002  0.2770176E+03  0.7818608E-02  0.1097329E+00
          1   -1    0    0  502    0  0.00000000000E+00  0.00000000000E+00  0.27508128258E+03  0.27508128258E+03  0.00000000000E+00 0. -1.
         -1   -1    0    0    0  501 -0.00000000000E+00 -0.00000000000E+00 -0.39443939288E+03  0.39443939288E+03  0.00000000000E+00 0.  1.
          6    1    1    2  502    0  0.19281105239E+03  0.99893068903E+02  0.12144747660E+03  0.30247019144E+03  0.17200000000E+03 0. -1.
         -6    1    1    2    0  501 -0.19281105239E+03 -0.99893068903E+02 -0.24080558690E+03  0.36705048402E+03  0.17200000000E+03 0.  1.
</event>
<event>
 4    1  0.3115421E-002  0.3612729E+03  0.7818608E-02  0.1058081E+00
          2   -1    0    0  502    0  0.00000000000E+00  0.00000000000E+00  0.14945474443E+04  0.14945474443E+04  0.00000000000E+00 0. -1.
         -2   -1    0    0    0  501 -0.00000000000E+00 -0.00000000000E+00 -0.88903947788E+02  0.88903947788E+02  0.00000000000E+00 0.  1.
          6    1    1    2  502    0  0.27969997305E+03  0.15067185960E+03  0.80818230500E+03  0.88525517356E+03  0.17200000000E+03 0.  1.
         -6    1    1    2    0  501 -0.27969997305E+03 -0.15067185960E+03  0.59746119148E+03  0.69819621850E+03  0.17200000000E+03 0. -1.
</event>
<event>
 4    1  0.3115421E-002  0.2345616E+03  0.7818608E-02  0.1123470E+00
         -2   -1    0    0    0  501 -0.00000000000E+00  0.00000000000E+00  0.18686474454E+03  0.18686474454E+03  0.00000000000E+00 0.  1.
          2   -1    0    0  502    0  0.00000000000E+00 -0.00000000000E+00 -0.29877507431E+03  0.29877507431E+03  0.00000000000E+00 0. -1.
          6    1    1    2  502    0 -0.15299264648E+03  0.45037887462E+02 -0.85227477182E+02  0.24956539033E+03  0.17200000000E+03 0. -1.
         -6    1    1    2    0  501  0.15299264648E+03 -0.45037887462E+02 -0.26682852589E+02  0.23607442853E+03  0.17200000000E+03 0.  1.
</event>
<event>
 4    1  0.3115421E-002  0.1802785E+03  0.7818608E-02  0.1167534E+00
         -1   -1    0    0    0  501 -0.00000000000E+00  0.00000000000E+00  0.18921500721E+03  0.18921500721E+03  0.00000000000E+00 0.  1.
          1   -1    0    0  502    0  0.00000000000E+00 -0.00000000000E+00 -0.23896646473E+03  0.23896646473E+03  0.00000000000E+00 0. -1.
          6    1    1    2  502    0  0.53715964547E+02  0.55606932989E+01  0.88657242115E+02  0.20089906106E+03  0.17200000000E+03 0.  1.
         -6    1    1    2    0  501 -0.53715964547E+02 -0.55606932989E+01 -0.13840869964E+03  0.22728241088E+03  0.17200000000E+03 0. -1.
</event>
<event>
 4    1  0.3115421E-002  0.2548848E+03  0.7818608E-02  0.1110256E+00
         -2   -1    0    0    0  501 -0.00000000000E+00  0.00000000000E+00  0.66747924808E+02  0.66747924808E+02  0.00000000000E+00 0.  1.
          2   -1    0    0  502    0  0.00000000000E+00 -0.00000000000E+00 -0.12266338195E+04  0.12266338195E+04  0.00000000000E+00 0. -1.
          6    1    1    2  502    0  0.18696998247E+03 -0.20602882157E+02 -0.28605656993E+03  0.38313785287E+03  0.17200000000E+03 0. -1.
         -6    1    1    2    0  501 -0.18696998247E+03  0.20602882157E+02 -0.87382932476E+03  0.91024389144E+03  0.17200000000E+03 0.  1.
</event>
<event>
 4    1  0.3115421E-002  0.2743465E+03  0.7818608E-02  0.1098817E+00
          1   -1    0    0  502    0  0.00000000000E+00  0.00000000000E+00  0.73002086493E+02  0.73002086493E+02  0.00000000000E+00 0. -1.
         -1   -1    0    0    0  501 -0.00000000000E+00 -0.00000000000E+00 -0.10497440882E+04  0.10497440882E+04  0.00000000000E+00 0.  1.
          6    1    1    2  502    0  0.13612514975E+03  0.16477840165E+03 -0.41337971988E+03  0.49613382354E+03  0.17200000000E+03 0.  1.
         -6    1    1    2    0  501 -0.13612514975E+03 -0.16477840165E+03 -0.56336228185E+03  0.62661235118E+03  0.17200000000E+03 0.  1.
</event>
<event>
 4    1  0.3115421E-002  0.3917860E+03  0.7818608E-02  0.1046662E+00
         -2   -1    0    0    0  501 -0.00000000000E+00  0.00000000000E+00  0.16935315245E+03  0.16935315245E+03  0.00000000000E+00 0.  1.
          2   -1    0    0  502    0  0.00000000000E+00 -0.00000000000E+00 -0.14422959601E+04  0.14422959601E+04  0.00000000000E+00 0. -1.
          6    1    1    2  502    0  0.10961240648E+03  0.33451073052E+03 -0.14526226388E+03  0.41784857759E+03  0.17200000000E+03 0.  1.
         -6    1    1    2    0  501 -0.10961240648E+03 -0.33451073052E+03 -0.11276805438E+04  0.11938005350E+04  0.17200000000E+03 0.  1.
</event>
<event>
 4    1  0.3115421E-002  0.3065091E+03  0.7818608E-02  0.1082031E+00
         -1   -1    0    0    0  501 -0.00000000000E+00  0.00000000000E+00  0.18277879473E+03  0.18277879473E+03  0.00000000000E+00 0.  1.
          1   -1    0    0  502    0  0.00000000000E+00 -0.00000000000E+00 -0.11290005046E+04  0.11290005046E+04  0.00000000000E+00 0. -1.
          6    1    1    2  502    0  0.18228928389E+03 -0.17644952910E+03 -0.95719669016E+03  0.10050737898E+04  0.17200000000E+03 0. -1.
         -6    1    1    2    0  501 -0.18228928389E+03  0.17644952910E+03  0.10974980327E+02  0.30670550946E+03  0.17200000000E+03 0.  1.
</event>
<event>
 4    1  0.3115421E-002  0.2527653E+03  0.7818608E-02  0.1111570E+00
         -1   -1    0    0    0  501 -0.00000000000E+00  0.00000000000E+00  0.16105484439E+03  0.16105484439E+03  0.00000000000E+00 0.  1.
          1   -1    0    0  502    0  0.00000000000E+00 -0.00000000000E+00 -0.49317201553E+03  0.49317201553E+03  0.00000000000E+00 0. -1.
          6    1    1    2  502    0 -0.12078299976E+03  0.14041990737E+03 -0.31073650715E+03  0.40055893485E+03  0.17200000000E+03 0. -1.
         -6    1    1    2    0  501  0.12078299976E+03 -0.14041990737E+03 -0.21380663993E+02  0.25366792507E+03  0.17200000000E+03 0.  1.
</event>
<event>
 4    1  0.3115421E-002  0.2083725E+03  0.7818608E-02  0.1142861E+00
          2   -1    0    0  502    0  0.00000000000E+00  0.00000000000E+00  0.51682994344E+03  0.51682994344E+03  0.00000000000E+00 0. -1.
         -2   -1    0    0    0  501 -0.00000000000E+00 -0.00000000000E+00 -0.20565728337E+03  0.20565728337E+03  0.00000000000E+00 0.  1.
          6    1    1    2  502    0  0.94162976838E+02  0.70487183756E+02 -0.12224329840E+03  0.24158338785E+03  0.17200000000E+03 0.  1.
         -6    1    1    2    0  501 -0.94162976838E+02 -0.70487183756E+02  0.43341595846E+03  0.48090383897E+03  0.17200000000E+03 0. -1.
</event>
<event>
 4    1  0.3115421E-002  0.2121493E+03  0.7818608E-02  0.1139875E+00
          2   -1    0    0  502    0  0.00000000000E+00  0.00000000000E+00  0.87971961866E+02  0.87971961866E+02  0.00000000000E+00 0. -1.
         -2   -1    0    0    0  501 -0.00000000000E+00 -0.00000000000E+00 -0.54940321306E+03  0.54940321306E+03  0.00000000000E+00 0.  1.
          6    1    1    2  502    0  0.69259564013E+02 -0.10308454759E+03 -0.14713068409E+03  0.25817581095E+03  0.17200000000E+03 0. -1.
         -6    1    1    2    0  501 -0.69259564013E+02  0.10308454759E+03 -0.31430056711E+03  0.37919936398E+03  0.17200000000E+03 0.  1.
</event>
<event>
 4    1  0.3115421E-002  0.1999318E+03  0.7818608E-02  0.1149797E+00
         -2   -1    0    0    0  501 -0.00000000000E+00  0.00000000000E+00  0.67533074870E+02  0.67533074870E+02  0.00000000000E+00 0.  1.
          2   -1    0    0  502    0  0.00000000000E+00 -0.00000000000E+00 -0.70770515243E+03  0.70770515243E+03  0.00000000000E+00 0. -1.
          6    1    1    2  502    0  0.43102989364E+02  0.92362671988E+02 -0.16328619840E+03  0.25813777999E+03  0.17200000000E+03 0.  1.
         -6    1    1    2    0  501 -0.43102989364E+02 -0.92362671988E+02 -0.47688587916E+03  0.51710044731E+03  0.17200000000E+03 0. -1.
</event>
<event>
 4    1  0.3115421E-002  0.1803218E+03  0.7818608E-02  0.1167492E+00
          2   -1    0    0  502    0  0.00000000000E+00  0.00000000000E+00  0.12336125683E+04  0.12336125683E+04  0.00000000000E+00 0. -1.
         -2   -1    0    0    0  501 -0.00000000000E+00 -0.00000000000E+00 -0.26362193074E+02  0.26362193074E+02  0.00000000000E+00 0.  1.
          6    1    1    2  502    0  0.28727277731E+02 -0.45898645755E+02  0.61127135414E+03  0.63731358887E+03  0.17200000000E+03 0. -1.
         -6    1    1    2    0  501 -0.28727277731E+02  0.45898645755E+02  0.59597902109E+03  0.62266117251E+03  0.17200000000E+03 0.  1.
</event>
<event>
 4    1  0.3115421E-002  0.2901315E+03  0.7818608E-02  0.1090280E+00
         -1   -1    0    0    0  501 -0.00000000000E+00  0.00000000000E+00  0.86110811318E+02  0.86110811318E+02  0.00000000000E+00 0.  1.
          1   -1    0    0  502    0  0.00000000000E+00 -0.00000000000E+00 -0.97905825723E+03  0.97905825723E+03  0.00000000000E+00 0. -1.
          6    1    1    2  502    0  0.23266193505E+03  0.21464666856E+02 -0.46748297690E+03  0.55019691170E+03  0.17200000000E+03 0. -1.
         -6    1    1    2    0  501 -0.23266193505E+03 -0.21464666856E+02 -0.42546446901E+03  0.51497215685E+03  0.17200000000E+03 0.  1.
</event>
<event>
 4    1  0.3115421E-002  0.2152642E+03  0.7818608E-02  0.1137464E+00
          2   -1    0    0  502    0  0.00000000000E+00  0.00000000000E+00  0.21683777838E+04  0.21683777838E+04  0.00000000000E+00 0. -1.
         -2   -1    0    0    0  501 -0.00000000000E+00 -0.00000000000E+00 -0.22398966449E+02  0.22398966449E+02  0.00000000000E+00 0.  1.
          6    1    1    2  502    0 -0.20696759113E+02 -0.12777452994E+03  0.83823668310E+03  0.86543597292E+03  0.17200000000E+03 0. -1.
         -6    1    1    2    0  501  0.20696759113E+02  0.12777452994E+03  0.13077421342E+04  0.13253407773E+04  0.17200000000E+03 0. -1.
</event>
<event>
 4    1  0.3115421E-002  0.2734026E+03  0.7818608E-02  0.1099348E+00
          2   -1    0    0  502    0  0.00000000000E+00  0.00000000000E+00  0.16302457216E+04  0.16302457216E+04  0.00000000000E+00 0. -1.
         -2   -1    0    0    0  501 -0.00000000000E+00 -0.00000000000E+00 -0.91551073078E+02  0.91551073078E+02  0.00000000000E+00 0.  1.
          6    1    1    2  502    0 -0.34265614235E+02 -0.20973999472E+03  0.13775899818E+04  0.14044583140E+04  0.17200000000E+03 0. -1.
         -6    1    1    2    0  501  0.34265614235E+02  0.20973999472E+03  0.16110466673E+03  0.31733848073E+03  0.17200000000E+03 0.  1.
</event>
<event>
 4    1  0.3115421E-002  0.1955319E+03  0.7818608E-02  0.1153564E+00
         -2   -1    0    0    0  501 -0.00000000000E+00  0.00000000000E+00  0.18047907023E+03  0.18047907023E+03  0.00000000000E+00 0.  1.
          2   -1    0    0  502    0  0.00000000000E+00 -0.00000000000E+00 -0.71876018897E+03  0.71876018897E+03  0.00000000000E+00 0. -1.
          6    1    1    2  502    0 -0.30264255913E+02  0.87936279968E+02 -0.64673273235E+03  0.67564483393E+03  0.17200000000E+03 0. -1.
         -6    1    1    2    0  501  0.30264255913E+02 -0.87936279968E+02  0.10845161361E+03  0.22359442528E+03  0.17200000000E+03 0.  1.
</event>
<event>
 4    1  0.3115421E-002  0.1750051E+03  0.7818608E-02  0.1172727E+00
          4   -1    0    0  502    0  0.00000000000E+00  0.00000000000E+00  0.34737506265E+03  0.34737506265E+03  0.00000000000E+00 0. -1.
         -4   -1    0    0    0  501 -0.00000000000E+00 -0.00000000000E+00 -0.95429536600E+02  0.95429536600E+02  0.00000000000E+00 0.  1.
          6    1    1    2  502    0  0.30974185273E+02  0.91315770911E+01  0.18705357396E+03  0.25615586151E+03  0.17200000000E+03 0. -1.
         -6    1    1    2    0  501 -0.30974185273E+02 -0.91315770911E+01  0.64891952084E+02  0.18664873774E+03  0.17200000000E+03 0.  1.
</event>
<event>
 4    1  0.3115421E-002  0.1783297E+03  0.7818608E-02  0.1169429E+00
          4   -1    0    0  502    0  0.00000000000E+00  0.00000000000E+00  0.43429727785E+02  0.43429727785E+02  0.00000000000E+00 0. -1.
         -4   -1    0    0    0  501 -0.00000000000E+00 -0.00000000000E+00 -0.73235259749E+03  0.73235259749E+03  0.00000000000E+00 0.  1.
          6    1    1    2  502    0 -0.47082004984E+02  0.87039925195E+00 -0.33989854533E+03  0.38383915109E+03  0.17200000000E+03 0. -1.
         -6    1    1    2    0  501  0.47082004984E+02 -0.87039925195E+00 -0.34902432437E+03  0.39194317419E+03  0.17200000000E+03 0.  1.
</event>
<event>
 4    1  0.3115421E-002  0.2054892E+03  0.7818608E-02  0.1145189E+00
         -2   -1    0    0    0  501 -0.00000000000E+00  0.00000000000E+00  0.18188400866E+03  0.18188400866E+03  0.00000000000E+00 0.  1.
          2   -1    0    0  502    0  0.00000000000E+00 -0.00000000000E+00 -0.23269630199E+03  0.23269630199E+03  0.00000000000E+00 0. -1.
          6    1    1    2  502    0  0.11181177200E+03  0.11829477774E+02 -0.35377143446E+02  0.20851223269E+03  0.17200000000E+03 0. -1.
         -6    1    1    2    0  501 -0.11181177200E+03 -0.11829477774E+02 -0.15435149880E+02  0.20606807796E+03  0.17200000000E+03 0. -1.
</event>
<event>
 4    1  0.3115421E-002  0.2124922E+03  0.7818608E-02  0.1139608E+00
         -2   -1    0    0    0  501 -0.00000000000E+00  0.00000000000E+00  0.21096950435E+03  0.21096950435E+03  0.00000000000E+00 0.  1.
          2   -1    0    0  502    0  0.00000000000E+00 -0.00000000000E+00 -0.21529462364E+03  0.21529462364E+03  0.00000000000E+00 0. -1.
          6    1    1    2  502    0 -0.11140052443E+03 -0.56203556041E+02 -0.18524437452E+02  0.21329808095E+03  0.17200000000E+03 0. -1.
         -6    1    1    2    0  501  0.11140052443E+03  0.56203556041E+02  0.14199318168E+02  0.21296604704E+03  0.17200000000E+03 0.  1.
</event>
<event>
 4    1  0.3115421E-002  0.2841422E+03  0.7818608E-02  0.1093448E+00
          2   -1    0    0  502    0  0.00000000000E+00  0.00000000000E+00  0.19867182317E+04  0.19867182317E+04  0.00000000000E+00 0. -1.
         -2   -1    0    0    0  501 -0.00000000000E+00 -0.00000000000E+00 -0.42134244924E+02  0.42134244924E+02  0.00000000000E+00 0.  1.
          6    1    1    2  502    0  0.14061545873E+03 -0.17714420061E+03  0.11634384516E+04  0.11976334188E+04  0.17200000000E+03 0. -1.
         -6    1    1    2    0  501 -0.14061545873E+03  0.17714420061E+03  0.78114553513E+03  0.83121905782E+03  0.17200000000E+03 0.  1.
</event>
<event>
 4    1  0.3115421E-002  0.1804172E+03  0.7818608E-02  0.1167400E+00
         -2   -1    0    0    0  501 -0.00000000000E+00  0.00000000000E+00  0.33020367873E+02  0.33020367873E+02  0.00000000000E+00 0.  1.
          2   -1    0    0  502    0  0.00000000000E+00 -0.00000000000E+00 -0.10705137953E+04  0.10705137953E+04  0.00000000000E+00 0. -1.
          6    1    1    2  502    0  0.48018049851E+02 -0.25702908367E+02 -0.67399348074E+03  0.69772314329E+03  0.17200000000E+03 0. -1.
         -6    1    1    2    0  501 -0.48018049851E+02  0.25702908367E+02 -0.36349994665E+03  0.40581101984E+03  0.17200000000E+03 0.  1.
</event>
<event>
 4    1  0.3115421E-002  0.3711529E+03  0.7818608E-02  0.1054253E+00
         -2   -1    0    0    0  501 -0.00000000000E+00  0.00000000000E+00  0.11493461662E+03  0.11493461662E+03  0.00000000000E+00 0.  1.
          2   -1    0    0  502    0  0.00000000000E+00 -0.00000000000E+00 -0.12117032093E+04  0.12117032093E+04  0.00000000000E+00 0. -1.
          6    1    1    2  502    0  0.32435368532E+03 -0.54453304171E+02 -0.61750352622E+03  0.72046171335E+03  0.17200000000E+03 0. -1.
         -6    1    1    2    0  501 -0.32435368532E+03  0.54453304171E+02 -0.47926506651E+03  0.60617611260E+03  0.17200000000E+03 0.  1.
</event>
<event>
 4    1  0.3115421E-002  0.2233524E+03  0.7818608E-02  0.1131408E+00
          1   -1    0    0  502    0  0.00000000000E+00  0.00000000000E+00  0.91213866473E+03  0.91213866473E+03  0.00000000000E+00 0. -1.
         -1   -1    0    0    0  501 -0.00000000000E+00 -0.00000000000E+00 -0.58421232122E+02  0.58421232122E+02  0.00000000000E+00 0.  1.
          6    1    1    2  502    0  0.47795203289E+02 -0.13423088184E+03  0.30424452205E+03  0.37742686748E+03  0.17200000000E+03 0. -1.
         -6    1    1    2    0  501 -0.47795203289E+02  0.13423088184E+03  0.54947291056E+03  0.59313302938E+03  0.17200000000E+03 0. -1.
</event>
<event>
 4    1  0.3115421E-002  0.3367349E+03  0.7818608E-02  0.1068195E+00
          1   -1    0    0  502    0  0.00000000000E+00  0.00000000000E+00  0.14472669344E+04  0.14472669344E+04  0.00000000000E+00 0. -1.
         -1   -1    0    0    0  501 -0.00000000000E+00 -0.00000000000E+00 -0.24326279699E+03  0.24326279699E+03  0.00000000000E+00 0.  1.
          6    1    1    2  502    0  0.25237455190E+03 -0.14182204431E+03  0.12979629656E+04  0.13409318651E+04  0.17200000000E+03 0. -1.
         -6    1    1    2    0  501 -0.25237455190E+03  0.14182204431E+03 -0.93958828239E+02  0.34959786627E+03  0.17200000000E+03 0.  1.
</event>
<event>
 4    1  0.3115421E-002  0.5020363E+03  0.7818608E-02  0.1013249E+00
         -1   -1    0    0    0  501 -0.00000000000E+00  0.00000000000E+00  0.11614120081E+04  0.11614120081E+04  0.00000000000E+00 0.  1.
          1   -1    0    0  502    0  0.00000000000E+00 -0.00000000000E+00 -0.42869384206E+03  0.42869384206E+03  0.00000000000E+00 0. -1.
          6    1    1    2  502    0 -0.34937258112E+02 -0.47035716382E+03 -0.19232217785E+03  0.53761351699E+03  0.17200000000E+03 0. -1.
         -6    1    1    2    0  501  0.34937258112E+02  0.47035716382E+03  0.92504034390E+03  0.10524923332E+04  0.17200000000E+03 0.  1.
</event>
<event>
 4    1  0.3115421E-002  0.3884750E+03  0.7818608E-02  0.1047845E+00
          1   -1    0    0  502    0  0.00000000000E+00  0.00000000000E+00  0.33673323473E+03  0.33673323473E+03  0.00000000000E+00 0. -1.
         -1   -1    0    0    0  501 -0.00000000000E+00 -0.00000000000E+00 -0.12593403853E+04  0.12593403853E+04  0.00000000000E+00 0.  1.
          6    1    1    2  502    0  0.32834696449E+03  0.11626299352E+03  0.17918020219E+03  0.42780644877E+03  0.17200000000E+03 0. -1.
         -6    1    1    2    0  501 -0.32834696449E+03 -0.11626299352E+03 -0.11017873528E+04  0.11682671713E+04  0.17200000000E+03 0.  1.
</event>
<event>
 4    1  0.3115421E-002  0.2285644E+03  0.7818608E-02  0.1127654E+00
         -2   -1    0    0    0  501 -0.00000000000E+00  0.00000000000E+00  0.10627555569E+03  0.10627555569E+03  0.00000000000E+00 0.  1.
          2   -1    0    0  502    0  0.00000000000E+00 -0.00000000000E+00 -0.73787304472E+03  0.73787304472E+03  0.00000000000E+00 0. -1.
          6    1    1    2  502    0 -0.13472003426E+03 -0.67143198065E+02 -0.71942177697E+02  0.23961922629E+03  0.17200000000E+03 0.  1.
         -6    1    1    2    0  501  0.13472003426E+03  0.67143198065E+02 -0.55965531133E+03  0.60452937412E+03  0.17200000000E+03 0. -1.
</event>
<event>
 4    1  0.3115421E-002  0.3198215E+03  0.7818608E-02  0.1075732E+00
         -2   -1    0    0    0  501 -0.00000000000E+00  0.00000000000E+00  0.72177175502E+02  0.72177175502E+02  0.00000000000E+00 0.  1.
          2   -1    0    0  502    0  0.00000000000E+00 -0.00000000000E+00 -0.23495817332E+04  0.23495817332E+04  0.00000000000E+00 0. -1.
          6    1    1    2  502    0  0.19726280120E+03 -0.18381824947E+03 -0.19015090690E+04  0.19282174414E+04  0.17200000000E+03 0. -1.
         -6    1    1    2    0  501 -0.19726280120E+03  0.18381824947E+03 -0.37589548864E+03  0.49354146731E+03  0.17200000000E+03 0.  1.
</event>
<event>
 4    1  0.3115421E-002  0.1867640E+03  0.7818608E-02  0.1161413E+00
         -2   -1    0    0    0  501 -0.00000000000E+00  0.00000000000E+00  0.13897678768E+03  0.13897678768E+03  0.00000000000E+00 0.  1.
          2   -1    0    0  502    0  0.00000000000E+00 -0.00000000000E+00 -0.94133670408E+03  0.94133670408E+03  0.00000000000E+00 0. -1.
          6    1    1    2  502    0  0.56613200983E+02 -0.45735312278E+02 -0.86375609318E+03  0.88371678824E+03  0.17200000000E+03 0. -1.
         -6    1    1    2    0  501 -0.56613200983E+02  0.45735312278E+02  0.61396176779E+02  0.19659670353E+03  0.17200000000E+03 0.  1.
</event>
<event>
 4    1  0.3115421E-002  0.2846562E+03  0.7818608E-02  0.1093173E+00
         -1   -1    0    0    0  501 -0.00000000000E+00  0.00000000000E+00  0.29606364532E+03  0.29606364532E+03  0.00000000000E+00 0.  1.
          1   -1    0    0  502    0  0.00000000000E+00 -0.00000000000E+00 -0.29226023650E+03  0.29226023650E+03  0.00000000000E+00 0. -1.
          6    1    1    2  502    0 -0.20458188883E+03  0.97935759978E+02 -0.72251505159E+02  0.29368255365E+03  0.17200000000E+03 0. -1.
         -6    1    1    2    0  501  0.20458188883E+03 -0.97935759978E+02  0.76054913978E+02  0.29464132816E+03  0.17200000000E+03 0.  1.
</event>
<event>
 4    1  0.3115421E-002  0.1761854E+03  0.7818608E-02  0.1171547E+00
         -2   -1    0    0    0  501 -0.00000000000E+00  0.00000000000E+00  0.78653792568E+02  0.78653792568E+02  0.00000000000E+00 0.  1.
          2   -1    0    0  502    0  0.00000000000E+00 -0.00000000000E+00 -0.80326826056E+03  0.80326826056E+03  0.00000000000E+00 0. -1.
          6    1    1    2  502    0  0.17251411169E+02  0.34054267003E+02 -0.67681026542E+03  0.69936645592E+03  0.17200000000E+03 0. -1.
         -6    1    1    2    0  501 -0.17251411169E+02 -0.34054267003E+02 -0.47804202571E+02  0.18255559721E+03  0.17200000000E+03 0.  1.
</event>
<event>
 4    1  0.3115421E-002  0.3063258E+03  0.7818608E-02  0.1082120E+00
         -3   -1    0    0    0  501 -0.00000000000E+00  0.00000000000E+00  0.33017258636E+03  0.33017258636E+03  0.00000000000E+00 0.  1.
          3   -1    0    0  502    0  0.00000000000E+00 -0.00000000000E+00 -0.35875093056E+03  0.35875093056E+03  0.00000000000E+00 0. -1.
          6    1    1    2  502    0  0.45140947863E+02  0.24942687700E+03 -0.17131362829E+03  0.35097554242E+03  0.17200000000E+03 0. -1.
         -6    1    1    2    0  501 -0.45140947863E+02 -0.24942687700E+03  0.14273528408E+03  0.33794797449E+03  0.17200000000E+03 0.  1.
</event>
<event>
 4    1  0.3115421E-002  0.3707953E+03  0.7818608E-02  0.1054389E+00
         -1   -1    0    0    0  501 -0.00000000000E+00  0.00000000000E+00  0.77370453283E+02  0.77370453283E+02  0.00000000000E+00 0.  1.
          1   -1    0    0  502    0  0.00000000000E+00 -0.00000000000E+00 -0.17894022333E+04  0.17894022333E+04  0.00000000000E+00 0. -1.
          6    1    1    2  502    0 -0.32813130562E+03 -0.15329702052E+02 -0.93364713193E+03  0.10045825603E+04  0.17200000000E+03 0.  1.
         -6    1    1    2    0  501  0.32813130562E+03  0.15329702052E+02 -0.77838464811E+03  0.86219012631E+03  0.17200000000E+03 0. -1.
</event>
<event>
 4    1  0.3115421E-002  0.1940596E+03  0.7818608E-02  0.1154850E+00
          2   -1    0    0  502    0  0.00000000000E+00  0.00000000000E+00  0.32496307897E+03  0.32496307897E+03  0.00000000000E+00 0. -1.
         -2   -1    0    0    0  501 -0.00000000000E+00 -0.00000000000E+00 -0.11686286412E+03  0.11686286412E+03  0.00000000000E+00 0.  1.
          6    1    1    2  502    0  0.47669487962E+02 -0.76175805934E+02  0.83867201783E+02  0.21140681405E+03  0.17200000000E+03 0. -1.
         -6    1    1    2    0  501 -0.47669487962E+02  0.76175805934E+02  0.12423301307E+03  0.23041912904E+03  0.17200000000E+03 0.  1.
</event>
<event>
 4    1  0.3115421E-002  0.2048374E+03  0.7818608E-02  0.1145721E+00
          1   -1    0    0  502    0  0.00000000000E+00  0.00000000000E+00  0.11461901667E+04  0.11461901667E+04  0.00000000000E+00 0. -1.
         -1   -1    0    0    0  501 -0.00000000000E+00 -0.00000000000E+00 -0.36608261569E+02  0.36608261569E+02  0.00000000000E+00 0.  1.
          6    1    1    2  502    0  0.10216868382E+03 -0.43998906529E+02  0.55104249180E+03  0.58788278721E+03  0.17200000000E+03 0.  1.
         -6    1    1    2    0  501 -0.10216868382E+03  0.43998906529E+02  0.55853941330E+03  0.59491564103E+03  0.17200000000E+03 0.  1.
</event>
<event>
 4    1  0.3115421E-002  0.2028929E+03  0.7818608E-02  0.1147321E+00
         -2   -1    0    0    0  501 -0.00000000000E+00  0.00000000000E+00  0.83102841907E+02  0.83102841907E+02  0.00000000000E+00 0.  1.
          2   -1    0    0  502    0  0.00000000000E+00 -0.00000000000E+00 -0.52262267348E+03  0.52262267348E+03  0.00000000000E+00 0. -1.
          6    1    1    2  502    0  0.33502566978E+02 -0.10226980516E+03 -0.28893722115E+03  0.35305842690E+03  0.17200000000E+03 0.  1.
         -6    1    1    2    0  501 -0.33502566978E+02  0.10226980516E+03 -0.15058261042E+03  0.25266708848E+03  0.17200000000E+03 0.  1.
</event>
<event>
 4    1  0.3115421E-002  0.6080949E+03  0.7818608E-02  0.9888752E-01
          1   -1    0    0  502    0  0.00000000000E+00  0.00000000000E+00  0.25236243092E+04  0.25236243092E+04  0.00000000000E+00 0. -1.
         -1   -1    0    0    0  501 -0.00000000000E+00 -0.00000000000E+00 -0.14653101187E+03  0.14653101187E+03  0.00000000000E+00 0.  1.
          6    1    1    2  502    0  0.38915405025E+03  0.43445896374E+03  0.11816885925E+04  0.13289723080E+04  0.17200000000E+03 0. -1.
         -6    1    1    2    0  501 -0.38915405025E+03 -0.43445896374E+03  0.11954047049E+04  0.13411830130E+04  0.17200000000E+03 0.  1.
</event>
<event>
 4    1  0.3115421E-002  0.2227170E+03  0.7818608E-02  0.1131873E+00
          1   -1    0    0  502    0  0.00000000000E+00  0.00000000000E+00  0.60851932938E+03  0.60851932938E+03  0.00000000000E+00 0. -1.
         -1   -1    0    0    0  501 -0.00000000000E+00 -0.00000000000E+00 -0.87044301898E+02  0.87044301898E+02  0.00000000000E+00 0.  1.
          6    1    1    2  502    0  0.13586190973E+03 -0.39502109578E+02  0.17307596381E+03  0.28206056872E+03  0.17200000000E+03 0.  1.
         -6    1    1    2    0  501 -0.13586190973E+03  0.39502109578E+02  0.34839906367E+03  0.41350306256E+03  0.17200000000E+03 0.  1.
</event>
<event>
 4    1  0.3115421E-002  0.2778297E+03  0.7818608E-02  0.1096880E+00
          1   -1    0    0  502    0  0.00000000000E+00  0.00000000000E+00  0.11410492157E+04  0.11410492157E+04  0.00000000000E+00 0. -1.
         -1   -1    0    0    0  501 -0.00000000000E+00 -0.00000000000E+00 -0.73391600393E+02  0.73391600393E+02  0.00000000000E+00 0.  1.
          6    1    1    2  502    0  0.15234881660E+03  0.15618951379E+03  0.70370307139E+03  0.75656284526E+03  0.17200000000E+03 0. -1.
         -6    1    1    2    0  501 -0.15234881660E+03 -0.15618951379E+03  0.36395454392E+03  0.45787797084E+03  0.17200000000E+03 0.  1.
</event>
<event>
 4    1  0.3115421E-002  0.1733840E+03  0.7818608E-02  0.1174364E+00
          2   -1    0    0  502    0  0.00000000000E+00  0.00000000000E+00  0.12178595797E+04  0.12178595797E+04  0.00000000000E+00 0. -1.
         -2   -1    0    0    0  501 -0.00000000000E+00 -0.00000000000E+00 -0.36429951222E+02  0.36429951222E+02  0.00000000000E+00 0.  1.
          6    1    1    2  502    0  0.17476430308E+02 -0.13137846683E+02  0.94681876580E+03  0.96256314281E+03  0.17200000000E+03 0. -1.
         -6    1    1    2    0  501 -0.17476430308E+02  0.13137846683E+02  0.23461086268E+03  0.29172638811E+03  0.17200000000E+03 0.  1.
</event>
<event>
 4    1  0.3115421E-002  0.2005069E+03  0.7818608E-02  0.1149312E+00
         -2   -1    0    0    0  501 -0.00000000000E+00  0.00000000000E+00  0.20850717700E+03  0.20850717700E+03  0.00000000000E+00 0.  1.
          2   -1    0    0  502    0  0.00000000000E+00 -0.00000000000E+00 -0.20302645207E+03  0.20302645207E+03  0.00000000000E+00 0. -1.
          6    1    1    2  502    0  0.10084503704E+03 -0.21196812674E+02 -0.43409651276E+02  0.20515219762E+03  0.17200000000E+03 0. -1.
         -6    1    1    2    0  501 -0.10084503704E+03  0.21196812674E+02  0.48890376202E+02  0.20638143145E+03  0.17200000000E+03 0.  1.
</event>
<event>
 4    1  0.3115421E-002  0.2927767E+03  0.7818608E-02  0.1088908E+00
         -2   -1    0    0    0  501 -0.00000000000E+00  0.00000000000E+00  0.25520628386E+03  0.25520628386E+03  0.00000000000E+00 0.  1.
          2   -1    0    0  502    0  0.00000000000E+00 -0.00000000000E+00 -0.36921417748E+03  0.36921417748E+03  0.00000000000E+00 0. -1.
          6    1    1    2  502    0  0.20513421754E+03 -0.11855026351E+03 -0.15081735786E+03  0.32933886442E+03  0.17200000000E+03 0. -1.
         -6    1    1    2    0  501 -0.20513421754E+03  0.11855026351E+03  0.36809464245E+02  0.29508159692E+03  0.17200000000E+03 0.  1.
</event>
<event>
 4    1  0.3115421E-002  0.1898829E+03  0.7818608E-02  0.1158567E+00
         -2   -1    0    0    0  501 -0.00000000000E+00  0.00000000000E+00  0.17889028790E+02  0.17889028790E+02  0.00000000000E+00 0.  1.
          2   -1    0    0  502    0  0.00000000000E+00 -0.00000000000E+00 -0.39153046764E+04  0.39153046764E+04  0.00000000000E+00 0. -1.
          6    1    1    2  502    0 -0.63678665043E+02 -0.49158264729E+02 -0.33185986243E+04  0.33240265247E+04  0.17200000000E+03 0. -1.
         -6    1    1    2    0  501  0.63678665043E+02  0.49158264729E+02 -0.57881702328E+03  0.60916718051E+03  0.17200000000E+03 0.  1.
</event>
<event>
 4    1  0.3115421E-002  0.1893525E+03  0.7818608E-02  0.1159047E+00
          1   -1    0    0  502    0  0.00000000000E+00  0.00000000000E+00  0.70240869539E+03  0.70240869539E+03  0.00000000000E+00 0. -1.
         -1   -1    0    0    0  501 -0.00000000000E+00 -0.00000000000E+00 -0.59434870927E+02  0.59434870927E+02  0.00000000000E+00 0.  1.
          6    1    1    2  502    0 -0.47794918936E+02  0.63134869336E+02  0.46460546963E+03  0.50170968538E+03  0.17200000000E+03 0. -1.
         -6    1    1    2    0  501  0.47794918936E+02 -0.63134869336E+02  0.17836835484E+03  0.26013388093E+03  0.17200000000E+03 0.  1.
</event>
<event>
 4    1  0.3115421E-002  0.2306145E+03  0.7818608E-02  0.1126208E+00
          1   -1    0    0  502    0  0.00000000000E+00  0.00000000000E+00  0.43873167933E+02  0.43873167933E+02  0.00000000000E+00 0. -1.
         -1   -1    0    0    0  501 -0.00000000000E+00 -0.00000000000E+00 -0.12152519025E+04  0.12152519025E+04  0.00000000000E+00 0.  1.
          6    1    1    2  502    0  0.14649928058E+03  0.46228011876E+02 -0.61723709915E+03  0.65891175802E+03  0.17200000000E+03 0.  1.
         -6    1    1    2    0  501 -0.14649928058E+03 -0.46228011876E+02 -0.55414163543E+03  0.60021331243E+03  0.17200000000E+03 0.  1.
</event>
<event>
 4    1  0.3115421E-002  0.2073516E+03  0.7818608E-02  0.1143681E+00
         -1   -1    0    0    0  501 -0.00000000000E+00  0.00000000000E+00  0.51985339653E+02  0.51985339653E+02  0.00000000000E+00 0.  1.
          1   -1    0    0  502    0  0.00000000000E+00 -0.00000000000E+00 -0.10785104299E+04  0.10785104299E+04  0.00000000000E+00 0. -1.
          6    1    1    2  502    0  0.35334824418E+01  0.11575066693E+03 -0.78619666028E+03  0.81308049480E+03  0.17200000000E+03 0.  1.
         -6    1    1    2    0  501 -0.35334824418E+01 -0.11575066693E+03 -0.24032842996E+03  0.31741527474E+03  0.17200000000E+03 0.  1.
</event>
<event>
 4    1  0.3115421E-002  0.2255981E+03  0.7818608E-02  0.1129777E+00
          1   -1    0    0  502    0  0.00000000000E+00  0.00000000000E+00  0.77283065077E+03  0.77283065077E+03  0.00000000000E+00 0. -1.
         -1   -1    0    0    0  501 -0.00000000000E+00 -0.00000000000E+00 -0.72839368024E+02  0.72839368024E+02  0.00000000000E+00 0.  1.
          6    1    1    2  502    0  0.14140375188E+03  0.36269658677E+02  0.21905887777E+03  0.31445397297E+03  0.17200000000E+03 0. -1.
         -6    1    1    2    0  501 -0.14140375188E+03 -0.36269658677E+02  0.48093240498E+03  0.53121604582E+03  0.17200000000E+03 0. -1.
</event>
<event>
 4    1  0.3115421E-002  0.2833442E+03  0.7818608E-02  0.1093876E+00
         -2   -1    0    0    0  501 -0.00000000000E+00  0.00000000000E+00  0.13640531068E+03  0.13640531068E+03  0.00000000000E+00 0.  1.
          2   -1    0    0  502    0  0.00000000000E+00 -0.00000000000E+00 -0.82183215330E+03  0.82183215330E+03  0.00000000000E+00 0. -1.
          6    1    1    2  502    0  0.13589121044E+03 -0.17953697564E+03 -0.87458224114E+02  0.29653480009E+03  0.17200000000E+03 0.  1.
         -6    1    1    2    0  501 -0.13589121044E+03  0.17953697564E+03 -0.59796861850E+03  0.66170266390E+03  0.17200000000E+03 0. -1.
</event>
<event>
 4    1  0.3115421E-002  0.2075312E+03  0.7818608E-02  0.1143536E+00
         -2   -1    0    0    0  501 -0.00000000000E+00  0.00000000000E+00  0.28889301831E+02  0.28889301831E+02  0.00000000000E+00 0.  1.
          2   -1    0    0  502    0  0.00000000000E+00 -0.00000000000E+00 -0.18518861885E+04  0.18518861885E+04  0.00000000000E+00 0. -1.
          6    1    1    2  502    0 -0.81457904815E+02 -0.82763496449E+02 -0.13267240367E+04  0.13428573476E+04  0.17200000000E+03 0.  1.
         -6    1    1    2    0  501  0.81457904815E+02  0.82763496449E+02 -0.49627284999E+03  0.53791814269E+03  0.17200000000E+03 0.  1.
</event>
<event>
 4    1  0.3115421E-002  0.2146480E+03  0.7818608E-02  0.1137937E+00
          1   -1    0    0  502    0  0.00000000000E+00  0.00000000000E+00  0.36277330665E+03  0.36277330665E+03  0.00000000000E+00 0. -1.
         -1   -1    0    0    0  501 -0.00000000000E+00 -0.00000000000E+00 -0.27887295177E+03  0.27887295177E+03  0.00000000000E+00 0.  1.
          6    1    1    2  502    0 -0.14176328584E+02 -0.12762756554E+03  0.27870376380E+03  0.35178054485E+03  0.17200000000E+03 0. -1.
         -6    1    1    2    0  501  0.14176328584E+02  0.12762756554E+03 -0.19480340893E+03  0.28986571358E+03  0.17200000000E+03 0.  1.
</event>
<event>
 4    1  0.3115421E-002  0.2489791E+03  0.7818608E-02  0.1113952E+00
          1   -1    0    0  502    0  0.00000000000E+00  0.00000000000E+00  0.73437274788E+02  0.73437274788E+02  0.00000000000E+00 0. -1.
         -1   -1    0    0    0  501 -0.00000000000E+00 -0.00000000000E+00 -0.15732978803E+04  0.15732978803E+04  0.00000000000E+00 0.  1.
          6    1    1    2  502    0 -0.17992549515E+03  0.57792969315E+01 -0.18939607164E+03  0.31282815735E+03  0.17200000000E+03 0. -1.
         -6    1    1    2    0  501  0.17992549515E+03 -0.57792969315E+01 -0.13104645338E+04  0.13339069977E+04  0.17200000000E+03 0.  1.
</event>
<event>
 4    1  0.3115421E-002  0.2108519E+03  0.7818608E-02  0.1140893E+00
         -2   -1    0    0    0  501 -0.00000000000E+00  0.00000000000E+00  0.18196457172E+02  0.18196457172E+02  0.00000000000E+00 0.  1.
          2   -1    0    0  502    0  0.00000000000E+00 -0.00000000000E+00 -0.33124206795E+04  0.33124206795E+04  0.00000000000E+00 0. -1.
          6    1    1    2  502    0  0.66673780932E+02 -0.10212306085E+03 -0.25001616466E+04  0.25090370208E+04  0.17200000000E+03 0. -1.
         -6    1    1    2    0  501 -0.66673780932E+02  0.10212306085E+03 -0.79406257572E+03  0.82158011586E+03  0.17200000000E+03 0.  1.
</event>
<event>
 4    1  0.3115421E-002  0.2302524E+03  0.7818608E-02  0.1126462E+00
         -1   -1    0    0    0  501 -0.00000000000E+00  0.00000000000E+00  0.11326555715E+03  0.11326555715E+03  0.00000000000E+00 0.  1.
          1   -1    0    0  502    0  0.00000000000E+00 -0.00000000000E+00 -0.65163530211E+03  0.65163530211E+03  0.00000000000E+00 0. -1.
          6    1    1    2  502    0  0.15070085070E+03 -0.26859244845E+02 -0.47217205067E+03  0.52532143576E+03  0.17200000000E+03 0. -1.
         -6    1    1    2    0  501 -0.15070085070E+03  0.26859244845E+02 -0.66197694280E+02  0.23957942350E+03  0.17200000000E+03 0.  1.
</event>
<event>
 4    1  0.3115421E-002  0.3043095E+03  0.7818608E-02  0.1083106E+00
         -2   -1    0    0    0  501 -0.00000000000E+00  0.00000000000E+00  0.73860632695E+02  0.73860632695E+02  0.00000000000E+00 0.  1.
          2   -1    0    0  502    0  0.00000000000E+00 -0.00000000000E+00 -0.12867404778E+04  0.12867404778E+04  0.00000000000E+00 0. -1.
          6    1    1    2  502    0  0.40593900454E+02 -0.24773455901E+03 -0.71533674257E+03  0.77737438327E+03  0.17200000000E+03 0. -1.
         -6    1    1    2    0  501 -0.40593900454E+02  0.24773455901E+03 -0.49754310257E+03  0.58322672727E+03  0.17200000000E+03 0.  1.
</event>
<event>
 4    1  0.3115421E-002  0.3930238E+03  0.7818608E-02  0.1046222E+00
          1   -1    0    0  502    0  0.00000000000E+00  0.00000000000E+00  0.40636529291E+04  0.40636529291E+04  0.00000000000E+00 0. -1.
         -1   -1    0    0    0  501 -0.00000000000E+00 -0.00000000000E+00 -0.38864448229E+02  0.38864448229E+02  0.00000000000E+00 0.  1.
          6    1    1    2  502    0 -0.18132033676E+03 -0.30332598599E+03  0.23161812598E+04  0.23492899664E+04  0.17200000000E+03 0. -1.
         -6    1    1    2    0  501  0.18132033676E+03  0.30332598599E+03  0.17086072211E+04  0.17532274109E+04  0.17200000000E+03 0.  1.
</event>
<event>
 4    1  0.3115421E-002  0.2838948E+03  0.7818608E-02  0.1093581E+00
         -1   -1    0    0    0  501 -0.00000000000E+00  0.00000000000E+00  0.92864573090E+02  0.92864573090E+02  0.00000000000E+00 0.  1.
          1   -1    0    0  502    0  0.00000000000E+00 -0.00000000000E+00 -0.15585110161E+04  0.15585110161E+04  0.00000000000E+00 0. -1.
          6    1    1    2  502    0 -0.18947971508E+03  0.12292145931E+03 -0.12824663170E+04  0.13135128861E+04  0.17200000000E+03 0. -1.
         -6    1    1    2    0  501  0.18947971508E+03 -0.12292145931E+03 -0.18318012594E+03  0.33786270307E+03  0.17200000000E+03 0.  1.
</event>
<event>
 4    1  0.3115421E-002  0.1747025E+03  0.7818608E-02  0.1173031E+00
          1   -1    0    0  502    0  0.00000000000E+00  0.00000000000E+00  0.29570223394E+03  0.29570223394E+03  0.00000000000E+00 0. -1.
         -1   -1    0    0    0  501 -0.00000000000E+00 -0.00000000000E+00 -0.11163121512E+03  0.11163121512E+03  0.00000000000E+00 0.  1.
          6    1    1    2  502    0 -0.13257591447E+02 -0.27589768365E+02  0.14795729687E+03  0.22893737298E+03  0.17200000000E+03 0.  1.
         -6    1    1    2    0  501  0.13257591447E+02  0.27589768365E+02  0.36113721951E+02  0.17839607609E+03  0.17200000000E+03 0.  1.
</event>
<event>
 4    1  0.3115421E-002  0.2862470E+03  0.7818608E-02  0.1092325E+00
         -1   -1    0    0    0  501 -0.00000000000E+00  0.00000000000E+00  0.27114709810E+02  0.27114709810E+02  0.00000000000E+00 0.  1.
          1   -1    0    0  502    0  0.00000000000E+00 -0.00000000000E+00 -0.35632555202E+04  0.35632555202E+04  0.00000000000E+00 0. -1.
          6    1    1    2  502    0 -0.81119719148E+02 -0.21394611296E+03 -0.24678089856E+04  0.24843547528E+04  0.17200000000E+03 0. -1.
         -6    1    1    2    0  501  0.81119719148E+02  0.21394611296E+03 -0.10683318248E+04  0.11060154773E+04  0.17200000000E+03 0.  1.
</event>
<event>
 4    1  0.3115421E-002  0.2302372E+03  0.7818608E-02  0.1126473E+00
          1   -1    0    0  502    0  0.00000000000E+00  0.00000000000E+00  0.61153257937E+02  0.61153257937E+02  0.00000000000E+00 0. -1.
         -1   -1    0    0    0  501 -0.00000000000E+00 -0.00000000000E+00 -0.10977522071E+04  0.10977522071E+04  0.00000000000E+00 0.  1.
          6    1    1    2  502    0 -0.37106899628E+02 -0.14848658215E+03 -0.25253116878E+03  0.34173261226E+03  0.17200000000E+03 0. -1.
         -6    1    1    2    0  501  0.37106899628E+02  0.14848658215E+03 -0.78406778036E+03  0.81717285275E+03  0.17200000000E+03 0.  1.
</event>
<event>
 4    1  0.3115421E-002  0.2744903E+03  0.7818608E-02  0.1098737E+00
         -2   -1    0    0    0  501 -0.00000000000E+00  0.00000000000E+00  0.70613991277E+02  0.70613991277E+02  0.00000000000E+00 0.  1.
          2   -1    0    0  502    0  0.00000000000E+00 -0.00000000000E+00 -0.11199312232E+04  0.11199312232E+04  0.00000000000E+00 0. -1.
          6    1    1    2  502    0 -0.42569454048E+02  0.20963957301E+03 -0.65407490735E+03  0.70933693927E+03  0.17200000000E+03 0. -1.
         -6    1    1    2    0  501  0.42569454048E+02 -0.20963957301E+03 -0.39524232455E+03  0.48120827518E+03  0.17200000000E+03 0.  1.
</event>
<event>
 4    1  0.3115421E-002  0.5513909E+03  0.7818608E-02  0.1001173E+00
          2   -1    0    0  502    0  0.00000000000E+00  0.00000000000E+00  0.10987387274E+04  0.10987387274E+04  0.00000000000E+00 0. -1.
         -2   -1    0    0    0  501 -0.00000000000E+00 -0.00000000000E+00 -0.27828104964E+03  0.27828104964E+03  0.00000000000E+00 0.  1.
          6    1    1    2  502    0  0.38312380931E+03  0.35730107552E+03  0.46196254184E+03  0.71933392933E+03  0.17200000000E+03 0. -1.
         -6    1    1    2    0  501 -0.38312380931E+03 -0.35730107552E+03  0.35849513596E+03  0.65768584776E+03  0.17200000000E+03 0.  1.
</event>
<event>
 4    1  0.3115421E-002  0.3460075E+03  0.7818608E-02  0.1064266E+00
         -3   -1    0    0    0  501 -0.00000000000E+00  0.00000000000E+00  0.11364766705E+03  0.11364766705E+03  0.00000000000E+00 0.  1.
          3   -1    0    0  502    0  0.00000000000E+00 -0.00000000000E+00 -0.14155818774E+04  0.14155818774E+04  0.00000000000E+00 0. -1.
          6    1    1    2  502    0 -0.28543730121E+03  0.93073721095E+02 -0.10377022614E+04  0.10938679783E+04  0.17200000000E+03 0. -1.
         -6    1    1    2    0  501  0.28543730121E+03 -0.93073721095E+02 -0.26423194888E+03  0.43536156616E+03  0.17200000000E+03 0.  1.
</event>
<event>
 4    1  0.3115421E-002  0.2153127E+03  0.7818608E-02  0.1137427E+00
         -2   -1    0    0    0  501 -0.00000000000E+00  0.00000000000E+00  0.98913400612E+02  0.98913400612E+02  0.00000000000E+00 0.  1.
          2   -1    0    0  502    0  0.00000000000E+00 -0.00000000000E+00 -0.65366038561E+03  0.65366038561E+03  0.00000000000E+00 0. -1.
          6    1    1    2  502    0  0.12807451949E+03 -0.19299364273E+02 -0.47754219364E+03  0.52383785154E+03  0.17200000000E+03 0. -1.
         -6    1    1    2    0  501 -0.12807451949E+03  0.19299364273E+02 -0.77204791360E+02  0.22873593468E+03  0.17200000000E+03 0.  1.
</event>
<event>
 4    1  0.3115421E-002  0.2178201E+03  0.7818608E-02  0.1135519E+00
         -1   -1    0    0    0  501 -0.00000000000E+00  0.00000000000E+00  0.13656445937E+03  0.13656445937E+03  0.00000000000E+00 0.  1.
          1   -1    0    0  502    0  0.00000000000E+00 -0.00000000000E+00 -0.34843633365E+03  0.34843633365E+03  0.00000000000E+00 0. -1.
          6    1    1    2  502    0  0.88640894415E+02 -0.10002193234E+03 -0.92856524426E+02  0.23678667454E+03  0.17200000000E+03 0. -1.
         -6    1    1    2    0  501 -0.88640894415E+02  0.10002193234E+03 -0.11901534985E+03  0.24821411848E+03  0.17200000000E+03 0.  1.
</event>
<event>
 4    1  0.3115421E-002  0.1937657E+03  0.7818608E-02  0.1155108E+00
          1   -1    0    0  502    0  0.00000000000E+00  0.00000000000E+00  0.91378382878E+03  0.91378382878E+03  0.00000000000E+00 0. -1.
         -1   -1    0    0    0  501 -0.00000000000E+00 -0.00000000000E+00 -0.63536908037E+02  0.63536908037E+02  0.00000000000E+00 0.  1.
          6    1    1    2  502    0 -0.86087604158E+02 -0.23453338403E+02  0.71558998349E+03  0.74135966922E+03  0.17200000000E+03 0. -1.
         -6    1    1    2    0  501  0.86087604158E+02  0.23453338403E+02  0.13465693725E+03  0.23596106760E+03  0.17200000000E+03 0.  1.
</event>
<event>
 4    1  0.3115421E-002  0.4678775E+03  0.7818608E-02  0.1022521E+00
          1   -1    0    0  502    0  0.00000000000E+00  0.00000000000E+00  0.54046463551E+03  0.54046463551E+03  0.00000000000E+00 0. -1.
         -1   -1    0    0    0  501 -0.00000000000E+00 -0.00000000000E+00 -0.54936534519E+03  0.54936534519E+03  0.00000000000E+00 0.  1.
          6    1    1    2  502    0 -0.22631364024E+02 -0.43452635919E+03  0.27484949982E+03  0.54263393095E+03  0.17200000000E+03 0. -1.
         -6    1    1    2    0  501  0.22631364024E+02  0.43452635919E+03 -0.28375020950E+03  0.54719604975E+03  0.17200000000E+03 0.  1.
</event>
<event>
 4    1  0.3115421E-002  0.1744637E+03  0.7818608E-02  0.1173271E+00
         -1   -1    0    0    0  501 -0.00000000000E+00  0.00000000000E+00  0.64793809795E+02  0.64793809795E+02  0.00000000000E+00 0.  1.
          1   -1    0    0  502    0  0.00000000000E+00 -0.00000000000E+00 -0.50676423740E+03  0.50676423740E+03  0.00000000000E+00 0. -1.
          6    1    1    2  502    0  0.28793239990E+02 -0.49530231616E+01 -0.14376176349E+03  0.22606421156E+03  0.17200000000E+03 0. -1.
         -6    1    1    2    0  501 -0.28793239990E+02  0.49530231616E+01 -0.29820866412E+03  0.34549383564E+03  0.17200000000E+03 0. -1.
</event>
<event>
 4    1  0.3115421E-002  0.2524798E+03  0.7818608E-02  0.1111748E+00
         -2   -1    0    0    0  501 -0.00000000000E+00  0.00000000000E+00  0.54508865865E+02  0.54508865865E+02  0.00000000000E+00 0.  1.
          2   -1    0    0  502    0  0.00000000000E+00 -0.00000000000E+00 -0.11932803004E+04  0.11932803004E+04  0.00000000000E+00 0. -1.
          6    1    1    2  502    0 -0.68695018698E+02  0.17158975962E+03 -0.65753011415E+03  0.70433791763E+03  0.17200000000E+03 0. -1.
         -6    1    1    2    0  501  0.68695018698E+02 -0.17158975962E+03 -0.48124132043E+03  0.54345124868E+03  0.17200000000E+03 0.  1.
</event>
<event>
 4    1  0.3115421E-002  0.4107074E+03  0.7818608E-02  0.1040134E+00
         -2   -1    0    0    0  501 -0.00000000000E+00  0.00000000000E+00  0.13995172224E+03  0.13995172224E+03  0.00000000000E+00 0.  1.
          2   -1    0    0  502    0  0.00000000000E+00 -0.00000000000E+00 -0.13024122229E+04  0.13024122229E+04  0.00000000000E+00 0. -1.
          6    1    1    2  502    0 -0.16160387257E+03 -0.33612609044E+03 -0.77818184697E+03  0.87991337486E+03  0.17200000000E+03 0. -1.
         -6    1    1    2    0  501  0.16160387257E+03  0.33612609044E+03 -0.38427865364E+03  0.56245057023E+03  0.17200000000E+03 0.  1.
</event>
<event>
 4    1  0.3115421E-002  0.1864985E+03  0.7818608E-02  0.1161658E+00
         -1   -1    0    0    0  501 -0.00000000000E+00  0.00000000000E+00  0.11412221126E+03  0.11412221126E+03  0.00000000000E+00 0.  1.
          1   -1    0    0  502    0  0.00000000000E+00 -0.00000000000E+00 -0.30479005546E+03  0.30479005546E+03  0.00000000000E+00 0. -1.
          6    1    1    2  502    0  0.59183941586E+02 -0.41170015534E+02 -0.96757160291E+02  0.21010391997E+03  0.17200000000E+03 0.  1.
         -6    1    1    2    0  501 -0.59183941586E+02  0.41170015534E+02 -0.93910683911E+02  0.20880834675E+03  0.17200000000E+03 0. -1.
</event>
<event>
 4    1  0.3115421E-002  0.2062927E+03  0.7818608E-02  0.1144536E+00
         -2   -1    0    0    0  501 -0.00000000000E+00  0.00000000000E+00  0.33586576937E+03  0.33586576937E+03  0.00000000000E+00 0.  1.
          2   -1    0    0  502    0  0.00000000000E+00 -0.00000000000E+00 -0.12963155546E+03  0.12963155546E+03  0.00000000000E+00 0. -1.
          6    1    1    2  502    0  0.76206564644E+02  0.84647828748E+02  0.13807363516E+03  0.24823582363E+03  0.17200000000E+03 0. -1.
         -6    1    1    2    0  501 -0.76206564644E+02 -0.84647828748E+02  0.68160578747E+02  0.21726150120E+03  0.17200000000E+03 0. -1.
</event>
<event>
 4    1  0.3115421E-002  0.3545225E+03  0.7818608E-02  0.1060774E+00
          2   -1    0    0  502    0  0.00000000000E+00  0.00000000000E+00  0.52942473529E+03  0.52942473529E+03  0.00000000000E+00 0. -1.
         -2   -1    0    0    0  501 -0.00000000000E+00 -0.00000000000E+00 -0.76593686055E+03  0.76593686055E+03  0.00000000000E+00 0.  1.
          6    1    1    2  502    0  0.15773143114E+03 -0.26687640127E+03  0.41976783574E+03  0.54944631571E+03  0.17200000000E+03 0. -1.
         -6    1    1    2    0  501 -0.15773143114E+03  0.26687640127E+03 -0.65627996100E+03  0.74591528013E+03  0.17200000000E+03 0.  1.
</event>
<event>
 4    1  0.3115421E-002  0.1895048E+03  0.7818608E-02  0.1158909E+00
         -1   -1    0    0    0  501 -0.00000000000E+00  0.00000000000E+00  0.25907331926E+03  0.25907331926E+03  0.00000000000E+00 0.  1.
          1   -1    0    0  502    0  0.00000000000E+00 -0.00000000000E+00 -0.13877538405E+03  0.13877538405E+03  0.00000000000E+00 0. -1.
          6    1    1    2  502    0  0.64576744169E+02  0.46453368687E+02  0.66860640764E+02  0.20095376740E+03  0.17200000000E+03 0. -1.
         -6    1    1    2    0  501 -0.64576744169E+02 -0.46453368687E+02  0.53437294450E+02  0.19689493591E+03  0.17200000000E+03 0.  1.
</event>
<event>
 4    1  0.3115421E-002  0.1920373E+03  0.7818608E-02  0.1156637E+00
         -2   -1    0    0    0  501 -0.00000000000E+00  0.00000000000E+00  0.29239493052E+02  0.29239493052E+02  0.00000000000E+00 0.  1.
          2   -1    0    0  502    0  0.00000000000E+00 -0.00000000000E+00 -0.20033396685E+04  0.20033396685E+04  0.00000000000E+00 0. -1.
          6    1    1    2  502    0  0.68828390586E+02  0.50566398469E+02 -0.16055909515E+04  0.16170345116E+04  0.17200000000E+03 0. -1.
         -6    1    1    2    0  501 -0.68828390586E+02 -0.50566398469E+02 -0.36850922388E+03  0.41554464993E+03  0.17200000000E+03 0.  1.
</event>
<event>
 4    1  0.3115421E-002  0.2118973E+03  0.7818608E-02  0.1140072E+00
          1   -1    0    0  502    0  0.00000000000E+00  0.00000000000E+00  0.36617987842E+03  0.36617987842E+03  0.00000000000E+00 0. -1.
         -1   -1    0    0    0  501 -0.00000000000E+00 -0.00000000000E+00 -0.19290059892E+03  0.19290059892E+03  0.00000000000E+00 0.  1.
          6    1    1    2  502    0 -0.41248074123E+02  0.11668353353E+03  0.25537251589E+03  0.33183666538E+03  0.17200000000E+03 0. -1.
         -6    1    1    2    0  501  0.41248074123E+02 -0.11668353353E+03 -0.82093236381E+02  0.22724381196E+03  0.17200000000E+03 0.  1.
</event>
<event>
 4    1  0.3115421E-002  0.2206334E+03  0.7818608E-02  0.1133412E+00
          1   -1    0    0  502    0  0.00000000000E+00  0.00000000000E+00  0.33593800469E+03  0.33593800469E+03  0.00000000000E+00 0. -1.
         -1   -1    0    0    0  501 -0.00000000000E+00 -0.00000000000E+00 -0.17461824054E+03  0.17461824054E+03  0.00000000000E+00 0.  1.
          6    1    1    2  502    0  0.13638018600E+03  0.22260640385E+02  0.18596365179E+03  0.28855081187E+03  0.17200000000E+03 0. -1.
         -6    1    1    2    0  501 -0.13638018600E+03 -0.22260640385E+02 -0.24643887644E+02  0.22200543336E+03  0.17200000000E+03 0.  1.
</event>
<event>
 4    1  0.3115421E-002  0.3490305E+03  0.7818608E-02  0.1063014E+00
         -2   -1    0    0    0  501 -0.00000000000E+00  0.00000000000E+00  0.12793108050E+03  0.12793108050E+03  0.00000000000E+00 0.  1.
          2   -1    0    0  502    0  0.00000000000E+00 -0.00000000000E+00 -0.28228439466E+04  0.28228439466E+04  0.00000000000E+00 0. -1.
          6    1    1    2  502    0 -0.18144543316E+03  0.24354843202E+03 -0.25484827127E+04  0.25722726179E+04  0.17200000000E+03 0. -1.
         -6    1    1    2    0  501  0.18144543316E+03 -0.24354843202E+03 -0.14643015346E+03  0.37850240923E+03  0.17200000000E+03 0.  1.
</event>
<event>
 4    1  0.3115421E-002  0.2415768E+03  0.7818608E-02  0.1118747E+00
          2   -1    0    0  502    0  0.00000000000E+00  0.00000000000E+00  0.15588304711E+04  0.15588304711E+04  0.00000000000E+00 0. -1.
         -2   -1    0    0    0  501 -0.00000000000E+00 -0.00000000000E+00 -0.20703631623E+03  0.20703631623E+03  0.00000000000E+00 0.  1.
          6    1    1    2  502    0 -0.12484997568E+03 -0.11483832074E+03  0.14750236260E+04  0.14946752335E+04  0.17200000000E+03 0. -1.
         -6    1    1    2    0  501  0.12484997568E+03  0.11483832074E+03 -0.12322947110E+03  0.27119155386E+03  0.17200000000E+03 0.  1.
</event>
<event>
 4    1  0.3115421E-002  0.5053218E+03  0.7818608E-02  0.1012399E+00
         -2   -1    0    0    0  501 -0.00000000000E+00  0.00000000000E+00  0.11988445189E+04  0.11988445189E+04  0.00000000000E+00 0.  1.
          2   -1    0    0  502    0  0.00000000000E+00 -0.00000000000E+00 -0.35457088225E+03  0.35457088225E+03  0.00000000000E+00 0. -1.
          6    1    1    2  502    0  0.10741379046E+03  0.46284818717E+03 -0.68655549196E+02  0.50996446071E+03  0.17200000000E+03 0. -1.
         -6    1    1    2    0  501 -0.10741379046E+03 -0.46284818717E+03  0.91292918587E+03  0.10434509405E+04  0.17200000000E+03 0.  1.
</event>
<event>
 4    1  0.3115421E-002  0.1730134E+03  0.7818608E-02  0.1174741E+00
          1   -1    0    0  502    0  0.00000000000E+00  0.00000000000E+00  0.22260816411E+04  0.22260816411E+04  0.00000000000E+00 0. -1.
         -1   -1    0    0    0  501 -0.00000000000E+00 -0.00000000000E+00 -0.13604020470E+02  0.13604020470E+02  0.00000000000E+00 0.  1.
          6    1    1    2  502    0 -0.13650260022E+02 -0.12779360152E+02  0.98584658713E+03  0.10009131506E+04  0.17200000000E+03 0.  1.
         -6    1    1    2    0  501  0.13650260022E+02  0.12779360152E+02  0.12266310335E+04  0.12387725109E+04  0.17200000000E+03 0. -1.
</event>
<event>
 4    1  0.3115421E-002  0.3173553E+03  0.7818608E-02  0.1076873E+00
         -2   -1    0    0    0  501 -0.00000000000E+00  0.00000000000E+00  0.50425451250E+02  0.50425451250E+02  0.00000000000E+00 0.  1.
          2   -1    0    0  502    0  0.00000000000E+00 -0.00000000000E+00 -0.19973224527E+04  0.19973224527E+04  0.00000000000E+00 0. -1.
          6    1    1    2  502    0  0.71986503542E+02 -0.25680405095E+03 -0.96948574239E+03  0.10201063582E+04  0.17200000000E+03 0. -1.
         -6    1    1    2    0  501 -0.71986503542E+02  0.25680405095E+03 -0.97741125902E+03  0.10276415457E+04  0.17200000000E+03 0.  1.
</event>
<event>
 4    1  0.3115421E-002  0.2483427E+03  0.7818608E-02  0.1114357E+00
         -1   -1    0    0    0  501 -0.00000000000E+00  0.00000000000E+00  0.45411271756E+02  0.45411271756E+02  0.00000000000E+00 0.  1.
          1   -1    0    0  502    0  0.00000000000E+00 -0.00000000000E+00 -0.15351743795E+04  0.15351743795E+04  0.00000000000E+00 0. -1.
          6    1    1    2  502    0 -0.17840530658E+03 -0.16175312441E+02 -0.10132668995E+04  0.10432563941E+04  0.17200000000E+03 0. -1.
         -6    1    1    2    0  501  0.17840530658E+03  0.16175312441E+02 -0.47649620819E+03  0.53732925713E+03  0.17200000000E+03 0.  1.
</event>
<event>
 4    1  0.3115421E-002  0.4998193E+03  0.7818608E-02  0.1013826E+00
         -1   -1    0    0    0  501 -0.00000000000E+00  0.00000000000E+00  0.24523907961E+03  0.24523907961E+03  0.00000000000E+00 0.  1.
          1   -1    0    0  502    0  0.00000000000E+00 -0.00000000000E+00 -0.15270306621E+04  0.15270306621E+04  0.00000000000E+00 0. -1.
          6    1    1    2  502    0 -0.45802386774E+03 -0.10222275395E+03 -0.11521760477E+04  0.12559175928E+04  0.17200000000E+03 0. -1.
         -6    1    1    2    0  501  0.45802386774E+03  0.10222275395E+03 -0.12961553473E+03  0.51635214891E+03  0.17200000000E+03 0.  1.
</event>
<event>
 4    1  0.3115421E-002  0.3547628E+03  0.7818608E-02  0.1060677E+00
         -2   -1    0    0    0  501 -0.00000000000E+00  0.00000000000E+00  0.44484162796E+02  0.44484162796E+02  0.00000000000E+00 0.  1.
          2   -1    0    0  502    0  0.00000000000E+00 -0.00000000000E+00 -0.29622974937E+04  0.29622974937E+04  0.00000000000E+00 0. -1.
          6    1    1    2  502    0  0.21004259704E+03 -0.22837408743E+03 -0.11402901439E+04  0.11942019213E+04  0.17200000000E+03 0.  1.
         -6    1    1    2    0  501 -0.21004259704E+03  0.22837408743E+03 -0.17775231869E+04  0.18125797352E+04  0.17200000000E+03 0.  1.
</event>
<event>
 4    1  0.3115421E-002  0.1820067E+03  0.7818608E-02  0.1165875E+00
          1   -1    0    0  502    0  0.00000000000E+00  0.00000000000E+00  0.17315428124E+03  0.17315428124E+03  0.00000000000E+00 0. -1.
         -1   -1    0    0    0  501 -0.00000000000E+00 -0.00000000000E+00 -0.20015087787E+03  0.20015087787E+03  0.00000000000E+00 0.  1.
          6    1    1    2  502    0 -0.11770418977E+02 -0.58342848465E+02  0.25726659494E+02  0.18381591808E+03  0.17200000000E+03 0. -1.
         -6    1    1    2    0  501  0.11770418977E+02  0.58342848465E+02 -0.52723256132E+02  0.18948924103E+03  0.17200000000E+03 0. -1.
</event>
<event>
 4    1  0.3115421E-002  0.2285960E+03  0.7818608E-02  0.1127632E+00
         -1   -1    0    0    0  501 -0.00000000000E+00  0.00000000000E+00  0.13271206846E+03  0.13271206846E+03  0.00000000000E+00 0.  1.
          1   -1    0    0  502    0  0.00000000000E+00 -0.00000000000E+00 -0.40255485900E+03  0.40255485900E+03  0.00000000000E+00 0. -1.
          6    1    1    2  502    0 -0.57201540778E+02  0.13928423888E+03 -0.95352693792E+02  0.24768579225E+03  0.17200000000E+03 0. -1.
         -6    1    1    2    0  501  0.57201540778E+02 -0.13928423888E+03 -0.17449009675E+03  0.28758113521E+03  0.17200000000E+03 0.  1.
</event>
<event>
 4    1  0.3115421E-002  0.1925801E+03  0.7818608E-02  0.1156155E+00
          1   -1    0    0  502    0  0.00000000000E+00  0.00000000000E+00  0.11244545858E+04  0.11244545858E+04  0.00000000000E+00 0. -1.
         -1   -1    0    0    0  501 -0.00000000000E+00 -0.00000000000E+00 -0.42851794915E+02  0.42851794915E+02  0.00000000000E+00 0.  1.
          6    1    1    2  502    0 -0.14441084073E+02 -0.85408190829E+02  0.82090436389E+03  0.84319100957E+03  0.17200000000E+03 0. -1.
         -6    1    1    2    0  501  0.14441084073E+02  0.85408190829E+02  0.26069842697E+03  0.32411537112E+03  0.17200000000E+03 0.  1.
</event>
<event>
 4    1  0.3115421E-002  0.4585598E+03  0.7818608E-02  0.1025200E+00
          2   -1    0    0  502    0  0.00000000000E+00  0.00000000000E+00  0.21320232354E+03  0.21320232354E+03  0.00000000000E+00 0. -1.
         -2   -1    0    0    0  501 -0.00000000000E+00 -0.00000000000E+00 -0.10856293525E+04  0.10856293525E+04  0.00000000000E+00 0.  1.
          6    1    1    2  502    0 -0.28134326571E+03  0.31865197768E+03 -0.23975749408E+03  0.51745605804E+03  0.17200000000E+03 0. -1.
         -6    1    1    2    0  501  0.28134326571E+03 -0.31865197768E+03 -0.63266953492E+03  0.78137561803E+03  0.17200000000E+03 0.  1.
</event>
<event>
 4    1  0.3115421E-002  0.2271464E+03  0.7818608E-02  0.1128665E+00
          2   -1    0    0  502    0  0.00000000000E+00  0.00000000000E+00  0.28501891193E+03  0.28501891193E+03  0.00000000000E+00 0. -1.
         -2   -1    0    0    0  501 -0.00000000000E+00 -0.00000000000E+00 -0.25147414534E+03  0.25147414534E+03  0.00000000000E+00 0.  1.
          6    1    1    2  502    0  0.12272878385E+03 -0.83361369175E+02 -0.12520727589E+03  0.25936910801E+03  0.17200000000E+03 0.  1.
         -6    1    1    2    0  501 -0.12272878385E+03  0.83361369175E+02  0.15875204248E+03  0.27712394925E+03  0.17200000000E+03 0. -1.
</event>
<event>
 4    1  0.3115421E-002  0.1868423E+03  0.7818608E-02  0.1161341E+00
         -2   -1    0    0    0  501 -0.00000000000E+00  0.00000000000E+00  0.40217840761E+03  0.40217840761E+03  0.00000000000E+00 0.  1.
          2   -1    0    0  502    0  0.00000000000E+00 -0.00000000000E+00 -0.10699451150E+03  0.10699451150E+03  0.00000000000E+00 0. -1.
          6    1    1    2  502    0 -0.15279594925E+02 -0.71362250402E+02  0.36994323522E+02  0.19046946416E+03  0.17200000000E+03 0. -1.
         -6    1    1    2    0  501  0.15279594925E+02  0.71362250402E+02  0.25818957259E+03  0.31870345495E+03  0.17200000000E+03 0.  1.
</event>
<event>
 4    1  0.3115421E-002  0.2084469E+03  0.7818608E-02  0.1142802E+00
         -1   -1    0    0    0  501 -0.00000000000E+00  0.00000000000E+00  0.28719221189E+02  0.28719221189E+02  0.00000000000E+00 0.  1.
          1   -1    0    0  502    0  0.00000000000E+00 -0.00000000000E+00 -0.15763793490E+04  0.15763793490E+04  0.00000000000E+00 0. -1.
          6    1    1    2  502    0 -0.10828318604E+03  0.46269424723E+02 -0.93484362999E+03  0.95780098172E+03  0.17200000000E+03 0. -1.
         -6    1    1    2    0  501  0.10828318604E+03 -0.46269424723E+02 -0.61281649786E+03  0.64729758851E+03  0.17200000000E+03 0.  1.
</event>
<event>
 4    1  0.3115421E-002  0.3459753E+03  0.7818608E-02  0.1064279E+00
          2   -1    0    0  502    0  0.00000000000E+00  0.00000000000E+00  0.25788163417E+04  0.25788163417E+04  0.00000000000E+00 0. -1.
         -2   -1    0    0    0  501 -0.00000000000E+00 -0.00000000000E+00 -0.92181944885E+02  0.92181944885E+02  0.00000000000E+00 0.  1.
          6    1    1    2  502    0  0.30017661902E+03 -0.29844791900E+01  0.21843198506E+04  0.22115497100E+04  0.17200000000E+03 0. -1.
         -6    1    1    2    0  501 -0.30017661902E+03  0.29844791900E+01  0.30231454613E+03  0.45944857658E+03  0.17200000000E+03 0.  1.
</event>
<event>
 4    1  0.3115421E-002  0.1804016E+03  0.7818608E-02  0.1167415E+00
         -2   -1    0    0    0  501 -0.00000000000E+00  0.00000000000E+00  0.24251667892E+02  0.24251667892E+02  0.00000000000E+00 0.  1.
          2   -1    0    0  502    0  0.00000000000E+00 -0.00000000000E+00 -0.15750273392E+04  0.15750273392E+04  0.00000000000E+00 0. -1.
          6    1    1    2  502    0  0.10074837656E+02 -0.53471836418E+02 -0.10829918511E+04  0.10979144270E+04  0.17200000000E+03 0. -1.
         -6    1    1    2    0  501 -0.10074837656E+02  0.53471836418E+02 -0.46778382025E+03  0.50136458005E+03  0.17200000000E+03 0.  1.
</event>
<event>
 4    1  0.3115421E-002  0.1892671E+03  0.7818608E-02  0.1159124E+00
         -2   -1    0    0    0  501 -0.00000000000E+00  0.00000000000E+00  0.47284872866E+02  0.47284872866E+02  0.00000000000E+00 0.  1.
          2   -1    0    0  502    0  0.00000000000E+00 -0.00000000000E+00 -0.82827771469E+03  0.82827771469E+03  0.00000000000E+00 0. -1.
          6    1    1    2  502    0 -0.57087988834E+02 -0.54580234283E+02 -0.26259538010E+03  0.32369487807E+03  0.17200000000E+03 0.  1.
         -6    1    1    2    0  501  0.57087988834E+02  0.54580234283E+02 -0.51839746173E+03  0.55186770948E+03  0.17200000000E+03 0. -1.
</event>
<event>
 4    1  0.3115421E-002  0.2410124E+03  0.7818608E-02  0.1119120E+00
         -2   -1    0    0    0  501 -0.00000000000E+00  0.00000000000E+00  0.64316690205E+02  0.64316690205E+02  0.00000000000E+00 0.  1.
          2   -1    0    0  502    0  0.00000000000E+00 -0.00000000000E+00 -0.10135661025E+04  0.10135661025E+04  0.00000000000E+00 0. -1.
          6    1    1    2  502    0 -0.70828570671E+02 -0.15325232568E+03 -0.29673459780E+03  0.38228050340E+03  0.17200000000E+03 0.  1.
         -6    1    1    2    0  501  0.70828570671E+02  0.15325232568E+03 -0.65251481449E+03  0.69560228930E+03  0.17200000000E+03 0.  1.
</event>
<event>
 4    1  0.3115421E-002  0.2496470E+03  0.7818608E-02  0.1113528E+00
          2   -1    0    0  502    0  0.00000000000E+00  0.00000000000E+00  0.10403476189E+04  0.10403476189E+04  0.00000000000E+00 0. -1.
         -2   -1    0    0    0  501 -0.00000000000E+00 -0.00000000000E+00 -0.59962091847E+02  0.59962091847E+02  0.00000000000E+00 0.  1.
          6    1    1    2  502    0 -0.17885126580E+03 -0.27419803601E+02  0.50693894843E+03  0.56507585185E+03  0.17200000000E+03 0.  1.
         -6    1    1    2    0  501  0.17885126580E+03  0.27419803601E+02  0.47344657867E+03  0.53523385894E+03  0.17200000000E+03 0.  1.
</event>
<event>
 4    1  0.3115421E-002  0.2219384E+03  0.7818608E-02  0.1132446E+00
          2   -1    0    0  502    0  0.00000000000E+00  0.00000000000E+00  0.14116928292E+03  0.14116928292E+03  0.00000000000E+00 0. -1.
         -2   -1    0    0    0  501 -0.00000000000E+00 -0.00000000000E+00 -0.40875113685E+03  0.40875113685E+03  0.00000000000E+00 0.  1.
          6    1    1    2  502    0 -0.37130808872E+02 -0.13525509218E+03 -0.28592843233E+02  0.22377262481E+03  0.17200000000E+03 0. -1.
         -6    1    1    2    0  501  0.37130808872E+02  0.13525509218E+03 -0.23898901069E+03  0.32614779496E+03  0.17200000000E+03 0.  1.
</event>
<event>
 4    1  0.3115421E-002  0.5526808E+03  0.7818608E-02  0.1000875E+00
         -2   -1    0    0    0  501 -0.00000000000E+00  0.00000000000E+00  0.17645078055E+03  0.17645078055E+03  0.00000000000E+00 0.  1.
          2   -1    0    0  502    0  0.00000000000E+00 -0.00000000000E+00 -0.18944730107E+04  0.18944730107E+04  0.00000000000E+00 0. -1.
          6    1    1    2  502    0 -0.52513485299E+03  0.10269045544E+02 -0.11630744748E+04  0.12877104880E+04  0.17200000000E+03 0. -1.
         -6    1    1    2    0  501  0.52513485299E+03 -0.10269045544E+02 -0.55494775534E+03  0.78321330318E+03  0.17200000000E+03 0.  1.
</event>
<event>
 4    1  0.3115421E-002  0.2501276E+03  0.7818608E-02  0.1113224E+00
         -2   -1    0    0    0  501 -0.00000000000E+00  0.00000000000E+00  0.40616663605E+02  0.40616663605E+02  0.00000000000E+00 0.  1.
          2   -1    0    0  502    0  0.00000000000E+00 -0.00000000000E+00 -0.15582832682E+04  0.15582832682E+04  0.00000000000E+00 0. -1.
          6    1    1    2  502    0  0.16734871234E+03  0.70528234447E+02 -0.67306752539E+03  0.71804158452E+03  0.17200000000E+03 0. -1.
         -6    1    1    2    0  501 -0.16734871234E+03 -0.70528234447E+02 -0.84459907919E+03  0.88085834726E+03  0.17200000000E+03 0. -1.
</event>
<event>
 4    1  0.3115421E-002  0.2532859E+03  0.7818608E-02  0.1111246E+00
         -2   -1    0    0    0  501 -0.00000000000E+00  0.00000000000E+00  0.32411284285E+03  0.32411284285E+03  0.00000000000E+00 0.  1.
          2   -1    0    0  502    0  0.00000000000E+00 -0.00000000000E+00 -0.20522236004E+03  0.20522236004E+03  0.00000000000E+00 0. -1.
          6    1    1    2  502    0 -0.14495685971E+03 -0.11643563908E+03  0.95763167060E+01  0.25346687173E+03  0.17200000000E+03 0. -1.
         -6    1    1    2    0  501  0.14495685971E+03  0.11643563908E+03  0.10931416610E+03  0.27586833116E+03  0.17200000000E+03 0.  1.
</event>
<event>
 4    1  0.3115421E-002  0.2810888E+03  0.7818608E-02  0.1095096E+00
         -2   -1    0    0    0  501 -0.00000000000E+00  0.00000000000E+00  0.15313385222E+03  0.15313385222E+03  0.00000000000E+00 0.  1.
          2   -1    0    0  502    0  0.00000000000E+00 -0.00000000000E+00 -0.63298275643E+03  0.63298275643E+03  0.00000000000E+00 0. -1.
          6    1    1    2  502    0 -0.21476630929E+03  0.57466029708E+02 -0.70920615193E+02  0.28989764717E+03  0.17200000000E+03 0. -1.
         -6    1    1    2    0  501  0.21476630929E+03 -0.57466029708E+02 -0.40892828902E+03  0.49621896148E+03  0.17200000000E+03 0. -1.
</event>
<event>
 4    1  0.3115421E-002  0.2910759E+03  0.7818608E-02  0.1089789E+00
          1   -1    0    0  502    0  0.00000000000E+00  0.00000000000E+00  0.10444642421E+04  0.10444642421E+04  0.00000000000E+00 0. -1.
         -1   -1    0    0    0  501 -0.00000000000E+00 -0.00000000000E+00 -0.10371132158E+03  0.10371132158E+03  0.00000000000E+00 0.  1.
          6    1    1    2  502    0  0.12050739885E+03 -0.20154188414E+03  0.73832560402E+03  0.79363080950E+03  0.17200000000E+03 0. -1.
         -6    1    1    2    0  501 -0.12050739885E+03  0.20154188414E+03  0.20242731647E+03  0.35454475415E+03  0.17200000000E+03 0.  1.
</event>
<event>
 4    1  0.3115421E-002  0.2190411E+03  0.7818608E-02  0.1134600E+00
          2   -1    0    0  502    0  0.00000000000E+00  0.00000000000E+00  0.20660487771E+04  0.20660487771E+04  0.00000000000E+00 0. -1.
         -2   -1    0    0    0  501 -0.00000000000E+00 -0.00000000000E+00 -0.23681421496E+02  0.23681421496E+02  0.00000000000E+00 0.  1.
          6    1    1    2  502    0  0.64412968609E+02 -0.11935643121E+03  0.87574279744E+03  0.90272057441E+03  0.17200000000E+03 0.  1.
         -6    1    1    2    0  501 -0.64412968609E+02  0.11935643121E+03  0.11666245582E+04  0.11870096242E+04  0.17200000000E+03 0. -1.
</event>
<event>
 4    1  0.3115421E-002  0.5420542E+03  0.7818608E-02  0.1003350E+00
         -1   -1    0    0    0  501 -0.00000000000E+00  0.00000000000E+00  0.94866759746E+02  0.94866759746E+02  0.00000000000E+00 0.  1.
          1   -1    0    0  502    0  0.00000000000E+00 -0.00000000000E+00 -0.39400683479E+04  0.39400683479E+04  0.00000000000E+00 0. -1.
          6    1    1    2  502    0  0.41601838074E+03  0.30193950559E+03 -0.28557061249E+04  0.29066957581E+04  0.17200000000E+03 0. -1.
         -6    1    1    2    0  501 -0.41601838074E+03 -0.30193950559E+03 -0.98949546326E+03  0.11282393496E+04  0.17200000000E+03 0.  1.
</event>
<event>
 4    1  0.3115421E-002  0.2433827E+03  0.7818608E-02  0.1117560E+00
         -1   -1    0    0    0  501 -0.00000000000E+00  0.00000000000E+00  0.48730606545E+03  0.48730606545E+03  0.00000000000E+00 0.  1.
          1   -1    0    0  502    0  0.00000000000E+00 -0.00000000000E+00 -0.16719405511E+03  0.16719405511E+03  0.00000000000E+00 0. -1.
          6    1    1    2  502    0  0.88906845886E+02 -0.14746761177E+03 -0.10918534029E+02  0.24362745771E+03  0.17200000000E+03 0. -1.
         -6    1    1    2    0  501 -0.88906845886E+02  0.14746761177E+03  0.33103054438E+03  0.41087266285E+03  0.17200000000E+03 0.  1.
</event>
<event>
 4    1  0.3115421E-002  0.2330958E+03  0.7818608E-02  0.1124480E+00
          2   -1    0    0  502    0  0.00000000000E+00  0.00000000000E+00  0.85346882163E+03  0.85346882163E+03  0.00000000000E+00 0. -1.
         -2   -1    0    0    0  501 -0.00000000000E+00 -0.00000000000E+00 -0.65000559217E+02  0.65000559217E+02  0.00000000000E+00 0.  1.
          6    1    1    2  502    0 -0.13335165111E+03 -0.83468474078E+02  0.46013220418E+03  0.51580548110E+03  0.17200000000E+03 0.  1.
         -6    1    1    2    0  501  0.13335165111E+03  0.83468474078E+02  0.32833605824E+03  0.40266389974E+03  0.17200000000E+03 0.  1.
</event>
<event>
 4    1  0.3115421E-002  0.2768378E+03  0.7818608E-02  0.1097429E+00
         -2   -1    0    0    0  501 -0.00000000000E+00  0.00000000000E+00  0.10839288468E+03  0.10839288468E+03  0.00000000000E+00 0.  1.
          2   -1    0    0  502    0  0.00000000000E+00 -0.00000000000E+00 -0.92942775825E+03  0.92942775825E+03  0.00000000000E+00 0. -1.
          6    1    1    2  502    0 -0.79583096022E+02 -0.20179615252E+03 -0.66434013637E+03  0.71971311864E+03  0.17200000000E+03 0. -1.
         -6    1    1    2    0  501  0.79583096022E+02  0.20179615252E+03 -0.15669473720E+03  0.31810752429E+03  0.17200000000E+03 0.  1.
</event>
<event>
 4    1  0.3115421E-002  0.3449016E+03  0.7818608E-02  0.1064727E+00
         -1   -1    0    0    0  501 -0.00000000000E+00  0.00000000000E+00  0.36877136000E+02  0.36877136000E+02  0.00000000000E+00 0.  1.
          1   -1    0    0  502    0  0.00000000000E+00 -0.00000000000E+00 -0.33289966197E+04  0.33289966197E+04  0.00000000000E+00 0. -1.
          6    1    1    2  502    0  0.29558504498E+03  0.44750050354E+02 -0.13497054801E+04  0.13930764404E+04  0.17200000000E+03 0. -1.
         -6    1    1    2    0  501 -0.29558504498E+03 -0.44750050354E+02 -0.19424140037E+04  0.19727973154E+04  0.17200000000E+03 0.  1.
</event>
<event>
 4    1  0.3115421E-002  0.2086377E+03  0.7818608E-02  0.1142649E+00
         -2   -1    0    0    0  501 -0.00000000000E+00  0.00000000000E+00  0.24112318655E+03  0.24112318655E+03  0.00000000000E+00 0.  1.
          2   -1    0    0  502    0  0.00000000000E+00 -0.00000000000E+00 -0.19986112994E+03  0.19986112994E+03  0.00000000000E+00 0. -1.
          6    1    1    2  502    0  0.11462949173E+03 -0.28386214760E+02  0.89206726519E+02  0.22690865479E+03  0.17200000000E+03 0. -1.
         -6    1    1    2    0  501 -0.11462949173E+03  0.28386214760E+02 -0.47944669906E+02  0.21407566170E+03  0.17200000000E+03 0. -1.
</event>
<event>
 4    1  0.3115421E-002  0.2337925E+03  0.7818608E-02  0.1123999E+00
          1   -1    0    0  502    0  0.00000000000E+00  0.00000000000E+00  0.31280319026E+04  0.31280319026E+04  0.00000000000E+00 0. -1.
         -1   -1    0    0    0  501 -0.00000000000E+00 -0.00000000000E+00 -0.68515189841E+02  0.68515189841E+02  0.00000000000E+00 0.  1.
          6    1    1    2  502    0  0.84114269850E+02  0.13416297822E+03  0.29092481799E+04  0.29186270552E+04  0.17200000000E+03 0. -1.
         -6    1    1    2    0  501 -0.84114269850E+02 -0.13416297822E+03  0.15026853281E+03  0.27792003719E+03  0.17200000000E+03 0.  1.
</event>
<event>
 4    1  0.3115421E-002  0.3253632E+03  0.7818608E-02  0.1073207E+00
          2   -1    0    0  502    0  0.00000000000E+00  0.00000000000E+00  0.12212079411E+04  0.12212079411E+04  0.00000000000E+00 0. -1.
         -2   -1    0    0    0  501 -0.00000000000E+00 -0.00000000000E+00 -0.92452024713E+02  0.92452024713E+02  0.00000000000E+00 0.  1.
          6    1    1    2  502    0 -0.19455806472E+03  0.19602140433E+03  0.72841628963E+03  0.79777911886E+03  0.17200000000E+03 0. -1.
         -6    1    1    2    0  501  0.19455806472E+03 -0.19602140433E+03  0.40033962680E+03  0.51588084699E+03  0.17200000000E+03 0.  1.
</event>
<event>
 4    1  0.3115421E-002  0.2556204E+03  0.7818608E-02  0.1109803E+00
          4   -1    0    0  502    0  0.00000000000E+00  0.00000000000E+00  0.49738057478E+03  0.49738057478E+03  0.00000000000E+00 0. -1.
         -4   -1    0    0    0  501 -0.00000000000E+00 -0.00000000000E+00 -0.15042767967E+03  0.15042767967E+03  0.00000000000E+00 0.  1.
          6    1    1    2  502    0 -0.97520850893E+02 -0.16201071044E+03  0.58192992474E+02  0.26216065881E+03  0.17200000000E+03 0.  1.
         -6    1    1    2    0  501  0.97520850893E+02  0.16201071044E+03  0.28875990264E+03  0.38564759565E+03  0.17200000000E+03 0.  1.
</event>
<event>
 4    1  0.3115421E-002  0.1817194E+03  0.7818608E-02  0.1166149E+00
         -2   -1    0    0    0  501 -0.00000000000E+00  0.00000000000E+00  0.76215520306E+02  0.76215520306E+02  0.00000000000E+00 0.  1.
          2   -1    0    0  502    0  0.00000000000E+00 -0.00000000000E+00 -0.79828141018E+03  0.79828141018E+03  0.00000000000E+00 0. -1.
          6    1    1    2  502    0  0.58621421219E+02 -0.12188487932E+01 -0.65365810383E+02  0.19311821712E+03  0.17200000000E+03 0.  1.
         -6    1    1    2    0  501 -0.58621421219E+02  0.12188487932E+01 -0.65670007949E+03  0.68137871336E+03  0.17200000000E+03 0. -1.
</event>
<event>
 4    1  0.3115421E-002  0.2022225E+03  0.7818608E-02  0.1147877E+00
         -2   -1    0    0    0  501 -0.00000000000E+00  0.00000000000E+00  0.47699478466E+02  0.47699478466E+02  0.00000000000E+00 0.  1.
          2   -1    0    0  502    0  0.00000000000E+00 -0.00000000000E+00 -0.85912209180E+03  0.85912209180E+03  0.00000000000E+00 0. -1.
          6    1    1    2  502    0 -0.11961436707E+02  0.10567332255E+03 -0.42645190295E+03  0.47196944032E+03  0.17200000000E+03 0.  1.
         -6    1    1    2    0  501  0.11961436707E+02 -0.10567332255E+03 -0.38497071039E+03  0.43485212995E+03  0.17200000000E+03 0.  1.
</event>
<event>
 4    1  0.3115421E-002  0.2273094E+03  0.7818608E-02  0.1128548E+00
          2   -1    0    0  502    0  0.00000000000E+00  0.00000000000E+00  0.35602025894E+03  0.35602025894E+03  0.00000000000E+00 0. -1.
         -2   -1    0    0    0  501 -0.00000000000E+00 -0.00000000000E+00 -0.57759766059E+03  0.57759766059E+03  0.00000000000E+00 0.  1.
          6    1    1    2  502    0 -0.36749049479E+02  0.14399680042E+03  0.29313821531E+03  0.37094417969E+03  0.17200000000E+03 0. -1.
         -6    1    1    2    0  501  0.36749049479E+02 -0.14399680042E+03 -0.51471561696E+03  0.56267373985E+03  0.17200000000E+03 0.  1.
</event>
<event>
 4    1  0.3115421E-002  0.2543120E+03  0.7818608E-02  0.1110610E+00
         -1   -1    0    0    0  501 -0.00000000000E+00  0.00000000000E+00  0.63480519585E+02  0.63480519585E+02  0.00000000000E+00 0.  1.
          1   -1    0    0  502    0  0.00000000000E+00 -0.00000000000E+00 -0.11601651860E+04  0.11601651860E+04  0.00000000000E+00 0. -1.
          6    1    1    2  502    0 -0.18306671396E+03 -0.39713689682E+02 -0.33478160491E+03  0.42042041089E+03  0.17200000000E+03 0.  1.
         -6    1    1    2    0  501  0.18306671396E+03  0.39713689682E+02 -0.76190306152E+03  0.80322529471E+03  0.17200000000E+03 0. -1.
</event>
<event>
 4    1  0.3115421E-002  0.1841661E+03  0.7818608E-02  0.1163831E+00
         -2   -1    0    0    0  501 -0.00000000000E+00  0.00000000000E+00  0.12881585486E+03  0.12881585486E+03  0.00000000000E+00 0.  1.
          2   -1    0    0  502    0  0.00000000000E+00 -0.00000000000E+00 -0.35867063165E+03  0.35867063165E+03  0.00000000000E+00 0. -1.
          6    1    1    2  502    0 -0.49684971844E+02  0.43180544086E+02 -0.24061516540E+03  0.30300629306E+03  0.17200000000E+03 0. -1.
         -6    1    1    2    0  501  0.49684971844E+02 -0.43180544086E+02  0.10760388609E+02  0.18448019346E+03  0.17200000000E+03 0.  1.
</event>
<event>
 4    1  0.3115421E-002  0.1882261E+03  0.7818608E-02  0.1160071E+00
          1   -1    0    0  502    0  0.00000000000E+00  0.00000000000E+00  0.51505560024E+03  0.51505560024E+03  0.00000000000E+00 0. -1.
         -1   -1    0    0    0  501 -0.00000000000E+00 -0.00000000000E+00 -0.10189173959E+03  0.10189173959E+03  0.00000000000E+00 0.  1.
          6    1    1    2  502    0  0.73032796350E+02 -0.22611349165E+02  0.30751291266E+02  0.19072153619E+03  0.17200000000E+03 0.  1.
         -6    1    1    2    0  501 -0.73032796350E+02  0.22611349165E+02  0.38241256939E+03  0.42622580363E+03  0.17200000000E+03 0. -1.
</event>
<event>
 4    1  0.3115421E-002  0.2218688E+03  0.7818608E-02  0.1132497E+00
         -2   -1    0    0    0  501 -0.00000000000E+00  0.00000000000E+00  0.51965799459E+02  0.51965799459E+02  0.00000000000E+00 0.  1.
          2   -1    0    0  502    0  0.00000000000E+00 -0.00000000000E+00 -0.21805606046E+04  0.21805606046E+04  0.00000000000E+00 0. -1.
          6    1    1    2  502    0  0.12273003253E+03  0.67669052108E+02 -0.19037860685E+04  0.19166708523E+04  0.17200000000E+03 0. -1.
         -6    1    1    2    0  501 -0.12273003253E+03 -0.67669052108E+02 -0.22480873664E+03  0.31585555174E+03  0.17200000000E+03 0. -1.
</event>
<event>
 4    1  0.3115421E-002  0.1749282E+03  0.7818608E-02  0.1172804E+00
          1   -1    0    0  502    0  0.00000000000E+00  0.00000000000E+00  0.82835248518E+03  0.82835248518E+03  0.00000000000E+00 0. -1.
         -1   -1    0    0    0  501 -0.00000000000E+00 -0.00000000000E+00 -0.12302779116E+03  0.12302779116E+03  0.00000000000E+00 0.  1.
          6    1    1    2  502    0  0.23821817811E+02 -0.21175577543E+02  0.75057858552E+03  0.77069325748E+03  0.17200000000E+03 0. -1.
         -6    1    1    2    0  501 -0.23821817811E+02  0.21175577543E+02 -0.45253891492E+02  0.18068701886E+03  0.17200000000E+03 0.  1.
</event>
<event>
 4    1  0.3115421E-002  0.2156751E+03  0.7818608E-02  0.1137149E+00
          2   -1    0    0  502    0  0.00000000000E+00  0.00000000000E+00  0.16665998315E+04  0.16665998315E+04  0.00000000000E+00 0. -1.
         -2   -1    0    0    0  501 -0.00000000000E+00 -0.00000000000E+00 -0.74986022073E+02  0.74986022073E+02  0.00000000000E+00 0.  1.
          6    1    1    2  502    0  0.97346641843E+02  0.86344605372E+02  0.14857638040E+04  0.15013360186E+04  0.17200000000E+03 0. -1.
         -6    1    1    2    0  501 -0.97346641843E+02 -0.86344605372E+02  0.10585000547E+03  0.24024983499E+03  0.17200000000E+03 0.  1.
</event>
<event>
 4    1  0.3115421E-002  0.1966355E+03  0.7818608E-02  0.1152609E+00
          2   -1    0    0  502    0  0.00000000000E+00  0.00000000000E+00  0.52648851357E+02  0.52648851357E+02  0.00000000000E+00 0. -1.
         -2   -1    0    0    0  501 -0.00000000000E+00 -0.00000000000E+00 -0.84202879467E+03  0.84202879467E+03  0.00000000000E+00 0.  1.
          6    1    1    2  502    0  0.43092485051E+02 -0.84997451795E+02 -0.55461970334E+03  0.58844587212E+03  0.17200000000E+03 0. -1.
         -6    1    1    2    0  501 -0.43092485051E+02  0.84997451795E+02 -0.23476023998E+03  0.30623177391E+03  0.17200000000E+03 0. -1.
</event>
<event>
 4    1  0.3115421E-002  0.1889168E+03  0.7818608E-02  0.1159442E+00
          2   -1    0    0  502    0  0.00000000000E+00  0.00000000000E+00  0.28256131307E+03  0.28256131307E+03  0.00000000000E+00 0. -1.
         -2   -1    0    0    0  501 -0.00000000000E+00 -0.00000000000E+00 -0.13446523206E+03  0.13446523206E+03  0.00000000000E+00 0.  1.
          6    1    1    2  502    0 -0.75707240969E+02 -0.19338238912E+02  0.12540732913E+03  0.22675218195E+03  0.17200000000E+03 0. -1.
         -6    1    1    2    0  501  0.75707240969E+02  0.19338238912E+02  0.22688751883E+02  0.19027436317E+03  0.17200000000E+03 0.  1.
</event>
<event>
 4    1  0.3115421E-002  0.2134314E+03  0.7818608E-02  0.1138877E+00
         -1   -1    0    0    0  501 -0.00000000000E+00  0.00000000000E+00  0.24303420607E+03  0.24303420607E+03  0.00000000000E+00 0.  1.
          1   -1    0    0  502    0  0.00000000000E+00 -0.00000000000E+00 -0.21081442883E+03  0.21081442883E+03  0.00000000000E+00 0. -1.
          6    1    1    2  502    0  0.66083710074E+02  0.10771204499E+03  0.91680773869E+02  0.23228927153E+03  0.17200000000E+03 0. -1.
         -6    1    1    2    0  501 -0.66083710074E+02 -0.10771204499E+03 -0.59460996634E+02  0.22155936336E+03  0.17200000000E+03 0.  1.
</event>
<event>
 4    1  0.3115421E-002  0.1917708E+03  0.7818608E-02  0.1156874E+00
          1   -1    0    0  502    0  0.00000000000E+00  0.00000000000E+00  0.46536986171E+03  0.46536986171E+03  0.00000000000E+00 0. -1.
         -1   -1    0    0    0  501 -0.00000000000E+00 -0.00000000000E+00 -0.23493157254E+03  0.23493157254E+03  0.00000000000E+00 0.  1.
          6    1    1    2  502    0  0.44986222219E+02 -0.71890771997E+02  0.40046278520E+03  0.44401180798E+03  0.17200000000E+03 0. -1.
         -6    1    1    2    0  501 -0.44986222219E+02  0.71890771997E+02 -0.17002449603E+03  0.25628962628E+03  0.17200000000E+03 0.  1.
</event>
<event>
 4    1  0.3115421E-002  0.2656467E+03  0.7818608E-02  0.1103797E+00
          1   -1    0    0  502    0  0.00000000000E+00  0.00000000000E+00  0.13266140461E+04  0.13266140461E+04  0.00000000000E+00 0. -1.
         -1   -1    0    0    0  501 -0.00000000000E+00 -0.00000000000E+00 -0.69755442558E+02  0.69755442558E+02  0.00000000000E+00 0.  1.
          6    1    1    2  502    0 -0.20139316468E+03 -0.20615122526E+02  0.28823456118E+03  0.39197876513E+03  0.17200000000E+03 0. -1.
         -6    1    1    2    0  501  0.20139316468E+03  0.20615122526E+02  0.96862404238E+03  0.10043907235E+04  0.17200000000E+03 0.  1.
</event>
<event>
 4    1  0.3115421E-002  0.3423426E+03  0.7818608E-02  0.1065803E+00
         -1   -1    0    0    0  501 -0.00000000000E+00  0.00000000000E+00  0.15486361762E+03  0.15486361762E+03  0.00000000000E+00 0.  1.
          1   -1    0    0  502    0  0.00000000000E+00 -0.00000000000E+00 -0.12390352823E+04  0.12390352823E+04  0.00000000000E+00 0. -1.
          6    1    1    2  502    0 -0.23645823736E+03 -0.17805039800E+03 -0.97689205245E+03  0.10351408235E+04  0.17200000000E+03 0. -1.
         -6    1    1    2    0  501  0.23645823736E+03  0.17805039800E+03 -0.10727961226E+03  0.35875807649E+03  0.17200000000E+03 0.  1.
</event>
<event>
 4    1  0.3115421E-002  0.1764477E+03  0.7818608E-02  0.1171286E+00
         -2   -1    0    0    0  501 -0.00000000000E+00  0.00000000000E+00  0.61282847512E+02  0.61282847512E+02  0.00000000000E+00 0.  1.
          2   -1    0    0  502    0  0.00000000000E+00 -0.00000000000E+00 -0.56610958916E+03  0.56610958916E+03  0.00000000000E+00 0. -1.
          6    1    1    2  502    0  0.32349568391E+02  0.22434485886E+02 -0.35288743596E+03  0.39454194098E+03  0.17200000000E+03 0. -1.
         -6    1    1    2    0  501 -0.32349568391E+02 -0.22434485886E+02 -0.15193930569E+03  0.23285049569E+03  0.17200000000E+03 0.  1.
</event>
<event>
 4    1  0.3115421E-002  0.3435278E+03  0.7818608E-02  0.1065303E+00
         -2   -1    0    0    0  501 -0.00000000000E+00  0.00000000000E+00  0.19735830814E+03  0.19735830814E+03  0.00000000000E+00 0.  1.
          2   -1    0    0  502    0  0.00000000000E+00 -0.00000000000E+00 -0.16856087787E+04  0.16856087787E+04  0.00000000000E+00 0. -1.
          6    1    1    2  502    0  0.19595440683E+03  0.22367217190E+03 -0.15004001491E+04  0.15392244727E+04  0.17200000000E+03 0. -1.
         -6    1    1    2    0  501 -0.19595440683E+03 -0.22367217190E+03  0.12149678584E+02  0.34374261407E+03  0.17200000000E+03 0.  1.
</event>
<event>
 4    1  0.3115421E-002  0.2768775E+03  0.7818608E-02  0.1097407E+00
          2   -1    0    0  502    0  0.00000000000E+00  0.00000000000E+00  0.14318087484E+04  0.14318087484E+04  0.00000000000E+00 0. -1.
         -2   -1    0    0    0  501 -0.00000000000E+00 -0.00000000000E+00 -0.61359107380E+02  0.61359107380E+02  0.00000000000E+00 0.  1.
          6    1    1    2  502    0 -0.21580387284E+03 -0.22491438769E+02  0.95171197251E+03  0.99116943808E+03  0.17200000000E+03 0. -1.
         -6    1    1    2    0  501  0.21580387284E+03  0.22491438769E+02  0.41873766851E+03  0.50199841771E+03  0.17200000000E+03 0.  1.
</event>
<event>
 4    1  0.3115421E-002  0.1737046E+03  0.7818608E-02  0.1174039E+00
          1   -1    0    0  502    0  0.00000000000E+00  0.00000000000E+00  0.92352074111E+03  0.92352074111E+03  0.00000000000E+00 0. -1.
         -1   -1    0    0    0  501 -0.00000000000E+00 -0.00000000000E+00 -0.32907234699E+02  0.32907234699E+02  0.00000000000E+00 0.  1.
          6    1    1    2  502    0 -0.20858343532E+02 -0.12418487269E+02  0.48573711366E+03  0.51586222279E+03  0.17200000000E+03 0. -1.
         -6    1    1    2    0  501  0.20858343532E+02  0.12418487269E+02  0.40487639275E+03  0.44056575301E+03  0.17200000000E+03 0.  1.
</event>
<event>
 4    1  0.3115421E-002  0.2557233E+03  0.7818608E-02  0.1109740E+00
         -2   -1    0    0    0  501 -0.00000000000E+00  0.00000000000E+00  0.14247705417E+03  0.14247705417E+03  0.00000000000E+00 0.  1.
          2   -1    0    0  502    0  0.00000000000E+00 -0.00000000000E+00 -0.12358188780E+04  0.12358188780E+04  0.00000000000E+00 0. -1.
          6    1    1    2  502    0  0.70204929882E+02  0.17573182565E+03 -0.10930574323E+04  0.11225724729E+04  0.17200000000E+03 0. -1.
         -6    1    1    2    0  501 -0.70204929882E+02 -0.17573182565E+03 -0.28439156041E+00  0.25572345924E+03  0.17200000000E+03 0.  1.
</event>
<event>
 4    1  0.3115421E-002  0.2346525E+03  0.7818608E-02  0.1123407E+00
          2   -1    0    0  502    0  0.00000000000E+00  0.00000000000E+00  0.92442033351E+02  0.92442033351E+02  0.00000000000E+00 0. -1.
         -2   -1    0    0    0  501 -0.00000000000E+00 -0.00000000000E+00 -0.62342888395E+03  0.62342888395E+03  0.00000000000E+00 0.  1.
          6    1    1    2  502    0 -0.96783095174E+01  0.15932391032E+03 -0.34106877678E+03  0.41399237742E+03  0.17200000000E+03 0.  1.
         -6    1    1    2    0  501  0.96783095174E+01 -0.15932391032E+03 -0.18991807382E+03  0.30187853987E+03  0.17200000000E+03 0. -1.
</event>
<event>
 4    1  0.3115421E-002  0.1841856E+03  0.7818608E-02  0.1163813E+00
         -1   -1    0    0    0  501 -0.00000000000E+00  0.00000000000E+00  0.30291573228E+02  0.30291573228E+02  0.00000000000E+00 0.  1.
          1   -1    0    0  502    0  0.00000000000E+00 -0.00000000000E+00 -0.11626084200E+04  0.11626084200E+04  0.00000000000E+00 0. -1.
          6    1    1    2  502    0 -0.51693256598E+02  0.40843120025E+02 -0.45187682168E+03  0.48797235086E+03  0.17200000000E+03 0.  1.
         -6    1    1    2    0  501  0.51693256598E+02 -0.40843120025E+02 -0.68044002513E+03  0.70492764241E+03  0.17200000000E+03 0. -1.
</event>
<event>
 4    1  0.3115421E-002  0.2162437E+03  0.7818608E-02  0.1136715E+00
          1   -1    0    0  502    0  0.00000000000E+00  0.00000000000E+00  0.20597606097E+04  0.20597606097E+04  0.00000000000E+00 0. -1.
         -1   -1    0    0    0  501 -0.00000000000E+00 -0.00000000000E+00 -0.55553583272E+02  0.55553583272E+02  0.00000000000E+00 0.  1.
          6    1    1    2  502    0 -0.24195307874E+02  0.12880963142E+03  0.18154300081E+04  0.18282635063E+04  0.17200000000E+03 0. -1.
         -6    1    1    2    0  501  0.24195307874E+02 -0.12880963142E+03  0.18877701825E+03  0.28705068662E+03  0.17200000000E+03 0.  1.
</event>
<event>
 4    1  0.3115421E-002  0.2332724E+03  0.7818608E-02  0.1124357E+00
         -1   -1    0    0    0  501 -0.00000000000E+00  0.00000000000E+00  0.72634425147E+02  0.72634425147E+02  0.00000000000E+00 0.  1.
          1   -1    0    0  502    0  0.00000000000E+00 -0.00000000000E+00 -0.90031417348E+03  0.90031417348E+03  0.00000000000E+00 0. -1.
          6    1    1    2  502    0  0.15748398660E+03  0.55488188965E+01 -0.61315919636E+03  0.65603368473E+03  0.17200000000E+03 0. -1.
         -6    1    1    2    0  501 -0.15748398660E+03 -0.55488188965E+01 -0.21452055198E+03  0.31691491389E+03  0.17200000000E+03 0.  1.
</event>
<event>
 4    1  0.3115421E-002  0.3556314E+03  0.7818608E-02  0.1060327E+00
          1   -1    0    0  502    0  0.00000000000E+00  0.00000000000E+00  0.29517561462E+03  0.29517561462E+03  0.00000000000E+00 0. -1.
         -1   -1    0    0    0  501 -0.00000000000E+00 -0.00000000000E+00 -0.42898291633E+03  0.42898291633E+03  0.00000000000E+00 0.  1.
          6    1    1    2  502    0  0.15823920305E+03 -0.26804854907E+03 -0.79433048155E+02  0.36439440059E+03  0.17200000000E+03 0. -1.
         -6    1    1    2    0  501 -0.15823920305E+03  0.26804854907E+03 -0.54374253559E+02  0.35976413036E+03  0.17200000000E+03 0.  1.
</event>
<event>
 4    1  0.3115421E-002  0.1832727E+03  0.7818608E-02  0.1164673E+00
          1   -1    0    0  502    0  0.00000000000E+00  0.00000000000E+00  0.10262059957E+04  0.10262059957E+04  0.00000000000E+00 0. -1.
         -1   -1    0    0    0  501 -0.00000000000E+00 -0.00000000000E+00 -0.42332736076E+02  0.42332736076E+02  0.00000000000E+00 0.  1.
          6    1    1    2  502    0 -0.62874449172E+02 -0.71901033898E+01  0.74638154669E+03  0.76855338603E+03  0.17200000000E+03 0. -1.
         -6    1    1    2    0  501  0.62874449172E+02  0.71901033898E+01  0.23749171292E+03  0.29998534573E+03  0.17200000000E+03 0.  1.
</event>
<event>
 4    1  0.3115421E-002  0.2198278E+03  0.7818608E-02  0.1134011E+00
         -2   -1    0    0    0  501 -0.00000000000E+00  0.00000000000E+00  0.24705415559E+03  0.24705415559E+03  0.00000000000E+00 0.  1.
          2   -1    0    0  502    0  0.00000000000E+00 -0.00000000000E+00 -0.25469168675E+03  0.25469168675E+03  0.00000000000E+00 0. -1.
          6    1    1    2  502    0 -0.13753109201E+02  0.13620254624E+03 -0.12465643070E+03  0.25271230150E+03  0.17200000000E+03 0. -1.
         -6    1    1    2    0  501  0.13753109201E+02 -0.13620254624E+03  0.11701889955E+03  0.24903354084E+03  0.17200000000E+03 0.  1.
</event>
<event>
 4    1  0.3115421E-002  0.2903472E+03  0.7818608E-02  0.1090168E+00
         -2   -1    0    0    0  501 -0.00000000000E+00  0.00000000000E+00  0.67035964778E+02  0.67035964778E+02  0.00000000000E+00 0.  1.
          2   -1    0    0  502    0  0.00000000000E+00 -0.00000000000E+00 -0.13205035191E+04  0.13205035191E+04  0.00000000000E+00 0. -1.
          6    1    1    2  502    0  0.13983525651E+03 -0.18751962219E+03 -0.77820615524E+03  0.83060600030E+03  0.17200000000E+03 0. -1.
         -6    1    1    2    0  501 -0.13983525651E+03  0.18751962219E+03 -0.47526139903E+03  0.55693348354E+03  0.17200000000E+03 0.  1.
</event>
<event>
 4    1  0.3115421E-002  0.2325884E+03  0.7818608E-02  0.1124831E+00
          2   -1    0    0  502    0  0.00000000000E+00  0.00000000000E+00  0.14602585790E+04  0.14602585790E+04  0.00000000000E+00 0. -1.
         -2   -1    0    0    0  501 -0.00000000000E+00 -0.00000000000E+00 -0.37954915459E+02  0.37954915459E+02  0.00000000000E+00 0.  1.
          6    1    1    2  502    0 -0.27904612226E+02  0.15406070992E+03  0.82704778619E+03  0.85913061310E+03  0.17200000000E+03 0.  1.
         -6    1    1    2    0  501  0.27904612226E+02 -0.15406070992E+03  0.59525587736E+03  0.63908288136E+03  0.17200000000E+03 0. -1.
</event>
<event>
 4    1  0.3115421E-002  0.1743510E+03  0.7818608E-02  0.1173385E+00
         -2   -1    0    0    0  501 -0.00000000000E+00  0.00000000000E+00  0.42454911942E+02  0.42454911942E+02  0.00000000000E+00 0.  1.
          2   -1    0    0  502    0  0.00000000000E+00 -0.00000000000E+00 -0.73782811358E+03  0.73782811358E+03  0.00000000000E+00 0. -1.
          6    1    1    2  502    0  0.28254424222E+02 -0.39963667086E+01 -0.28060245612E+03  0.33035741526E+03  0.17200000000E+03 0.  1.
         -6    1    1    2    0  501 -0.28254424222E+02  0.39963667086E+01 -0.41477074552E+03  0.44992561026E+03  0.17200000000E+03 0. -1.
</event>
<event>
 4    1  0.3115421E-002  0.1952446E+03  0.7818608E-02  0.1153814E+00
         -2   -1    0    0    0  501 -0.00000000000E+00  0.00000000000E+00  0.41224466458E+03  0.41224466458E+03  0.00000000000E+00 0.  1.
          2   -1    0    0  502    0  0.00000000000E+00 -0.00000000000E+00 -0.96026211481E+02  0.96026211481E+02  0.00000000000E+00 0. -1.
          6    1    1    2  502    0 -0.89564065873E+02 -0.22687529224E+02  0.20701241779E+03  0.28456033982E+03  0.17200000000E+03 0. -1.
         -6    1    1    2    0  501  0.89564065873E+02  0.22687529224E+02  0.10920603531E+03  0.22371053624E+03  0.17200000000E+03 0.  1.
</event>
<event>
 4    1  0.3115421E-002  0.2320071E+03  0.7818608E-02  0.1125235E+00
          2   -1    0    0  502    0  0.00000000000E+00  0.00000000000E+00  0.19789036092E+04  0.19789036092E+04  0.00000000000E+00 0. -1.
         -2   -1    0    0    0  501 -0.00000000000E+00 -0.00000000000E+00 -0.38172409173E+02  0.38172409173E+02  0.00000000000E+00 0.  1.
          6    1    1    2  502    0 -0.53755581536E+02 -0.14612880742E+03  0.15110668256E+04  0.15287740979E+04  0.17200000000E+03 0. -1.
         -6    1    1    2    0  501  0.53755581536E+02  0.14612880742E+03  0.42966437437E+03  0.48830192044E+03  0.17200000000E+03 0.  1.
</event>
<event>
 4    1  0.3115421E-002  0.2002903E+03  0.7818608E-02  0.1149494E+00
         -1   -1    0    0    0  501 -0.00000000000E+00  0.00000000000E+00  0.59127284990E+03  0.59127284990E+03  0.00000000000E+00 0.  1.
          1   -1    0    0  502    0  0.00000000000E+00 -0.00000000000E+00 -0.12420152747E+03  0.12420152747E+03  0.00000000000E+00 0. -1.
          6    1    1    2  502    0 -0.26233337534E+02 -0.99217002535E+02 -0.74350692274E+01  0.20042824612E+03  0.17200000000E+03 0. -1.
         -6    1    1    2    0  501  0.26233337534E+02  0.99217002535E+02  0.47450639166E+03  0.51504613125E+03  0.17200000000E+03 0.  1.
</event>
<event>
 4    1  0.3115421E-002  0.1995954E+03  0.7818608E-02  0.1150081E+00
          2   -1    0    0  502    0  0.00000000000E+00  0.00000000000E+00  0.13254263501E+04  0.13254263501E+04  0.00000000000E+00 0. -1.
         -2   -1    0    0    0  501 -0.00000000000E+00 -0.00000000000E+00 -0.30465951973E+02  0.30465951973E+02  0.00000000000E+00 0.  1.
          6    1    1    2  502    0  0.98941836426E+02  0.21559674355E+02  0.72602859085E+03  0.75296468794E+03  0.17200000000E+03 0.  1.
         -6    1    1    2    0  501 -0.98941836426E+02 -0.21559674355E+02  0.56893180730E+03  0.60292761416E+03  0.17200000000E+03 0. -1.
</event>
<event>
 4    1  0.3115421E-002  0.1803895E+03  0.7818608E-02  0.1167427E+00
         -1   -1    0    0    0  501 -0.00000000000E+00  0.00000000000E+00  0.20816241955E+02  0.20816241955E+02  0.00000000000E+00 0.  1.
          1   -1    0    0  502    0  0.00000000000E+00 -0.00000000000E+00 -0.17958732767E+04  0.17958732767E+04  0.00000000000E+00 0. -1.
          6    1    1    2  502    0  0.57027372587E+01 -0.54072560319E+02 -0.12144681583E+04  0.12277920306E+04  0.17200000000E+03 0. -1.
         -6    1    1    2    0  501 -0.57027372587E+01  0.54072560319E+02 -0.56058887649E+03  0.58889748805E+03  0.17200000000E+03 0.  1.
</event>
<event>
 4    1  0.3115421E-002  0.1869426E+03  0.7818608E-02  0.1161248E+00
          2   -1    0    0  502    0  0.00000000000E+00  0.00000000000E+00  0.10764792721E+04  0.10764792721E+04  0.00000000000E+00 0. -1.
         -2   -1    0    0    0  501 -0.00000000000E+00 -0.00000000000E+00 -0.44407445123E+02  0.44407445123E+02  0.00000000000E+00 0.  1.
          6    1    1    2  502    0 -0.70333653820E+02  0.20413410098E+02  0.80667679346E+03  0.82805493736E+03  0.17200000000E+03 0. -1.
         -6    1    1    2    0  501  0.70333653820E+02 -0.20413410098E+02  0.22539503355E+03  0.29283177991E+03  0.17200000000E+03 0.  1.
</event>
<event>
 4    1  0.3115421E-002  0.2018133E+03  0.7818608E-02  0.1148218E+00
         -2   -1    0    0    0  501 -0.00000000000E+00  0.00000000000E+00  0.14882978350E+03  0.14882978350E+03  0.00000000000E+00 0.  1.
          2   -1    0    0  502    0  0.00000000000E+00 -0.00000000000E+00 -0.28178151444E+03  0.28178151444E+03  0.00000000000E+00 0. -1.
          6    1    1    2  502    0  0.70360519319E+02 -0.78701958117E+02 -0.10303079976E+03  0.22659202675E+03  0.17200000000E+03 0.  1.
         -6    1    1    2    0  501 -0.70360519319E+02  0.78701958117E+02 -0.29920931183E+02  0.20401927118E+03  0.17200000000E+03 0.  1.
</event>
<event>
 4    1  0.3115421E-002  0.1914393E+03  0.7818608E-02  0.1157170E+00
         -4   -1    0    0    0  501 -0.00000000000E+00  0.00000000000E+00  0.16792809823E+03  0.16792809823E+03  0.00000000000E+00 0.  1.
          4   -1    0    0  502    0  0.00000000000E+00 -0.00000000000E+00 -0.30647730078E+03  0.30647730078E+03  0.00000000000E+00 0. -1.
          6    1    1    2  502    0 -0.11505307764E+02 -0.83262395034E+02 -0.19654902801E+03  0.27437295593E+03  0.17200000000E+03 0. -1.
         -6    1    1    2    0  501  0.11505307764E+02  0.83262395034E+02  0.57999825448E+02  0.20003244308E+03  0.17200000000E+03 0.  1.
</event>
<event>
 4    1  0.3115421E-002  0.2815468E+03  0.7818608E-02  0.1094847E+00
         -1   -1    0    0    0  501 -0.00000000000E+00  0.00000000000E+00  0.12443094585E+03  0.12443094585E+03  0.00000000000E+00 0.  1.
          1   -1    0    0  502    0  0.00000000000E+00 -0.00000000000E+00 -0.68575326118E+03  0.68575326118E+03  0.00000000000E+00 0. -1.
          6    1    1    2  502    0  0.15512324843E+03  0.16006678240E+03 -0.38861889349E+03  0.47988878025E+03  0.17200000000E+03 0. -1.
         -6    1    1    2    0  501 -0.15512324843E+03 -0.16006678240E+03 -0.17270342185E+03  0.33029542678E+03  0.17200000000E+03 0.  1.
</event>
<event>
 4    1  0.3115421E-002  0.2058407E+03  0.7818608E-02  0.1144903E+00
          2   -1    0    0  502    0  0.00000000000E+00  0.00000000000E+00  0.20637265845E+04  0.20637265845E+04  0.00000000000E+00 0. -1.
         -2   -1    0    0    0  501 -0.00000000000E+00 -0.00000000000E+00 -0.82859408860E+02  0.82859408860E+02  0.00000000000E+00 0.  1.
          6    1    1    2  502    0 -0.10511193758E+03  0.41687895789E+02  0.19213064093E+04  0.19323014046E+04  0.17200000000E+03 0. -1.
         -6    1    1    2    0  501  0.10511193758E+03 -0.41687895789E+02  0.59560766386E+02  0.21428458873E+03  0.17200000000E+03 0.  1.
</event>
<event>
 4    1  0.3115421E-002  0.3122364E+03  0.7818608E-02  0.1079279E+00
         -2   -1    0    0    0  501 -0.00000000000E+00  0.00000000000E+00  0.38781461475E+03  0.38781461475E+03  0.00000000000E+00 0.  1.
          2   -1    0    0  502    0  0.00000000000E+00 -0.00000000000E+00 -0.27033207756E+03  0.27033207756E+03  0.00000000000E+00 0. -1.
          6    1    1    2  502    0  0.72887904253E+02  0.25018980301E+03 -0.28373377638E+02  0.31352293804E+03  0.17200000000E+03 0. -1.
         -6    1    1    2    0  501 -0.72887904253E+02 -0.25018980301E+03  0.14585591484E+03  0.34462375427E+03  0.17200000000E+03 0.  1.
</event>
<event>
 4    1  0.3115421E-002  0.2422083E+03  0.7818608E-02  0.1118330E+00
         -2   -1    0    0    0  501 -0.00000000000E+00  0.00000000000E+00  0.18367092617E+03  0.18367092617E+03  0.00000000000E+00 0.  1.
          2   -1    0    0  502    0  0.00000000000E+00 -0.00000000000E+00 -0.58397239595E+03  0.58397239595E+03  0.00000000000E+00 0. -1.
          6    1    1    2  502    0 -0.10479044500E+03 -0.13453560208E+03 -0.45849803370E+03  0.51854152437E+03  0.17200000000E+03 0. -1.
         -6    1    1    2    0  501  0.10479044500E+03  0.13453560208E+03  0.58196563917E+02  0.24910179775E+03  0.17200000000E+03 0.  1.
</event>
<event>
 4    1  0.3115421E-002  0.2008290E+03  0.7818608E-02  0.1149041E+00
          1   -1    0    0  502    0  0.00000000000E+00  0.00000000000E+00  0.14539197869E+04  0.14539197869E+04  0.00000000000E+00 0. -1.
         -1   -1    0    0    0  501 -0.00000000000E+00 -0.00000000000E+00 -0.29295578954E+02  0.29295578954E+02  0.00000000000E+00 0.  1.
          6    1    1    2  502    0  0.40866804023E+02 -0.95279472815E+02  0.88318275641E+03  0.90572846639E+03  0.17200000000E+03 0.  1.
         -6    1    1    2    0  501 -0.40866804023E+02  0.95279472815E+02  0.54144145154E+03  0.57748689947E+03  0.17200000000E+03 0.  1.
</event>
<event>
 4    1  0.3115421E-002  0.2309753E+03  0.7818608E-02  0.1125955E+00
         -1   -1    0    0    0  501 -0.00000000000E+00  0.00000000000E+00  0.80378646413E+02  0.80378646413E+02  0.00000000000E+00 0.  1.
          1   -1    0    0  502    0  0.00000000000E+00 -0.00000000000E+00 -0.81387562235E+03  0.81387562235E+03  0.00000000000E+00 0. -1.
          6    1    1    2  502    0 -0.72466224338E+02  0.13606706795E+03 -0.55879679030E+03  0.60465151409E+03  0.17200000000E+03 0. -1.
         -6    1    1    2    0  501  0.72466224338E+02 -0.13606706795E+03 -0.17470018564E+03  0.28960275467E+03  0.17200000000E+03 0.  1.
</event>
<event>
 4    1  0.3115421E-002  0.4469112E+03  0.7818608E-02  0.1028647E+00
          2   -1    0    0  502    0  0.00000000000E+00  0.00000000000E+00  0.22022240411E+04  0.22022240411E+04  0.00000000000E+00 0. -1.
         -2   -1    0    0    0  501 -0.00000000000E+00 -0.00000000000E+00 -0.22141390688E+03  0.22141390688E+03  0.00000000000E+00 0.  1.
          6    1    1    2  502    0 -0.24063810754E+03 -0.33502081174E+03  0.19215243241E+04  0.19728115397E+04  0.17200000000E+03 0. -1.
         -6    1    1    2    0  501  0.24063810754E+03  0.33502081174E+03  0.59285810098E+02  0.45082640826E+03  0.17200000000E+03 0.  1.
</event>
<event>
 4    1  0.3115421E-002  0.3973031E+03  0.7818608E-02  0.1044718E+00
         -2   -1    0    0    0  501 -0.00000000000E+00  0.00000000000E+00  0.11681101262E+03  0.11681101262E+03  0.00000000000E+00 0.  1.
          2   -1    0    0  502    0  0.00000000000E+00 -0.00000000000E+00 -0.13637535666E+04  0.13637535666E+04  0.00000000000E+00 0. -1.
          6    1    1    2  502    0  0.87200756611E+02 -0.34736405840E+03 -0.69413915884E+03  0.79979930786E+03  0.17200000000E+03 0. -1.
         -6    1    1    2    0  501 -0.87200756611E+02  0.34736405840E+03 -0.55280339517E+03  0.68076527140E+03  0.17200000000E+03 0.  1.
</event>
<event>
 4    1  0.3115421E-002  0.1822031E+03  0.7818608E-02  0.1165688E+00
         -2   -1    0    0    0  501 -0.00000000000E+00  0.00000000000E+00  0.38643950331E+03  0.38643950331E+03  0.00000000000E+00 0.  1.
          2   -1    0    0  502    0  0.00000000000E+00 -0.00000000000E+00 -0.96692082913E+02  0.96692082913E+02  0.00000000000E+00 0. -1.
          6    1    1    2  502    0  0.57282209993E+02  0.18240581346E+02  0.22554999454E+03  0.28994959981E+03  0.17200000000E+03 0. -1.
         -6    1    1    2    0  501 -0.57282209993E+02 -0.18240581346E+02  0.64197425853E+02  0.19318198642E+03  0.17200000000E+03 0.  1.
</event>
<event>
 4    1  0.3115421E-002  0.1834606E+03  0.7818608E-02  0.1164495E+00
         -1   -1    0    0    0  501 -0.00000000000E+00  0.00000000000E+00  0.12023896795E+04  0.12023896795E+04  0.00000000000E+00 0.  1.
          1   -1    0    0  502    0  0.00000000000E+00 -0.00000000000E+00 -0.58690088846E+02  0.58690088846E+02  0.00000000000E+00 0. -1.
          6    1    1    2  502    0  0.49034414172E+02  0.40858545334E+02  0.11583084378E+03  0.21696676905E+03  0.17200000000E+03 0. -1.
         -6    1    1    2    0  501 -0.49034414172E+02 -0.40858545334E+02  0.10278687468E+04  0.10441129993E+04  0.17200000000E+03 0.  1.
</event>
<event>
 4    1  0.3115421E-002  0.1866334E+03  0.7818608E-02  0.1161533E+00
          1   -1    0    0  502    0  0.00000000000E+00  0.00000000000E+00  0.14361682068E+04  0.14361682068E+04  0.00000000000E+00 0. -1.
         -1   -1    0    0    0  501 -0.00000000000E+00 -0.00000000000E+00 -0.24547694284E+02  0.24547694284E+02  0.00000000000E+00 0.  1.
          6    1    1    2  502    0  0.62503420542E+02  0.36624271772E+02  0.62584632167E+03  0.65308164361E+03  0.17200000000E+03 0. -1.
         -6    1    1    2    0  501 -0.62503420542E+02 -0.36624271772E+02  0.78577419089E+03  0.80763425753E+03  0.17200000000E+03 0. -1.
</event>
<event>
 4    1  0.3115421E-002  0.1745520E+03  0.7818608E-02  0.1173182E+00
          1   -1    0    0  502    0  0.00000000000E+00  0.00000000000E+00  0.11431887447E+04  0.11431887447E+04  0.00000000000E+00 0. -1.
         -1   -1    0    0    0  501 -0.00000000000E+00 -0.00000000000E+00 -0.27843826042E+02  0.27843826042E+02  0.00000000000E+00 0.  1.
          6    1    1    2  502    0 -0.29462956167E+02  0.40413286797E+01  0.67880476039E+03  0.70088822279E+03  0.17200000000E+03 0. -1.
         -6    1    1    2    0  501  0.29462956167E+02 -0.40413286797E+01  0.43654015823E+03  0.47014434791E+03  0.17200000000E+03 0.  1.
</event>
<event>
 4    1  0.3115421E-002  0.7409296E+03  0.7818608E-02  0.9649689E-01
          1   -1    0    0  502    0  0.00000000000E+00  0.00000000000E+00  0.14669583458E+04  0.14669583458E+04  0.00000000000E+00 0. -1.
         -1   -1    0    0    0  501 -0.00000000000E+00 -0.00000000000E+00 -0.37502633007E+03  0.37502633007E+03  0.00000000000E+00 0.  1.
          6    1    1    2  502    0 -0.71808202554E+03 -0.61244923094E+02  0.58846166340E+03  0.94618384329E+03  0.17200000000E+03 0. -1.
         -6    1    1    2    0  501  0.71808202554E+03  0.61244923094E+02  0.50347035237E+03  0.89580083262E+03  0.17200000000E+03 0.  1.
</event>
<event>
 4    1  0.3115421E-002  0.1921408E+03  0.7818608E-02  0.1156545E+00
         -1   -1    0    0    0  501 -0.00000000000E+00  0.00000000000E+00  0.26933021472E+03  0.26933021472E+03  0.00000000000E+00 0.  1.
          1   -1    0    0  502    0  0.00000000000E+00 -0.00000000000E+00 -0.15044041001E+03  0.15044041001E+03  0.00000000000E+00 0. -1.
          6    1    1    2  502    0 -0.85638636047E+02 -0.30726258197E+00  0.12200727091E+03  0.22760457937E+03  0.17200000000E+03 0.  1.
         -6    1    1    2    0  501  0.85638636047E+02  0.30726258197E+00 -0.31174662071E+01  0.19216604536E+03  0.17200000000E+03 0. -1.
</event>
<event>
 4    1  0.3115421E-002  0.1871640E+03  0.7818608E-02  0.1161044E+00
          2   -1    0    0  502    0  0.00000000000E+00  0.00000000000E+00  0.19961287127E+02  0.19961287127E+02  0.00000000000E+00 0. -1.
         -2   -1    0    0    0  501 -0.00000000000E+00 -0.00000000000E+00 -0.18065858621E+04  0.18065858621E+04  0.00000000000E+00 0.  1.
          6    1    1    2  502    0  0.72290084832E+02  0.14849511182E+02 -0.10477644486E+04  0.10643498974E+04  0.17200000000E+03 0.  1.
         -6    1    1    2    0  501 -0.72290084832E+02 -0.14849511182E+02 -0.73886012638E+03  0.76219725183E+03  0.17200000000E+03 0. -1.
</event>
<event>
 4    1  0.3115421E-002  0.2046010E+03  0.7818608E-02  0.1145914E+00
         -2   -1    0    0    0  501 -0.00000000000E+00  0.00000000000E+00  0.21464984880E+02  0.21464984880E+02  0.00000000000E+00 0.  1.
          2   -1    0    0  502    0  0.00000000000E+00 -0.00000000000E+00 -0.21286528018E+04  0.21286528018E+04  0.00000000000E+00 0. -1.
          6    1    1    2  502    0 -0.66810763236E+02 -0.88396191959E+02 -0.13648445605E+04  0.13800950109E+04  0.17200000000E+03 0. -1.
         -6    1    1    2    0  501  0.66810763236E+02  0.88396191959E+02 -0.74234325642E+03  0.77002277576E+03  0.17200000000E+03 0.  1.
</event>
<event>
 4    1  0.3115421E-002  0.5157267E+03  0.7818608E-02  0.1009754E+00
         -1   -1    0    0    0  501 -0.00000000000E+00  0.00000000000E+00  0.52220706860E+03  0.52220706860E+03  0.00000000000E+00 0.  1.
          1   -1    0    0  502    0  0.00000000000E+00 -0.00000000000E+00 -0.50935455222E+03  0.50935455222E+03  0.00000000000E+00 0. -1.
          6    1    1    2  502    0  0.39547017558E+03 -0.28283089958E+03  0.10243629406E+02  0.51582837211E+03  0.17200000000E+03 0. -1.
         -6    1    1    2    0  501 -0.39547017558E+03  0.28283089958E+03  0.26088869759E+01  0.51573324871E+03  0.17200000000E+03 0.  1.
</event>
<event>
 4    1  0.3115421E-002  0.1942828E+03  0.7818608E-02  0.1154654E+00
          2   -1    0    0  502    0  0.00000000000E+00  0.00000000000E+00  0.21902768820E+03  0.21902768820E+03  0.00000000000E+00 0. -1.
         -2   -1    0    0    0  501 -0.00000000000E+00 -0.00000000000E+00 -0.18475348261E+03  0.18475348261E+03  0.00000000000E+00 0.  1.
          6    1    1    2  502    0  0.88476468034E+02 -0.18267857450E+02  0.69482788159E+02  0.20633385050E+03  0.17200000000E+03 0. -1.
         -6    1    1    2    0  501 -0.88476468034E+02  0.18267857450E+02 -0.35208582563E+02  0.19744732031E+03  0.17200000000E+03 0.  1.
</event>
<event>
 4    1  0.3115421E-002  0.1874661E+03  0.7818608E-02  0.1160767E+00
          1   -1    0    0  502    0  0.00000000000E+00  0.00000000000E+00  0.10352807923E+04  0.10352807923E+04  0.00000000000E+00 0. -1.
         -1   -1    0    0    0  501 -0.00000000000E+00 -0.00000000000E+00 -0.78301408867E+02  0.78301408867E+02  0.00000000000E+00 0.  1.
          6    1    1    2  502    0  0.73632503353E+02 -0.11737766871E+02  0.89755466518E+03  0.91692305986E+03  0.17200000000E+03 0. -1.
         -6    1    1    2    0  501 -0.73632503353E+02  0.11737766871E+02  0.59424718259E+02  0.19665914131E+03  0.17200000000E+03 0.  1.
</event>
<event>
 4    1  0.3115421E-002  0.2280065E+03  0.7818608E-02  0.1128051E+00
          2   -1    0    0  502    0  0.00000000000E+00  0.00000000000E+00  0.34747573078E+03  0.34747573078E+03  0.00000000000E+00 0. -1.
         -2   -1    0    0    0  501 -0.00000000000E+00 -0.00000000000E+00 -0.15050473851E+03  0.15050473851E+03  0.00000000000E+00 0.  1.
          6    1    1    2  502    0  0.12538201126E+03  0.81745295008E+02  0.11764953731E+03  0.25657037170E+03  0.17200000000E+03 0. -1.
         -6    1    1    2    0  501 -0.12538201126E+03 -0.81745295008E+02  0.79321454969E+02  0.24141009760E+03  0.17200000000E+03 0. -1.
</event>
<event>
 4    1  0.3115421E-002  0.3166178E+03  0.7818608E-02  0.1077217E+00
         -2   -1    0    0    0  501 -0.00000000000E+00  0.00000000000E+00  0.62801989210E+02  0.62801989210E+02  0.00000000000E+00 0.  1.
          2   -1    0    0  502    0  0.00000000000E+00 -0.00000000000E+00 -0.16048884225E+04  0.16048884225E+04  0.00000000000E+00 0. -1.
          6    1    1    2  502    0  0.11961632564E+03 -0.23739153309E+03 -0.70981830628E+03  0.77723151845E+03  0.17200000000E+03 0. -1.
         -6    1    1    2    0  501 -0.11961632564E+03  0.23739153309E+03 -0.83226812696E+03  0.89045889321E+03  0.17200000000E+03 0.  1.
</event>
<event>
 4    1  0.3115421E-002  0.2547681E+03  0.7818608E-02  0.1110328E+00
          2   -1    0    0  502    0  0.00000000000E+00  0.00000000000E+00  0.18840364040E+04  0.18840364040E+04  0.00000000000E+00 0. -1.
         -2   -1    0    0    0  501 -0.00000000000E+00 -0.00000000000E+00 -0.40156390135E+02  0.40156390135E+02  0.00000000000E+00 0.  1.
          6    1    1    2  502    0  0.15013890786E+03  0.11305344558E+03  0.12845896558E+04  0.13096096201E+04  0.17200000000E+03 0. -1.
         -6    1    1    2    0  501 -0.15013890786E+03 -0.11305344558E+03  0.55929035804E+03  0.61458317404E+03  0.17200000000E+03 0.  1.
</event>
<event>
 4    1  0.3115421E-002  0.1900149E+03  0.7818608E-02  0.1158448E+00
         -2   -1    0    0    0  501 -0.00000000000E+00  0.00000000000E+00  0.34043860464E+02  0.34043860464E+02  0.00000000000E+00 0.  1.
          2   -1    0    0  502    0  0.00000000000E+00 -0.00000000000E+00 -0.18125548365E+04  0.18125548365E+04  0.00000000000E+00 0. -1.
          6    1    1    2  502    0  0.48555724947E+02  0.64528972873E+02 -0.14839632636E+04  0.14960790803E+04  0.17200000000E+03 0. -1.
         -6    1    1    2    0  501 -0.48555724947E+02 -0.64528972873E+02 -0.29454771236E+03  0.35051961660E+03  0.17200000000E+03 0.  1.
</event>
<event>
 4    1  0.3115421E-002  0.2306809E+03  0.7818608E-02  0.1126161E+00
          2   -1    0    0  502    0  0.00000000000E+00  0.00000000000E+00  0.20253375615E+04  0.20253375615E+04  0.00000000000E+00 0. -1.
         -2   -1    0    0    0  501 -0.00000000000E+00 -0.00000000000E+00 -0.42829480221E+02  0.42829480221E+02  0.00000000000E+00 0.  1.
          6    1    1    2  502    0  0.14580103084E+03 -0.48700494609E+02  0.16341717191E+04  0.16503729537E+04  0.17200000000E+03 0. -1.
         -6    1    1    2    0  501 -0.14580103084E+03  0.48700494609E+02  0.34833636213E+03  0.41779408798E+03  0.17200000000E+03 0.  1.
</event>
<event>
 4    1  0.3115421E-002  0.3082322E+03  0.7818608E-02  0.1081196E+00
         -1   -1    0    0    0  501 -0.00000000000E+00  0.00000000000E+00  0.16313711759E+03  0.16313711759E+03  0.00000000000E+00 0.  1.
          1   -1    0    0  502    0  0.00000000000E+00 -0.00000000000E+00 -0.62564776467E+03  0.62564776467E+03  0.00000000000E+00 0. -1.
          6    1    1    2  502    0 -0.12214560233E+03  0.22472987151E+03 -0.12753392653E+03  0.33357452801E+03  0.17200000000E+03 0. -1.
         -6    1    1    2    0  501  0.12214560233E+03 -0.22472987151E+03 -0.33497672055E+03  0.45521035426E+03  0.17200000000E+03 0.  1.
</event>
<event>
 4    1  0.3115421E-002  0.1845020E+03  0.7818608E-02  0.1163516E+00
          2   -1    0    0  502    0  0.00000000000E+00  0.00000000000E+00  0.66241955858E+02  0.66241955858E+02  0.00000000000E+00 0. -1.
         -2   -1    0    0    0  501 -0.00000000000E+00 -0.00000000000E+00 -0.52500170069E+03  0.52500170069E+03  0.00000000000E+00 0.  1.
          6    1    1    2  502    0  0.34722086450E+02 -0.57020757062E+02 -0.18636956283E+03  0.26224912578E+03  0.17200000000E+03 0. -1.
         -6    1    1    2    0  501 -0.34722086450E+02  0.57020757062E+02 -0.27239018200E+03  0.32899453077E+03  0.17200000000E+03 0.  1.
</event>
<event>
 4    1  0.3115421E-002  0.1959714E+03  0.7818608E-02  0.1153183E+00
         -2   -1    0    0    0  501 -0.00000000000E+00  0.00000000000E+00  0.17784252418E+02  0.17784252418E+02  0.00000000000E+00 0.  1.
          2   -1    0    0  502    0  0.00000000000E+00 -0.00000000000E+00 -0.38212688531E+04  0.38212688531E+04  0.00000000000E+00 0. -1.
          6    1    1    2  502    0  0.35302834920E+02  0.87031570256E+02 -0.31675796406E+04  0.31736360163E+04  0.17200000000E+03 0. -1.
         -6    1    1    2    0  501 -0.35302834920E+02 -0.87031570256E+02 -0.63590496007E+03  0.66541708922E+03  0.17200000000E+03 0.  1.
</event>
<event>
 4    1  0.3115421E-002  0.2312548E+03  0.7818608E-02  0.1125760E+00
          2   -1    0    0  502    0  0.00000000000E+00  0.00000000000E+00  0.15158463724E+04  0.15158463724E+04  0.00000000000E+00 0. -1.
         -2   -1    0    0    0  501 -0.00000000000E+00 -0.00000000000E+00 -0.15827721734E+03  0.15827721734E+03  0.00000000000E+00 0.  1.
          6    1    1    2  502    0 -0.83000433814E+02 -0.13040592009E+03  0.14166825058E+04  0.14354330700E+04  0.17200000000E+03 0. -1.
         -6    1    1    2    0  501  0.83000433814E+02  0.13040592009E+03 -0.59113350741E+02  0.23869051980E+03  0.17200000000E+03 0.  1.
</event>
<event>
 4    1  0.3115421E-002  0.2841705E+03  0.7818608E-02  0.1093433E+00
          1   -1    0    0  502    0  0.00000000000E+00  0.00000000000E+00  0.42488210339E+03  0.42488210339E+03  0.00000000000E+00 0. -1.
         -1   -1    0    0    0  501 -0.00000000000E+00 -0.00000000000E+00 -0.50214524791E+03  0.50214524791E+03  0.00000000000E+00 0.  1.
          6    1    1    2  502    0  0.10610003025E+03  0.19977899659E+03  0.32678216353E+03  0.43305824816E+03  0.17200000000E+03 0. -1.
         -6    1    1    2    0  501 -0.10610003025E+03 -0.19977899659E+03 -0.40404530805E+03  0.49396910314E+03  0.17200000000E+03 0.  1.
</event>
<event>
 4    1  0.3115421E-002  0.1741063E+03  0.7818608E-02  0.1173632E+00
          2   -1    0    0  502    0  0.00000000000E+00  0.00000000000E+00  0.38897574169E+03  0.38897574169E+03  0.00000000000E+00 0. -1.
         -2   -1    0    0    0  501 -0.00000000000E+00 -0.00000000000E+00 -0.84314598864E+02  0.84314598864E+02  0.00000000000E+00 0.  1.
          6    1    1    2  502    0 -0.16654852853E+02 -0.21251377283E+02  0.87212417323E+02  0.19472804342E+03  0.17200000000E+03 0.  1.
         -6    1    1    2    0  501  0.16654852853E+02  0.21251377283E+02  0.21744872550E+03  0.27856229713E+03  0.17200000000E+03 0. -1.
</event>
<event>
 4    1  0.3115421E-002  0.3013677E+03  0.7818608E-02  0.1084559E+00
         -2   -1    0    0    0  501 -0.00000000000E+00  0.00000000000E+00  0.12958617281E+03  0.12958617281E+03  0.00000000000E+00 0.  1.
          2   -1    0    0  502    0  0.00000000000E+00 -0.00000000000E+00 -0.82477170520E+03  0.82477170520E+03  0.00000000000E+00 0. -1.
          6    1    1    2  502    0 -0.23904846646E+03  0.63986806853E+02 -0.53254555253E+03  0.61190460554E+03  0.17200000000E+03 0. -1.
         -6    1    1    2    0  501  0.23904846646E+03 -0.63986806853E+02 -0.16263997986E+03  0.34245327246E+03  0.17200000000E+03 0.  1.
</event>
<event>
 4    1  0.3115421E-002  0.2242700E+03  0.7818608E-02  0.1130739E+00
         -2   -1    0    0    0  501 -0.00000000000E+00  0.00000000000E+00  0.10650674694E+03  0.10650674694E+03  0.00000000000E+00 0.  1.
          2   -1    0    0  502    0  0.00000000000E+00 -0.00000000000E+00 -0.61920706280E+03  0.61920706280E+03  0.00000000000E+00 0. -1.
          6    1    1    2  502    0 -0.12810611556E+03  0.65588646441E+02 -0.43312614454E+03  0.48774512245E+03  0.17200000000E+03 0. -1.
         -6    1    1    2    0  501  0.12810611556E+03 -0.65588646441E+02 -0.79574171322E+02  0.23796868729E+03  0.17200000000E+03 0.  1.
</event>
<event>
 4    1  0.3115421E-002  0.5112443E+03  0.7818608E-02  0.1010885E+00
         -1   -1    0    0    0  501 -0.00000000000E+00  0.00000000000E+00  0.36666162239E+03  0.36666162239E+03  0.00000000000E+00 0.  1.
          1   -1    0    0  502    0  0.00000000000E+00 -0.00000000000E+00 -0.88355397021E+03  0.88355397021E+03  0.00000000000E+00 0. -1.
          6    1    1    2  502    0 -0.47863596589E+03 -0.51907463741E+02 -0.53321910095E+03  0.73871062146E+03  0.17200000000E+03 0. -1.
         -6    1    1    2    0  501  0.47863596589E+03  0.51907463741E+02  0.16326753128E+02  0.51150497115E+03  0.17200000000E+03 0.  1.
</event>
<event>
 4    1  0.3115421E-002  0.1895479E+03  0.7818608E-02  0.1158870E+00
          2   -1    0    0  502    0  0.00000000000E+00  0.00000000000E+00  0.43688351902E+03  0.43688351902E+03  0.00000000000E+00 0. -1.
         -2   -1    0    0    0  501 -0.00000000000E+00 -0.00000000000E+00 -0.12409587590E+03  0.12409587590E+03  0.00000000000E+00 0.  1.
          6    1    1    2  502    0 -0.59449604868E+02 -0.53010982555E+02  0.31929600911E+03  0.37131975604E+03  0.17200000000E+03 0. -1.
         -6    1    1    2    0  501  0.59449604868E+02  0.53010982555E+02 -0.65083659968E+01  0.18965963888E+03  0.17200000000E+03 0.  1.
</event>
<event>
 4    1  0.3115421E-002  0.3638209E+03  0.7818608E-02  0.1057081E+00
         -1   -1    0    0    0  501 -0.00000000000E+00  0.00000000000E+00  0.10119703312E+03  0.10119703312E+03  0.00000000000E+00 0.  1.
          1   -1    0    0  502    0  0.00000000000E+00 -0.00000000000E+00 -0.16133905750E+04  0.16133905750E+04  0.00000000000E+00 0. -1.
          6    1    1    2  502    0 -0.23898876042E+03 -0.21369606871E+03 -0.38311438935E+03  0.52833916447E+03  0.17200000000E+03 0. -1.
         -6    1    1    2    0  501  0.23898876042E+03  0.21369606871E+03 -0.11290791525E+04  0.11862484436E+04  0.17200000000E+03 0. -1.
</event>
<event>
 4    1  0.3115421E-002  0.1802043E+03  0.7818608E-02  0.1167605E+00
          2   -1    0    0  502    0  0.00000000000E+00  0.00000000000E+00  0.50806400643E+03  0.50806400643E+03  0.00000000000E+00 0. -1.
         -2   -1    0    0    0  501 -0.00000000000E+00 -0.00000000000E+00 -0.37512148992E+03  0.37512148992E+03  0.00000000000E+00 0.  1.
          6    1    1    2  502    0 -0.49054028496E+02 -0.21983905407E+02  0.46868726576E+03  0.50213677708E+03  0.17200000000E+03 0. -1.
         -6    1    1    2    0  501  0.49054028496E+02  0.21983905407E+02 -0.33574474925E+03  0.38104871927E+03  0.17200000000E+03 0.  1.
</event>
<event>
 4    1  0.3115421E-002  0.3511248E+03  0.7818608E-02  0.1062154E+00
          2   -1    0    0  502    0  0.00000000000E+00  0.00000000000E+00  0.20971875299E+04  0.20971875299E+04  0.00000000000E+00 0. -1.
         -2   -1    0    0    0  501 -0.00000000000E+00 -0.00000000000E+00 -0.74982061202E+02  0.74982061202E+02  0.00000000000E+00 0.  1.
          6    1    1    2  502    0 -0.29084441535E+03  0.95468001854E+02  0.50636200443E+03  0.61619079257E+03  0.17200000000E+03 0. -1.
         -6    1    1    2    0  501  0.29084441535E+03 -0.95468001854E+02  0.15158434643E+04  0.15559787985E+04  0.17200000000E+03 0.  1.
</event>
<event>
 4    1  0.3115421E-002  0.3367684E+03  0.7818608E-02  0.1068181E+00
         -1   -1    0    0    0  501 -0.00000000000E+00  0.00000000000E+00  0.10689355580E+03  0.10689355580E+03  0.00000000000E+00 0.  1.
          1   -1    0    0  502    0  0.00000000000E+00 -0.00000000000E+00 -0.10652855347E+04  0.10652855347E+04  0.00000000000E+00 0. -1.
          6    1    1    2  502    0  0.18448662056E+03 -0.22314486314E+03 -0.44197708975E+03  0.55565879006E+03  0.17200000000E+03 0. -1.
         -6    1    1    2    0  501 -0.18448662056E+03  0.22314486314E+03 -0.51641488911E+03  0.61652030040E+03  0.17200000000E+03 0.  1.
</event>
<event>
 4    1  0.3115421E-002  0.1828115E+03  0.7818608E-02  0.1165109E+00
          2   -1    0    0  502    0  0.00000000000E+00  0.00000000000E+00  0.32970031858E+03  0.32970031858E+03  0.00000000000E+00 0. -1.
         -2   -1    0    0    0  501 -0.00000000000E+00 -0.00000000000E+00 -0.13743722031E+03  0.13743722031E+03  0.00000000000E+00 0.  1.
          6    1    1    2  502    0  0.13209594284E+01  0.61921783923E+02  0.21579166073E+03  0.28281812725E+03  0.17200000000E+03 0. -1.
         -6    1    1    2    0  501 -0.13209594284E+01 -0.61921783923E+02 -0.23528562458E+02  0.18431941165E+03  0.17200000000E+03 0.  1.
</event>
<event>
 4    1  0.3115421E-002  0.2425130E+03  0.7818608E-02  0.1118130E+00
          2   -1    0    0  502    0  0.00000000000E+00  0.00000000000E+00  0.10503459583E+04  0.10503459583E+04  0.00000000000E+00 0. -1.
         -2   -1    0    0    0  501 -0.00000000000E+00 -0.00000000000E+00 -0.57399667191E+02  0.57399667191E+02  0.00000000000E+00 0.  1.
          6    1    1    2  502    0 -0.54967124836E+02  0.16188627784E+03  0.40978233680E+03  0.47616605856E+03  0.17200000000E+03 0.  1.
         -6    1    1    2    0  501  0.54967124836E+02 -0.16188627784E+03  0.58316395431E+03  0.63157956694E+03  0.17200000000E+03 0. -1.
</event>
<event>
 4    1  0.3115421E-002  0.2905320E+03  0.7818608E-02  0.1090072E+00
          2   -1    0    0  502    0  0.00000000000E+00  0.00000000000E+00  0.31916202545E+03  0.31916202545E+03  0.00000000000E+00 0. -1.
         -2   -1    0    0    0  501 -0.00000000000E+00 -0.00000000000E+00 -0.13423834261E+04  0.13423834261E+04  0.00000000000E+00 0.  1.
          6    1    1    2  502    0  0.88326968907E+01 -0.23398041897E+03  0.23283981464E+03  0.37232140991E+03  0.17200000000E+03 0. -1.
         -6    1    1    2    0  501 -0.88326968907E+01  0.23398041897E+03 -0.12560612153E+04  0.12892240416E+04  0.17200000000E+03 0.  1.
</event>
<event>
 4    1  0.3115421E-002  0.3393004E+03  0.7818608E-02  0.1067094E+00
         -2   -1    0    0    0  501 -0.00000000000E+00  0.00000000000E+00  0.51741250452E+02  0.51741250452E+02  0.00000000000E+00 0.  1.
          2   -1    0    0  502    0  0.00000000000E+00 -0.00000000000E+00 -0.25965590437E+04  0.25965590437E+04  0.00000000000E+00 0. -1.
          6    1    1    2  502    0  0.27877947039E+03 -0.88446265860E+02 -0.17733041723E+04  0.18054729083E+04  0.17200000000E+03 0. -1.
         -6    1    1    2    0  501 -0.27877947039E+03  0.88446265860E+02 -0.77151362089E+03  0.84282738581E+03  0.17200000000E+03 0.  1.
</event>
<event>
 4    1  0.3115421E-002  0.1981206E+03  0.7818608E-02  0.1151334E+00
          2   -1    0    0  502    0  0.00000000000E+00  0.00000000000E+00  0.25887555252E+04  0.25887555252E+04  0.00000000000E+00 0. -1.
         -2   -1    0    0    0  501 -0.00000000000E+00 -0.00000000000E+00 -0.26506261654E+02  0.26506261654E+02  0.00000000000E+00 0.  1.
          6    1    1    2  502    0 -0.41271074735E+02  0.89243958868E+02  0.21365676855E+04  0.21457337348E+04  0.17200000000E+03 0. -1.
         -6    1    1    2    0  501  0.41271074735E+02 -0.89243958868E+02  0.42568157801E+03  0.46952805205E+03  0.17200000000E+03 0.  1.
</event>
<event>
 4    1  0.3115421E-002  0.4809667E+03  0.7818608E-02  0.1018870E+00
         -2   -1    0    0    0  501 -0.00000000000E+00  0.00000000000E+00  0.38218604388E+03  0.38218604388E+03  0.00000000000E+00 0.  1.
          2   -1    0    0  502    0  0.00000000000E+00 -0.00000000000E+00 -0.25168250449E+04  0.25168250449E+04  0.00000000000E+00 0. -1.
          6    1    1    2  502    0  0.44687666243E+03 -0.45235635716E+02 -0.23305593011E+04  0.23796713366E+04  0.17200000000E+03 0. -1.
         -6    1    1    2    0  501 -0.44687666243E+03  0.45235635716E+02  0.19592030014E+03  0.51933975216E+03  0.17200000000E+03 0.  1.
</event>
<event>
 4    1  0.3115421E-002  0.2034373E+03  0.7818608E-02  0.1146871E+00
         -4   -1    0    0    0  501 -0.00000000000E+00  0.00000000000E+00  0.75729341535E+02  0.75729341535E+02  0.00000000000E+00 0.  1.
          4   -1    0    0  502    0  0.00000000000E+00 -0.00000000000E+00 -0.56158812635E+03  0.56158812635E+03  0.00000000000E+00 0. -1.
          6    1    1    2  502    0 -0.56112161037E+02 -0.93027755649E+02 -0.29514621362E+03  0.35846621228E+03  0.17200000000E+03 0. -1.
         -6    1    1    2    0  501  0.56112161037E+02  0.93027755649E+02 -0.19071257120E+03  0.27885125560E+03  0.17200000000E+03 0.  1.
</event>
<event>
 4    1  0.3115421E-002  0.4669507E+03  0.7818608E-02  0.1022784E+00
         -2   -1    0    0    0  501 -0.00000000000E+00  0.00000000000E+00  0.22112826336E+03  0.22112826336E+03  0.00000000000E+00 0.  1.
          2   -1    0    0  502    0  0.00000000000E+00 -0.00000000000E+00 -0.10048930173E+04  0.10048930173E+04  0.00000000000E+00 0. -1.
          6    1    1    2  502    0 -0.41819267515E+03 -0.11650693137E+03 -0.47583064640E+03  0.66667667025E+03  0.17200000000E+03 0. -1.
         -6    1    1    2    0  501  0.41819267515E+03  0.11650693137E+03 -0.30793410753E+03  0.55934461040E+03  0.17200000000E+03 0.  1.
</event>
<event>
 4    1  0.3115421E-002  0.1959733E+03  0.7818608E-02  0.1153182E+00
         -2   -1    0    0    0  501 -0.00000000000E+00  0.00000000000E+00  0.23966069332E+03  0.23966069332E+03  0.00000000000E+00 0.  1.
          2   -1    0    0  502    0  0.00000000000E+00 -0.00000000000E+00 -0.16025294805E+03  0.16025294805E+03  0.00000000000E+00 0. -1.
          6    1    1    2  502    0  0.93251256675E+02  0.11212527158E+02  0.40624986219E+02  0.20013971905E+03  0.17200000000E+03 0.  1.
         -6    1    1    2    0  501 -0.93251256675E+02 -0.11212527158E+02  0.38782759052E+02  0.19977392231E+03  0.17200000000E+03 0.  1.
</event>
<event>
 4    1  0.3115421E-002  0.2907602E+03  0.7818608E-02  0.1089953E+00
         -1   -1    0    0    0  501 -0.00000000000E+00  0.00000000000E+00  0.15940955141E+03  0.15940955141E+03  0.00000000000E+00 0.  1.
          1   -1    0    0  502    0  0.00000000000E+00 -0.00000000000E+00 -0.64145163461E+03  0.64145163461E+03  0.00000000000E+00 0. -1.
          6    1    1    2  502    0 -0.15059863784E+03 -0.17965957694E+03 -0.40767743284E+03  0.50074185221E+03  0.17200000000E+03 0. -1.
         -6    1    1    2    0  501  0.15059863784E+03  0.17965957694E+03 -0.74364650355E+02  0.30011933381E+03  0.17200000000E+03 0.  1.
</event>
<event>
 4    1  0.3115421E-002  0.2039087E+03  0.7818608E-02  0.1146483E+00
          1   -1    0    0  502    0  0.00000000000E+00  0.00000000000E+00  0.59643139078E+03  0.59643139078E+03  0.00000000000E+00 0. -1.
         -1   -1    0    0    0  501 -0.00000000000E+00 -0.00000000000E+00 -0.74798492298E+02  0.74798492298E+02  0.00000000000E+00 0.  1.
          6    1    1    2  502    0 -0.61281969090E+02  0.90770483377E+02  0.17330194002E+03  0.26760478845E+03  0.17200000000E+03 0. -1.
         -6    1    1    2    0  501  0.61281969090E+02 -0.90770483377E+02  0.34833095847E+03  0.40362509463E+03  0.17200000000E+03 0.  1.
</event>
<event>
 4    1  0.3115421E-002  0.1913955E+03  0.7818608E-02  0.1157209E+00
         -1   -1    0    0    0  501 -0.00000000000E+00  0.00000000000E+00  0.57474750894E+02  0.57474750894E+02  0.00000000000E+00 0.  1.
          1   -1    0    0  502    0  0.00000000000E+00 -0.00000000000E+00 -0.11978347316E+04  0.11978347316E+04  0.00000000000E+00 0. -1.
          6    1    1    2  502    0 -0.13486955012E+02 -0.82863351026E+02 -0.14084178679E+03  0.23763131487E+03  0.17200000000E+03 0.  1.
         -6    1    1    2    0  501  0.13486955012E+02  0.82863351026E+02 -0.99951819393E+03  0.10176781676E+04  0.17200000000E+03 0. -1.
</event>
<event>
 4    1  0.3115421E-002  0.2348224E+03  0.7818608E-02  0.1123291E+00
         -2   -1    0    0    0  501 -0.00000000000E+00  0.00000000000E+00  0.55022585668E+02  0.55022585668E+02  0.00000000000E+00 0.  1.
          2   -1    0    0  502    0  0.00000000000E+00 -0.00000000000E+00 -0.11571020782E+04  0.11571020782E+04  0.00000000000E+00 0. -1.
          6    1    1    2  502    0 -0.22063035234E+02 -0.15833762850E+03 -0.32926485101E+03  0.40442171583E+03  0.17200000000E+03 0. -1.
         -6    1    1    2    0  501  0.22063035234E+02  0.15833762850E+03 -0.77281464147E+03  0.80770294799E+03  0.17200000000E+03 0.  1.
</event>
<event>
 4    1  0.3115421E-002  0.2319284E+03  0.7818608E-02  0.1125290E+00
          2   -1    0    0  502    0  0.00000000000E+00  0.00000000000E+00  0.18489272977E+04  0.18489272977E+04  0.00000000000E+00 0. -1.
         -2   -1    0    0    0  501 -0.00000000000E+00 -0.00000000000E+00 -0.50695501021E+02  0.50695501021E+02  0.00000000000E+00 0.  1.
          6    1    1    2  502    0 -0.15421866779E+03 -0.20576418872E+02  0.15191348807E+04  0.15367373140E+04  0.17200000000E+03 0. -1.
         -6    1    1    2    0  501  0.15421866779E+03  0.20576418872E+02  0.27909691599E+03  0.36288548472E+03  0.17200000000E+03 0.  1.
</event>
<event>
 4    1  0.3115421E-002  0.3360797E+03  0.7818608E-02  0.1068478E+00
         -1   -1    0    0    0  501 -0.00000000000E+00  0.00000000000E+00  0.33680002161E+03  0.33680002161E+03  0.00000000000E+00 0.  1.
          1   -1    0    0  502    0  0.00000000000E+00 -0.00000000000E+00 -0.50705284500E+03  0.50705284500E+03  0.00000000000E+00 0. -1.
          6    1    1    2  502    0 -0.28138540124E+03 -0.64713481851E+02 -0.33064535493E+03  0.47146148252E+03  0.17200000000E+03 0. -1.
         -6    1    1    2    0  501  0.28138540124E+03  0.64713481851E+02  0.16039253154E+03  0.37239138408E+03  0.17200000000E+03 0.  1.
</event>
<event>
 4    1  0.3115421E-002  0.2185124E+03  0.7818608E-02  0.1134997E+00
         -3   -1    0    0    0  501 -0.00000000000E+00  0.00000000000E+00  0.12714707886E+04  0.12714707886E+04  0.00000000000E+00 0.  1.
          3   -1    0    0  502    0  0.00000000000E+00 -0.00000000000E+00 -0.37566152507E+02  0.37566152507E+02  0.00000000000E+00 0. -1.
          6    1    1    2  502    0  0.19393470965E+02  0.13336994348E+03  0.60474425315E+03  0.64301108875E+03  0.17200000000E+03 0. -1.
         -6    1    1    2    0  501 -0.19393470965E+02 -0.13336994348E+03  0.62916038292E+03  0.66602585234E+03  0.17200000000E+03 0.  1.
</event>
<event>
 4    1  0.3115421E-002  0.2098301E+03  0.7818608E-02  0.1141701E+00
          3   -1    0    0  502    0  0.00000000000E+00  0.00000000000E+00  0.97540634289E+02  0.97540634289E+02  0.00000000000E+00 0. -1.
         -3   -1    0    0    0  501 -0.00000000000E+00 -0.00000000000E+00 -0.47416636909E+03  0.47416636909E+03  0.00000000000E+00 0.  1.
          6    1    1    2  502    0 -0.10650079886E+03  0.55697930141E+02 -0.12566032511E+03  0.24457963302E+03  0.17200000000E+03 0. -1.
         -6    1    1    2    0  501  0.10650079886E+03 -0.55697930141E+02 -0.25096540969E+03  0.32712737036E+03  0.17200000000E+03 0.  1.
</event>
<event>
 4    1  0.3115421E-002  0.3227973E+03  0.7818608E-02  0.1074369E+00
          2   -1    0    0  502    0  0.00000000000E+00  0.00000000000E+00  0.26634523634E+03  0.26634523634E+03  0.00000000000E+00 0. -1.
         -2   -1    0    0    0  501 -0.00000000000E+00 -0.00000000000E+00 -0.39676038250E+03  0.39676038250E+03  0.00000000000E+00 0.  1.
          6    1    1    2  502    0 -0.18940289199E+03  0.19682641187E+03 -0.26008319457E+02  0.32384336428E+03  0.17200000000E+03 0. -1.
         -6    1    1    2    0  501  0.18940289199E+03 -0.19682641187E+03 -0.10440682670E+03  0.33926225456E+03  0.17200000000E+03 0.  1.
</event>
<event>
 4    1  0.3115421E-002  0.1964699E+03  0.7818608E-02  0.1152752E+00
          2   -1    0    0  502    0  0.00000000000E+00  0.00000000000E+00  0.24112483062E+03  0.24112483062E+03  0.00000000000E+00 0. -1.
         -2   -1    0    0    0  501 -0.00000000000E+00 -0.00000000000E+00 -0.20090646832E+03  0.20090646832E+03  0.00000000000E+00 0.  1.
          6    1    1    2  502    0  0.57180147131E+02  0.75808012738E+02  0.11973487490E+03  0.23008012580E+03  0.17200000000E+03 0. -1.
         -6    1    1    2    0  501 -0.57180147131E+02 -0.75808012738E+02 -0.79516512600E+02  0.21195117314E+03  0.17200000000E+03 0.  1.
</event>
<event>
 4    1  0.3115421E-002  0.1989945E+03  0.7818608E-02  0.1150590E+00
          1   -1    0    0  502    0  0.00000000000E+00  0.00000000000E+00  0.39193926620E+04  0.39193926620E+04  0.00000000000E+00 0. -1.
         -1   -1    0    0    0  501 -0.00000000000E+00 -0.00000000000E+00 -0.12250629234E+02  0.12250629234E+02  0.00000000000E+00 0.  1.
          6    1    1    2  502    0 -0.29406545875E+01  0.10003084255E+03  0.27765974685E+04  0.27837191524E+04  0.17200000000E+03 0. -1.
         -6    1    1    2    0  501  0.29406545875E+01 -0.10003084255E+03  0.11305445643E+04  0.11479241389E+04  0.17200000000E+03 0.  1.
</event>
<event>
 4    1  0.3115421E-002  0.5946863E+03  0.7818608E-02  0.9916492E-01
          2   -1    0    0  502    0  0.00000000000E+00  0.00000000000E+00  0.14963315278E+04  0.14963315278E+04  0.00000000000E+00 0. -1.
         -2   -1    0    0    0  501 -0.00000000000E+00 -0.00000000000E+00 -0.29783263007E+03  0.29783263007E+03  0.00000000000E+00 0.  1.
          6    1    1    2  502    0  0.51350214860E+03  0.24573014187E+03  0.19164690248E+03  0.62480420491E+03  0.17200000000E+03 0. -1.
         -6    1    1    2    0  501 -0.51350214860E+03 -0.24573014187E+03  0.10068519953E+04  0.11693599530E+04  0.17200000000E+03 0.  1.
</event>
<event>
 4    1  0.3115421E-002  0.2428685E+03  0.7818608E-02  0.1117897E+00
          2   -1    0    0  502    0  0.00000000000E+00  0.00000000000E+00  0.89513184378E+03  0.89513184378E+03  0.00000000000E+00 0. -1.
         -2   -1    0    0    0  501 -0.00000000000E+00 -0.00000000000E+00 -0.66106047833E+02  0.66106047833E+02  0.00000000000E+00 0.  1.
          6    1    1    2  502    0 -0.21175272462E+02 -0.17015494984E+03  0.38738436655E+03  0.45722176957E+03  0.17200000000E+03 0.  1.
         -6    1    1    2    0  501  0.21175272462E+02  0.17015494984E+03  0.44164142940E+03  0.50401612205E+03  0.17200000000E+03 0.  1.
</event>
<event>
 4    1  0.3115421E-002  0.2740294E+03  0.7818608E-02  0.1098995E+00
          2   -1    0    0  502    0  0.00000000000E+00  0.00000000000E+00  0.67634757886E+03  0.67634757886E+03  0.00000000000E+00 0. -1.
         -2   -1    0    0    0  501 -0.00000000000E+00 -0.00000000000E+00 -0.13486670945E+03  0.13486670945E+03  0.00000000000E+00 0.  1.
          6    1    1    2  502    0  0.20072353999E+03 -0.72236922460E+02  0.44127543540E+03  0.51943827579E+03  0.17200000000E+03 0. -1.
         -6    1    1    2    0  501 -0.20072353999E+03  0.72236922460E+02  0.10020543401E+03  0.29177601252E+03  0.17200000000E+03 0.  1.
</event>
<event>
 4    1  0.3115421E-002  0.1821852E+03  0.7818608E-02  0.1165705E+00
         -3   -1    0    0    0  501 -0.00000000000E+00  0.00000000000E+00  0.23673544378E+03  0.23673544378E+03  0.00000000000E+00 0.  1.
          3   -1    0    0  502    0  0.00000000000E+00 -0.00000000000E+00 -0.18548633183E+03  0.18548633183E+03  0.00000000000E+00 0. -1.
          6    1    1    2  502    0 -0.60041331067E+02  0.15818538704E+01 -0.78682782310E+02  0.19845010438E+03  0.17200000000E+03 0. -1.
         -6    1    1    2    0  501  0.60041331067E+02 -0.15818538704E+01  0.12993189425E+03  0.22377167122E+03  0.17200000000E+03 0.  1.
</event>
<event>
 4    1  0.3115421E-002  0.3785866E+03  0.7818608E-02  0.1051457E+00
          2   -1    0    0  502    0  0.00000000000E+00  0.00000000000E+00  0.33345236305E+03  0.33345236305E+03  0.00000000000E+00 0. -1.
         -2   -1    0    0    0  501 -0.00000000000E+00 -0.00000000000E+00 -0.45762729570E+03  0.45762729570E+03  0.00000000000E+00 0.  1.
          6    1    1    2  502    0 -0.32512807936E+03 -0.89641017872E+02 -0.15957221724E+03  0.41084190705E+03  0.17200000000E+03 0.  1.
         -6    1    1    2    0  501  0.32512807936E+03  0.89641017872E+02  0.35397284587E+02  0.38023775171E+03  0.17200000000E+03 0.  1.
</event>
<event>
 4    1  0.3115421E-002  0.2997296E+03  0.7818608E-02  0.1085376E+00
          1   -1    0    0  502    0  0.00000000000E+00  0.00000000000E+00  0.71824553843E+03  0.71824553843E+03  0.00000000000E+00 0. -1.
         -1   -1    0    0    0  501 -0.00000000000E+00 -0.00000000000E+00 -0.13986405136E+03  0.13986405136E+03  0.00000000000E+00 0.  1.
          6    1    1    2  502    0 -0.14449792903E+02 -0.24504084000E+03  0.42868728367E+03  0.52307800276E+03  0.17200000000E+03 0. -1.
         -6    1    1    2    0  501  0.14449792903E+02  0.24504084000E+03  0.14969420340E+03  0.33503158704E+03  0.17200000000E+03 0.  1.
</event>
<event>
 4    1  0.3115421E-002  0.3608727E+03  0.7818608E-02  0.1058239E+00
          2   -1    0    0  502    0  0.00000000000E+00  0.00000000000E+00  0.99682859465E+03  0.99682859465E+03  0.00000000000E+00 0. -1.
         -2   -1    0    0    0  501 -0.00000000000E+00 -0.00000000000E+00 -0.25313785003E+03  0.25313785003E+03  0.00000000000E+00 0.  1.
          6    1    1    2  502    0 -0.10942783318E+03  0.29777612907E+03  0.80660381744E+03  0.88365083151E+03  0.17200000000E+03 0. -1.
         -6    1    1    2    0  501  0.10942783318E+03 -0.29777612907E+03 -0.62913072817E+02  0.36631561317E+03  0.17200000000E+03 0.  1.
</event>
<event>
 4    1  0.3115421E-002  0.2300942E+03  0.7818608E-02  0.1126573E+00
          2   -1    0    0  502    0  0.00000000000E+00  0.00000000000E+00  0.36555767227E+03  0.36555767227E+03  0.00000000000E+00 0. -1.
         -2   -1    0    0    0  501 -0.00000000000E+00 -0.00000000000E+00 -0.16729957321E+03  0.16729957321E+03  0.00000000000E+00 0.  1.
          6    1    1    2  502    0  0.69826801560E+02 -0.13595421397E+03  0.19677204857E+03  0.30275826927E+03  0.17200000000E+03 0. -1.
         -6    1    1    2    0  501 -0.69826801560E+02  0.13595421397E+03  0.14860504955E+01  0.23009897622E+03  0.17200000000E+03 0.  1.
</event>
<event>
 4    1  0.3115421E-002  0.2386361E+03  0.7818608E-02  0.1120705E+00
         -1   -1    0    0    0  501 -0.00000000000E+00  0.00000000000E+00  0.60101755642E+02  0.60101755642E+02  0.00000000000E+00 0.  1.
          1   -1    0    0  502    0  0.00000000000E+00 -0.00000000000E+00 -0.10473102034E+04  0.10473102034E+04  0.00000000000E+00 0. -1.
          6    1    1    2  502    0  0.13169861475E+03  0.10009321980E+03 -0.32268089288E+03  0.40133544126E+03  0.17200000000E+03 0.  1.
         -6    1    1    2    0  501 -0.13169861475E+03 -0.10009321980E+03 -0.66452755486E+03  0.70607651777E+03  0.17200000000E+03 0.  1.
</event>
<event>
 4    1  0.3115421E-002  0.1857045E+03  0.7818608E-02  0.1162394E+00
         -2   -1    0    0    0  501 -0.00000000000E+00  0.00000000000E+00  0.67412129995E+02  0.67412129995E+02  0.00000000000E+00 0.  1.
          2   -1    0    0  502    0  0.00000000000E+00 -0.00000000000E+00 -0.72889470486E+03  0.72889470486E+03  0.00000000000E+00 0. -1.
          6    1    1    2  502    0 -0.68513325079E+02 -0.14425363893E+02 -0.54814676021E+03  0.57874954649E+03  0.17200000000E+03 0. -1.
         -6    1    1    2    0  501  0.68513325079E+02  0.14425363893E+02 -0.11333581466E+03  0.21755728837E+03  0.17200000000E+03 0.  1.
</event>
<event>
 4    1  0.3115421E-002  0.4478052E+03  0.7818608E-02  0.1028379E+00
         -2   -1    0    0    0  501 -0.00000000000E+00  0.00000000000E+00  0.89331966959E+02  0.89331966959E+02  0.00000000000E+00 0.  1.
          2   -1    0    0  502    0  0.00000000000E+00 -0.00000000000E+00 -0.23902842880E+04  0.23902842880E+04  0.00000000000E+00 0. -1.
          6    1    1    2  502    0  0.35355391965E+03 -0.21434804854E+03 -0.84457096436E+03  0.95594433617E+03  0.17200000000E+03 0. -1.
         -6    1    1    2    0  501 -0.35355391965E+03  0.21434804854E+03 -0.14563813567E+04  0.15236719188E+04  0.17200000000E+03 0.  1.
</event>
<event>
 4    1  0.3115421E-002  0.4802253E+03  0.7818608E-02  0.1019073E+00
          1   -1    0    0  502    0  0.00000000000E+00  0.00000000000E+00  0.95685943982E+03  0.95685943982E+03  0.00000000000E+00 0. -1.
         -1   -1    0    0    0  501 -0.00000000000E+00 -0.00000000000E+00 -0.25294088096E+03  0.25294088096E+03  0.00000000000E+00 0.  1.
          6    1    1    2  502    0  0.11095975248E+03 -0.43441941847E+03  0.48331284792E+03  0.68132782621E+03  0.17200000000E+03 0. -1.
         -6    1    1    2    0  501 -0.11095975248E+03  0.43441941847E+03  0.22060571094E+03  0.52847249457E+03  0.17200000000E+03 0.  1.
</event>
<event>
 4    1  0.3115421E-002  0.1906048E+03  0.7818608E-02  0.1157917E+00
          1   -1    0    0  502    0  0.00000000000E+00  0.00000000000E+00  0.32349808358E+03  0.32349808358E+03  0.00000000000E+00 0. -1.
         -1   -1    0    0    0  501 -0.00000000000E+00 -0.00000000000E+00 -0.17141311185E+03  0.17141311185E+03  0.00000000000E+00 0.  1.
          6    1    1    2  502    0  0.62752655521E+02  0.52993440812E+02  0.22135454763E+03  0.29210963062E+03  0.17200000000E+03 0. -1.
         -6    1    1    2    0  501 -0.62752655521E+02 -0.52993440812E+02 -0.69269575904E+02  0.20280156481E+03  0.17200000000E+03 0.  1.
</event>
<event>
 4    1  0.3115421E-002  0.2466440E+03  0.7818608E-02  0.1115444E+00
          1   -1    0    0  502    0  0.00000000000E+00  0.00000000000E+00  0.22476347933E+03  0.22476347933E+03  0.00000000000E+00 0. -1.
         -1   -1    0    0    0  501 -0.00000000000E+00 -0.00000000000E+00 -0.46462490906E+03  0.46462490906E+03  0.00000000000E+00 0.  1.
          6    1    1    2  502    0  0.16302316852E+03 -0.68357158169E+02  0.10278477731E+03  0.26720397638E+03  0.17200000000E+03 0. -1.
         -6    1    1    2    0  501 -0.16302316852E+03  0.68357158169E+02 -0.34264620704E+03  0.42218441201E+03  0.17200000000E+03 0.  1.
</event>
<event>
 4    1  0.3115421E-002  0.3227143E+03  0.7818608E-02  0.1074407E+00
          1   -1    0    0  502    0  0.00000000000E+00  0.00000000000E+00  0.33180959833E+03  0.33180959833E+03  0.00000000000E+00 0. -1.
         -1   -1    0    0    0  501 -0.00000000000E+00 -0.00000000000E+00 -0.33310651000E+03  0.33310651000E+03  0.00000000000E+00 0.  1.
          6    1    1    2  502    0  0.23810970643E+03 -0.13365745638E+03 -0.80544723759E+02  0.33261389097E+03  0.17200000000E+03 0. -1.
         -6    1    1    2    0  501 -0.23810970643E+03  0.13365745638E+03  0.79247812080E+02  0.33230221736E+03  0.17200000000E+03 0.  1.
</event>
<event>
 4    1  0.3115421E-002  0.4023520E+03  0.7818608E-02  0.1042968E+00
          2   -1    0    0  502    0  0.00000000000E+00  0.00000000000E+00  0.35817839774E+04  0.35817839774E+04  0.00000000000E+00 0. -1.
         -2   -1    0    0    0  501 -0.00000000000E+00 -0.00000000000E+00 -0.15401124141E+03  0.15401124141E+03  0.00000000000E+00 0.  1.
          6    1    1    2  502    0  0.22536908088E+03 -0.28550292596E+03  0.32839564092E+04  0.33085127839E+04  0.17200000000E+03 0. -1.
         -6    1    1    2    0  501 -0.22536908088E+03  0.28550292596E+03  0.14381632675E+03  0.42728243492E+03  0.17200000000E+03 0.  1.
</event>
<event>
 4    1  0.3115421E-002  0.2188948E+03  0.7818608E-02  0.1134710E+00
         -1   -1    0    0    0  501 -0.00000000000E+00  0.00000000000E+00  0.45337328369E+02  0.45337328369E+02  0.00000000000E+00 0.  1.
          1   -1    0    0  502    0  0.00000000000E+00 -0.00000000000E+00 -0.11929668677E+04  0.11929668677E+04  0.00000000000E+00 0. -1.
          6    1    1    2  502    0  0.71933258350E+02 -0.11470200225E+03 -0.78295256898E+03  0.81297581038E+03  0.17200000000E+03 0. -1.
         -6    1    1    2    0  501 -0.71933258350E+02  0.11470200225E+03 -0.36467697036E+03  0.42532838570E+03  0.17200000000E+03 0.  1.
</event>
<event>
 4    1  0.3115421E-002  0.2042818E+03  0.7818608E-02  0.1146176E+00
          2   -1    0    0  502    0  0.00000000000E+00  0.00000000000E+00  0.49658140904E+02  0.49658140904E+02  0.00000000000E+00 0. -1.
         -2   -1    0    0    0  501 -0.00000000000E+00 -0.00000000000E+00 -0.93901231025E+03  0.93901231025E+03  0.00000000000E+00 0.  1.
          6    1    1    2  502    0  0.94732771417E+02  0.56327066714E+02 -0.28445391805E+03  0.35020717856E+03  0.17200000000E+03 0. -1.
         -6    1    1    2    0  501 -0.94732771417E+02 -0.56327066714E+02 -0.60490025130E+03  0.63846327259E+03  0.17200000000E+03 0.  1.
</event>
<event>
 4    1  0.3115421E-002  0.3146892E+03  0.7818608E-02  0.1078120E+00
          2   -1    0    0  502    0  0.00000000000E+00  0.00000000000E+00  0.18748166185E+04  0.18748166185E+04  0.00000000000E+00 0. -1.
         -2   -1    0    0    0  501 -0.00000000000E+00 -0.00000000000E+00 -0.13565836298E+04  0.13565836298E+04  0.00000000000E+00 0.  1.
          6    1    1    2  502    0  0.23530623180E+03  0.11864334396E+03  0.18430493743E+04  0.18697219744E+04  0.17200000000E+03 0. -1.
         -6    1    1    2    0  501 -0.23530623180E+03 -0.11864334396E+03 -0.13248163856E+04  0.13616782738E+04  0.17200000000E+03 0.  1.
</event>
<event>
 4    1  0.3115421E-002  0.2924751E+03  0.7818608E-02  0.1089064E+00
         -3   -1    0    0    0  501 -0.00000000000E+00  0.00000000000E+00  0.39676531566E+03  0.39676531566E+03  0.00000000000E+00 0.  1.
          3   -1    0    0  502    0  0.00000000000E+00 -0.00000000000E+00 -0.33410460223E+03  0.33410460223E+03  0.00000000000E+00 0. -1.
          6    1    1    2  502    0 -0.18237639623E+03 -0.15065361396E+03 -0.18631069477E+03  0.34677562816E+03  0.17200000000E+03 0. -1.
         -6    1    1    2    0  501  0.18237639623E+03  0.15065361396E+03  0.24897140820E+03  0.38409428973E+03  0.17200000000E+03 0.  1.
</event>
<event>
 4    1  0.3115421E-002  0.3567073E+03  0.7818608E-02  0.1059895E+00
          2   -1    0    0  502    0  0.00000000000E+00  0.00000000000E+00  0.48116272993E+03  0.48116272993E+03  0.00000000000E+00 0. -1.
         -2   -1    0    0    0  501 -0.00000000000E+00 -0.00000000000E+00 -0.32752589950E+03  0.32752589950E+03  0.00000000000E+00 0.  1.
          6    1    1    2  502    0  0.57242473085E+02  0.30721226601E+03 -0.10063510424E+03  0.37063122010E+03  0.17200000000E+03 0.  1.
         -6    1    1    2    0  501 -0.57242473085E+02 -0.30721226601E+03  0.25427193467E+03  0.43805740933E+03  0.17200000000E+03 0.  1.
</event>
<event>
 4    1  0.3115421E-002  0.4270970E+03  0.7818608E-02  0.1034781E+00
         -2   -1    0    0    0  501 -0.00000000000E+00  0.00000000000E+00  0.22868827076E+03  0.22868827076E+03  0.00000000000E+00 0.  1.
          2   -1    0    0  502    0  0.00000000000E+00 -0.00000000000E+00 -0.82242440024E+03  0.82242440024E+03  0.00000000000E+00 0. -1.
          6    1    1    2  502    0  0.37787766591E+03 -0.10018122445E+03 -0.38809564705E+03  0.57708754915E+03  0.17200000000E+03 0. -1.
         -6    1    1    2    0  501 -0.37787766591E+03  0.10018122445E+03 -0.20564048243E+03  0.47402512184E+03  0.17200000000E+03 0.  1.
</event>
<event>
 4    1  0.3115421E-002  0.3150411E+03  0.7818608E-02  0.1077954E+00
          2   -1    0    0  502    0  0.00000000000E+00  0.00000000000E+00  0.15211206416E+04  0.15211206416E+04  0.00000000000E+00 0. -1.
         -2   -1    0    0    0  501 -0.00000000000E+00 -0.00000000000E+00 -0.10756307829E+03  0.10756307829E+03  0.00000000000E+00 0.  1.
          6    1    1    2  502    0 -0.89617338508E+02 -0.24826519437E+03  0.19601506044E+03  0.37104282505E+03  0.17200000000E+03 0.  1.
         -6    1    1    2    0  501  0.89617338508E+02  0.24826519437E+03  0.12175425028E+04  0.12576408948E+04  0.17200000000E+03 0.  1.
</event>
<event>
 4    1  0.3115421E-002  0.1886555E+03  0.7818608E-02  0.1159680E+00
         -3   -1    0    0    0  501 -0.00000000000E+00  0.00000000000E+00  0.11858421018E+03  0.11858421018E+03  0.00000000000E+00 0.  1.
          3   -1    0    0  502    0  0.00000000000E+00 -0.00000000000E+00 -0.47987466606E+03  0.47987466606E+03  0.00000000000E+00 0. -1.
          6    1    1    2  502    0 -0.38508091819E+02  0.67260760541E+02  0.24876551779E+01  0.18867186190E+03  0.17200000000E+03 0.  1.
         -6    1    1    2    0  501  0.38508091819E+02 -0.67260760541E+02 -0.36377811105E+03  0.40978701435E+03  0.17200000000E+03 0. -1.
</event>
<event>
 4    1  0.3115421E-002  0.2784247E+03  0.7818608E-02  0.1096552E+00
          2   -1    0    0  502    0  0.00000000000E+00  0.00000000000E+00  0.19086752957E+04  0.19086752957E+04  0.00000000000E+00 0. -1.
         -2   -1    0    0    0  501 -0.00000000000E+00 -0.00000000000E+00 -0.49240672177E+02  0.49240672177E+02  0.00000000000E+00 0.  1.
          6    1    1    2  502    0 -0.13563096796E+03 -0.17187363167E+03  0.51997982952E+03  0.58982991433E+03  0.17200000000E+03 0.  1.
         -6    1    1    2    0  501  0.13563096796E+03  0.17187363167E+03  0.13394547940E+04  0.13680860536E+04  0.17200000000E+03 0. -1.
</event>
<event>
 4    1  0.3115421E-002  0.1776815E+03  0.7818608E-02  0.1170066E+00
         -2   -1    0    0    0  501 -0.00000000000E+00  0.00000000000E+00  0.29182131607E+02  0.29182131607E+02  0.00000000000E+00 0.  1.
          2   -1    0    0  502    0  0.00000000000E+00 -0.00000000000E+00 -0.10848287040E+04  0.10848287040E+04  0.00000000000E+00 0. -1.
          6    1    1    2  502    0 -0.28177365368E+01 -0.44483574500E+02 -0.49864262298E+03  0.52935356190E+03  0.17200000000E+03 0.  1.
         -6    1    1    2    0  501  0.28177365368E+01  0.44483574500E+02 -0.55700394937E+03  0.58465727367E+03  0.17200000000E+03 0.  1.
</event>
<event>
 4    1  0.3115421E-002  0.2242317E+03  0.7818608E-02  0.1130767E+00
          2   -1    0    0  502    0  0.00000000000E+00  0.00000000000E+00  0.38692528204E+03  0.38692528204E+03  0.00000000000E+00 0. -1.
         -2   -1    0    0    0  501 -0.00000000000E+00 -0.00000000000E+00 -0.14824186003E+03  0.14824186003E+03  0.00000000000E+00 0.  1.
          6    1    1    2  502    0 -0.14152161169E+03 -0.25836069142E+02  0.21334343531E+03  0.30950814276E+03  0.17200000000E+03 0. -1.
         -6    1    1    2    0  501  0.14152161169E+03  0.25836069142E+02  0.25339986697E+02  0.22565899931E+03  0.17200000000E+03 0.  1.
</event>
<event>
 4    1  0.3115421E-002  0.1989014E+03  0.7818608E-02  0.1150669E+00
          1   -1    0    0  502    0  0.00000000000E+00  0.00000000000E+00  0.19344486044E+03  0.19344486044E+03  0.00000000000E+00 0. -1.
         -1   -1    0    0    0  501 -0.00000000000E+00 -0.00000000000E+00 -0.21782072753E+03  0.21782072753E+03  0.00000000000E+00 0.  1.
          6    1    1    2  502    0  0.52866090438E+02  0.84752280760E+02 -0.63017096117E+02  0.20864545769E+03  0.17200000000E+03 0.  1.
         -6    1    1    2    0  501 -0.52866090438E+02 -0.84752280760E+02  0.38641229023E+02  0.20262013027E+03  0.17200000000E+03 0. -1.
</event>
<event>
 4    1  0.3115421E-002  0.2422073E+03  0.7818608E-02  0.1118331E+00
         -2   -1    0    0    0  501 -0.00000000000E+00  0.00000000000E+00  0.34736952361E+03  0.34736952361E+03  0.00000000000E+00 0.  1.
          2   -1    0    0  502    0  0.00000000000E+00 -0.00000000000E+00 -0.19784662263E+03  0.19784662263E+03  0.00000000000E+00 0. -1.
          6    1    1    2  502    0  0.77884178883E+02  0.15170508183E+03  0.17906764838E+03  0.30121354529E+03  0.17200000000E+03 0.  1.
         -6    1    1    2    0  501 -0.77884178883E+02 -0.15170508183E+03 -0.29544747393E+02  0.24400260095E+03  0.17200000000E+03 0.  1.
</event>
<event>
 4    1  0.3115421E-002  0.2729299E+03  0.7818608E-02  0.1099614E+00
          2   -1    0    0  502    0  0.00000000000E+00  0.00000000000E+00  0.39223068391E+03  0.39223068391E+03  0.00000000000E+00 0. -1.
         -2   -1    0    0    0  501 -0.00000000000E+00 -0.00000000000E+00 -0.20886977993E+03  0.20886977993E+03  0.00000000000E+00 0.  1.
          6    1    1    2  502    0 -0.20547255884E+03  0.51843438384E+02  0.18221870027E+03  0.32816820271E+03  0.17200000000E+03 0. -1.
         -6    1    1    2    0  501  0.20547255884E+03 -0.51843438384E+02  0.11422037041E+01  0.27293226114E+03  0.17200000000E+03 0.  1.
</event>
<event>
 4    1  0.3115421E-002  0.1867142E+03  0.7818608E-02  0.1161459E+00
          1   -1    0    0  502    0  0.00000000000E+00  0.00000000000E+00  0.11780401748E+04  0.11780401748E+04  0.00000000000E+00 0. -1.
         -1   -1    0    0    0  501 -0.00000000000E+00 -0.00000000000E+00 -0.91350503018E+02  0.91350503018E+02  0.00000000000E+00 0.  1.
          6    1    1    2  502    0 -0.67675600588E+02 -0.26423715361E+02  0.10652040288E+04  0.10814443225E+04  0.17200000000E+03 0. -1.
         -6    1    1    2    0  501  0.67675600588E+02  0.26423715361E+02  0.21485643034E+02  0.18794635539E+03  0.17200000000E+03 0.  1.
</event>
<event>
 4    1  0.3115421E-002  0.1818989E+03  0.7818608E-02  0.1165978E+00
         -1   -1    0    0    0  501 -0.00000000000E+00  0.00000000000E+00  0.90930094259E+02  0.90930094259E+02  0.00000000000E+00 0.  1.
          1   -1    0    0  502    0  0.00000000000E+00 -0.00000000000E+00 -0.37704222327E+03  0.37704222327E+03  0.00000000000E+00 0. -1.
          6    1    1    2  502    0 -0.50985562219E+02  0.30061106260E+02 -0.18678214300E+03  0.26071970890E+03  0.17200000000E+03 0. -1.
         -6    1    1    2    0  501  0.50985562219E+02 -0.30061106260E+02 -0.99329986016E+02  0.20725260864E+03  0.17200000000E+03 0.  1.
</event>
<event>
 4    1  0.3115421E-002  0.1902103E+03  0.7818608E-02  0.1158272E+00
          3   -1    0    0  502    0  0.00000000000E+00  0.00000000000E+00  0.62308106413E+03  0.62308106413E+03  0.00000000000E+00 0. -1.
         -3   -1    0    0    0  501 -0.00000000000E+00 -0.00000000000E+00 -0.58691118667E+02  0.58691118667E+02  0.00000000000E+00 0.  1.
          6    1    1    2  502    0  0.66112612111E+02  0.47170615824E+02  0.31737026719E+03  0.37000517696E+03  0.17200000000E+03 0. -1.
         -6    1    1    2    0  501 -0.66112612111E+02 -0.47170615824E+02  0.24701967827E+03  0.31176700584E+03  0.17200000000E+03 0.  1.
</event>
<event>
 4    1  0.3115421E-002  0.2011759E+03  0.7818608E-02  0.1148751E+00
         -2   -1    0    0    0  501 -0.00000000000E+00  0.00000000000E+00  0.89940696436E+02  0.89940696436E+02  0.00000000000E+00 0.  1.
          2   -1    0    0  502    0  0.00000000000E+00 -0.00000000000E+00 -0.46833444963E+03  0.46833444963E+03  0.00000000000E+00 0. -1.
          6    1    1    2  502    0 -0.75857714839E+02 -0.71647301372E+02 -0.13394045419E+03  0.24168527875E+03  0.17200000000E+03 0.  1.
         -6    1    1    2    0  501  0.75857714839E+02  0.71647301372E+02 -0.24445329901E+03  0.31658986732E+03  0.17200000000E+03 0.  1.
</event>
<event>
 4    1  0.3115421E-002  0.2818431E+03  0.7818608E-02  0.1094687E+00
          2   -1    0    0  502    0  0.00000000000E+00  0.00000000000E+00  0.14997995030E+04  0.14997995030E+04  0.00000000000E+00 0. -1.
         -2   -1    0    0    0  501 -0.00000000000E+00 -0.00000000000E+00 -0.62848155354E+02  0.62848155354E+02  0.00000000000E+00 0.  1.
          6    1    1    2  502    0 -0.20052244823E+03  0.98195164659E+02  0.10283261833E+04  0.10662505718E+04  0.17200000000E+03 0. -1.
         -6    1    1    2    0  501  0.20052244823E+03 -0.98195164659E+02  0.40862516438E+03  0.49639708659E+03  0.17200000000E+03 0.  1.
</event>
<event>
 4    1  0.3115421E-002  0.2197341E+03  0.7818608E-02  0.1134081E+00
         -2   -1    0    0    0  501 -0.00000000000E+00  0.00000000000E+00  0.45660911049E+02  0.45660911049E+02  0.00000000000E+00 0.  1.
          2   -1    0    0  502    0  0.00000000000E+00 -0.00000000000E+00 -0.16335822820E+04  0.16335822820E+04  0.00000000000E+00 0. -1.
          6    1    1    2  502    0  0.82026595278E+02 -0.10941080071E+03 -0.29532561266E+03  0.36810365814E+03  0.17200000000E+03 0.  1.
         -6    1    1    2    0  501 -0.82026595278E+02  0.10941080071E+03 -0.12925957583E+04  0.13111395349E+04  0.17200000000E+03 0. -1.
</event>
<event>
 4    1  0.3115421E-002  0.1886324E+03  0.7818608E-02  0.1159701E+00
          2   -1    0    0  502    0  0.00000000000E+00  0.00000000000E+00  0.45738085985E+03  0.45738085985E+03  0.00000000000E+00 0. -1.
         -2   -1    0    0    0  501 -0.00000000000E+00 -0.00000000000E+00 -0.81328150005E+02  0.81328150005E+02  0.00000000000E+00 0.  1.
          6    1    1    2  502    0 -0.27940542096E+02 -0.72232395901E+02  0.13188907256E+03  0.23016715745E+03  0.17200000000E+03 0. -1.
         -6    1    1    2    0  501  0.27940542096E+02  0.72232395901E+02  0.24416363729E+03  0.30854185241E+03  0.17200000000E+03 0. -1.
</event>
<event>
 4    1  0.3115421E-002  0.2490228E+03  0.7818608E-02  0.1113924E+00
         -1   -1    0    0    0  501 -0.00000000000E+00  0.00000000000E+00  0.16793751175E+03  0.16793751175E+03  0.00000000000E+00 0.  1.
          1   -1    0    0  502    0  0.00000000000E+00 -0.00000000000E+00 -0.37145382534E+03  0.37145382534E+03  0.00000000000E+00 0. -1.
          6    1    1    2  502    0  0.15951854913E+02  0.17937089310E+03 -0.81025445124E+02  0.26187306414E+03  0.17200000000E+03 0. -1.
         -6    1    1    2    0  501 -0.15951854913E+02 -0.17937089310E+03 -0.12249086846E+03  0.27751827295E+03  0.17200000000E+03 0. -1.
</event>
<event>
 4    1  0.3115421E-002  0.2224311E+03  0.7818608E-02  0.1132083E+00
          2   -1    0    0  502    0  0.00000000000E+00  0.00000000000E+00  0.39841117179E+03  0.39841117179E+03  0.00000000000E+00 0. -1.
         -2   -1    0    0    0  501 -0.00000000000E+00 -0.00000000000E+00 -0.16969850903E+03  0.16969850903E+03  0.00000000000E+00 0.  1.
          6    1    1    2  502    0  0.10413587620E+03  0.95117407087E+02  0.26146775151E+03  0.34327975024E+03  0.17200000000E+03 0. -1.
         -6    1    1    2    0  501 -0.10413587620E+03 -0.95117407087E+02 -0.32755088751E+02  0.22482993057E+03  0.17200000000E+03 0.  1.
</event>
<event>
 4    1  0.3115421E-002  0.2228552E+03  0.7818608E-02  0.1131772E+00
         -2   -1    0    0    0  501 -0.00000000000E+00  0.00000000000E+00  0.16049845055E+03  0.16049845055E+03  0.00000000000E+00 0.  1.
          2   -1    0    0  502    0  0.00000000000E+00 -0.00000000000E+00 -0.33078930944E+03  0.33078930944E+03  0.00000000000E+00 0. -1.
          6    1    1    2  502    0 -0.56746972907E+02 -0.12984696362E+03 -0.22738326421E+02  0.22401224159E+03  0.17200000000E+03 0. -1.
         -6    1    1    2    0  501  0.56746972907E+02  0.12984696362E+03 -0.14755253247E+03  0.26727551839E+03  0.17200000000E+03 0.  1.
</event>
<event>
 4    1  0.3115421E-002  0.2727853E+03  0.7818608E-02  0.1099696E+00
          2   -1    0    0  502    0  0.00000000000E+00  0.00000000000E+00  0.41113239952E+03  0.41113239952E+03  0.00000000000E+00 0. -1.
         -2   -1    0    0    0  501 -0.00000000000E+00 -0.00000000000E+00 -0.21800981911E+03  0.21800981911E+03  0.00000000000E+00 0.  1.
          6    1    1    2  502    0  0.10282755779E+03  0.18507915810E+03  0.22618499236E+03  0.35436062447E+03  0.17200000000E+03 0. -1.
         -6    1    1    2    0  501 -0.10282755779E+03 -0.18507915810E+03 -0.33062411963E+02  0.27478159416E+03  0.17200000000E+03 0.  1.
</event>
<event>
 4    1  0.3115421E-002  0.3464970E+03  0.7818608E-02  0.1064062E+00
          3   -1    0    0  502    0  0.00000000000E+00  0.00000000000E+00  0.39758647385E+03  0.39758647385E+03  0.00000000000E+00 0. -1.
         -3   -1    0    0    0  501 -0.00000000000E+00 -0.00000000000E+00 -0.50531842623E+03  0.50531842623E+03  0.00000000000E+00 0.  1.
          6    1    1    2  502    0 -0.18670074532E+02 -0.30021260277E+03  0.23251699654E+03  0.41728207753E+03  0.17200000000E+03 0. -1.
         -6    1    1    2    0  501  0.18670074532E+02  0.30021260277E+03 -0.34024894892E+03  0.48562282255E+03  0.17200000000E+03 0.  1.
</event>
<event>
 4    1  0.3115421E-002  0.3199771E+03  0.7818608E-02  0.1075660E+00
         -1   -1    0    0    0  501 -0.00000000000E+00  0.00000000000E+00  0.27523205664E+03  0.27523205664E+03  0.00000000000E+00 0.  1.
          1   -1    0    0  502    0  0.00000000000E+00 -0.00000000000E+00 -0.80166064319E+03  0.80166064319E+03  0.00000000000E+00 0. -1.
          6    1    1    2  502    0  0.24249977409E+03  0.11830135197E+03 -0.65740985738E+03  0.73114504094E+03  0.17200000000E+03 0. -1.
         -6    1    1    2    0  501 -0.24249977409E+03 -0.11830135197E+03  0.13098127083E+03  0.34574765888E+03  0.17200000000E+03 0.  1.
</event>
<event>
 4    1  0.3115421E-002  0.2026060E+03  0.7818608E-02  0.1147559E+00
          2   -1    0    0  502    0  0.00000000000E+00  0.00000000000E+00  0.46973964434E+03  0.46973964434E+03  0.00000000000E+00 0. -1.
         -2   -1    0    0    0  501 -0.00000000000E+00 -0.00000000000E+00 -0.25302704426E+03  0.25302704426E+03  0.00000000000E+00 0.  1.
          6    1    1    2  502    0 -0.90458309807E+02 -0.57292836999E+02  0.40074947291E+03  0.44905379970E+03  0.17200000000E+03 0. -1.
         -6    1    1    2    0  501  0.90458309807E+02  0.57292836999E+02 -0.18403687284E+03  0.27371288890E+03  0.17200000000E+03 0.  1.
</event>
<event>
 4    1  0.3115421E-002  0.1774162E+03  0.7818608E-02  0.1170327E+00
         -1   -1    0    0    0  501 -0.00000000000E+00  0.00000000000E+00  0.51433916127E+02  0.51433916127E+02  0.00000000000E+00 0.  1.
          1   -1    0    0  502    0  0.00000000000E+00 -0.00000000000E+00 -0.91899990919E+03  0.91899990919E+03  0.00000000000E+00 0. -1.
          6    1    1    2  502    0 -0.34557995103E+02  0.26424633689E+02 -0.71423698861E+03  0.73594224786E+03  0.17200000000E+03 0. -1.
         -6    1    1    2    0  501  0.34557995103E+02 -0.26424633689E+02 -0.15332900446E+03  0.23449157746E+03  0.17200000000E+03 0.  1.
</event>
<event>
 4    1  0.3115421E-002  0.1939424E+03  0.7818608E-02  0.1154953E+00
          1   -1    0    0  502    0  0.00000000000E+00  0.00000000000E+00  0.10483871931E+04  0.10483871931E+04  0.00000000000E+00 0. -1.
         -1   -1    0    0    0  501 -0.00000000000E+00 -0.00000000000E+00 -0.11968584046E+03  0.11968584046E+03  0.00000000000E+00 0.  1.
          6    1    1    2  502    0  0.51886063968E+02 -0.73058066251E+02  0.95307269572E+03  0.97260537116E+03  0.17200000000E+03 0. -1.
         -6    1    1    2    0  501 -0.51886063968E+02  0.73058066251E+02 -0.24371343093E+02  0.19546766240E+03  0.17200000000E+03 0.  1.
</event>
<event>
 4    1  0.3115421E-002  0.2375718E+03  0.7818608E-02  0.1121421E+00
          2   -1    0    0  502    0  0.00000000000E+00  0.00000000000E+00  0.11387800392E+04  0.11387800392E+04  0.00000000000E+00 0. -1.
         -2   -1    0    0    0  501 -0.00000000000E+00 -0.00000000000E+00 -0.52151482560E+02  0.52151482560E+02  0.00000000000E+00 0.  1.
          6    1    1    2  502    0 -0.48724921249E+02  0.15646803790E+03  0.67599842098E+03  0.71652929459E+03  0.17200000000E+03 0.  1.
         -6    1    1    2    0  501  0.48724921249E+02 -0.15646803790E+03  0.41063013565E+03  0.47440222717E+03  0.17200000000E+03 0.  1.
</event>
<event>
 4    1  0.3115421E-002  0.1923606E+03  0.7818608E-02  0.1156349E+00
          3   -1    0    0  502    0  0.00000000000E+00  0.00000000000E+00  0.53985707467E+02  0.53985707467E+02  0.00000000000E+00 0. -1.
         -3   -1    0    0    0  501 -0.00000000000E+00 -0.00000000000E+00 -0.70820279247E+03  0.70820279247E+03  0.00000000000E+00 0.  1.
          6    1    1    2  502    0 -0.53507692474E+02 -0.67494593928E+02 -0.25874756042E+03  0.32241726596E+03  0.17200000000E+03 0. -1.
         -6    1    1    2    0  501  0.53507692474E+02  0.67494593928E+02 -0.39546952458E+03  0.43977123398E+03  0.17200000000E+03 0.  1.
</event>
<event>
 4    1  0.3115421E-002  0.1729436E+03  0.7818608E-02  0.1174812E+00
          3   -1    0    0  502    0  0.00000000000E+00  0.00000000000E+00  0.18013077465E+03  0.18013077465E+03  0.00000000000E+00 0. -1.
         -3   -1    0    0    0  501 -0.00000000000E+00 -0.00000000000E+00 -0.16610548909E+03  0.16610548909E+03  0.00000000000E+00 0.  1.
          6    1    1    2  502    0  0.17224129737E+02  0.53670591564E+01  0.10367179938E+02  0.17325401695E+03  0.17200000000E+03 0.  1.
         -6    1    1    2    0  501 -0.17224129737E+02 -0.53670591564E+01  0.36581056209E+01  0.17298224679E+03  0.17200000000E+03 0.  1.
</event>
<event>
 4    1  0.3115421E-002  0.3276553E+03  0.7818608E-02  0.1072179E+00
          3   -1    0    0  502    0  0.00000000000E+00  0.00000000000E+00  0.96151216679E+02  0.96151216679E+02  0.00000000000E+00 0. -1.
         -3   -1    0    0    0  501 -0.00000000000E+00 -0.00000000000E+00 -0.11230600850E+04  0.11230600850E+04  0.00000000000E+00 0.  1.
          6    1    1    2  502    0 -0.15929920155E+03 -0.22890553111E+03 -0.55985507174E+03  0.64868765915E+03  0.17200000000E+03 0. -1.
         -6    1    1    2    0  501  0.15929920155E+03  0.22890553111E+03 -0.46705379662E+03  0.57052364256E+03  0.17200000000E+03 0.  1.
</event>
<event>
 4    1  0.3115421E-002  0.2682188E+03  0.7818608E-02  0.1102303E+00
          1   -1    0    0  502    0  0.00000000000E+00  0.00000000000E+00  0.11968251189E+04  0.11968251189E+04  0.00000000000E+00 0. -1.
         -1   -1    0    0    0  501 -0.00000000000E+00 -0.00000000000E+00 -0.61258258861E+02  0.61258258861E+02  0.00000000000E+00 0.  1.
          6    1    1    2  502    0  0.15170147031E+03 -0.13908270903E+03  0.48166643717E+03  0.55131106713E+03  0.17200000000E+03 0.  1.
         -6    1    1    2    0  501 -0.15170147031E+03  0.13908270903E+03  0.65390042284E+03  0.70677231060E+03  0.17200000000E+03 0.  1.
</event>
<event>
 4    1  0.3115421E-002  0.2481293E+03  0.7818608E-02  0.1114493E+00
          1   -1    0    0  502    0  0.00000000000E+00  0.00000000000E+00  0.28095252643E+03  0.28095252643E+03  0.00000000000E+00 0. -1.
         -1   -1    0    0    0  501 -0.00000000000E+00 -0.00000000000E+00 -0.43382315473E+03  0.43382315473E+03  0.00000000000E+00 0.  1.
          6    1    1    2  502    0 -0.16916495376E+03 -0.58028920729E+02  0.17497417782E+03  0.30361834616E+03  0.17200000000E+03 0. -1.
         -6    1    1    2    0  501  0.16916495376E+03  0.58028920729E+02 -0.32784480612E+03  0.41115733500E+03  0.17200000000E+03 0.  1.
</event>
<event>
 4    1  0.3115421E-002  0.2177827E+03  0.7818608E-02  0.1135547E+00
         -2   -1    0    0    0  501 -0.00000000000E+00  0.00000000000E+00  0.39755793568E+02  0.39755793568E+02  0.00000000000E+00 0.  1.
          2   -1    0    0  502    0  0.00000000000E+00 -0.00000000000E+00 -0.13103150142E+04  0.13103150142E+04  0.00000000000E+00 0. -1.
          6    1    1    2  502    0 -0.22648672536E+02  0.13165233927E+03 -0.83724908437E+03  0.86511001039E+03  0.17200000000E+03 0. -1.
         -6    1    1    2    0  501  0.22648672536E+02 -0.13165233927E+03 -0.43331013626E+03  0.48496079738E+03  0.17200000000E+03 0.  1.
</event>
<event>
 4    1  0.3115421E-002  0.2855390E+03  0.7818608E-02  0.1092702E+00
         -2   -1    0    0    0  501 -0.00000000000E+00  0.00000000000E+00  0.75287747049E+02  0.75287747049E+02  0.00000000000E+00 0.  1.
          2   -1    0    0  502    0  0.00000000000E+00 -0.00000000000E+00 -0.10830935825E+04  0.10830935825E+04  0.00000000000E+00 0. -1.
          6    1    1    2  502    0 -0.58719311791E+02  0.22022846162E+03 -0.51067345649E+03  0.58508111579E+03  0.17200000000E+03 0. -1.
         -6    1    1    2    0  501  0.58719311791E+02 -0.22022846162E+03 -0.49713237891E+03  0.57330021371E+03  0.17200000000E+03 0. -1.
</event>
<event>
 4    1  0.3115421E-002  0.1840512E+03  0.7818608E-02  0.1163939E+00
         -2   -1    0    0    0  501 -0.00000000000E+00  0.00000000000E+00  0.97644738485E+02  0.97644738485E+02  0.00000000000E+00 0.  1.
          2   -1    0    0  502    0  0.00000000000E+00 -0.00000000000E+00 -0.37959409000E+03  0.37959409000E+03  0.00000000000E+00 0. -1.
          6    1    1    2  502    0 -0.38675615212E+02 -0.52868063242E+02 -0.70965805517E+02  0.19725866489E+03  0.17200000000E+03 0.  1.
         -6    1    1    2    0  501  0.38675615212E+02  0.52868063242E+02 -0.21098354600E+03  0.27998016359E+03  0.17200000000E+03 0. -1.
</event>
<event>
 4    1  0.3115421E-002  0.6646978E+03  0.7818608E-02  0.9779584E-01
         -1   -1    0    0    0  501 -0.00000000000E+00  0.00000000000E+00  0.21688060575E+03  0.21688060575E+03  0.00000000000E+00 0.  1.
          1   -1    0    0  502    0  0.00000000000E+00 -0.00000000000E+00 -0.22595440036E+04  0.22595440036E+04  0.00000000000E+00 0. -1.
          6    1    1    2  502    0  0.63513766117E+03  0.94017469972E+02 -0.14097722903E+04  0.15586151045E+04  0.17200000000E+03 0. -1.
         -6    1    1    2    0  501 -0.63513766117E+03 -0.94017469972E+02 -0.63289110752E+03  0.91780950489E+03  0.17200000000E+03 0.  1.
</event>
<event>
 4    1  0.3115421E-002  0.2008797E+03  0.7818608E-02  0.1148999E+00
          2   -1    0    0  502    0  0.00000000000E+00  0.00000000000E+00  0.13670814716E+04  0.13670814716E+04  0.00000000000E+00 0. -1.
         -2   -1    0    0    0  501 -0.00000000000E+00 -0.00000000000E+00 -0.32401099297E+02  0.32401099297E+02  0.00000000000E+00 0.  1.
          6    1    1    2  502    0  0.42188247743E+02 -0.94809378730E+02  0.87609376921E+03  0.89882865942E+03  0.17200000000E+03 0. -1.
         -6    1    1    2    0  501 -0.42188247743E+02  0.94809378730E+02  0.45858660309E+03  0.50065391147E+03  0.17200000000E+03 0.  1.
</event>
<event>
 4    1  0.3115421E-002  0.2033375E+03  0.7818608E-02  0.1146953E+00
          1   -1    0    0  502    0  0.00000000000E+00  0.00000000000E+00  0.16585975072E+04  0.16585975072E+04  0.00000000000E+00 0. -1.
         -1   -1    0    0    0  501 -0.00000000000E+00 -0.00000000000E+00 -0.31385650435E+02  0.31385650435E+02  0.00000000000E+00 0.  1.
          6    1    1    2  502    0 -0.67527596582E+02  0.84865470409E+02  0.11968820822E+04  0.12140316483E+04  0.17200000000E+03 0.  1.
         -6    1    1    2    0  501  0.67527596582E+02 -0.84865470409E+02  0.43032977457E+03  0.47595150934E+03  0.17200000000E+03 0. -1.
</event>
<event>
 4    1  0.3115421E-002  0.2341247E+03  0.7818608E-02  0.1123770E+00
          2   -1    0    0  502    0  0.00000000000E+00  0.00000000000E+00  0.28370169181E+04  0.28370169181E+04  0.00000000000E+00 0. -1.
         -2   -1    0    0    0  501 -0.00000000000E+00 -0.00000000000E+00 -0.41259774150E+02  0.41259774150E+02  0.00000000000E+00 0.  1.
          6    1    1    2  502    0  0.12690532531E+03  0.95526989044E+02  0.24472857560E+04  0.24584592611E+04  0.17200000000E+03 0. -1.
         -6    1    1    2    0  501 -0.12690532531E+03 -0.95526989044E+02  0.34847138792E+03  0.41981743106E+03  0.17200000000E+03 0.  1.
</event>
<event>
 4    1  0.3115421E-002  0.1730750E+03  0.7818608E-02  0.1174679E+00
         -4   -1    0    0    0  501 -0.00000000000E+00  0.00000000000E+00  0.17518523849E+03  0.17518523849E+03  0.00000000000E+00 0.  1.
          4   -1    0    0  502    0  0.00000000000E+00 -0.00000000000E+00 -0.17292862517E+03  0.17292862517E+03  0.00000000000E+00 0. -1.
          6    1    1    2  502    0  0.84507044644E+00  0.19241815316E+02 -0.17299799937E+02  0.17393747347E+03  0.17200000000E+03 0. -1.
         -6    1    1    2    0  501 -0.84507044644E+00 -0.19241815316E+02  0.19556413257E+02  0.17417639019E+03  0.17200000000E+03 0.  1.
</event>
<event>
 4    1  0.3115421E-002  0.2265544E+03  0.7818608E-02  0.1129089E+00
          2   -1    0    0  502    0  0.00000000000E+00  0.00000000000E+00  0.20746612786E+04  0.20746612786E+04  0.00000000000E+00 0. -1.
         -2   -1    0    0    0  501 -0.00000000000E+00 -0.00000000000E+00 -0.37895376525E+02  0.37895376525E+02  0.00000000000E+00 0.  1.
          6    1    1    2  502    0 -0.15954149674E+02 -0.14658907239E+03  0.16407387193E+04  0.16563062628E+04  0.17200000000E+03 0. -1.
         -6    1    1    2    0  501  0.15954149674E+02  0.14658907239E+03  0.39602718275E+03  0.45625039235E+03  0.17200000000E+03 0.  1.
</event>
<event>
 4    1  0.3115421E-002  0.4144691E+03  0.7818608E-02  0.1038882E+00
          1   -1    0    0  502    0  0.00000000000E+00  0.00000000000E+00  0.18443496160E+03  0.18443496160E+03  0.00000000000E+00 0. -1.
         -1   -1    0    0    0  501 -0.00000000000E+00 -0.00000000000E+00 -0.94976553046E+03  0.94976553046E+03  0.00000000000E+00 0.  1.
          6    1    1    2  502    0 -0.17828381979E+03 -0.33228828491E+03 -0.30382803907E+03  0.51390281378E+03  0.17200000000E+03 0. -1.
         -6    1    1    2    0  501  0.17828381979E+03  0.33228828491E+03 -0.46150252978E+03  0.62029767828E+03  0.17200000000E+03 0.  1.
</event>
<event>
 4    1  0.3115421E-002  0.1878073E+03  0.7818608E-02  0.1160454E+00
          2   -1    0    0  502    0  0.00000000000E+00  0.00000000000E+00  0.13345197189E+04  0.13345197189E+04  0.00000000000E+00 0. -1.
         -2   -1    0    0    0  501 -0.00000000000E+00 -0.00000000000E+00 -0.28390452511E+02  0.28390452511E+02  0.00000000000E+00 0.  1.
          6    1    1    2  502    0  0.75415588420E+02  0.23382690975E+00  0.83213010677E+03  0.85306042004E+03  0.17200000000E+03 0. -1.
         -6    1    1    2    0  501 -0.75415588420E+02 -0.23382690975E+00  0.47399915965E+03  0.50984975140E+03  0.17200000000E+03 0.  1.
</event>
<event>
 4    1  0.3115421E-002  0.2746100E+03  0.7818608E-02  0.1098670E+00
         -2   -1    0    0    0  501 -0.00000000000E+00  0.00000000000E+00  0.51064797853E+02  0.51064797853E+02  0.00000000000E+00 0.  1.
          2   -1    0    0  502    0  0.00000000000E+00 -0.00000000000E+00 -0.23043790547E+04  0.23043790547E+04  0.00000000000E+00 0. -1.
          6    1    1    2  502    0  0.18681712947E+02  0.21325490586E+03 -0.18324543763E+04  0.18529165395E+04  0.17200000000E+03 0. -1.
         -6    1    1    2    0  501 -0.18681712947E+02 -0.21325490586E+03 -0.42085988056E+03  0.50252731303E+03  0.17200000000E+03 0.  1.
</event>
<event>
 4    1  0.3115421E-002  0.2294774E+03  0.7818608E-02  0.1127008E+00
         -2   -1    0    0    0  501 -0.00000000000E+00  0.00000000000E+00  0.45043847893E+03  0.45043847893E+03  0.00000000000E+00 0.  1.
          2   -1    0    0  502    0  0.00000000000E+00 -0.00000000000E+00 -0.13091524404E+03  0.13091524404E+03  0.00000000000E+00 0. -1.
          6    1    1    2  502    0 -0.15144573180E+03 -0.11835212867E+02  0.25484201814E+03  0.34293488617E+03  0.17200000000E+03 0.  1.
         -6    1    1    2    0  501  0.15144573180E+03  0.11835212867E+02  0.64681216756E+02  0.23841883681E+03  0.17200000000E+03 0. -1.
</event>
<event>
 4    1  0.3115421E-002  0.1731002E+03  0.7818608E-02  0.1174653E+00
         -2   -1    0    0    0  501 -0.00000000000E+00  0.00000000000E+00  0.15003402673E+03  0.15003402673E+03  0.00000000000E+00 0.  1.
          2   -1    0    0  502    0  0.00000000000E+00 -0.00000000000E+00 -0.23802088997E+03  0.23802088997E+03  0.00000000000E+00 0. -1.
          6    1    1    2  502    0 -0.12950625659E+01  0.19442715392E+02  0.33846354200E+02  0.17637820744E+03  0.17200000000E+03 0.  1.
         -6    1    1    2    0  501  0.12950625659E+01 -0.19442715392E+02 -0.12183321744E+03  0.21167670925E+03  0.17200000000E+03 0. -1.
</event>
<event>
 4    1  0.3115421E-002  0.3497076E+03  0.7818608E-02  0.1062735E+00
          1   -1    0    0  502    0  0.00000000000E+00  0.00000000000E+00  0.84476904854E+03  0.84476904854E+03  0.00000000000E+00 0. -1.
         -1   -1    0    0    0  501 -0.00000000000E+00 -0.00000000000E+00 -0.17835405294E+03  0.17835405294E+03  0.00000000000E+00 0.  1.
          6    1    1    2  502    0  0.30277954253E+03  0.32186331415E+02  0.55519921100E+03  0.65615666971E+03  0.17200000000E+03 0. -1.
         -6    1    1    2    0  501 -0.30277954253E+03 -0.32186331415E+02  0.11121578460E+03  0.36696643178E+03  0.17200000000E+03 0.  1.
</event>
<event>
 4    1  0.3115421E-002  0.1956646E+03  0.7818608E-02  0.1153449E+00
         -1   -1    0    0    0  501 -0.00000000000E+00  0.00000000000E+00  0.40113442134E+02  0.40113442134E+02  0.00000000000E+00 0.  1.
          1   -1    0    0  502    0  0.00000000000E+00 -0.00000000000E+00 -0.31581712784E+04  0.31581712784E+04  0.00000000000E+00 0. -1.
          6    1    1    2  502    0  0.84500376966E+02 -0.39500818705E+02 -0.28948603705E+04  0.29014653527E+04  0.17200000000E+03 0. -1.
         -6    1    1    2    0  501 -0.84500376966E+02  0.39500818705E+02 -0.22319746580E+03  0.29681936784E+03  0.17200000000E+03 0.  1.
</event>
<event>
 4    1  0.3115421E-002  0.1987471E+03  0.7818608E-02  0.1150800E+00
         -4   -1    0    0    0  501 -0.00000000000E+00  0.00000000000E+00  0.16472948476E+03  0.16472948476E+03  0.00000000000E+00 0.  1.
          4   -1    0    0  502    0  0.00000000000E+00 -0.00000000000E+00 -0.26270047063E+03  0.26270047063E+03  0.00000000000E+00 0. -1.
          6    1    1    2  502    0 -0.92212641107E+02 -0.37592875187E+02  0.14128634997E+02  0.19924862301E+03  0.17200000000E+03 0.  1.
         -6    1    1    2    0  501  0.92212641107E+02  0.37592875187E+02 -0.11209962087E+03  0.22818133237E+03  0.17200000000E+03 0.  1.
</event>
<event>
 4    1  0.3115421E-002  0.5069037E+03  0.7818608E-02  0.1011993E+00
          1   -1    0    0  502    0  0.00000000000E+00  0.00000000000E+00  0.49167365010E+03  0.49167365010E+03  0.00000000000E+00 0. -1.
         -1   -1    0    0    0  501 -0.00000000000E+00 -0.00000000000E+00 -0.54730027401E+03  0.54730027401E+03  0.00000000000E+00 0.  1.
          6    1    1    2  502    0 -0.60138504959E+02  0.47302291448E+03  0.82534823060E+02  0.51357892715E+03  0.17200000000E+03 0.  1.
         -6    1    1    2    0  501  0.60138504959E+02 -0.47302291448E+03 -0.13816144697E+03  0.52539499696E+03  0.17200000000E+03 0.  1.
</event>
<event>
 4    1  0.3115421E-002  0.2137019E+03  0.7818608E-02  0.1138668E+00
         -3   -1    0    0    0  501 -0.00000000000E+00  0.00000000000E+00  0.29433742400E+02  0.29433742400E+02  0.00000000000E+00 0.  1.
          3   -1    0    0  502    0  0.00000000000E+00 -0.00000000000E+00 -0.18599647663E+04  0.18599647663E+04  0.00000000000E+00 0. -1.
          6    1    1    2  502    0  0.63248849611E+01 -0.12666684908E+03 -0.12999415346E+04  0.13173900289E+04  0.17200000000E+03 0. -1.
         -6    1    1    2    0  501 -0.63248849611E+01  0.12666684908E+03 -0.53058948933E+03  0.57200847984E+03  0.17200000000E+03 0.  1.
</event>
<event>
 4    1  0.3115421E-002  0.2359828E+03  0.7818608E-02  0.1122498E+00
         -2   -1    0    0    0  501 -0.00000000000E+00  0.00000000000E+00  0.85756056250E+02  0.85756056250E+02  0.00000000000E+00 0.  1.
          2   -1    0    0  502    0  0.00000000000E+00 -0.00000000000E+00 -0.69333936132E+03  0.69333936132E+03  0.00000000000E+00 0. -1.
          6    1    1    2  502    0  0.16083550581E+03 -0.15357030653E+02 -0.20569940274E+03  0.31304974462E+03  0.17200000000E+03 0. -1.
         -6    1    1    2    0  501 -0.16083550581E+03  0.15357030653E+02 -0.40188390233E+03  0.46604567294E+03  0.17200000000E+03 0. -1.
</event>
<event>
 4    1  0.3115421E-002  0.2118446E+03  0.7818608E-02  0.1140114E+00
          1   -1    0    0  502    0  0.00000000000E+00  0.00000000000E+00  0.23572602482E+03  0.23572602482E+03  0.00000000000E+00 0. -1.
         -1   -1    0    0    0  501 -0.00000000000E+00 -0.00000000000E+00 -0.20495801917E+03  0.20495801917E+03  0.00000000000E+00 0.  1.
          6    1    1    2  502    0  0.73633801687E+02  0.99358845119E+02  0.74143280871E+02  0.22444452088E+03  0.17200000000E+03 0. -1.
         -6    1    1    2    0  501 -0.73633801687E+02 -0.99358845119E+02 -0.43375275227E+02  0.21623952311E+03  0.17200000000E+03 0.  1.
</event>
<event>
 4    1  0.3115421E-002  0.1720714E+03  0.7818608E-02  0.1175705E+00
         -1   -1    0    0    0  501 -0.00000000000E+00  0.00000000000E+00  0.31148246450E+03  0.31148246450E+03  0.00000000000E+00 0.  1.
          1   -1    0    0  502    0  0.00000000000E+00 -0.00000000000E+00 -0.15490262176E+03  0.15490262176E+03  0.00000000000E+00 0. -1.
          6    1    1    2  502    0 -0.48597928547E+01 -0.97871444865E+00 -0.66654538278E+02  0.18453022230E+03  0.17200000000E+03 0. -1.
         -6    1    1    2    0  501  0.48597928547E+01  0.97871444865E+00  0.22323438102E+03  0.28185486396E+03  0.17200000000E+03 0.  1.
</event>
<event>
 4    1  0.3115421E-002  0.2701320E+03  0.7818608E-02  0.1101204E+00
          1   -1    0    0  502    0  0.00000000000E+00  0.00000000000E+00  0.10694073852E+04  0.10694073852E+04  0.00000000000E+00 0. -1.
         -1   -1    0    0    0  501 -0.00000000000E+00 -0.00000000000E+00 -0.71679489826E+02  0.71679489826E+02  0.00000000000E+00 0.  1.
          6    1    1    2  502    0 -0.18541653988E+03 -0.94910627751E+02  0.62392888835E+03  0.67989600546E+03  0.17200000000E+03 0. -1.
         -6    1    1    2    0  501  0.18541653988E+03  0.94910627751E+02  0.37379900704E+03  0.46119086959E+03  0.17200000000E+03 0. -1.
</event>
<event>
 4    1  0.3115421E-002  0.1831678E+03  0.7818608E-02  0.1164772E+00
         -1   -1    0    0    0  501 -0.00000000000E+00  0.00000000000E+00  0.12109715414E+03  0.12109715414E+03  0.00000000000E+00 0.  1.
          1   -1    0    0  502    0  0.00000000000E+00 -0.00000000000E+00 -0.28407778177E+03  0.28407778177E+03  0.00000000000E+00 0. -1.
          6    1    1    2  502    0  0.25167732011E+02  0.57732516111E+02 -0.11334531365E+03  0.21540106378E+03  0.17200000000E+03 0. -1.
         -6    1    1    2    0  501 -0.25167732011E+02 -0.57732516111E+02 -0.49635313984E+02  0.18977387214E+03  0.17200000000E+03 0.  1.
</event>
<event>
 4    1  0.3115421E-002  0.1868609E+03  0.7818608E-02  0.1161323E+00
          1   -1    0    0  502    0  0.00000000000E+00  0.00000000000E+00  0.69846431040E+03  0.69846431040E+03  0.00000000000E+00 0. -1.
         -1   -1    0    0    0  501 -0.00000000000E+00 -0.00000000000E+00 -0.54095358073E+02  0.54095358073E+02  0.00000000000E+00 0.  1.
          6    1    1    2  502    0  0.13035653866E+02  0.71854587839E+02  0.21853969219E+03  0.28753540152E+03  0.17200000000E+03 0. -1.
         -6    1    1    2    0  501 -0.13035653866E+02 -0.71854587839E+02  0.42582926014E+03  0.46502426695E+03  0.17200000000E+03 0.  1.
</event>
<event>
 4    1  0.3115421E-002  0.2149395E+03  0.7818608E-02  0.1137713E+00
          1   -1    0    0  502    0  0.00000000000E+00  0.00000000000E+00  0.48444852057E+03  0.48444852057E+03  0.00000000000E+00 0. -1.
         -1   -1    0    0    0  501 -0.00000000000E+00 -0.00000000000E+00 -0.10256543976E+03  0.10256543976E+03  0.00000000000E+00 0.  1.
          6    1    1    2  502    0 -0.57583629332E+02  0.11532172146E+03  0.26871403243E+03  0.34410202707E+03  0.17200000000E+03 0. -1.
         -6    1    1    2    0  501  0.57583629332E+02 -0.11532172146E+03  0.11316904838E+03  0.24291193326E+03  0.17200000000E+03 0.  1.
</event>
<event>
 4    1  0.3115421E-002  0.2149816E+03  0.7818608E-02  0.1137681E+00
         -2   -1    0    0    0  501 -0.00000000000E+00  0.00000000000E+00  0.48574646540E+02  0.48574646540E+02  0.00000000000E+00 0.  1.
          2   -1    0    0  502    0  0.00000000000E+00 -0.00000000000E+00 -0.10048755262E+04  0.10048755262E+04  0.00000000000E+00 0. -1.
          6    1    1    2  502    0 -0.12408657418E+03 -0.35150952706E+02 -0.35671595764E+03  0.41648930575E+03  0.17200000000E+03 0.  1.
         -6    1    1    2    0  501  0.12408657418E+03  0.35150952706E+02 -0.59958492203E+03  0.63696086701E+03  0.17200000000E+03 0. -1.
</event>
<event>
 4    1  0.3115421E-002  0.1723472E+03  0.7818608E-02  0.1175422E+00
          2   -1    0    0  502    0  0.00000000000E+00  0.00000000000E+00  0.31544852405E+03  0.31544852405E+03  0.00000000000E+00 0. -1.
         -2   -1    0    0    0  501 -0.00000000000E+00 -0.00000000000E+00 -0.94163696023E+02  0.94163696023E+02  0.00000000000E+00 0.  1.
          6    1    1    2  502    0  0.10233483507E+02 -0.38508151560E+01  0.11123176732E+03  0.20512449640E+03  0.17200000000E+03 0. -1.
         -6    1    1    2    0  501 -0.10233483507E+02  0.38508151560E+01  0.11005306071E+03  0.20448772367E+03  0.17200000000E+03 0.  1.
</event>
<event>
 4    1  0.3115421E-002  0.3653797E+03  0.7818608E-02  0.1056474E+00
          3   -1    0    0  502    0  0.00000000000E+00  0.00000000000E+00  0.82326481466E+02  0.82326481466E+02  0.00000000000E+00 0. -1.
         -3   -1    0    0    0  501 -0.00000000000E+00 -0.00000000000E+00 -0.16225145367E+04  0.16225145367E+04  0.00000000000E+00 0.  1.
          6    1    1    2  502    0  0.17990935844E+03  0.26749005506E+03 -0.75008404147E+03  0.83434308056E+03  0.17200000000E+03 0. -1.
         -6    1    1    2    0  501 -0.17990935844E+03 -0.26749005506E+03 -0.79010401376E+03  0.87049793760E+03  0.17200000000E+03 0.  1.
</event>
<event>
 4    1  0.3115421E-002  0.3449934E+03  0.7818608E-02  0.1064689E+00
          2   -1    0    0  502    0  0.00000000000E+00  0.00000000000E+00  0.76188094621E+03  0.76188094621E+03  0.00000000000E+00 0. -1.
         -2   -1    0    0    0  501 -0.00000000000E+00 -0.00000000000E+00 -0.16442737670E+03  0.16442737670E+03  0.00000000000E+00 0.  1.
          6    1    1    2  502    0  0.27417112143E+03 -0.11944315107E+03  0.40220776328E+03  0.52989768353E+03  0.17200000000E+03 0. -1.
         -6    1    1    2    0  501 -0.27417112143E+03  0.11944315107E+03  0.19524580623E+03  0.39641063938E+03  0.17200000000E+03 0.  1.
</event>
<event>
 4    1  0.3115421E-002  0.1873002E+03  0.7818608E-02  0.1160919E+00
          2   -1    0    0  502    0  0.00000000000E+00  0.00000000000E+00  0.57490027434E+02  0.57490027434E+02  0.00000000000E+00 0. -1.
         -2   -1    0    0    0  501 -0.00000000000E+00 -0.00000000000E+00 -0.62941679876E+03  0.62941679876E+03  0.00000000000E+00 0.  1.
          6    1    1    2  502    0 -0.72496728578E+02  0.15543515064E+02 -0.22597736259E+03  0.29350833876E+03  0.17200000000E+03 0. -1.
         -6    1    1    2    0  501  0.72496728578E+02 -0.15543515064E+02 -0.34594940873E+03  0.39339848743E+03  0.17200000000E+03 0.  1.
</event>
<event>
 4    1  0.3115421E-002  0.1774173E+03  0.7818608E-02  0.1170326E+00
          4   -1    0    0  502    0  0.00000000000E+00  0.00000000000E+00  0.93650057748E+02  0.93650057748E+02  0.00000000000E+00 0. -1.
         -4   -1    0    0    0  501 -0.00000000000E+00 -0.00000000000E+00 -0.36344941085E+03  0.36344941085E+03  0.00000000000E+00 0.  1.
          6    1    1    2  502    0  0.42805790484E+02  0.77825898050E+01 -0.72218412083E+02  0.19155261274E+03  0.17200000000E+03 0.  1.
         -6    1    1    2    0  501 -0.42805790484E+02 -0.77825898050E+01 -0.19758094102E+03  0.26554685586E+03  0.17200000000E+03 0.  1.
</event>
<event>
 4    1  0.3115421E-002  0.3379036E+03  0.7818608E-02  0.1067692E+00
          1   -1    0    0  502    0  0.00000000000E+00  0.00000000000E+00  0.19552775785E+04  0.19552775785E+04  0.00000000000E+00 0. -1.
         -1   -1    0    0    0  501 -0.00000000000E+00 -0.00000000000E+00 -0.59759160226E+02  0.59759160226E+02  0.00000000000E+00 0.  1.
          6    1    1    2  502    0  0.26153348869E+03 -0.12725999031E+03  0.10999708513E+04  0.11507018486E+04  0.17200000000E+03 0.  1.
         -6    1    1    2    0  501 -0.26153348869E+03  0.12725999031E+03  0.79554756706E+03  0.86433489013E+03  0.17200000000E+03 0.  1.
</event>
<event>
 4    1  0.3115421E-002  0.3525384E+03  0.7818608E-02  0.1061578E+00
         -1   -1    0    0    0  501 -0.00000000000E+00  0.00000000000E+00  0.22402860855E+03  0.22402860855E+03  0.00000000000E+00 0.  1.
          1   -1    0    0  502    0  0.00000000000E+00 -0.00000000000E+00 -0.63374206334E+03  0.63374206334E+03  0.00000000000E+00 0. -1.
          6    1    1    2  502    0 -0.16045520312E+02  0.30731391636E+03 -0.35625975201E+03  0.50120286592E+03  0.17200000000E+03 0. -1.
         -6    1    1    2    0  501  0.16045520312E+02 -0.30731391636E+03 -0.53453702783E+02  0.35656780597E+03  0.17200000000E+03 0.  1.
</event>
<event>
 4    1  0.3115421E-002  0.3802943E+03  0.7818608E-02  0.1050825E+00
         -1   -1    0    0    0  501 -0.00000000000E+00  0.00000000000E+00  0.30677906032E+03  0.30677906032E+03  0.00000000000E+00 0.  1.
          1   -1    0    0  502    0  0.00000000000E+00 -0.00000000000E+00 -0.95876485496E+03  0.95876485496E+03  0.00000000000E+00 0. -1.
          6    1    1    2  502    0  0.33870129161E+03 -0.17922736108E+02 -0.77712782512E+03  0.86518867652E+03  0.17200000000E+03 0. -1.
         -6    1    1    2    0  501 -0.33870129161E+03  0.17922736108E+02  0.12514203048E+03  0.40035523876E+03  0.17200000000E+03 0.  1.
</event>
<event>
 4    1  0.3115421E-002  0.2701930E+03  0.7818608E-02  0.1101169E+00
          1   -1    0    0  502    0  0.00000000000E+00  0.00000000000E+00  0.14445049785E+04  0.14445049785E+04  0.00000000000E+00 0. -1.
         -1   -1    0    0    0  501 -0.00000000000E+00 -0.00000000000E+00 -0.53955541578E+02  0.53955541578E+02  0.00000000000E+00 0.  1.
          6    1    1    2  502    0 -0.73522446764E+02  0.19497356811E+03  0.50674804637E+03  0.57428026689E+03  0.17200000000E+03 0.  1.
         -6    1    1    2    0  501  0.73522446764E+02 -0.19497356811E+03  0.88380139052E+03  0.92418025316E+03  0.17200000000E+03 0.  1.
</event>
<event>
 4    1  0.3115421E-002  0.1728654E+03  0.7818608E-02  0.1174892E+00
          2   -1    0    0  502    0  0.00000000000E+00  0.00000000000E+00  0.10373393218E+04  0.10373393218E+04  0.00000000000E+00 0. -1.
         -2   -1    0    0    0  501 -0.00000000000E+00 -0.00000000000E+00 -0.39934694452E+02  0.39934694452E+02  0.00000000000E+00 0.  1.
          6    1    1    2  502    0 -0.17272314849E+02  0.35616681570E+00  0.78303505871E+03  0.80188924602E+03  0.17200000000E+03 0. -1.
         -6    1    1    2    0  501  0.17272314849E+02 -0.35616681570E+00  0.21436956862E+03  0.27538477021E+03  0.17200000000E+03 0.  1.
</event>
<event>
 4    1  0.3115421E-002  0.2132773E+03  0.7818608E-02  0.1138997E+00
         -1   -1    0    0    0  501 -0.00000000000E+00  0.00000000000E+00  0.99630517766E+02  0.99630517766E+02  0.00000000000E+00 0.  1.
          1   -1    0    0  502    0  0.00000000000E+00 -0.00000000000E+00 -0.78130063370E+03  0.78130063370E+03  0.00000000000E+00 0. -1.
          6    1    1    2  502    0 -0.12560126536E+03  0.11292905614E+02 -0.62480467957E+03  0.66020307117E+03  0.17200000000E+03 0. -1.
         -6    1    1    2    0  501  0.12560126536E+03 -0.11292905614E+02 -0.56865436368E+02  0.22072808029E+03  0.17200000000E+03 0.  1.
</event>
<event>
 4    1  0.3115421E-002  0.3064985E+03  0.7818608E-02  0.1082036E+00
         -2   -1    0    0    0  501 -0.00000000000E+00  0.00000000000E+00  0.95321607696E+02  0.95321607696E+02  0.00000000000E+00 0.  1.
          2   -1    0    0  502    0  0.00000000000E+00 -0.00000000000E+00 -0.10490225959E+04  0.10490225959E+04  0.00000000000E+00 0. -1.
          6    1    1    2  502    0  0.14457004752E+03  0.20846302199E+03 -0.61762717988E+03  0.68949594887E+03  0.17200000000E+03 0. -1.
         -6    1    1    2    0  501 -0.14457004752E+03 -0.20846302199E+03 -0.33607380828E+03  0.45484825468E+03  0.17200000000E+03 0.  1.
</event>
<event>
 4    1  0.3115421E-002  0.5400948E+03  0.7818608E-02  0.1003813E+00
         -1   -1    0    0    0  501 -0.00000000000E+00  0.00000000000E+00  0.92100018045E+03  0.92100018045E+03  0.00000000000E+00 0.  1.
          1   -1    0    0  502    0  0.00000000000E+00 -0.00000000000E+00 -0.88414449206E+03  0.88414449206E+03  0.00000000000E+00 0. -1.
          6    1    1    2  502    0  0.51109131745E+03 -0.30066915316E+02 -0.70463012008E+03  0.88780964192E+03  0.17200000000E+03 0. -1.
         -6    1    1    2    0  501 -0.51109131745E+03  0.30066915316E+02  0.74148580848E+03  0.91733503059E+03  0.17200000000E+03 0. -1.
</event>
<event>
 4    1  0.3115421E-002  0.2175482E+03  0.7818608E-02  0.1135724E+00
         -1   -1    0    0    0  501 -0.00000000000E+00  0.00000000000E+00  0.30389132506E+02  0.30389132506E+02  0.00000000000E+00 0.  1.
          1   -1    0    0  502    0  0.00000000000E+00 -0.00000000000E+00 -0.18822530854E+04  0.18822530854E+04  0.00000000000E+00 0. -1.
          6    1    1    2  502    0 -0.10528988570E+03 -0.81592107836E+02 -0.13232386781E+04  0.13410025471E+04  0.17200000000E+03 0. -1.
         -6    1    1    2    0  501  0.10528988570E+03  0.81592107836E+02 -0.52862527473E+03  0.57163967075E+03  0.17200000000E+03 0.  1.
</event>
<event>
 4    1  0.3115421E-002  0.1755413E+03  0.7818608E-02  0.1172189E+00
          1   -1    0    0  502    0  0.00000000000E+00  0.00000000000E+00  0.29061955630E+03  0.29061955630E+03  0.00000000000E+00 0. -1.
         -1   -1    0    0    0  501 -0.00000000000E+00 -0.00000000000E+00 -0.10704822679E+03  0.10704822679E+03  0.00000000000E+00 0.  1.
          6    1    1    2  502    0  0.79914014326E+01 -0.34159510000E+02  0.72404894133E+02  0.18988734375E+03  0.17200000000E+03 0.  1.
         -6    1    1    2    0  501 -0.79914014326E+01  0.34159510000E+02  0.11116643537E+03  0.20778043934E+03  0.17200000000E+03 0.  1.
</event>
<event>
 4    1  0.3115421E-002  0.2022088E+03  0.7818608E-02  0.1147889E+00
         -1   -1    0    0    0  501 -0.00000000000E+00  0.00000000000E+00  0.61376656865E+02  0.61376656865E+02  0.00000000000E+00 0.  1.
          1   -1    0    0  502    0  0.00000000000E+00 -0.00000000000E+00 -0.11480300650E+04  0.11480300650E+04  0.00000000000E+00 0. -1.
          6    1    1    2  502    0  0.98301454836E+02  0.40511921004E+02 -0.93508491807E+03  0.95669859191E+03  0.17200000000E+03 0. -1.
         -6    1    1    2    0  501 -0.98301454836E+02 -0.40511921004E+02 -0.15156849008E+03  0.25270812997E+03  0.17200000000E+03 0.  1.
</event>
<event>
 4    1  0.3115421E-002  0.2284177E+03  0.7818608E-02  0.1127758E+00
          1   -1    0    0  502    0  0.00000000000E+00  0.00000000000E+00  0.44972748764E+03  0.44972748764E+03  0.00000000000E+00 0. -1.
         -1   -1    0    0    0  501 -0.00000000000E+00 -0.00000000000E+00 -0.20953224518E+03  0.20953224518E+03  0.00000000000E+00 0.  1.
          6    1    1    2  502    0 -0.25232096660E+02  0.14816875755E+03  0.34031395581E+03  0.40986366994E+03  0.17200000000E+03 0. -1.
         -6    1    1    2    0  501  0.25232096660E+02 -0.14816875755E+03 -0.10011871335E+03  0.24939606288E+03  0.17200000000E+03 0.  1.
</event>
<event>
 4    1  0.3115421E-002  0.3018443E+03  0.7818608E-02  0.1084322E+00
         -2   -1    0    0    0  501 -0.00000000000E+00  0.00000000000E+00  0.16110341514E+03  0.16110341514E+03  0.00000000000E+00 0.  1.
          2   -1    0    0  502    0  0.00000000000E+00 -0.00000000000E+00 -0.11319130267E+04  0.11319130267E+04  0.00000000000E+00 0. -1.
          6    1    1    2  502    0  0.16216386854E+03 -0.18769349276E+03 -0.94272448840E+03  0.98986838949E+03  0.17200000000E+03 0. -1.
         -6    1    1    2    0  501 -0.16216386854E+03  0.18769349276E+03 -0.28085123142E+02  0.30314805232E+03  0.17200000000E+03 0.  1.
</event>
<event>
 4    1  0.3115421E-002  0.1986491E+03  0.7818608E-02  0.1150884E+00
         -1   -1    0    0    0  501 -0.00000000000E+00  0.00000000000E+00  0.14815334828E+04  0.14815334828E+04  0.00000000000E+00 0.  1.
          1   -1    0    0  502    0  0.00000000000E+00 -0.00000000000E+00 -0.24832757182E+03  0.24832757182E+03  0.00000000000E+00 0. -1.
          6    1    1    2  502    0 -0.91892793301E+02 -0.37857394777E+02 -0.20062606608E+03  0.28233364339E+03  0.17200000000E+03 0. -1.
         -6    1    1    2    0  501  0.91892793301E+02  0.37857394777E+02  0.14338319771E+04  0.14475274112E+04  0.17200000000E+03 0.  1.
</event>
<event>
 4    1  0.3115421E-002  0.2570862E+03  0.7818608E-02  0.1108907E+00
         -2   -1    0    0    0  501 -0.00000000000E+00  0.00000000000E+00  0.97830916903E+02  0.97830916903E+02  0.00000000000E+00 0.  1.
          2   -1    0    0  502    0  0.00000000000E+00 -0.00000000000E+00 -0.98117392701E+03  0.98117392701E+03  0.00000000000E+00 0. -1.
          6    1    1    2  502    0 -0.67796842635E+02 -0.17864185998E+03 -0.74275542683E+03  0.78598915392E+03  0.17200000000E+03 0. -1.
         -6    1    1    2    0  501  0.67796842635E+02  0.17864185998E+03 -0.14058758329E+03  0.29301568999E+03  0.17200000000E+03 0.  1.
</event>
<event>
 4    1  0.3115421E-002  0.2397279E+03  0.7818608E-02  0.1119974E+00
         -4   -1    0    0    0  501 -0.00000000000E+00  0.00000000000E+00  0.33492671654E+03  0.33492671654E+03  0.00000000000E+00 0.  1.
          4   -1    0    0  502    0  0.00000000000E+00 -0.00000000000E+00 -0.17422403786E+03  0.17422403786E+03  0.00000000000E+00 0. -1.
          6    1    1    2  502    0 -0.10240132451E+03 -0.13190695229E+03  0.49038605203E+02  0.24469217422E+03  0.17200000000E+03 0. -1.
         -6    1    1    2    0  501  0.10240132451E+03  0.13190695229E+03  0.11166407348E+03  0.26445858018E+03  0.17200000000E+03 0.  1.
</event>
<event>
 4    1  0.3115421E-002  0.4137487E+03  0.7818608E-02  0.1039120E+00
          2   -1    0    0  502    0  0.00000000000E+00  0.00000000000E+00  0.60252905756E+03  0.60252905756E+03  0.00000000000E+00 0. -1.
         -2   -1    0    0    0  501 -0.00000000000E+00 -0.00000000000E+00 -0.48590709028E+03  0.48590709028E+03  0.00000000000E+00 0.  1.
          6    1    1    2  502    0 -0.25032702722E+03 -0.28096332398E+03  0.40902052279E+03  0.58179532315E+03  0.17200000000E+03 0. -1.
         -6    1    1    2    0  501  0.25032702722E+03  0.28096332398E+03 -0.29239855552E+03  0.50664082469E+03  0.17200000000E+03 0.  1.
</event>
<event>
 4    1  0.3115421E-002  0.2300899E+03  0.7818608E-02  0.1126577E+00
          1   -1    0    0  502    0  0.00000000000E+00  0.00000000000E+00  0.15645040542E+03  0.15645040542E+03  0.00000000000E+00 0. -1.
         -1   -1    0    0    0  501 -0.00000000000E+00 -0.00000000000E+00 -0.10884528220E+04  0.10884528220E+04  0.00000000000E+00 0.  1.
          6    1    1    2  502    0 -0.72717389854E+02  0.13442291721E+03  0.50711867184E+02  0.23561203902E+03  0.17200000000E+03 0. -1.
         -6    1    1    2    0  501  0.72717389854E+02 -0.13442291721E+03 -0.98271428376E+03  0.10092911884E+04  0.17200000000E+03 0.  1.
</event>
<event>
 4    1  0.3115421E-002  0.1971588E+03  0.7818608E-02  0.1152158E+00
         -2   -1    0    0    0  501 -0.00000000000E+00  0.00000000000E+00  0.35401922593E+02  0.35401922593E+02  0.00000000000E+00 0.  1.
          2   -1    0    0  502    0  0.00000000000E+00 -0.00000000000E+00 -0.11859163723E+04  0.11859163723E+04  0.00000000000E+00 0. -1.
          6    1    1    2  502    0  0.28993552205E+02  0.91907469343E+02 -0.40899793406E+03  0.45403845548E+03  0.17200000000E+03 0. -1.
         -6    1    1    2    0  501 -0.28993552205E+02 -0.91907469343E+02 -0.74151651565E+03  0.76727983942E+03  0.17200000000E+03 0.  1.
</event>
<event>
 4    1  0.3115421E-002  0.3944209E+03  0.7818608E-02  0.1045729E+00
         -2   -1    0    0    0  501 -0.00000000000E+00  0.00000000000E+00  0.65011749112E+03  0.65011749112E+03  0.00000000000E+00 0.  1.
          2   -1    0    0  502    0  0.00000000000E+00 -0.00000000000E+00 -0.36897857214E+03  0.36897857214E+03  0.00000000000E+00 0. -1.
          6    1    1    2  502    0 -0.13663285929E+03  0.32759009322E+03 -0.16151774982E+03  0.42621096997E+03  0.17200000000E+03 0. -1.
         -6    1    1    2    0  501  0.13663285929E+03 -0.32759009322E+03  0.44265666880E+03  0.59288509329E+03  0.17200000000E+03 0.  1.
</event>
<event>
 4    1  0.3115421E-002  0.5383315E+03  0.7818608E-02  0.1004231E+00
         -2   -1    0    0    0  501 -0.00000000000E+00  0.00000000000E+00  0.48767970232E+03  0.48767970232E+03  0.00000000000E+00 0.  1.
          2   -1    0    0  502    0  0.00000000000E+00 -0.00000000000E+00 -0.81276732757E+03  0.81276732757E+03  0.00000000000E+00 0. -1.
          6    1    1    2  502    0 -0.47876304804E+03 -0.17607597340E+03 -0.49969781363E+03  0.73450575867E+03  0.17200000000E+03 0. -1.
         -6    1    1    2    0  501  0.47876304804E+03  0.17607597340E+03  0.17461018839E+03  0.56594127122E+03  0.17200000000E+03 0.  1.
</event>
<event>
 4    1  0.3115421E-002  0.2642518E+03  0.7818608E-02  0.1104615E+00
          1   -1    0    0  502    0  0.00000000000E+00  0.00000000000E+00  0.22735914028E+03  0.22735914028E+03  0.00000000000E+00 0. -1.
         -1   -1    0    0    0  501 -0.00000000000E+00 -0.00000000000E+00 -0.42168199263E+03  0.42168199263E+03  0.00000000000E+00 0.  1.
          6    1    1    2  502    0 -0.17213454414E+02 -0.19987175130E+03  0.71979729619E+02  0.27387972079E+03  0.17200000000E+03 0. -1.
         -6    1    1    2    0  501  0.17213454414E+02  0.19987175130E+03 -0.26630258197E+03  0.37516141212E+03  0.17200000000E+03 0.  1.
</event>
<event>
 4    1  0.3115421E-002  0.2386264E+03  0.7818608E-02  0.1120711E+00
          4   -1    0    0  502    0  0.00000000000E+00  0.00000000000E+00  0.10860328613E+03  0.10860328613E+03  0.00000000000E+00 0. -1.
         -4   -1    0    0    0  501 -0.00000000000E+00 -0.00000000000E+00 -0.52693255923E+03  0.52693255923E+03  0.00000000000E+00 0.  1.
          6    1    1    2  502    0  0.12549180645E+03 -0.10775133578E+03 -0.18677645148E+03  0.30303132953E+03  0.17200000000E+03 0. -1.
         -6    1    1    2    0  501 -0.12549180645E+03  0.10775133578E+03 -0.23155282162E+03  0.33250451583E+03  0.17200000000E+03 0.  1.
</event>
<event>
 4    1  0.3115421E-002  0.1870980E+03  0.7818608E-02  0.1161105E+00
          2   -1    0    0  502    0  0.00000000000E+00  0.00000000000E+00  0.24337741892E+03  0.24337741892E+03  0.00000000000E+00 0. -1.
         -2   -1    0    0    0  501 -0.00000000000E+00 -0.00000000000E+00 -0.15940354604E+03  0.15940354604E+03  0.00000000000E+00 0.  1.
          6    1    1    2  502    0  0.13793527265E+02 -0.72328328575E+02  0.10492959338E+03  0.21451309535E+03  0.17200000000E+03 0. -1.
         -6    1    1    2    0  501 -0.13793527265E+02  0.72328328575E+02 -0.20955720497E+02  0.18826786962E+03  0.17200000000E+03 0.  1.
</event>
<event>
 4    1  0.3115421E-002  0.3322818E+03  0.7818608E-02  0.1070132E+00
         -2   -1    0    0    0  501 -0.00000000000E+00  0.00000000000E+00  0.51829670893E+02  0.51829670893E+02  0.00000000000E+00 0.  1.
          2   -1    0    0  502    0  0.00000000000E+00 -0.00000000000E+00 -0.21388821539E+04  0.21388821539E+04  0.00000000000E+00 0. -1.
          6    1    1    2  502    0  0.16310103145E+03 -0.23286308618E+03 -0.11130338174E+04  0.11615745530E+04  0.17200000000E+03 0. -1.
         -6    1    1    2    0  501 -0.16310103145E+03  0.23286308618E+03 -0.97401866560E+03  0.10291372718E+04  0.17200000000E+03 0.  1.
</event>
<event>
 4    1  0.3115421E-002  0.3244811E+03  0.7818608E-02  0.1073605E+00
          3   -1    0    0  502    0  0.00000000000E+00  0.00000000000E+00  0.20660920642E+04  0.20660920642E+04  0.00000000000E+00 0. -1.
         -3   -1    0    0    0  501 -0.00000000000E+00 -0.00000000000E+00 -0.54102934978E+02  0.54102934978E+02  0.00000000000E+00 0.  1.
          6    1    1    2  502    0 -0.68245417186E+01 -0.27505897146E+03  0.12615025129E+04  0.13025653927E+04  0.17200000000E+03 0. -1.
         -6    1    1    2    0  501  0.68245417186E+01  0.27505897146E+03  0.75048661634E+03  0.81762960652E+03  0.17200000000E+03 0.  1.
</event>
<event>
 4    1  0.3115421E-002  0.2310960E+03  0.7818608E-02  0.1125871E+00
          1   -1    0    0  502    0  0.00000000000E+00  0.00000000000E+00  0.23824409997E+03  0.23824409997E+03  0.00000000000E+00 0. -1.
         -1   -1    0    0    0  501 -0.00000000000E+00 -0.00000000000E+00 -0.22575732691E+03  0.22575732691E+03  0.00000000000E+00 0.  1.
          6    1    1    2  502    0  0.11545021838E+03 -0.10243346190E+03  0.25743630292E+02  0.23252548579E+03  0.17200000000E+03 0. -1.
         -6    1    1    2    0  501 -0.11545021838E+03  0.10243346190E+03 -0.13256857226E+02  0.23147594109E+03  0.17200000000E+03 0.  1.
</event>
<event>
 4    1  0.3115421E-002  0.2328884E+03  0.7818608E-02  0.1124623E+00
         -1   -1    0    0    0  501 -0.00000000000E+00  0.00000000000E+00  0.12125120834E+03  0.12125120834E+03  0.00000000000E+00 0.  1.
          1   -1    0    0  502    0  0.00000000000E+00 -0.00000000000E+00 -0.44928273175E+03  0.44928273175E+03  0.00000000000E+00 0. -1.
          6    1    1    2  502    0 -0.15127895502E+03  0.42043845805E+02 -0.14511808906E+03  0.27440165265E+03  0.17200000000E+03 0. -1.
         -6    1    1    2    0  501  0.15127895502E+03 -0.42043845805E+02 -0.18291343435E+03  0.29613228745E+03  0.17200000000E+03 0.  1.
</event>
<event>
 4    1  0.3115421E-002  0.5749319E+03  0.7818608E-02  0.9958824E-01
          1   -1    0    0  502    0  0.00000000000E+00  0.00000000000E+00  0.13799615283E+04  0.13799615283E+04  0.00000000000E+00 0. -1.
         -1   -1    0    0    0  501 -0.00000000000E+00 -0.00000000000E+00 -0.33881011648E+03  0.33881011648E+03  0.00000000000E+00 0.  1.
          6    1    1    2  502    0 -0.30109941602E+03  0.45858674309E+03  0.98576964426E+03  0.11411785359E+04  0.17200000000E+03 0. -1.
         -6    1    1    2    0  501  0.30109941602E+03 -0.45858674309E+03  0.55381767581E+02  0.57759310890E+03  0.17200000000E+03 0.  1.
</event>
<event>
 4    1  0.3115421E-002  0.1842072E+03  0.7818608E-02  0.1163792E+00
         -1   -1    0    0    0  501 -0.00000000000E+00  0.00000000000E+00  0.14041550283E+03  0.14041550283E+03  0.00000000000E+00 0.  1.
          1   -1    0    0  502    0  0.00000000000E+00 -0.00000000000E+00 -0.36929358965E+03  0.36929358965E+03  0.00000000000E+00 0. -1.
          6    1    1    2  502    0 -0.57000376017E+02 -0.33154905518E+02 -0.26426783969E+03  0.32213317389E+03  0.17200000000E+03 0. -1.
         -6    1    1    2    0  501  0.57000376017E+02  0.33154905518E+02  0.35389752867E+02  0.18757591859E+03  0.17200000000E+03 0.  1.
</event>
<event>
 4    1  0.3115421E-002  0.1768798E+03  0.7818608E-02  0.1170857E+00
         -2   -1    0    0    0  501 -0.00000000000E+00  0.00000000000E+00  0.58914854807E+02  0.58914854807E+02  0.00000000000E+00 0.  1.
          2   -1    0    0  502    0  0.00000000000E+00 -0.00000000000E+00 -0.59355437372E+03  0.59355437372E+03  0.00000000000E+00 0. -1.
          6    1    1    2  502    0  0.40825019124E+02  0.59819594768E+01 -0.16145028223E+03  0.23948415325E+03  0.17200000000E+03 0.  1.
         -6    1    1    2    0  501 -0.40825019124E+02 -0.59819594768E+01 -0.37318923668E+03  0.41298507528E+03  0.17200000000E+03 0.  1.
</event>
<event>
 4    1  0.3115421E-002  0.2344744E+03  0.7818608E-02  0.1123530E+00
          1   -1    0    0  502    0  0.00000000000E+00  0.00000000000E+00  0.45915372259E+03  0.45915372259E+03  0.00000000000E+00 0. -1.
         -1   -1    0    0    0  501 -0.00000000000E+00 -0.00000000000E+00 -0.32243997313E+03  0.32243997313E+03  0.00000000000E+00 0.  1.
          6    1    1    2  502    0  0.44123678110E+02  0.15312529414E+03  0.37820962417E+03  0.44499525221E+03  0.17200000000E+03 0. -1.
         -6    1    1    2    0  501 -0.44123678110E+02 -0.15312529414E+03 -0.24149587470E+03  0.33659844351E+03  0.17200000000E+03 0.  1.
</event>
<event>
 4    1  0.3115421E-002  0.1902775E+03  0.7818608E-02  0.1158211E+00
          2   -1    0    0  502    0  0.00000000000E+00  0.00000000000E+00  0.18405426588E+04  0.18405426588E+04  0.00000000000E+00 0. -1.
         -2   -1    0    0    0  501 -0.00000000000E+00 -0.00000000000E+00 -0.31206914927E+02  0.31206914927E+02  0.00000000000E+00 0.  1.
          6    1    1    2  502    0 -0.81364454820E+02 -0.11580936668E+01  0.14736731499E+04  0.14859064804E+04  0.17200000000E+03 0. -1.
         -6    1    1    2    0  501  0.81364454820E+02  0.11580936668E+01  0.33566259393E+03  0.38584309331E+03  0.17200000000E+03 0.  1.
</event>
<event>
 4    1  0.3115421E-002  0.1970754E+03  0.7818608E-02  0.1152230E+00
         -1   -1    0    0    0  501 -0.00000000000E+00  0.00000000000E+00  0.26912948976E+03  0.26912948976E+03  0.00000000000E+00 0.  1.
          1   -1    0    0  502    0  0.00000000000E+00 -0.00000000000E+00 -0.18114119500E+03  0.18114119500E+03  0.00000000000E+00 0. -1.
          6    1    1    2  502    0  0.94775755333E+02  0.16500206491E+02 -0.57520637534E+02  0.20529813529E+03  0.17200000000E+03 0.  1.
         -6    1    1    2    0  501 -0.94775755333E+02 -0.16500206491E+02  0.14550893229E+03  0.24497254946E+03  0.17200000000E+03 0.  1.
</event>
<event>
 4    1  0.3115421E-002  0.2122542E+03  0.7818608E-02  0.1139793E+00
         -2   -1    0    0    0  501 -0.00000000000E+00  0.00000000000E+00  0.24696377448E+02  0.24696377448E+02  0.00000000000E+00 0.  1.
          2   -1    0    0  502    0  0.00000000000E+00 -0.00000000000E+00 -0.19953366780E+04  0.19953366780E+04  0.00000000000E+00 0. -1.
          6    1    1    2  502    0  0.57081734137E+02 -0.11049676121E+03 -0.12810904682E+04  0.12985548299E+04  0.17200000000E+03 0. -1.
         -6    1    1    2    0  501 -0.57081734137E+02  0.11049676121E+03 -0.68954983244E+03  0.72147822561E+03  0.17200000000E+03 0.  1.
</event>
<event>
 4    1  0.3115421E-002  0.3180872E+03  0.7818608E-02  0.1076533E+00
          1   -1    0    0  502    0  0.00000000000E+00  0.00000000000E+00  0.66318959998E+03  0.66318959998E+03  0.00000000000E+00 0. -1.
         -1   -1    0    0    0  501 -0.00000000000E+00 -0.00000000000E+00 -0.15687984072E+03  0.15687984072E+03  0.00000000000E+00 0.  1.
          6    1    1    2  502    0  0.16867005736E+02 -0.26704118511E+03  0.32115689621E+03  0.45201907306E+03  0.17200000000E+03 0. -1.
         -6    1    1    2    0  501 -0.16867005736E+02  0.26704118511E+03  0.18515286304E+03  0.36805036764E+03  0.17200000000E+03 0.  1.
</event>
<event>
 4    1  0.3115421E-002  0.1987292E+03  0.7818608E-02  0.1150816E+00
          2   -1    0    0  502    0  0.00000000000E+00  0.00000000000E+00  0.99511061217E+03  0.99511061217E+03  0.00000000000E+00 0. -1.
         -2   -1    0    0    0  501 -0.00000000000E+00 -0.00000000000E+00 -0.42492001809E+02  0.42492001809E+02  0.00000000000E+00 0.  1.
          6    1    1    2  502    0 -0.98035602553E+02  0.17272351962E+02  0.60959579670E+03  0.64117107613E+03  0.17200000000E+03 0. -1.
         -6    1    1    2    0  501  0.98035602553E+02 -0.17272351962E+02  0.34302281366E+03  0.39643153785E+03  0.17200000000E+03 0.  1.
</event>
<event>
 4    1  0.3115421E-002  0.1980775E+03  0.7818608E-02  0.1151371E+00
         -1   -1    0    0    0  501 -0.00000000000E+00  0.00000000000E+00  0.98069703372E+02  0.98069703372E+02  0.00000000000E+00 0.  1.
          1   -1    0    0  502    0  0.00000000000E+00 -0.00000000000E+00 -0.42165944213E+03  0.42165944213E+03  0.00000000000E+00 0. -1.
          6    1    1    2  502    0 -0.94590568626E+02 -0.26520531128E+02 -0.22059660591E+03  0.29647525492E+03  0.17200000000E+03 0.  1.
         -6    1    1    2    0  501  0.94590568626E+02  0.26520531128E+02 -0.10299313285E+03  0.22325389058E+03  0.17200000000E+03 0.  1.
</event>
<event>
 4    1  0.3115421E-002  0.4688575E+03  0.7818608E-02  0.1022243E+00
         -2   -1    0    0    0  501 -0.00000000000E+00  0.00000000000E+00  0.14035990552E+03  0.14035990552E+03  0.00000000000E+00 0.  1.
          2   -1    0    0  502    0  0.00000000000E+00 -0.00000000000E+00 -0.20423233907E+04  0.20423233907E+04  0.00000000000E+00 0. -1.
          6    1    1    2  502    0  0.87798716832E+02  0.42724087360E+03 -0.14779351549E+04  0.15505223961E+04  0.17200000000E+03 0. -1.
         -6    1    1    2    0  501 -0.87798716832E+02 -0.42724087360E+03 -0.42402833028E+03  0.63216090011E+03  0.17200000000E+03 0.  1.
</event>
<event>
 4    1  0.3115421E-002  0.2271472E+03  0.7818608E-02  0.1128664E+00
         -2   -1    0    0    0  501 -0.00000000000E+00  0.00000000000E+00  0.15429405341E+03  0.15429405341E+03  0.00000000000E+00 0.  1.
          2   -1    0    0  502    0  0.00000000000E+00 -0.00000000000E+00 -0.33535094424E+03  0.33535094424E+03  0.00000000000E+00 0. -1.
          6    1    1    2  502    0 -0.45824750829E+02  0.14110969490E+03 -0.10356893863E+03  0.24964450491E+03  0.17200000000E+03 0. -1.
         -6    1    1    2    0  501  0.45824750829E+02 -0.14110969490E+03 -0.77487952203E+02  0.24000049275E+03  0.17200000000E+03 0. -1.
</event>
<event>
 4    1  0.3115421E-002  0.3103902E+03  0.7818608E-02  0.1080159E+00
         -2   -1    0    0    0  501 -0.00000000000E+00  0.00000000000E+00  0.12693797928E+04  0.12693797928E+04  0.00000000000E+00 0.  1.
          2   -1    0    0  502    0  0.00000000000E+00 -0.00000000000E+00 -0.76640831535E+02  0.76640831535E+02  0.00000000000E+00 0. -1.
          6    1    1    2  502    0 -0.23767742080E+03 -0.10132867368E+03  0.66267399371E+03  0.73176422323E+03  0.17200000000E+03 0.  1.
         -6    1    1    2    0  501  0.23767742080E+03  0.10132867368E+03  0.53006496759E+03  0.61425640113E+03  0.17200000000E+03 0.  1.
</event>
<event>
 4    1  0.3115421E-002  0.2142372E+03  0.7818608E-02  0.1138254E+00
          2   -1    0    0  502    0  0.00000000000E+00  0.00000000000E+00  0.22331233729E+03  0.22331233729E+03  0.00000000000E+00 0. -1.
         -2   -1    0    0    0  501 -0.00000000000E+00 -0.00000000000E+00 -0.25262140517E+03  0.25262140517E+03  0.00000000000E+00 0.  1.
          6    1    1    2  502    0  0.94882217924E+02  0.85504155248E+02  0.88087436787E+02  0.23163979011E+03  0.17200000000E+03 0. -1.
         -6    1    1    2    0  501 -0.94882217924E+02 -0.85504155248E+02 -0.11739650467E+03  0.24429395234E+03  0.17200000000E+03 0.  1.
</event>
<event>
 4    1  0.3115421E-002  0.3014370E+03  0.7818608E-02  0.1084524E+00
         -2   -1    0    0    0  501 -0.00000000000E+00  0.00000000000E+00  0.26332061795E+03  0.26332061795E+03  0.00000000000E+00 0.  1.
          2   -1    0    0  502    0  0.00000000000E+00 -0.00000000000E+00 -0.36922675648E+03  0.36922675648E+03  0.00000000000E+00 0. -1.
          6    1    1    2  502    0 -0.24537515294E+03  0.32730424032E+02 -0.13384942137E+03  0.32981800124E+03  0.17200000000E+03 0. -1.
         -6    1    1    2    0  501  0.24537515294E+03 -0.32730424032E+02  0.27943282835E+02  0.30272937320E+03  0.17200000000E+03 0.  1.
</event>
<event>
 4    1  0.3115421E-002  0.6709488E+03  0.7818608E-02  0.9768245E-01
         -1   -1    0    0    0  501 -0.00000000000E+00  0.00000000000E+00  0.14147577460E+04  0.14147577460E+04  0.00000000000E+00 0.  1.
          1   -1    0    0  502    0  0.00000000000E+00 -0.00000000000E+00 -0.38252723164E+03  0.38252723164E+03  0.00000000000E+00 0. -1.
          6    1    1    2  502    0  0.32846141961E+03  0.55919704571E+03  0.14759448840E+03  0.68699081006E+03  0.17200000000E+03 0. -1.
         -6    1    1    2    0  501 -0.32846141961E+03 -0.55919704571E+03  0.88463602593E+03  0.11102941675E+04  0.17200000000E+03 0.  1.
</event>
<event>
 4    1  0.3115421E-002  0.2092887E+03  0.7818608E-02  0.1142131E+00
         -2   -1    0    0    0  501 -0.00000000000E+00  0.00000000000E+00  0.26227314251E+03  0.26227314251E+03  0.00000000000E+00 0.  1.
          2   -1    0    0  502    0  0.00000000000E+00 -0.00000000000E+00 -0.24598012771E+03  0.24598012771E+03  0.00000000000E+00 0. -1.
          6    1    1    2  502    0 -0.38951144770E+02  0.11269678627E+03 -0.13584491754E+03  0.24951071908E+03  0.17200000000E+03 0. -1.
         -6    1    1    2    0  501  0.38951144770E+02 -0.11269678627E+03  0.15213793234E+03  0.25874255114E+03  0.17200000000E+03 0.  1.
</event>
<event>
 4    1  0.3115421E-002  0.2901571E+03  0.7818608E-02  0.1090267E+00
         -1   -1    0    0    0  501 -0.00000000000E+00  0.00000000000E+00  0.25451138819E+03  0.25451138819E+03  0.00000000000E+00 0.  1.
          1   -1    0    0  502    0  0.00000000000E+00 -0.00000000000E+00 -0.33408771651E+03  0.33408771651E+03  0.00000000000E+00 0. -1.
          6    1    1    2  502    0 -0.23139276443E+03 -0.32627325298E+02 -0.69004193787E+02  0.29824944685E+03  0.17200000000E+03 0.  1.
         -6    1    1    2    0  501  0.23139276443E+03  0.32627325298E+02 -0.10572134536E+02  0.29034965785E+03  0.17200000000E+03 0.  1.
</event>
<event>
 4    1  0.3115421E-002  0.4504593E+03  0.7818608E-02  0.1027585E+00
         -2   -1    0    0    0  501 -0.00000000000E+00  0.00000000000E+00  0.12196188986E+03  0.12196188986E+03  0.00000000000E+00 0.  1.
          2   -1    0    0  502    0  0.00000000000E+00 -0.00000000000E+00 -0.30092867329E+04  0.30092867329E+04  0.00000000000E+00 0. -1.
          6    1    1    2  502    0  0.18712132102E+03 -0.37190754739E+03 -0.24905599822E+04  0.25309687153E+04  0.17200000000E+03 0. -1.
         -6    1    1    2    0  501 -0.18712132102E+03  0.37190754739E+03 -0.39676486085E+03  0.60027990754E+03  0.17200000000E+03 0.  1.
</event>
<event>
 4    1  0.3115421E-002  0.2102478E+03  0.7818608E-02  0.1141370E+00
          2   -1    0    0  502    0  0.00000000000E+00  0.00000000000E+00  0.15780673384E+04  0.15780673384E+04  0.00000000000E+00 0. -1.
         -2   -1    0    0    0  501 -0.00000000000E+00 -0.00000000000E+00 -0.28086910779E+02  0.28086910779E+02  0.00000000000E+00 0.  1.
          6    1    1    2  502    0  0.11785650348E+03 -0.27017826173E+02  0.73339276894E+03  0.76293451349E+03  0.17200000000E+03 0. -1.
         -6    1    1    2    0  501 -0.11785650348E+03  0.27017826173E+02  0.81658765871E+03  0.84321973571E+03  0.17200000000E+03 0. -1.
</event>
<event>
 4    1  0.3115421E-002  0.1973068E+03  0.7818608E-02  0.1152031E+00
          1   -1    0    0  502    0  0.00000000000E+00  0.00000000000E+00  0.64895782870E+03  0.64895782870E+03  0.00000000000E+00 0. -1.
         -1   -1    0    0    0  501 -0.00000000000E+00 -0.00000000000E+00 -0.40748502430E+03  0.40748502430E+03  0.00000000000E+00 0.  1.
          6    1    1    2  502    0  0.83166392239E+01  0.96316253723E+02  0.60852926191E+03  0.63971700761E+03  0.17200000000E+03 0. -1.
         -6    1    1    2    0  501 -0.83166392239E+01 -0.96316253723E+02 -0.36705645751E+03  0.41672584539E+03  0.17200000000E+03 0.  1.
</event>
<event>
 4    1  0.3115421E-002  0.3423708E+03  0.7818608E-02  0.1065791E+00
         -1   -1    0    0    0  501 -0.00000000000E+00  0.00000000000E+00  0.34681370246E+03  0.34681370246E+03  0.00000000000E+00 0.  1.
          1   -1    0    0  502    0  0.00000000000E+00 -0.00000000000E+00 -0.42711078843E+03  0.42711078843E+03  0.00000000000E+00 0. -1.
          6    1    1    2  502    0 -0.17685299863E+03 -0.23739589767E+03 -0.21691516151E+03  0.40530233486E+03  0.17200000000E+03 0. -1.
         -6    1    1    2    0  501  0.17685299863E+03  0.23739589767E+03  0.13661807554E+03  0.36862215603E+03  0.17200000000E+03 0.  1.
</event>
<event>
 4    1  0.3115421E-002  0.2988016E+03  0.7818608E-02  0.1085841E+00
         -2   -1    0    0    0  501 -0.00000000000E+00  0.00000000000E+00  0.43732896406E+02  0.43732896406E+02  0.00000000000E+00 0.  1.
          2   -1    0    0  502    0  0.00000000000E+00 -0.00000000000E+00 -0.27097544625E+04  0.27097544625E+04  0.00000000000E+00 0. -1.
          6    1    1    2  502    0  0.19426118681E+03  0.14819232732E+03 -0.64934054917E+03  0.71479054510E+03  0.17200000000E+03 0.  1.
         -6    1    1    2    0  501 -0.19426118681E+03 -0.14819232732E+03 -0.20166810170E+04  0.20386968138E+04  0.17200000000E+03 0.  1.
</event>
<event>
 4    1  0.3115421E-002  0.1769824E+03  0.7818608E-02  0.1170756E+00
         -1   -1    0    0    0  501 -0.00000000000E+00  0.00000000000E+00  0.25131063337E+02  0.25131063337E+02  0.00000000000E+00 0.  1.
          1   -1    0    0  502    0  0.00000000000E+00 -0.00000000000E+00 -0.12498209087E+04  0.12498209087E+04  0.00000000000E+00 0. -1.
          6    1    1    2  502    0  0.11154287871E+02  0.40179135099E+02 -0.57888218505E+03  0.60533244188E+03  0.17200000000E+03 0.  1.
         -6    1    1    2    0  501 -0.11154287871E+02 -0.40179135099E+02 -0.64580766028E+03  0.66961953012E+03  0.17200000000E+03 0.  1.
</event>
<event>
 4    1  0.3115421E-002  0.2304152E+03  0.7818608E-02  0.1126348E+00
         -2   -1    0    0    0  501 -0.00000000000E+00  0.00000000000E+00  0.14080732334E+04  0.14080732334E+04  0.00000000000E+00 0.  1.
          2   -1    0    0  502    0  0.00000000000E+00 -0.00000000000E+00 -0.69924776215E+02  0.69924776215E+02  0.00000000000E+00 0. -1.
          6    1    1    2  502    0 -0.14448987150E+03  0.51281955107E+02  0.11707125623E+04  0.11931718507E+04  0.17200000000E+03 0.  1.
         -6    1    1    2    0  501  0.14448987150E+03 -0.51281955107E+02  0.16743589491E+03  0.28482615889E+03  0.17200000000E+03 0. -1.
</event>
<event>
 4    1  0.3115421E-002  0.5557826E+03  0.7818608E-02  0.1000164E+00
          2   -1    0    0  502    0  0.00000000000E+00  0.00000000000E+00  0.20145264893E+04  0.20145264893E+04  0.00000000000E+00 0. -1.
         -2   -1    0    0    0  501 -0.00000000000E+00 -0.00000000000E+00 -0.25860448137E+03  0.25860448137E+03  0.00000000000E+00 0.  1.
          6    1    1    2  502    0 -0.12384403830E+01  0.52849671368E+03  0.16031160367E+04  0.16967248856E+04  0.17200000000E+03 0. -1.
         -6    1    1    2    0  501  0.12384403830E+01 -0.52849671368E+03  0.15280597119E+03  0.57640608510E+03  0.17200000000E+03 0.  1.
</event>
<event>
 4    1  0.3115421E-002  0.2175651E+03  0.7818608E-02  0.1135711E+00
         -2   -1    0    0    0  501 -0.00000000000E+00  0.00000000000E+00  0.43542285476E+02  0.43542285476E+02  0.00000000000E+00 0.  1.
          2   -1    0    0  502    0  0.00000000000E+00 -0.00000000000E+00 -0.14799147506E+04  0.14799147506E+04  0.00000000000E+00 0. -1.
          6    1    1    2  502    0  0.35294464157E+02 -0.12847137334E+03 -0.11106310727E+04  0.11317402408E+04  0.17200000000E+03 0. -1.
         -6    1    1    2    0  501 -0.35294464157E+02  0.12847137334E+03 -0.32574139239E+03  0.39171679525E+03  0.17200000000E+03 0.  1.
</event>
<event>
 4    1  0.3115421E-002  0.8084397E+03  0.7818608E-02  0.9547881E-01
         -2   -1    0    0    0  501 -0.00000000000E+00  0.00000000000E+00  0.21912975621E+03  0.21912975621E+03  0.00000000000E+00 0.  1.
          2   -1    0    0  502    0  0.00000000000E+00 -0.00000000000E+00 -0.30323339251E+04  0.30323339251E+04  0.00000000000E+00 0. -1.
          6    1    1    2  502    0 -0.27858404543E+03  0.73917632896E+03 -0.16148211735E+04  0.18058854167E+04  0.17200000000E+03 0. -1.
         -6    1    1    2    0  501  0.27858404543E+03 -0.73917632896E+03 -0.11983829954E+04  0.14455782647E+04  0.17200000000E+03 0.  1.
</event>
<event>
 4    1  0.3115421E-002  0.1877943E+03  0.7818608E-02  0.1160466E+00
         -2   -1    0    0    0  501 -0.00000000000E+00  0.00000000000E+00  0.30426167771E+02  0.30426167771E+02  0.00000000000E+00 0.  1.
          2   -1    0    0  502    0  0.00000000000E+00 -0.00000000000E+00 -0.16507444875E+04  0.16507444875E+04  0.00000000000E+00 0. -1.
          6    1    1    2  502    0  0.71363412662E+02  0.24289026726E+02 -0.12689043183E+04  0.12827255600E+04  0.17200000000E+03 0. -1.
         -6    1    1    2    0  501 -0.71363412662E+02 -0.24289026726E+02 -0.35141400149E+03  0.39844509525E+03  0.17200000000E+03 0.  1.
</event>
<event>
 4    1  0.3115421E-002  0.1802255E+03  0.7818608E-02  0.1167585E+00
          1   -1    0    0  502    0  0.00000000000E+00  0.00000000000E+00  0.30550926316E+03  0.30550926316E+03  0.00000000000E+00 0. -1.
         -1   -1    0    0    0  501 -0.00000000000E+00 -0.00000000000E+00 -0.11322317317E+03  0.11322317317E+03  0.00000000000E+00 0.  1.
          6    1    1    2  502    0 -0.17720811097E+02 -0.50825221373E+02  0.14784611225E+03  0.23310877972E+03  0.17200000000E+03 0. -1.
         -6    1    1    2    0  501  0.17720811097E+02  0.50825221373E+02  0.44439977742E+02  0.18562365662E+03  0.17200000000E+03 0.  1.
</event>
<event>
 4    1  0.3115421E-002  0.3267083E+03  0.7818608E-02  0.1072603E+00
         -3   -1    0    0    0  501 -0.00000000000E+00  0.00000000000E+00  0.42815458851E+03  0.42815458851E+03  0.00000000000E+00 0.  1.
          3   -1    0    0  502    0  0.00000000000E+00 -0.00000000000E+00 -0.25476896264E+03  0.25476896264E+03  0.00000000000E+00 0. -1.
          6    1    1    2  502    0 -0.27772320881E+03  0.49104675441E+01  0.13672864974E+03  0.35416523977E+03  0.17200000000E+03 0. -1.
         -6    1    1    2    0  501  0.27772320881E+03 -0.49104675441E+01  0.36656976135E+02  0.32875831138E+03  0.17200000000E+03 0.  1.
</event>
<event>
 4    1  0.3115421E-002  0.7621077E+03  0.7818608E-02  0.9616544E-01
          1   -1    0    0  502    0  0.00000000000E+00  0.00000000000E+00  0.13945562012E+04  0.13945562012E+04  0.00000000000E+00 0. -1.
         -1   -1    0    0    0  501 -0.00000000000E+00 -0.00000000000E+00 -0.43992847358E+03  0.43992847358E+03  0.00000000000E+00 0.  1.
          6    1    1    2  502    0 -0.64874370539E+03 -0.36104814900E+03  0.68906600100E+03  0.10274337521E+04  0.17200000000E+03 0. -1.
         -6    1    1    2    0  501  0.64874370539E+03  0.36104814900E+03  0.26556172659E+03  0.80705092268E+03  0.17200000000E+03 0.  1.
</event>
<event>
 4    1  0.3115421E-002  0.2075990E+03  0.7818608E-02  0.1143482E+00
         -1   -1    0    0    0  501 -0.00000000000E+00  0.00000000000E+00  0.28156531060E+03  0.28156531060E+03  0.00000000000E+00 0.  1.
          1   -1    0    0  502    0  0.00000000000E+00 -0.00000000000E+00 -0.28909366804E+03  0.28909366804E+03  0.00000000000E+00 0. -1.
          6    1    1    2  502    0 -0.19150779154E+02 -0.11465854572E+03 -0.19948868177E+03  0.28791156386E+03  0.17200000000E+03 0. -1.
         -6    1    1    2    0  501  0.19150779154E+02  0.11465854572E+03  0.19196032433E+03  0.28274741478E+03  0.17200000000E+03 0.  1.
</event>
<event>
 4    1  0.3115421E-002  0.2355243E+03  0.7818608E-02  0.1122811E+00
          2   -1    0    0  502    0  0.00000000000E+00  0.00000000000E+00  0.11442438141E+04  0.11442438141E+04  0.00000000000E+00 0. -1.
         -2   -1    0    0    0  501 -0.00000000000E+00 -0.00000000000E+00 -0.57033900809E+02  0.57033900809E+02  0.00000000000E+00 0.  1.
          6    1    1    2  502    0  0.15962790951E+03  0.20164450064E+02  0.31097959174E+03  0.39010252629E+03  0.17200000000E+03 0. -1.
         -6    1    1    2    0  501 -0.15962790951E+03 -0.20164450064E+02  0.77623032159E+03  0.81117518866E+03  0.17200000000E+03 0. -1.
</event>
<event>
 4    1  0.3115421E-002  0.2542741E+03  0.7818608E-02  0.1110633E+00
          1   -1    0    0  502    0  0.00000000000E+00  0.00000000000E+00  0.23501890700E+04  0.23501890700E+04  0.00000000000E+00 0. -1.
         -1   -1    0    0    0  501 -0.00000000000E+00 -0.00000000000E+00 -0.31411619285E+02  0.31411619285E+02  0.00000000000E+00 0.  1.
          6    1    1    2  502    0  0.37132618754E+02 -0.18355511349E+03  0.15790299148E+04  0.15993719964E+04  0.17200000000E+03 0. -1.
         -6    1    1    2    0  501 -0.37132618754E+02  0.18355511349E+03  0.73974753594E+03  0.78222869290E+03  0.17200000000E+03 0.  1.
</event>
<event>
 4    1  0.3115421E-002  0.1892819E+03  0.7818608E-02  0.1159111E+00
         -2   -1    0    0    0  501 -0.00000000000E+00  0.00000000000E+00  0.81354065060E+02  0.81354065060E+02  0.00000000000E+00 0.  1.
          2   -1    0    0  502    0  0.00000000000E+00 -0.00000000000E+00 -0.44459539434E+03  0.44459539434E+03  0.00000000000E+00 0. -1.
          6    1    1    2  502    0  0.50300753023E+02 -0.60938260828E+02 -0.20719228772E+03  0.28063549576E+03  0.17200000000E+03 0.  1.
         -6    1    1    2    0  501 -0.50300753023E+02  0.60938260828E+02 -0.15604904156E+03  0.24531396364E+03  0.17200000000E+03 0.  1.
</event>
<event>
 4    1  0.3115421E-002  0.2939173E+03  0.7818608E-02  0.1088321E+00
          1   -1    0    0  502    0  0.00000000000E+00  0.00000000000E+00  0.15680421915E+04  0.15680421915E+04  0.00000000000E+00 0. -1.
         -1   -1    0    0    0  501 -0.00000000000E+00 -0.00000000000E+00 -0.55888550507E+02  0.55888550507E+02  0.00000000000E+00 0.  1.
          6    1    1    2  502    0  0.20820357523E+03 -0.11599427060E+03  0.65917313651E+03  0.72173168383E+03  0.17200000000E+03 0. -1.
         -6    1    1    2    0  501 -0.20820357523E+03  0.11599427060E+03  0.85298050453E+03  0.90219905822E+03  0.17200000000E+03 0.  1.
</event>
<event>
 4    1  0.3115421E-002  0.2141364E+03  0.7818608E-02  0.1138332E+00
         -1   -1    0    0    0  501 -0.00000000000E+00  0.00000000000E+00  0.36463526974E+03  0.36463526974E+03  0.00000000000E+00 0.  1.
          1   -1    0    0  502    0  0.00000000000E+00 -0.00000000000E+00 -0.15123523735E+03  0.15123523735E+03  0.00000000000E+00 0. -1.
          6    1    1    2  502    0 -0.12258983405E+03 -0.35243702162E+02  0.82500312143E+00  0.21413796157E+03  0.17200000000E+03 0. -1.
         -6    1    1    2    0  501  0.12258983405E+03  0.35243702162E+02  0.21257502927E+03  0.30173254552E+03  0.17200000000E+03 0.  1.
</event>
<event>
 4    1  0.3115421E-002  0.2510610E+03  0.7818608E-02  0.1112636E+00
         -2   -1    0    0    0  501 -0.00000000000E+00  0.00000000000E+00  0.73145231865E+02  0.73145231865E+02  0.00000000000E+00 0.  1.
          2   -1    0    0  502    0  0.00000000000E+00 -0.00000000000E+00 -0.86236551341E+03  0.86236551341E+03  0.00000000000E+00 0. -1.
          6    1    1    2  502    0  0.13356767396E+03 -0.12492927341E+03 -0.38194033544E+03  0.45706680772E+03  0.17200000000E+03 0.  1.
         -6    1    1    2    0  501 -0.13356767396E+03  0.12492927341E+03 -0.40727994610E+03  0.47844393755E+03  0.17200000000E+03 0.  1.
</event>
<event>
 4    1  0.3115421E-002  0.2036463E+03  0.7818608E-02  0.1146699E+00
         -2   -1    0    0    0  501 -0.00000000000E+00  0.00000000000E+00  0.61585046536E+02  0.61585046536E+02  0.00000000000E+00 0.  1.
          2   -1    0    0  502    0  0.00000000000E+00 -0.00000000000E+00 -0.83087570432E+03  0.83087570432E+03  0.00000000000E+00 0. -1.
          6    1    1    2  502    0  0.10731990314E+03  0.19242147243E+02 -0.57890729056E+03  0.61368189880E+03  0.17200000000E+03 0.  1.
         -6    1    1    2    0  501 -0.10731990314E+03 -0.19242147243E+02 -0.19038336722E+03  0.27877885206E+03  0.17200000000E+03 0.  1.
</event>
<event>
 4    1  0.3115421E-002  0.2285280E+03  0.7818608E-02  0.1127680E+00
          1   -1    0    0  502    0  0.00000000000E+00  0.00000000000E+00  0.19208567411E+03  0.19208567411E+03  0.00000000000E+00 0. -1.
         -1   -1    0    0    0  501 -0.00000000000E+00 -0.00000000000E+00 -0.29652963185E+03  0.29652963185E+03  0.00000000000E+00 0.  1.
          6    1    1    2  502    0 -0.64989989134E+02  0.13571056855E+03  0.18210238937E+02  0.22925241527E+03  0.17200000000E+03 0. -1.
         -6    1    1    2    0  501  0.64989989134E+02 -0.13571056855E+03 -0.12265419668E+03  0.25936289069E+03  0.17200000000E+03 0.  1.
</event>
<event>
 4    1  0.3115421E-002  0.2135734E+03  0.7818608E-02  0.1138767E+00
          2   -1    0    0  502    0  0.00000000000E+00  0.00000000000E+00  0.18995024000E+04  0.18995024000E+04  0.00000000000E+00 0. -1.
         -2   -1    0    0    0  501 -0.00000000000E+00 -0.00000000000E+00 -0.46282044264E+02  0.46282044264E+02  0.00000000000E+00 0.  1.
          6    1    1    2  502    0  0.11389477782E+03 -0.55295543074E+02  0.16014563774E+04  0.16156349050E+04  0.17200000000E+03 0. -1.
         -6    1    1    2    0  501 -0.11389477782E+03  0.55295543074E+02  0.25176397835E+03  0.33014953929E+03  0.17200000000E+03 0.  1.
</event>
<event>
 4    1  0.3115421E-002  0.2713541E+03  0.7818608E-02  0.1100507E+00
          2   -1    0    0  502    0  0.00000000000E+00  0.00000000000E+00  0.12869937604E+04  0.12869937604E+04  0.00000000000E+00 0. -1.
         -2   -1    0    0    0  501 -0.00000000000E+00 -0.00000000000E+00 -0.57264177013E+02  0.57264177013E+02  0.00000000000E+00 0.  1.
          6    1    1    2  502    0 -0.20208347327E+03  0.56668577814E+02  0.59481496228E+03  0.65378734864E+03  0.17200000000E+03 0.  1.
         -6    1    1    2    0  501  0.20208347327E+03 -0.56668577814E+02  0.63491462114E+03  0.69047058881E+03  0.17200000000E+03 0.  1.
</event>
<event>
 4    1  0.3115421E-002  0.3089213E+03  0.7818608E-02  0.1080864E+00
          1   -1    0    0  502    0  0.00000000000E+00  0.00000000000E+00  0.12648867654E+04  0.12648867654E+04  0.00000000000E+00 0. -1.
         -1   -1    0    0    0  501 -0.00000000000E+00 -0.00000000000E+00 -0.76061287571E+02  0.76061287571E+02  0.00000000000E+00 0.  1.
          6    1    1    2  502    0 -0.59934562447E+02 -0.24951200771E+03  0.65464806238E+03  0.72387601103E+03  0.17200000000E+03 0. -1.
         -6    1    1    2    0  501  0.59934562447E+02  0.24951200771E+03  0.53417741545E+03  0.61707204194E+03  0.17200000000E+03 0.  1.
</event>
<event>
 4    1  0.3115421E-002  0.2290365E+03  0.7818608E-02  0.1127320E+00
          2   -1    0    0  502    0  0.00000000000E+00  0.00000000000E+00  0.66870994499E+03  0.66870994499E+03  0.00000000000E+00 0. -1.
         -2   -1    0    0    0  501 -0.00000000000E+00 -0.00000000000E+00 -0.11876883164E+03  0.11876883164E+03  0.00000000000E+00 0.  1.
          6    1    1    2  502    0  0.11786176719E+03  0.94775096258E+02  0.50439113429E+03  0.55395679560E+03  0.17200000000E+03 0. -1.
         -6    1    1    2    0  501 -0.11786176719E+03 -0.94775096258E+02  0.45549979061E+02  0.23352198104E+03  0.17200000000E+03 0.  1.
</event>
<event>
 4    1  0.3115421E-002  0.2146037E+03  0.7818608E-02  0.1137971E+00
          1   -1    0    0  502    0  0.00000000000E+00  0.00000000000E+00  0.20062365097E+03  0.20062365097E+03  0.00000000000E+00 0. -1.
         -1   -1    0    0    0  501 -0.00000000000E+00 -0.00000000000E+00 -0.25481394395E+03  0.25481394395E+03  0.00000000000E+00 0.  1.
          6    1    1    2  502    0 -0.11982120647E+03 -0.45974314206E+02  0.44596623518E+02  0.21918854422E+03  0.17200000000E+03 0. -1.
         -6    1    1    2    0  501  0.11982120647E+03  0.45974314206E+02 -0.98786916493E+02  0.23624905070E+03  0.17200000000E+03 0.  1.
</event>
<event>
 4    1  0.3115421E-002  0.3913474E+03  0.7818608E-02  0.1046818E+00
         -4   -1    0    0    0  501 -0.00000000000E+00  0.00000000000E+00  0.33537522284E+03  0.33537522284E+03  0.00000000000E+00 0.  1.
          4   -1    0    0  502    0  0.00000000000E+00 -0.00000000000E+00 -0.46932405370E+03  0.46932405370E+03  0.00000000000E+00 0. -1.
          6    1    1    2  502    0  0.33719050862E+03  0.99354684433E+02 -0.88437237912E+00  0.39134840557E+03  0.17200000000E+03 0. -1.
         -6    1    1    2    0  501 -0.33719050862E+03 -0.99354684433E+02 -0.13306445848E+03  0.41335087097E+03  0.17200000000E+03 0.  1.
</event>
<event>
 4    1  0.3115421E-002  0.2144909E+03  0.7818608E-02  0.1138058E+00
          2   -1    0    0  502    0  0.00000000000E+00  0.00000000000E+00  0.15071693500E+03  0.15071693500E+03  0.00000000000E+00 0. -1.
         -2   -1    0    0    0  501 -0.00000000000E+00 -0.00000000000E+00 -0.54096789647E+03  0.54096789647E+03  0.00000000000E+00 0.  1.
          6    1    1    2  502    0  0.12655729475E+03 -0.20138943985E+02 -0.42341653891E+03  0.47464501613E+03  0.17200000000E+03 0.  1.
         -6    1    1    2    0  501 -0.12655729475E+03  0.20138943985E+02  0.33165577441E+02  0.21703981535E+03  0.17200000000E+03 0. -1.
</event>
<event>
 4    1  0.3115421E-002  0.3534396E+03  0.7818608E-02  0.1061212E+00
         -1   -1    0    0    0  501 -0.00000000000E+00  0.00000000000E+00  0.14018262009E+03  0.14018262009E+03  0.00000000000E+00 0.  1.
          1   -1    0    0  502    0  0.00000000000E+00 -0.00000000000E+00 -0.26100993842E+04  0.26100993842E+04  0.00000000000E+00 0. -1.
          6    1    1    2  502    0 -0.16154268105E+02  0.30834169559E+03 -0.23509322388E+04  0.23773518783E+04  0.17200000000E+03 0. -1.
         -6    1    1    2    0  501  0.16154268105E+02 -0.30834169559E+03 -0.11898452526E+03  0.37293012599E+03  0.17200000000E+03 0.  1.
</event>
<event>
 4    1  0.3115421E-002  0.2251650E+03  0.7818608E-02  0.1130090E+00
         -2   -1    0    0    0  501 -0.00000000000E+00  0.00000000000E+00  0.15633262619E+03  0.15633262619E+03  0.00000000000E+00 0.  1.
          2   -1    0    0  502    0  0.00000000000E+00 -0.00000000000E+00 -0.56650240776E+03  0.56650240776E+03  0.00000000000E+00 0. -1.
          6    1    1    2  502    0 -0.12789780303E+02 -0.14474706728E+03 -0.44140135652E+03  0.49551432825E+03  0.17200000000E+03 0. -1.
         -6    1    1    2    0  501  0.12789780303E+02  0.14474706728E+03  0.31231574950E+02  0.22732070570E+03  0.17200000000E+03 0.  1.
</event>
<event>
 4    1  0.3115421E-002  0.2299352E+03  0.7818608E-02  0.1126685E+00
          2   -1    0    0  502    0  0.00000000000E+00  0.00000000000E+00  0.10768023682E+04  0.10768023682E+04  0.00000000000E+00 0. -1.
         -2   -1    0    0    0  501 -0.00000000000E+00 -0.00000000000E+00 -0.54397594596E+02  0.54397594596E+02  0.00000000000E+00 0.  1.
          6    1    1    2  502    0  0.15066085382E+03  0.24238537954E+02  0.68772047832E+03  0.72514112826E+03  0.17200000000E+03 0. -1.
         -6    1    1    2    0  501 -0.15066085382E+03 -0.24238537954E+02  0.33468429529E+03  0.40605883454E+03  0.17200000000E+03 0.  1.
</event>
<event>
 4    1  0.3115421E-002  0.1937700E+03  0.7818608E-02  0.1155104E+00
         -2   -1    0    0    0  501 -0.00000000000E+00  0.00000000000E+00  0.17177064777E+02  0.17177064777E+02  0.00000000000E+00 0.  1.
          2   -1    0    0  502    0  0.00000000000E+00 -0.00000000000E+00 -0.22492114024E+04  0.22492114024E+04  0.00000000000E+00 0. -1.
          6    1    1    2  502    0 -0.83636209926E+02  0.31109494599E+02 -0.13061845006E+04  0.13204789911E+04  0.17200000000E+03 0. -1.
         -6    1    1    2    0  501  0.83636209926E+02 -0.31109494599E+02 -0.92584983703E+03  0.94590947611E+03  0.17200000000E+03 0.  1.
</event>
<event>
 4    1  0.3115421E-002  0.1933229E+03  0.7818608E-02  0.1155498E+00
          2   -1    0    0  502    0  0.00000000000E+00  0.00000000000E+00  0.15029770821E+04  0.15029770821E+04  0.00000000000E+00 0. -1.
         -2   -1    0    0    0  501 -0.00000000000E+00 -0.00000000000E+00 -0.29156780814E+02  0.29156780814E+02  0.00000000000E+00 0.  1.
          6    1    1    2  502    0 -0.72391016635E+02 -0.50490433555E+02  0.10307705176E+04  0.10487428680E+04  0.17200000000E+03 0. -1.
         -6    1    1    2    0  501  0.72391016635E+02  0.50490433555E+02  0.44304978374E+03  0.48339099499E+03  0.17200000000E+03 0.  1.
</event>
<event>
 4    1  0.3115421E-002  0.2779547E+03  0.7818608E-02  0.1096811E+00
          1   -1    0    0  502    0  0.00000000000E+00  0.00000000000E+00  0.22226989250E+03  0.22226989250E+03  0.00000000000E+00 0. -1.
         -1   -1    0    0    0  501 -0.00000000000E+00 -0.00000000000E+00 -0.34898142571E+03  0.34898142571E+03  0.00000000000E+00 0.  1.
          6    1    1    2  502    0 -0.19086914382E+03  0.10603680824E+03 -0.81389930039E+02  0.28962588882E+03  0.17200000000E+03 0. -1.
         -6    1    1    2    0  501  0.19086914382E+03 -0.10603680824E+03 -0.45321603164E+02  0.28162542939E+03  0.17200000000E+03 0.  1.
</event>
<event>
 4    1  0.3115421E-002  0.1767178E+03  0.7818608E-02  0.1171018E+00
          1   -1    0    0  502    0  0.00000000000E+00  0.00000000000E+00  0.16242185127E+03  0.16242185127E+03  0.00000000000E+00 0. -1.
         -1   -1    0    0    0  501 -0.00000000000E+00 -0.00000000000E+00 -0.32847544518E+03  0.32847544518E+03  0.00000000000E+00 0.  1.
          6    1    1    2  502    0 -0.58387820543E+01  0.40138587891E+02  0.75026298609E+02  0.19198474704E+03  0.17200000000E+03 0. -1.
         -6    1    1    2    0  501  0.58387820543E+01 -0.40138587891E+02 -0.24107989253E+03  0.29891254941E+03  0.17200000000E+03 0.  1.
</event>
<event>
 4    1  0.3115421E-002  0.1878322E+03  0.7818608E-02  0.1160431E+00
          2   -1    0    0  502    0  0.00000000000E+00  0.00000000000E+00  0.66039863760E+03  0.66039863760E+03  0.00000000000E+00 0. -1.
         -2   -1    0    0    0  501 -0.00000000000E+00 -0.00000000000E+00 -0.54134508546E+02  0.54134508546E+02  0.00000000000E+00 0.  1.
          6    1    1    2  502    0 -0.64090190239E+02  0.39867097838E+02  0.26219356333E+03  0.32253124287E+03  0.17200000000E+03 0.  1.
         -6    1    1    2    0  501  0.64090190239E+02 -0.39867097838E+02  0.34407056572E+03  0.39200190328E+03  0.17200000000E+03 0. -1.
</event>
<event>
 4    1  0.3115421E-002  0.1831251E+03  0.7818608E-02  0.1164812E+00
          2   -1    0    0  502    0  0.00000000000E+00  0.00000000000E+00  0.80282334102E+03  0.80282334102E+03  0.00000000000E+00 0. -1.
         -2   -1    0    0    0  501 -0.00000000000E+00 -0.00000000000E+00 -0.43706106373E+02  0.43706106373E+02  0.00000000000E+00 0.  1.
          6    1    1    2  502    0 -0.11250236141E+01 -0.62845238546E+02  0.29049801621E+03  0.34340047628E+03  0.17200000000E+03 0.  1.
         -6    1    1    2    0  501  0.11250236141E+01  0.62845238546E+02  0.46861921844E+03  0.50312897112E+03  0.17200000000E+03 0. -1.
</event>
<event>
 4    1  0.3115421E-002  0.4947922E+03  0.7818608E-02  0.1015147E+00
          2   -1    0    0  502    0  0.00000000000E+00  0.00000000000E+00  0.34872154010E+04  0.34872154010E+04  0.00000000000E+00 0. -1.
         -2   -1    0    0    0  501 -0.00000000000E+00 -0.00000000000E+00 -0.40932437666E+03  0.40932437666E+03  0.00000000000E+00 0.  1.
          6    1    1    2  502    0  0.28136378361E+03  0.36887626334E+03  0.33122844147E+04  0.33490367750E+04  0.17200000000E+03 0. -1.
         -6    1    1    2    0  501 -0.28136378361E+03 -0.36887626334E+03 -0.23439339042E+03  0.54750300260E+03  0.17200000000E+03 0.  1.
</event>
<event>
 4    1  0.3115421E-002  0.1795935E+03  0.7818608E-02  0.1168197E+00
         -4   -1    0    0    0  501 -0.00000000000E+00  0.00000000000E+00  0.15993449867E+03  0.15993449867E+03  0.00000000000E+00 0.  1.
          4   -1    0    0  502    0  0.00000000000E+00 -0.00000000000E+00 -0.20855594134E+03  0.20855594134E+03  0.00000000000E+00 0. -1.
          6    1    1    2  502    0  0.69284719124E+01 -0.51203679118E+02 -0.57791850517E+02  0.18866297587E+03  0.17200000000E+03 0. -1.
         -6    1    1    2    0  501 -0.69284719124E+01  0.51203679118E+02  0.91704078390E+01  0.17982746414E+03  0.17200000000E+03 0. -1.
</event>
<event>
 4    1  0.3115421E-002  0.1785597E+03  0.7818608E-02  0.1169204E+00
         -2   -1    0    0    0  501 -0.00000000000E+00  0.00000000000E+00  0.39463106579E+02  0.39463106579E+02  0.00000000000E+00 0.  1.
          2   -1    0    0  502    0  0.00000000000E+00 -0.00000000000E+00 -0.83139961049E+03  0.83139961049E+03  0.00000000000E+00 0. -1.
          6    1    1    2  502    0 -0.43739017364E+02  0.19659104143E+02 -0.46912115267E+03  0.50195441815E+03  0.17200000000E+03 0. -1.
         -6    1    1    2    0  501  0.43739017364E+02 -0.19659104143E+02 -0.32281535124E+03  0.36890829892E+03  0.17200000000E+03 0. -1.
</event>
<event>
 4    1  0.3115421E-002  0.2043869E+03  0.7818608E-02  0.1146090E+00
         -2   -1    0    0    0  501 -0.00000000000E+00  0.00000000000E+00  0.13264379327E+02  0.13264379327E+02  0.00000000000E+00 0.  1.
          2   -1    0    0  502    0  0.00000000000E+00 -0.00000000000E+00 -0.37216517517E+04  0.37216517517E+04  0.00000000000E+00 0. -1.
          6    1    1    2  502    0  0.13216864491E+02  0.10961445636E+03 -0.25865122835E+04  0.25945750725E+04  0.17200000000E+03 0. -1.
         -6    1    1    2    0  501 -0.13216864491E+02 -0.10961445636E+03 -0.11218750889E+04  0.11403410584E+04  0.17200000000E+03 0.  1.
</event>
<event>
 4    1  0.3115421E-002  0.2491344E+03  0.7818608E-02  0.1113853E+00
         -2   -1    0    0    0  501 -0.00000000000E+00  0.00000000000E+00  0.16602957119E+03  0.16602957119E+03  0.00000000000E+00 0.  1.
          2   -1    0    0  502    0  0.00000000000E+00 -0.00000000000E+00 -0.38750636478E+03  0.38750636478E+03  0.00000000000E+00 0. -1.
          6    1    1    2  502    0 -0.15041396644E+03 -0.99295544872E+02 -0.16272045466E+03  0.29756665286E+03  0.17200000000E+03 0. -1.
         -6    1    1    2    0  501  0.15041396644E+03  0.99295544872E+02 -0.58756338922E+02  0.25596928311E+03  0.17200000000E+03 0.  1.
</event>
<event>
 4    1  0.3115421E-002  0.1733860E+03  0.7818608E-02  0.1174362E+00
         -1   -1    0    0    0  501 -0.00000000000E+00  0.00000000000E+00  0.14873823816E+02  0.14873823816E+02  0.00000000000E+00 0.  1.
          1   -1    0    0  502    0  0.00000000000E+00 -0.00000000000E+00 -0.25844684368E+04  0.25844684368E+04  0.00000000000E+00 0. -1.
          6    1    1    2  502    0  0.55555782330E+01 -0.21162383293E+02 -0.18915508881E+04  0.18994808430E+04  0.17200000000E+03 0. -1.
         -6    1    1    2    0  501 -0.55555782330E+01  0.21162383293E+02 -0.67804372493E+03  0.69986141759E+03  0.17200000000E+03 0.  1.
</event>
<event>
 4    1  0.3115421E-002  0.5221030E+03  0.7818608E-02  0.1008165E+00
          2   -1    0    0  502    0  0.00000000000E+00  0.00000000000E+00  0.35240530807E+04  0.35240530807E+04  0.00000000000E+00 0. -1.
         -2   -1    0    0    0  501 -0.00000000000E+00 -0.00000000000E+00 -0.71008552385E+03  0.71008552385E+03  0.00000000000E+00 0.  1.
          6    1    1    2  502    0  0.11873332718E+03  0.47844538483E+03  0.34054198583E+04  0.34452105888E+04  0.17200000000E+03 0. -1.
         -6    1    1    2    0  501 -0.11873332718E+03 -0.47844538483E+03 -0.59145230147E+03  0.78892801583E+03  0.17200000000E+03 0.  1.
</event>
<event>
 4    1  0.3115421E-002  0.2235710E+03  0.7818608E-02  0.1131248E+00
          1   -1    0    0  502    0  0.00000000000E+00  0.00000000000E+00  0.19249622235E+04  0.19249622235E+04  0.00000000000E+00 0. -1.
         -1   -1    0    0    0  501 -0.00000000000E+00 -0.00000000000E+00 -0.25966837060E+02  0.25966837060E+02  0.00000000000E+00 0.  1.
          6    1    1    2  502    0  0.83091951590E+02 -0.11617101486E+03  0.95428373379E+03  0.98012316659E+03  0.17200000000E+03 0. -1.
         -6    1    1    2    0  501 -0.83091951590E+02  0.11617101486E+03  0.94471165266E+03  0.97080589398E+03  0.17200000000E+03 0.  1.
</event>
<event>
 4    1  0.3115421E-002  0.1723211E+03  0.7818608E-02  0.1175449E+00
          1   -1    0    0  502    0  0.00000000000E+00  0.00000000000E+00  0.15801937309E+04  0.15801937309E+04  0.00000000000E+00 0. -1.
         -1   -1    0    0    0  501 -0.00000000000E+00 -0.00000000000E+00 -0.19593053779E+02  0.19593053779E+02  0.00000000000E+00 0.  1.
          6    1    1    2  502    0  0.10113777212E+02  0.28735841992E+01  0.94206730982E+03  0.95769794936E+03  0.17200000000E+03 0. -1.
         -6    1    1    2    0  501 -0.10113777212E+02 -0.28735841992E+01  0.61853336727E+03  0.64208883529E+03  0.17200000000E+03 0.  1.
</event>
<event>
 4    1  0.3115421E-002  0.1886281E+03  0.7818608E-02  0.1159705E+00
          2   -1    0    0  502    0  0.00000000000E+00  0.00000000000E+00  0.62152441668E+02  0.62152441668E+02  0.00000000000E+00 0. -1.
         -2   -1    0    0    0  501 -0.00000000000E+00 -0.00000000000E+00 -0.69102053946E+03  0.69102053946E+03  0.00000000000E+00 0.  1.
          6    1    1    2  502    0  0.76927532659E+01 -0.77054333851E+02 -0.15845477880E+03  0.24635029073E+03  0.17200000000E+03 0. -1.
         -6    1    1    2    0  501 -0.76927532659E+01  0.77054333851E+02 -0.47041331899E+03  0.50682269040E+03  0.17200000000E+03 0.  1.
</event>
<event>
 4    1  0.3115421E-002  0.2843173E+03  0.7818608E-02  0.1093354E+00
          1   -1    0    0  502    0  0.00000000000E+00  0.00000000000E+00  0.21648005111E+04  0.21648005111E+04  0.00000000000E+00 0. -1.
         -1   -1    0    0    0  501 -0.00000000000E+00 -0.00000000000E+00 -0.55207449032E+02  0.55207449032E+02  0.00000000000E+00 0.  1.
          6    1    1    2  502    0  0.53138736514E+01 -0.22632743831E+03  0.16862507057E+04  0.17100519843E+04  0.17200000000E+03 0. -1.
         -6    1    1    2    0  501 -0.53138736514E+01  0.22632743831E+03  0.42334235641E+03  0.50995597586E+03  0.17200000000E+03 0.  1.
</event>
<event>
 4    1  0.3115421E-002  0.2364613E+03  0.7818608E-02  0.1122173E+00
          3   -1    0    0  502    0  0.00000000000E+00  0.00000000000E+00  0.15489402991E+03  0.15489402991E+03  0.00000000000E+00 0. -1.
         -3   -1    0    0    0  501 -0.00000000000E+00 -0.00000000000E+00 -0.36128325854E+03  0.36128325854E+03  0.00000000000E+00 0.  1.
          6    1    1    2  502    0 -0.16139651869E+03  0.16765712608E+02 -0.95739394453E+02  0.25510773609E+03  0.17200000000E+03 0. -1.
         -6    1    1    2    0  501  0.16139651869E+03 -0.16765712608E+02 -0.11064983418E+03  0.26106955236E+03  0.17200000000E+03 0. -1.
</event>
<event>
 4    1  0.3115421E-002  0.1841110E+03  0.7818608E-02  0.1163883E+00
         -1   -1    0    0    0  501 -0.00000000000E+00  0.00000000000E+00  0.81997646307E+02  0.81997646307E+02  0.00000000000E+00 0.  1.
          1   -1    0    0  502    0  0.00000000000E+00 -0.00000000000E+00 -0.68994862904E+03  0.68994862904E+03  0.00000000000E+00 0. -1.
          6    1    1    2  502    0  0.58539118202E+02  0.29766108391E+02 -0.54834320011E+03  0.57842641250E+03  0.17200000000E+03 0.  1.
         -6    1    1    2    0  501 -0.58539118202E+02 -0.29766108391E+02 -0.59607782627E+02  0.19351986285E+03  0.17200000000E+03 0.  1.
</event>
<event>
 4    1  0.3115421E-002  0.1888772E+03  0.7818608E-02  0.1159478E+00
         -1   -1    0    0    0  501 -0.00000000000E+00  0.00000000000E+00  0.13085043155E+03  0.13085043155E+03  0.00000000000E+00 0.  1.
          1   -1    0    0  502    0  0.00000000000E+00 -0.00000000000E+00 -0.31205755989E+03  0.31205755989E+03  0.00000000000E+00 0. -1.
          6    1    1    2  502    0  0.77956729376E+02  0.36555803645E+01 -0.16931355137E+03  0.25365664509E+03  0.17200000000E+03 0. -1.
         -6    1    1    2    0  501 -0.77956729376E+02 -0.36555803645E+01 -0.11893576968E+02  0.18925134635E+03  0.17200000000E+03 0.  1.
</event>
<event>
 4    1  0.3115421E-002  0.3148554E+03  0.7818608E-02  0.1078042E+00
         -1   -1    0    0    0  501 -0.00000000000E+00  0.00000000000E+00  0.48389294066E+03  0.48389294066E+03  0.00000000000E+00 0.  1.
          1   -1    0    0  502    0  0.00000000000E+00 -0.00000000000E+00 -0.81241658543E+03  0.81241658543E+03  0.00000000000E+00 0. -1.
          6    1    1    2  502    0  0.20732318205E+03  0.16299400659E+03 -0.72476748436E+03  0.79020367905E+03  0.17200000000E+03 0. -1.
         -6    1    1    2    0  501 -0.20732318205E+03 -0.16299400659E+03  0.39624383958E+03  0.50610584704E+03  0.17200000000E+03 0.  1.
</event>
<event>
 4    1  0.3115421E-002  0.1857047E+03  0.7818608E-02  0.1162393E+00
         -2   -1    0    0    0  501 -0.00000000000E+00  0.00000000000E+00  0.56847357652E+02  0.56847357652E+02  0.00000000000E+00 0.  1.
          2   -1    0    0  502    0  0.00000000000E+00 -0.00000000000E+00 -0.13053536949E+04  0.13053536949E+04  0.00000000000E+00 0. -1.
          6    1    1    2  502    0 -0.69896827564E+02 -0.40824946490E+01 -0.11225576772E+04  0.11378145596E+04  0.17200000000E+03 0. -1.
         -6    1    1    2    0  501  0.69896827564E+02  0.40824946490E+01 -0.12594865999E+03  0.22438649295E+03  0.17200000000E+03 0.  1.
</event>
<event>
 4    1  0.3115421E-002  0.3710066E+03  0.7818608E-02  0.1054309E+00
          3   -1    0    0  502    0  0.00000000000E+00  0.00000000000E+00  0.28282683306E+03  0.28282683306E+03  0.00000000000E+00 0. -1.
         -3   -1    0    0    0  501 -0.00000000000E+00 -0.00000000000E+00 -0.54225273632E+03  0.54225273632E+03  0.00000000000E+00 0.  1.
          6    1    1    2  502    0  0.22777263741E+03  0.23702634956E+03 -0.26178167334E+03  0.45406553408E+03  0.17200000000E+03 0.  1.
         -6    1    1    2    0  501 -0.22777263741E+03 -0.23702634956E+03  0.23557700876E+01  0.37101403530E+03  0.17200000000E+03 0. -1.
</event>
<event>
 4    1  0.3115421E-002  0.1725006E+03  0.7818608E-02  0.1175265E+00
         -2   -1    0    0    0  501 -0.00000000000E+00  0.00000000000E+00  0.18678117675E+03  0.18678117675E+03  0.00000000000E+00 0.  1.
          2   -1    0    0  502    0  0.00000000000E+00 -0.00000000000E+00 -0.24076861940E+03  0.24076861940E+03  0.00000000000E+00 0. -1.
          6    1    1    2  502    0  0.53839456308E+01  0.11978322712E+02 -0.15133638957E+03  0.22947585907E+03  0.17200000000E+03 0. -1.
         -6    1    1    2    0  501 -0.53839456308E+01 -0.11978322712E+02  0.97348946925E+02  0.19807393709E+03  0.17200000000E+03 0.  1.
</event>
<event>
 4    1  0.3115421E-002  0.2003441E+03  0.7818608E-02  0.1149449E+00
          1   -1    0    0  502    0  0.00000000000E+00  0.00000000000E+00  0.22761574886E+03  0.22761574886E+03  0.00000000000E+00 0. -1.
         -1   -1    0    0    0  501 -0.00000000000E+00 -0.00000000000E+00 -0.19610233047E+03  0.19610233047E+03  0.00000000000E+00 0.  1.
          6    1    1    2  502    0  0.91012236244E+02  0.47650211869E+02  0.83011663422E+02  0.21686102947E+03  0.17200000000E+03 0. -1.
         -6    1    1    2    0  501 -0.91012236244E+02 -0.47650211869E+02 -0.51498245036E+02  0.20685704987E+03  0.17200000000E+03 0.  1.
</event>
<event>
 4    1  0.3115421E-002  0.2218121E+03  0.7818608E-02  0.1132539E+00
          1   -1    0    0  502    0  0.00000000000E+00  0.00000000000E+00  0.32238771358E+03  0.32238771358E+03  0.00000000000E+00 0. -1.
         -1   -1    0    0    0  501 -0.00000000000E+00 -0.00000000000E+00 -0.18895964490E+03  0.18895964490E+03  0.00000000000E+00 0.  1.
          6    1    1    2  502    0 -0.14005601495E+03  0.94976654591E+00  0.17884692992E+03  0.28493299865E+03  0.17200000000E+03 0. -1.
         -6    1    1    2    0  501  0.14005601495E+03 -0.94976654591E+00 -0.45418861239E+02  0.22641435983E+03  0.17200000000E+03 0.  1.
</event>
<event>
 4    1  0.3115421E-002  0.1782745E+03  0.7818608E-02  0.1169483E+00
         -2   -1    0    0    0  501 -0.00000000000E+00  0.00000000000E+00  0.13523522065E+02  0.13523522065E+02  0.00000000000E+00 0.  1.
          2   -1    0    0  502    0  0.00000000000E+00 -0.00000000000E+00 -0.31475776843E+04  0.31475776843E+04  0.00000000000E+00 0. -1.
          6    1    1    2  502    0  0.46653612432E+02 -0.46092180972E+01 -0.23625925365E+04  0.23693090338E+04  0.17200000000E+03 0. -1.
         -6    1    1    2    0  501 -0.46653612432E+02  0.46092180972E+01 -0.77146162572E+03  0.79179217248E+03  0.17200000000E+03 0.  1.
</event>
<event>
 4    1  0.3115421E-002  0.2698342E+03  0.7818608E-02  0.1101375E+00
          2   -1    0    0  502    0  0.00000000000E+00  0.00000000000E+00  0.69364762312E+03  0.69364762312E+03  0.00000000000E+00 0. -1.
         -2   -1    0    0    0  501 -0.00000000000E+00 -0.00000000000E+00 -0.15495307724E+03  0.15495307724E+03  0.00000000000E+00 0.  1.
          6    1    1    2  502    0  0.33848605666E+02  0.20513598157E+03  0.51033525180E+03  0.57728032036E+03  0.17200000000E+03 0. -1.
         -6    1    1    2    0  501 -0.33848605666E+02 -0.20513598157E+03  0.28359294071E+02  0.27132038000E+03  0.17200000000E+03 0.  1.
</event>
<event>
 4    1  0.3115421E-002  0.2584795E+03  0.7818608E-02  0.1108060E+00
          2   -1    0    0  502    0  0.00000000000E+00  0.00000000000E+00  0.18817153035E+03  0.18817153035E+03  0.00000000000E+00 0. -1.
         -2   -1    0    0    0  501 -0.00000000000E+00 -0.00000000000E+00 -0.47290231044E+03  0.47290231044E+03  0.00000000000E+00 0.  1.
          6    1    1    2  502    0 -0.11911765017E+03 -0.15178478908E+03  0.22637000899E+02  0.25946882392E+03  0.17200000000E+03 0. -1.
         -6    1    1    2    0  501  0.11911765017E+03  0.15178478908E+03 -0.30736778099E+03  0.40160501686E+03  0.17200000000E+03 0.  1.
</event>
<event>
 4    1  0.3115421E-002  0.2097044E+03  0.7818608E-02  0.1141800E+00
          2   -1    0    0  502    0  0.00000000000E+00  0.00000000000E+00  0.20466828091E+04  0.20466828091E+04  0.00000000000E+00 0. -1.
         -2   -1    0    0    0  501 -0.00000000000E+00 -0.00000000000E+00 -0.23187667519E+02  0.23187667519E+02  0.00000000000E+00 0.  1.
          6    1    1    2  502    0 -0.99941098668E+01 -0.11954932293E+03  0.12920753422E+04  0.13089822813E+04  0.17200000000E+03 0.  1.
         -6    1    1    2    0  501  0.99941098668E+01  0.11954932293E+03  0.73141979939E+03  0.76088819532E+03  0.17200000000E+03 0.  1.
</event>
<event>
 4    1  0.3115421E-002  0.2595050E+03  0.7818608E-02  0.1107441E+00
         -1   -1    0    0    0  501 -0.00000000000E+00  0.00000000000E+00  0.79319465081E+02  0.79319465081E+02  0.00000000000E+00 0.  1.
          1   -1    0    0  502    0  0.00000000000E+00 -0.00000000000E+00 -0.10971077508E+04  0.10971077508E+04  0.00000000000E+00 0. -1.
          6    1    1    2  502    0  0.18153729233E+03 -0.69303981817E+02 -0.78861440130E+03  0.83021413162E+03  0.17200000000E+03 0. -1.
         -6    1    1    2    0  501 -0.18153729233E+03  0.69303981817E+02 -0.22917388437E+03  0.34621308422E+03  0.17200000000E+03 0.  1.
</event>
<event>
 4    1  0.3115421E-002  0.3888946E+03  0.7818608E-02  0.1047694E+00
         -1   -1    0    0    0  501 -0.00000000000E+00  0.00000000000E+00  0.44377017848E+03  0.44377017848E+03  0.00000000000E+00 0.  1.
          1   -1    0    0  502    0  0.00000000000E+00 -0.00000000000E+00 -0.34108684016E+03  0.34108684016E+03  0.00000000000E+00 0. -1.
          6    1    1    2  502    0 -0.26270874430E+03 -0.22943216211E+03  0.40056885874E+02  0.39095211401E+03  0.17200000000E+03 0. -1.
         -6    1    1    2    0  501  0.26270874430E+03  0.22943216211E+03  0.62626452440E+02  0.39390490463E+03  0.17200000000E+03 0.  1.
</event>
<event>
 4    1  0.3115421E-002  0.3057185E+03  0.7818608E-02  0.1082416E+00
         -2   -1    0    0    0  501 -0.00000000000E+00  0.00000000000E+00  0.66077312550E+03  0.66077312550E+03  0.00000000000E+00 0.  1.
          2   -1    0    0  502    0  0.00000000000E+00 -0.00000000000E+00 -0.30670818198E+03  0.30670818198E+03  0.00000000000E+00 0. -1.
          6    1    1    2  502    0 -0.24331822409E+03  0.68381518755E+02 -0.17805593958E+03  0.35379048588E+03  0.17200000000E+03 0. -1.
         -6    1    1    2    0  501  0.24331822409E+03 -0.68381518755E+02  0.53212088310E+03  0.61369082159E+03  0.17200000000E+03 0.  1.
</event>
<event>
 4    1  0.3115421E-002  0.3241723E+03  0.7818608E-02  0.1073745E+00
         -2   -1    0    0    0  501 -0.00000000000E+00  0.00000000000E+00  0.16458421621E+03  0.16458421621E+03  0.00000000000E+00 0.  1.
          2   -1    0    0  502    0  0.00000000000E+00 -0.00000000000E+00 -0.15488454694E+04  0.15488454694E+04  0.00000000000E+00 0. -1.
          6    1    1    2  502    0 -0.27471866353E+03  0.57745373521E+01 -0.13489325211E+04  0.13873379674E+04  0.17200000000E+03 0. -1.
         -6    1    1    2    0  501  0.27471866353E+03 -0.57745373521E+01 -0.35328732122E+02  0.32609171821E+03  0.17200000000E+03 0.  1.
</event>
<event>
 4    1  0.3115421E-002  0.2015706E+03  0.7818608E-02  0.1148421E+00
         -1   -1    0    0    0  501 -0.00000000000E+00  0.00000000000E+00  0.13527789911E+02  0.13527789911E+02  0.00000000000E+00 0.  1.
          1   -1    0    0  502    0  0.00000000000E+00 -0.00000000000E+00 -0.31879935947E+04  0.31879935947E+04  0.00000000000E+00 0. -1.
          6    1    1    2  502    0 -0.24174720886E+02  0.10228538085E+03 -0.12021463069E+04  0.12189284062E+04  0.17200000000E+03 0.  1.
         -6    1    1    2    0  501  0.24174720886E+02 -0.10228538085E+03 -0.19723194979E+04  0.19825929784E+04  0.17200000000E+03 0. -1.
</event>
<event>
 4    1  0.3115421E-002  0.2479492E+03  0.7818608E-02  0.1114608E+00
         -1   -1    0    0    0  501 -0.00000000000E+00  0.00000000000E+00  0.55962790183E+02  0.55962790183E+02  0.00000000000E+00 0.  1.
          1   -1    0    0  502    0  0.00000000000E+00 -0.00000000000E+00 -0.11835339695E+04  0.11835339695E+04  0.00000000000E+00 0. -1.
          6    1    1    2  502    0 -0.11198050922E+02  0.17823976761E+03 -0.72984098736E+03  0.77080910602E+03  0.17200000000E+03 0. -1.
         -6    1    1    2    0  501  0.11198050922E+02 -0.17823976761E+03 -0.39773019200E+03  0.46868765370E+03  0.17200000000E+03 0.  1.
</event>
<event>
 4    1  0.3115421E-002  0.2403908E+03  0.7818608E-02  0.1119533E+00
         -1   -1    0    0    0  501 -0.00000000000E+00  0.00000000000E+00  0.14755585491E+03  0.14755585491E+03  0.00000000000E+00 0.  1.
          1   -1    0    0  502    0  0.00000000000E+00 -0.00000000000E+00 -0.39163518083E+03  0.39163518083E+03  0.00000000000E+00 0. -1.
          6    1    1    2  502    0  0.13623289497E+03 -0.98205541501E+02 -0.12268767257E+03  0.26988885685E+03  0.17200000000E+03 0. -1.
         -6    1    1    2    0  501 -0.13623289497E+03  0.98205541501E+02 -0.12139165334E+03  0.26930217889E+03  0.17200000000E+03 0.  1.
</event>
<event>
 4    1  0.3115421E-002  0.2829396E+03  0.7818608E-02  0.1094094E+00
          2   -1    0    0  502    0  0.00000000000E+00  0.00000000000E+00  0.48789010019E+03  0.48789010019E+03  0.00000000000E+00 0. -1.
         -2   -1    0    0    0  501 -0.00000000000E+00 -0.00000000000E+00 -0.25822515555E+03  0.25822515555E+03  0.00000000000E+00 0.  1.
          6    1    1    2  502    0 -0.19277347121E+03  0.11536558595E+03  0.34008362680E+03  0.44239315415E+03  0.17200000000E+03 0. -1.
         -6    1    1    2    0  501  0.19277347121E+03 -0.11536558595E+03 -0.11041868215E+03  0.30372210158E+03  0.17200000000E+03 0.  1.
</event>
<event>
 4    1  0.3115421E-002  0.2613375E+03  0.7818608E-02  0.1106342E+00
          1   -1    0    0  502    0  0.00000000000E+00  0.00000000000E+00  0.96063200980E+03  0.96063200980E+03  0.00000000000E+00 0. -1.
         -1   -1    0    0    0  501 -0.00000000000E+00 -0.00000000000E+00 -0.71260241676E+02  0.71260241676E+02  0.00000000000E+00 0.  1.
          6    1    1    2  502    0  0.17548063090E+03  0.88993494289E+02  0.46943993604E+03  0.53728125539E+03  0.17200000000E+03 0.  1.
         -6    1    1    2    0  501 -0.17548063090E+03 -0.88993494289E+02  0.41993183209E+03  0.49461099609E+03  0.17200000000E+03 0.  1.
</event>
<event>
 4    1  0.3115421E-002  0.3306686E+03  0.7818608E-02  0.1070841E+00
         -1   -1    0    0    0  501 -0.00000000000E+00  0.00000000000E+00  0.15877090913E+03  0.15877090913E+03  0.00000000000E+00 0.  1.
          1   -1    0    0  502    0  0.00000000000E+00 -0.00000000000E+00 -0.72540977519E+03  0.72540977519E+03  0.00000000000E+00 0. -1.
          6    1    1    2  502    0  0.16587702027E+02 -0.28192656826E+03 -0.18383592363E+03  0.37833502160E+03  0.17200000000E+03 0.  1.
         -6    1    1    2    0  501 -0.16587702027E+02  0.28192656826E+03 -0.38280294244E+03  0.50584566272E+03  0.17200000000E+03 0. -1.
</event>
<event>
 4    1  0.3115421E-002  0.1751217E+03  0.7818608E-02  0.1172610E+00
         -1   -1    0    0    0  501 -0.00000000000E+00  0.00000000000E+00  0.78593853899E+03  0.78593853899E+03  0.00000000000E+00 0.  1.
          1   -1    0    0  502    0  0.00000000000E+00 -0.00000000000E+00 -0.47689465310E+02  0.47689465310E+02  0.00000000000E+00 0. -1.
          6    1    1    2  502    0 -0.16008966527E+02  0.28763384213E+02  0.19141212994E+03  0.25943442865E+03  0.17200000000E+03 0. -1.
         -6    1    1    2    0  501  0.16008966527E+02 -0.28763384213E+02  0.54683694373E+03  0.57419357565E+03  0.17200000000E+03 0.  1.
</event>
<event>
 4    1  0.3115421E-002  0.1034527E+04  0.7818608E-02  0.9271466E-01
         -2   -1    0    0    0  501 -0.00000000000E+00  0.00000000000E+00  0.73876502837E+03  0.73876502837E+03  0.00000000000E+00 0.  1.
          2   -1    0    0  502    0  0.00000000000E+00 -0.00000000000E+00 -0.18834766041E+04  0.18834766041E+04  0.00000000000E+00 0. -1.
          6    1    1    2  502    0  0.10117132629E+04 -0.13076374707E+03 -0.12022926770E+04  0.15861130367E+04  0.17200000000E+03 0. -1.
         -6    1    1    2    0  501 -0.10117132629E+04  0.13076374707E+03  0.57581101222E+02  0.10361285958E+04  0.17200000000E+03 0.  1.
</event>
<event>
 4    1  0.3115421E-002  0.1739994E+03  0.7818608E-02  0.1173740E+00
         -1   -1    0    0    0  501 -0.00000000000E+00  0.00000000000E+00  0.16397978886E+02  0.16397978886E+02  0.00000000000E+00 0.  1.
          1   -1    0    0  502    0  0.00000000000E+00 -0.00000000000E+00 -0.18741510666E+04  0.18741510666E+04  0.00000000000E+00 0. -1.
          6    1    1    2  502    0 -0.79160302086E+01  0.25082763949E+02 -0.10440816862E+04  0.10584811647E+04  0.17200000000E+03 0. -1.
         -6    1    1    2    0  501  0.79160302086E+01 -0.25082763949E+02 -0.81367140148E+03  0.83206788074E+03  0.17200000000E+03 0.  1.
</event>
<event>
 4    1  0.3115421E-002  0.3269781E+03  0.7818608E-02  0.1072482E+00
         -1   -1    0    0    0  501 -0.00000000000E+00  0.00000000000E+00  0.25430223024E+03  0.25430223024E+03  0.00000000000E+00 0.  1.
          1   -1    0    0  502    0  0.00000000000E+00 -0.00000000000E+00 -0.48045232978E+03  0.48045232978E+03  0.00000000000E+00 0. -1.
          6    1    1    2  502    0 -0.16764095431E+03  0.22187200324E+03  0.16782285938E+02  0.32740849180E+03  0.17200000000E+03 0. -1.
         -6    1    1    2    0  501  0.16764095431E+03 -0.22187200324E+03 -0.24293238547E+03  0.40734606822E+03  0.17200000000E+03 0.  1.
</event>
<event>
 4    1  0.3115421E-002  0.2423194E+03  0.7818608E-02  0.1118257E+00
          2   -1    0    0  502    0  0.00000000000E+00  0.00000000000E+00  0.46888673632E+03  0.46888673632E+03  0.00000000000E+00 0. -1.
         -2   -1    0    0    0  501 -0.00000000000E+00 -0.00000000000E+00 -0.29156738747E+03  0.29156738747E+03  0.00000000000E+00 0.  1.
          6    1    1    2  502    0  0.12759074778E+03  0.11338117136E+03  0.37584912367E+03  0.44719263489E+03  0.17200000000E+03 0. -1.
         -6    1    1    2    0  501 -0.12759074778E+03 -0.11338117136E+03 -0.19852977482E+03  0.31326148890E+03  0.17200000000E+03 0.  1.
</event>
<event>
 4    1  0.3115421E-002  0.3083567E+03  0.7818608E-02  0.1081136E+00
          1   -1    0    0  502    0  0.00000000000E+00  0.00000000000E+00  0.18894454943E+04  0.18894454943E+04  0.00000000000E+00 0. -1.
         -1   -1    0    0    0  501 -0.00000000000E+00 -0.00000000000E+00 -0.54094056757E+02  0.54094056757E+02  0.00000000000E+00 0.  1.
          6    1    1    2  502    0 -0.76652157314E+02  0.24418082689E+03  0.66112004375E+03  0.72949540210E+03  0.17200000000E+03 0. -1.
         -6    1    1    2    0  501  0.76652157314E+02 -0.24418082689E+03  0.11742313938E+04  0.12140441490E+04  0.17200000000E+03 0.  1.
</event>
<event>
 4    1  0.3115421E-002  0.2141625E+03  0.7818608E-02  0.1138312E+00
         -2   -1    0    0    0  501 -0.00000000000E+00  0.00000000000E+00  0.53363973659E+02  0.53363973659E+02  0.00000000000E+00 0.  1.
          2   -1    0    0  502    0  0.00000000000E+00 -0.00000000000E+00 -0.10608271969E+04  0.10608271969E+04  0.00000000000E+00 0. -1.
          6    1    1    2  502    0  0.11965852456E+03 -0.44310249869E+02 -0.26102909849E+03  0.33764145333E+03  0.17200000000E+03 0. -1.
         -6    1    1    2    0  501 -0.11965852456E+03  0.44310249869E+02 -0.74643412474E+03  0.77654971723E+03  0.17200000000E+03 0. -1.
</event>
<event>
 4    1  0.3115421E-002  0.2202813E+03  0.7818608E-02  0.1133674E+00
          1   -1    0    0  502    0  0.00000000000E+00  0.00000000000E+00  0.57840193012E+03  0.57840193012E+03  0.00000000000E+00 0. -1.
         -1   -1    0    0    0  501 -0.00000000000E+00 -0.00000000000E+00 -0.93401936195E+02  0.93401936195E+02  0.00000000000E+00 0.  1.
          6    1    1    2  502    0  0.12690184804E+03  0.53251841036E+02  0.34967707986E+03  0.41327702306E+03  0.17200000000E+03 0. -1.
         -6    1    1    2    0  501 -0.12690184804E+03 -0.53251841036E+02  0.13532291406E+03  0.25852684325E+03  0.17200000000E+03 0.  1.
</event>
<event>
 4    1  0.3115421E-002  0.1742496E+03  0.7818608E-02  0.1173487E+00
         -2   -1    0    0    0  501 -0.00000000000E+00  0.00000000000E+00  0.28609721138E+02  0.28609721138E+02  0.00000000000E+00 0.  1.
          2   -1    0    0  502    0  0.00000000000E+00 -0.00000000000E+00 -0.16808450643E+04  0.16808450643E+04  0.00000000000E+00 0. -1.
          6    1    1    2  502    0  0.15083220580E+02 -0.23482202173E+02 -0.13450459447E+04  0.13562859252E+04  0.17200000000E+03 0. -1.
         -6    1    1    2    0  501 -0.15083220580E+02  0.23482202173E+02 -0.30718939847E+03  0.35316886032E+03  0.17200000000E+03 0.  1.
</event>
<event>
 4    1  0.3115421E-002  0.2158252E+03  0.7818608E-02  0.1137034E+00
          2   -1    0    0  502    0  0.00000000000E+00  0.00000000000E+00  0.13543869596E+04  0.13543869596E+04  0.00000000000E+00 0. -1.
         -2   -1    0    0    0  501 -0.00000000000E+00 -0.00000000000E+00 -0.36712739871E+02  0.36712739871E+02  0.00000000000E+00 0.  1.
          6    1    1    2  502    0  0.86910236445E+02  0.97175774570E+02  0.48397230200E+03  0.52991481340E+03  0.17200000000E+03 0. -1.
         -6    1    1    2    0  501 -0.86910236445E+02 -0.97175774570E+02  0.83370191773E+03  0.86118488606E+03  0.17200000000E+03 0.  1.
</event>
<event>
 4    1  0.3115421E-002  0.1801143E+03  0.7818608E-02  0.1167692E+00
          2   -1    0    0  502    0  0.00000000000E+00  0.00000000000E+00  0.24122758138E+04  0.24122758138E+04  0.00000000000E+00 0. -1.
         -2   -1    0    0    0  501 -0.00000000000E+00 -0.00000000000E+00 -0.14033436310E+02  0.14033436310E+02  0.00000000000E+00 0.  1.
          6    1    1    2  502    0  0.39488055615E+02  0.36025691763E+02  0.14468290969E+04  0.14579971168E+04  0.17200000000E+03 0. -1.
         -6    1    1    2    0  501 -0.39488055615E+02 -0.36025691763E+02  0.95141328059E+03  0.96831213329E+03  0.17200000000E+03 0.  1.
</event>
<event>
 4    1  0.3115421E-002  0.2936181E+03  0.7818608E-02  0.1088475E+00
         -1   -1    0    0    0  501 -0.00000000000E+00  0.00000000000E+00  0.98492837298E+03  0.98492837298E+03  0.00000000000E+00 0.  1.
          1   -1    0    0  502    0  0.00000000000E+00 -0.00000000000E+00 -0.11502549703E+03  0.11502549703E+03  0.00000000000E+00 0. -1.
          6    1    1    2  502    0 -0.23765295990E+03 -0.12192693056E+02  0.16606326239E+03  0.33732565605E+03  0.17200000000E+03 0. -1.
         -6    1    1    2    0  501  0.23765295990E+03  0.12192693056E+02  0.70383961356E+03  0.76262821396E+03  0.17200000000E+03 0.  1.
</event>
<event>
 4    1  0.3115421E-002  0.1750330E+03  0.7818608E-02  0.1172699E+00
         -2   -1    0    0    0  501 -0.00000000000E+00  0.00000000000E+00  0.33456789001E+02  0.33456789001E+02  0.00000000000E+00 0.  1.
          2   -1    0    0  502    0  0.00000000000E+00 -0.00000000000E+00 -0.10232279857E+04  0.10232279857E+04  0.00000000000E+00 0. -1.
          6    1    1    2  502    0 -0.20560565305E+02  0.25095766920E+02 -0.66615539766E+03  0.68876668633E+03  0.17200000000E+03 0. -1.
         -6    1    1    2    0  501  0.20560565305E+02 -0.25095766920E+02 -0.32361579902E+03  0.36791808835E+03  0.17200000000E+03 0.  1.
</event>
<event>
 4    1  0.3115421E-002  0.7288074E+03  0.7818608E-02  0.9669198E-01
          1   -1    0    0  502    0  0.00000000000E+00  0.00000000000E+00  0.11053110091E+04  0.11053110091E+04  0.00000000000E+00 0. -1.
         -1   -1    0    0    0  501 -0.00000000000E+00 -0.00000000000E+00 -0.53299977110E+03  0.53299977110E+03  0.00000000000E+00 0.  1.
          6    1    1    2  502    0  0.70782903585E+03 -0.23544303181E+02  0.54311416779E+03  0.90891874084E+03  0.17200000000E+03 0. -1.
         -6    1    1    2    0  501 -0.70782903585E+03  0.23544303181E+02  0.29197070240E+02  0.72939203938E+03  0.17200000000E+03 0.  1.
</event>
<event>
 4    1  0.3115421E-002  0.1793867E+03  0.7818608E-02  0.1168398E+00
          1   -1    0    0  502    0  0.00000000000E+00  0.00000000000E+00  0.89284966503E+03  0.89284966503E+03  0.00000000000E+00 0. -1.
         -1   -1    0    0    0  501 -0.00000000000E+00 -0.00000000000E+00 -0.41668482115E+02  0.41668482115E+02  0.00000000000E+00 0.  1.
          6    1    1    2  502    0  0.50946911466E+02 -0.81757050904E-01  0.25388134177E+03  0.31086223664E+03  0.17200000000E+03 0.  1.
         -6    1    1    2    0  501 -0.50946911466E+02  0.81757050904E-01  0.59729984115E+03  0.62365591051E+03  0.17200000000E+03 0. -1.
</event>
<event>
 4    1  0.3115421E-002  0.5865054E+03  0.7818608E-02  0.9933805E-01
         -2   -1    0    0    0  501 -0.00000000000E+00  0.00000000000E+00  0.17145816810E+03  0.17145816810E+03  0.00000000000E+00 0.  1.
          2   -1    0    0  502    0  0.00000000000E+00 -0.00000000000E+00 -0.21752600171E+04  0.21752600171E+04  0.00000000000E+00 0. -1.
          6    1    1    2  502    0 -0.46211335551E+02 -0.55881040718E+03 -0.13289606095E+04  0.14526268827E+04  0.17200000000E+03 0. -1.
         -6    1    1    2    0  501  0.46211335551E+02  0.55881040718E+03 -0.67484123956E+03  0.89409130256E+03  0.17200000000E+03 0.  1.
</event>
<event>
 4    1  0.3115421E-002  0.2799301E+03  0.7818608E-02  0.1095727E+00
         -2   -1    0    0    0  501 -0.00000000000E+00  0.00000000000E+00  0.23993436790E+03  0.23993436790E+03  0.00000000000E+00 0.  1.
          2   -1    0    0  502    0  0.00000000000E+00 -0.00000000000E+00 -0.33812954690E+03  0.33812954690E+03  0.00000000000E+00 0. -1.
          6    1    1    2  502    0 -0.10019686810E+03 -0.19681838008E+03 -0.10248539333E+03  0.29810089393E+03  0.17200000000E+03 0. -1.
         -6    1    1    2    0  501  0.10019686810E+03  0.19681838008E+03  0.42902143350E+01  0.27996302087E+03  0.17200000000E+03 0.  1.
</event>
<event>
 4    1  0.3115421E-002  0.2256425E+03  0.7818608E-02  0.1129745E+00
          1   -1    0    0  502    0  0.00000000000E+00  0.00000000000E+00  0.12323527066E+04  0.12323527066E+04  0.00000000000E+00 0. -1.
         -1   -1    0    0    0  501 -0.00000000000E+00 -0.00000000000E+00 -0.10825644466E+03  0.10825644466E+03  0.00000000000E+00 0.  1.
          6    1    1    2  502    0 -0.14124547174E+03  0.37151990721E+02  0.10891482366E+04  0.11122762404E+04  0.17200000000E+03 0. -1.
         -6    1    1    2    0  501  0.14124547174E+03 -0.37151990721E+02  0.34948025349E+02  0.22833291085E+03  0.17200000000E+03 0.  1.
</event>
<event>
 4    1  0.3115421E-002  0.9068956E+03  0.7818608E-02  0.9417002E-01
         -1   -1    0    0    0  501 -0.00000000000E+00  0.00000000000E+00  0.55614696853E+03  0.55614696853E+03  0.00000000000E+00 0.  1.
          1   -1    0    0  502    0  0.00000000000E+00 -0.00000000000E+00 -0.17806545977E+04  0.17806545977E+04  0.00000000000E+00 0. -1.
          6    1    1    2  502    0  0.87214643016E+03 -0.17954468305E+03 -0.13123433332E+03  0.91634171525E+03  0.17200000000E+03 0. -1.
         -6    1    1    2    0  501 -0.87214643016E+03  0.17954468305E+03 -0.10932732959E+04  0.14204598510E+04  0.17200000000E+03 0.  1.
</event>
<event>
 4    1  0.3115421E-002  0.2257825E+03  0.7818608E-02  0.1129644E+00
          2   -1    0    0  502    0  0.00000000000E+00  0.00000000000E+00  0.57400479913E+03  0.57400479913E+03  0.00000000000E+00 0. -1.
         -2   -1    0    0    0  501 -0.00000000000E+00 -0.00000000000E+00 -0.10523656111E+03  0.10523656111E+03  0.00000000000E+00 0.  1.
          6    1    1    2  502    0 -0.12884001194E+03  0.69238681334E+02  0.36856030330E+03  0.43222036143E+03  0.17200000000E+03 0. -1.
         -6    1    1    2    0  501  0.12884001194E+03 -0.69238681334E+02  0.10020793472E+03  0.24702099880E+03  0.17200000000E+03 0.  1.
</event>
<event>
 4    1  0.3115421E-002  0.1743214E+03  0.7818608E-02  0.1173415E+00
          2   -1    0    0  502    0  0.00000000000E+00  0.00000000000E+00  0.19627241067E+03  0.19627241067E+03  0.00000000000E+00 0. -1.
         -2   -1    0    0    0  501 -0.00000000000E+00 -0.00000000000E+00 -0.16554648021E+03  0.16554648021E+03  0.00000000000E+00 0.  1.
          6    1    1    2  502    0 -0.25526162673E+02 -0.12343669291E+02 -0.30675504940E+02  0.17699982417E+03  0.17200000000E+03 0.  1.
         -6    1    1    2    0  501  0.25526162673E+02  0.12343669291E+02  0.61401435401E+02  0.18481906672E+03  0.17200000000E+03 0. -1.
</event>
<event>
 4    1  0.3115421E-002  0.1982489E+03  0.7818608E-02  0.1151225E+00
          2   -1    0    0  502    0  0.00000000000E+00  0.00000000000E+00  0.34135146939E+04  0.34135146939E+04  0.00000000000E+00 0. -1.
         -2   -1    0    0    0  501 -0.00000000000E+00 -0.00000000000E+00 -0.11525166492E+02  0.11525166492E+02  0.00000000000E+00 0.  1.
          6    1    1    2  502    0 -0.49862779081E+02  0.85043171234E+02  0.17546974783E+04  0.17658612285E+04  0.17200000000E+03 0.  1.
         -6    1    1    2    0  501  0.49862779081E+02 -0.85043171234E+02  0.16472920491E+04  0.16591786319E+04  0.17200000000E+03 0. -1.
</event>
<event>
 4    1  0.3115421E-002  0.2128103E+03  0.7818608E-02  0.1139360E+00
          2   -1    0    0  502    0  0.00000000000E+00  0.00000000000E+00  0.10809896458E+04  0.10809896458E+04  0.00000000000E+00 0. -1.
         -2   -1    0    0    0  501 -0.00000000000E+00 -0.00000000000E+00 -0.42092355839E+02  0.42092355839E+02  0.00000000000E+00 0.  1.
          6    1    1    2  502    0  0.11889841657E+03  0.39590468492E+02  0.48101388667E+03  0.52598726014E+03  0.17200000000E+03 0. -1.
         -6    1    1    2    0  501 -0.11889841657E+03 -0.39590468492E+02  0.55788340330E+03  0.59709474151E+03  0.17200000000E+03 0.  1.
</event>
<event>
 4    1  0.3115421E-002  0.4057171E+03  0.7818608E-02  0.1041818E+00
         -1   -1    0    0    0  501 -0.00000000000E+00  0.00000000000E+00  0.23497190760E+03  0.23497190760E+03  0.00000000000E+00 0.  1.
          1   -1    0    0  502    0  0.00000000000E+00 -0.00000000000E+00 -0.72022584048E+03  0.72022584048E+03  0.00000000000E+00 0. -1.
          6    1    1    2  502    0  0.35118809193E+03 -0.10811694285E+03 -0.32159417856E+03  0.51771533194E+03  0.17200000000E+03 0. -1.
         -6    1    1    2    0  501 -0.35118809193E+03  0.10811694285E+03 -0.16365975432E+03  0.43748241613E+03  0.17200000000E+03 0.  1.
</event>
<event>
 4    1  0.3115421E-002  0.6087226E+03  0.7818608E-02  0.9887473E-01
         -2   -1    0    0    0  501 -0.00000000000E+00  0.00000000000E+00  0.82122584568E+03  0.82122584568E+03  0.00000000000E+00 0.  1.
          2   -1    0    0  502    0  0.00000000000E+00 -0.00000000000E+00 -0.55887505465E+03  0.55887505465E+03  0.00000000000E+00 0. -1.
          6    1    1    2  502    0  0.47186006111E+03 -0.34395818720E+03  0.43405231056E+03  0.74762594934E+03  0.17200000000E+03 0.  1.
         -6    1    1    2    0  501 -0.47186006111E+03  0.34395818720E+03 -0.17170151953E+03  0.63247495099E+03  0.17200000000E+03 0.  1.
</event>
<event>
 4    1  0.3115421E-002  0.2456600E+03  0.7818608E-02  0.1116079E+00
         -2   -1    0    0    0  501 -0.00000000000E+00  0.00000000000E+00  0.26300081465E+02  0.26300081465E+02  0.00000000000E+00 0.  1.
          2   -1    0    0  502    0  0.00000000000E+00 -0.00000000000E+00 -0.23188242986E+04  0.23188242986E+04  0.00000000000E+00 0. -1.
          6    1    1    2  502    0 -0.47672255084E+01  0.17533424310E+03 -0.10264767439E+04  0.10554635612E+04  0.17200000000E+03 0. -1.
         -6    1    1    2    0  501  0.47672255084E+01 -0.17533424310E+03 -0.12660474732E+04  0.12896608188E+04  0.17200000000E+03 0. -1.
</event>
<event>
 4    1  0.3115421E-002  0.2413351E+03  0.7818608E-02  0.1118907E+00
          1   -1    0    0  502    0  0.00000000000E+00  0.00000000000E+00  0.35999105904E+03  0.35999105904E+03  0.00000000000E+00 0. -1.
         -1   -1    0    0    0  501 -0.00000000000E+00 -0.00000000000E+00 -0.27914827134E+03  0.27914827134E+03  0.00000000000E+00 0.  1.
          6    1    1    2  502    0 -0.27519043285E+02  0.16703686299E+03  0.24762947383E+03  0.34577878427E+03  0.17200000000E+03 0. -1.
         -6    1    1    2    0  501  0.27519043285E+02 -0.16703686299E+03 -0.16678668614E+03  0.29336054611E+03  0.17200000000E+03 0.  1.
</event>
<event>
 4    1  0.3115421E-002  0.2360781E+03  0.7818608E-02  0.1122433E+00
          2   -1    0    0  502    0  0.00000000000E+00  0.00000000000E+00  0.11839205842E+04  0.11839205842E+04  0.00000000000E+00 0. -1.
         -2   -1    0    0    0  501 -0.00000000000E+00 -0.00000000000E+00 -0.11563033623E+03  0.11563033623E+03  0.00000000000E+00 0.  1.
          6    1    1    2  502    0  0.15076244824E+03  0.58476919459E+02  0.10344659342E+04  0.10610620316E+04  0.17200000000E+03 0. -1.
         -6    1    1    2    0  501 -0.15076244824E+03 -0.58476919459E+02  0.33824313828E+02  0.23848888887E+03  0.17200000000E+03 0.  1.
</event>
<event>
 4    1  0.3115421E-002  0.1113419E+04  0.7818608E-02  0.9192210E-01
         -2   -1    0    0    0  501 -0.00000000000E+00  0.00000000000E+00  0.14366523438E+04  0.14366523438E+04  0.00000000000E+00 0.  1.
          2   -1    0    0  502    0  0.00000000000E+00 -0.00000000000E+00 -0.96832067725E+03  0.96832067725E+03  0.00000000000E+00 0. -1.
          6    1    1    2  502    0  0.98709670018E+03  0.48554972136E+03  0.63091117083E+03  0.12797465893E+04  0.17200000000E+03 0. -1.
         -6    1    1    2    0  501 -0.98709670018E+03 -0.48554972136E+03 -0.16257950429E+03  0.11252264317E+04  0.17200000000E+03 0.  1.
</event>
<event>
 4    1  0.3115421E-002  0.1772084E+03  0.7818608E-02  0.1170532E+00
         -1   -1    0    0    0  501 -0.00000000000E+00  0.00000000000E+00  0.32047726613E+03  0.32047726613E+03  0.00000000000E+00 0.  1.
          1   -1    0    0  502    0  0.00000000000E+00 -0.00000000000E+00 -0.99258075849E+02  0.99258075849E+02  0.00000000000E+00 0. -1.
          6    1    1    2  502    0 -0.28440211761E+02  0.31779957453E+02  0.13435277024E+03  0.22238138009E+03  0.17200000000E+03 0.  1.
         -6    1    1    2    0  501  0.28440211761E+02 -0.31779957453E+02  0.86866420036E+02  0.19735396188E+03  0.17200000000E+03 0. -1.
</event>
<event>
 4    1  0.3115421E-002  0.2166373E+03  0.7818608E-02  0.1136415E+00
         -2   -1    0    0    0  501 -0.00000000000E+00  0.00000000000E+00  0.22404354809E+03  0.22404354809E+03  0.00000000000E+00 0.  1.
          2   -1    0    0  502    0  0.00000000000E+00 -0.00000000000E+00 -0.20954192989E+03  0.20954192989E+03  0.00000000000E+00 0. -1.
          6    1    1    2  502    0 -0.11036217809E+03  0.71888088758E+02  0.11101312231E+02  0.21692152220E+03  0.17200000000E+03 0.  1.
         -6    1    1    2    0  501  0.11036217809E+03 -0.71888088758E+02  0.34003059715E+01  0.21666395579E+03  0.17200000000E+03 0.  1.
</event>
<event>
 4    1  0.3115421E-002  0.2156573E+03  0.7818608E-02  0.1137163E+00
         -2   -1    0    0    0  501 -0.00000000000E+00  0.00000000000E+00  0.54414489211E+03  0.54414489211E+03  0.00000000000E+00 0.  1.
          2   -1    0    0  502    0  0.00000000000E+00 -0.00000000000E+00 -0.91123569294E+02  0.91123569294E+02  0.00000000000E+00 0. -1.
          6    1    1    2  502    0  0.12998647490E+03 -0.52520811353E+01  0.14739307877E+03  0.26121406486E+03  0.17200000000E+03 0. -1.
         -6    1    1    2    0  501 -0.12998647490E+03  0.52520811353E+01  0.30562824405E+03  0.37405439655E+03  0.17200000000E+03 0.  1.
</event>
<event>
 4    1  0.3115421E-002  0.3128277E+03  0.7818608E-02  0.1078998E+00
          1   -1    0    0  502    0  0.00000000000E+00  0.00000000000E+00  0.49057955452E+03  0.49057955452E+03  0.00000000000E+00 0. -1.
         -1   -1    0    0    0  501 -0.00000000000E+00 -0.00000000000E+00 -0.37423867744E+03  0.37423867744E+03  0.00000000000E+00 0.  1.
          6    1    1    2  502    0 -0.60585179029E+02  0.25417825004E+03  0.35365787953E+03  0.47215997550E+03  0.17200000000E+03 0. -1.
         -6    1    1    2    0  501  0.60585179029E+02 -0.25417825004E+03 -0.23731700245E+03  0.39265825645E+03  0.17200000000E+03 0.  1.
</event>
<event>
 4    1  0.3115421E-002  0.2434914E+03  0.7818608E-02  0.1117489E+00
         -2   -1    0    0    0  501 -0.00000000000E+00  0.00000000000E+00  0.24663581840E+03  0.24663581840E+03  0.00000000000E+00 0.  1.
          2   -1    0    0  502    0  0.00000000000E+00 -0.00000000000E+00 -0.24572385273E+03  0.24572385273E+03  0.00000000000E+00 0. -1.
          6    1    1    2  502    0 -0.14267981502E+03  0.96677444636E+02 -0.35824178700E+02  0.24611263619E+03  0.17200000000E+03 0. -1.
         -6    1    1    2    0  501  0.14267981502E+03 -0.96677444636E+02  0.36736144369E+02  0.24624703494E+03  0.17200000000E+03 0.  1.
</event>
<event>
 4    1  0.3115421E-002  0.2584083E+03  0.7818608E-02  0.1108103E+00
          2   -1    0    0  502    0  0.00000000000E+00  0.00000000000E+00  0.19711057837E+04  0.19711057837E+04  0.00000000000E+00 0. -1.
         -2   -1    0    0    0  501 -0.00000000000E+00 -0.00000000000E+00 -0.43973732018E+02  0.43973732018E+02  0.00000000000E+00 0.  1.
          6    1    1    2  502    0  0.10911921398E+03  0.15900889031E+03  0.48077471805E+03  0.54581971344E+03  0.17200000000E+03 0. -1.
         -6    1    1    2    0  501 -0.10911921398E+03 -0.15900889031E+03  0.14463573336E+04  0.14692598023E+04  0.17200000000E+03 0. -1.
</event>
<event>
 4    1  0.3115421E-002  0.4899755E+03  0.7818608E-02  0.1016429E+00
         -2   -1    0    0    0  501 -0.00000000000E+00  0.00000000000E+00  0.28068517633E+03  0.28068517633E+03  0.00000000000E+00 0.  1.
          2   -1    0    0  502    0  0.00000000000E+00 -0.00000000000E+00 -0.93945925466E+03  0.93945925466E+03  0.00000000000E+00 0. -1.
          6    1    1    2  502    0 -0.44729655155E+02  0.45660840110E+03 -0.51196089060E+03  0.70864654625E+03  0.17200000000E+03 0. -1.
         -6    1    1    2    0  501  0.44729655155E+02 -0.45660840110E+03 -0.14681318772E+03  0.51149788474E+03  0.17200000000E+03 0.  1.
</event>
<event>
 4    1  0.3115421E-002  0.1969029E+03  0.7818608E-02  0.1152379E+00
          2   -1    0    0  502    0  0.00000000000E+00  0.00000000000E+00  0.83440739651E+02  0.83440739651E+02  0.00000000000E+00 0. -1.
         -2   -1    0    0    0  501 -0.00000000000E+00 -0.00000000000E+00 -0.47997359719E+03  0.47997359719E+03  0.00000000000E+00 0.  1.
          6    1    1    2  502    0  0.76918207329E+02 -0.57186896141E+02 -0.14793172178E+03  0.24628143661E+03  0.17200000000E+03 0. -1.
         -6    1    1    2    0  501 -0.76918207329E+02  0.57186896141E+02 -0.24860113576E+03  0.31713290023E+03  0.17200000000E+03 0. -1.
</event>
<event>
 4    1  0.3115421E-002  0.5356332E+03  0.7818608E-02  0.1004875E+00
          1   -1    0    0  502    0  0.00000000000E+00  0.00000000000E+00  0.95815166093E+03  0.95815166093E+03  0.00000000000E+00 0. -1.
         -1   -1    0    0    0  501 -0.00000000000E+00 -0.00000000000E+00 -0.50892433936E+03  0.50892433936E+03  0.00000000000E+00 0.  1.
          6    1    1    2  502    0 -0.48837292017E+03 -0.13715253055E+03  0.69524222879E+03  0.87764724263E+03  0.17200000000E+03 0. -1.
         -6    1    1    2    0  501  0.48837292017E+03  0.13715253055E+03 -0.24601490722E+03  0.58942875767E+03  0.17200000000E+03 0.  1.
</event>
<event>
 4    1  0.3115421E-002  0.5767997E+03  0.7818608E-02  0.9954744E-01
          2   -1    0    0  502    0  0.00000000000E+00  0.00000000000E+00  0.77348479028E+03  0.77348479028E+03  0.00000000000E+00 0. -1.
         -2   -1    0    0    0  501 -0.00000000000E+00 -0.00000000000E+00 -0.58192358395E+03  0.58192358395E+03  0.00000000000E+00 0.  1.
          6    1    1    2  502    0 -0.46956503699E+03  0.28744144523E+03  0.44190797107E+03  0.72662271042E+03  0.17200000000E+03 0. -1.
         -6    1    1    2    0  501  0.46956503699E+03 -0.28744144523E+03 -0.25034676474E+03  0.62878566381E+03  0.17200000000E+03 0.  1.
</event>
<event>
 4    1  0.3115421E-002  0.2090065E+03  0.7818608E-02  0.1142355E+00
          2   -1    0    0  502    0  0.00000000000E+00  0.00000000000E+00  0.74370603589E+03  0.74370603589E+03  0.00000000000E+00 0. -1.
         -2   -1    0    0    0  501 -0.00000000000E+00 -0.00000000000E+00 -0.59928821837E+02  0.59928821837E+02  0.00000000000E+00 0.  1.
          6    1    1    2  502    0  0.61088289638E+02 -0.10182304149E+03  0.28524415265E+03  0.35362117800E+03  0.17200000000E+03 0. -1.
         -6    1    1    2    0  501 -0.61088289638E+02  0.10182304149E+03  0.39853306141E+03  0.45001367973E+03  0.17200000000E+03 0.  1.
</event>
<event>
 4    1  0.3115421E-002  0.1866651E+03  0.7818608E-02  0.1161504E+00
         -1   -1    0    0    0  501 -0.00000000000E+00  0.00000000000E+00  0.51067421885E+03  0.51067421885E+03  0.00000000000E+00 0.  1.
          1   -1    0    0  502    0  0.00000000000E+00 -0.00000000000E+00 -0.88328880494E+02  0.88328880494E+02  0.00000000000E+00 0. -1.
          6    1    1    2  502    0 -0.37115719230E+02  0.62307977414E+02  0.35403634634E+03  0.40023192675E+03  0.17200000000E+03 0.  1.
         -6    1    1    2    0  501  0.37115719230E+02 -0.62307977414E+02  0.68308992019E+02  0.19877117259E+03  0.17200000000E+03 0. -1.
</event>
<event>
 4    1  0.3115421E-002  0.2098192E+03  0.7818608E-02  0.1141709E+00
          1   -1    0    0  502    0  0.00000000000E+00  0.00000000000E+00  0.10290441517E+04  0.10290441517E+04  0.00000000000E+00 0. -1.
         -1   -1    0    0    0  501 -0.00000000000E+00 -0.00000000000E+00 -0.65446104956E+02  0.65446104956E+02  0.00000000000E+00 0.  1.
          6    1    1    2  502    0  0.11787944415E+01 -0.12016124061E+03  0.80384176217E+03  0.83077415217E+03  0.17200000000E+03 0. -1.
         -6    1    1    2    0  501 -0.11787944415E+01  0.12016124061E+03  0.15975628456E+03  0.26371610447E+03  0.17200000000E+03 0.  1.
</event>
<event>
 4    1  0.3115421E-002  0.3028509E+03  0.7818608E-02  0.1083824E+00
          1   -1    0    0  502    0  0.00000000000E+00  0.00000000000E+00  0.99927717516E+02  0.99927717516E+02  0.00000000000E+00 0. -1.
         -1   -1    0    0    0  501 -0.00000000000E+00 -0.00000000000E+00 -0.15225445765E+04  0.15225445765E+04  0.00000000000E+00 0.  1.
          6    1    1    2  502    0 -0.19372654306E+03  0.15685878080E+03 -0.12225549200E+04  0.12595075161E+04  0.17200000000E+03 0. -1.
         -6    1    1    2    0  501  0.19372654306E+03 -0.15685878080E+03 -0.20006193897E+03  0.36296477794E+03  0.17200000000E+03 0.  1.
</event>
<event>
 4    1  0.3115421E-002  0.6878696E+03  0.7818608E-02  0.9738205E-01
          1   -1    0    0  502    0  0.00000000000E+00  0.00000000000E+00  0.21120575089E+04  0.21120575089E+04  0.00000000000E+00 0. -1.
         -1   -1    0    0    0  501 -0.00000000000E+00 -0.00000000000E+00 -0.41015210267E+03  0.41015210267E+03  0.00000000000E+00 0.  1.
          6    1    1    2  502    0 -0.14646432742E+03 -0.64971434073E+03  0.17004803753E+04  0.18343385812E+04  0.17200000000E+03 0. -1.
         -6    1    1    2    0  501  0.14646432742E+03  0.64971434073E+03  0.14250309836E+01  0.68787103041E+03  0.17200000000E+03 0.  1.
</event>
<event>
 4    1  0.3115421E-002  0.1911906E+03  0.7818608E-02  0.1157392E+00
          2   -1    0    0  502    0  0.00000000000E+00  0.00000000000E+00  0.69259208700E+03  0.69259208700E+03  0.00000000000E+00 0. -1.
         -2   -1    0    0    0  501 -0.00000000000E+00 -0.00000000000E+00 -0.16665673941E+03  0.16665673941E+03  0.00000000000E+00 0.  1.
          6    1    1    2  502    0 -0.71441661728E+02 -0.43196583751E+02  0.61810653843E+03  0.64700042406E+03  0.17200000000E+03 0. -1.
         -6    1    1    2    0  501  0.71441661728E+02  0.43196583751E+02 -0.92171190844E+02  0.21224840235E+03  0.17200000000E+03 0.  1.
</event>
<event>
 4    1  0.3115421E-002  0.2108605E+03  0.7818608E-02  0.1140886E+00
          1   -1    0    0  502    0  0.00000000000E+00  0.00000000000E+00  0.58016605952E+03  0.58016605952E+03  0.00000000000E+00 0. -1.
         -1   -1    0    0    0  501 -0.00000000000E+00 -0.00000000000E+00 -0.76842775755E+02  0.76842775755E+02  0.00000000000E+00 0.  1.
          6    1    1    2  502    0 -0.48512409465E+02  0.11191378720E+03  0.26866377739E+03  0.34152946420E+03  0.17200000000E+03 0. -1.
         -6    1    1    2    0  501  0.48512409465E+02 -0.11191378720E+03  0.23465950638E+03  0.31547937107E+03  0.17200000000E+03 0.  1.
</event>
<event>
 4    1  0.3115421E-002  0.1721409E+03  0.7818608E-02  0.1175633E+00
          1   -1    0    0  502    0  0.00000000000E+00  0.00000000000E+00  0.35479553716E+03  0.35479553716E+03  0.00000000000E+00 0. -1.
         -1   -1    0    0    0  501 -0.00000000000E+00 -0.00000000000E+00 -0.92918783081E+02  0.92918783081E+02  0.00000000000E+00 0.  1.
          6    1    1    2  502    0 -0.46627245203E+01  0.51729722263E+01  0.20213452871E+03  0.26550116448E+03  0.17200000000E+03 0. -1.
         -6    1    1    2    0  501  0.46627245203E+01 -0.51729722263E+01  0.59742225369E+02  0.18221315576E+03  0.17200000000E+03 0.  1.
</event>
<event>
 4    1  0.3115421E-002  0.3547551E+03  0.7818608E-02  0.1060680E+00
          2   -1    0    0  502    0  0.00000000000E+00  0.00000000000E+00  0.16760727883E+04  0.16760727883E+04  0.00000000000E+00 0. -1.
         -2   -1    0    0    0  501 -0.00000000000E+00 -0.00000000000E+00 -0.80033729644E+02  0.80033729644E+02  0.00000000000E+00 0.  1.
          6    1    1    2  502    0  0.12949761973E+03 -0.28195303609E+03  0.10163160468E+04  0.10764522539E+04  0.17200000000E+03 0. -1.
         -6    1    1    2    0  501 -0.12949761973E+03  0.28195303609E+03  0.57972301188E+03  0.67965426401E+03  0.17200000000E+03 0.  1.
</event>
<event>
 4    1  0.3115421E-002  0.1912510E+03  0.7818608E-02  0.1157338E+00
         -1   -1    0    0    0  501 -0.00000000000E+00  0.00000000000E+00  0.37243795159E+02  0.37243795159E+02  0.00000000000E+00 0.  1.
          1   -1    0    0  502    0  0.00000000000E+00 -0.00000000000E+00 -0.29442973400E+04  0.29442973400E+04  0.00000000000E+00 0. -1.
          6    1    1    2  502    0 -0.28631428920E+02 -0.78569586732E+02 -0.26705304483E+04  0.26773699434E+04  0.17200000000E+03 0. -1.
         -6    1    1    2    0  501  0.28631428920E+02  0.78569586732E+02 -0.23652309654E+03  0.30417119173E+03  0.17200000000E+03 0.  1.
</event>
<event>
 4    1  0.3115421E-002  0.4173049E+03  0.7818608E-02  0.1037947E+00
         -2   -1    0    0    0  501 -0.00000000000E+00  0.00000000000E+00  0.13508793676E+03  0.13508793676E+03  0.00000000000E+00 0.  1.
          2   -1    0    0  502    0  0.00000000000E+00 -0.00000000000E+00 -0.17447173205E+04  0.17447173205E+04  0.00000000000E+00 0. -1.
          6    1    1    2  502    0  0.35330948231E+03 -0.14046974812E+03 -0.12851175988E+04  0.13511737798E+04  0.17200000000E+03 0. -1.
         -6    1    1    2    0  501 -0.35330948231E+03  0.14046974812E+03 -0.32451178496E+03  0.52863147750E+03  0.17200000000E+03 0.  1.
</event>
<event>
 4    1  0.3115421E-002  0.2855803E+03  0.7818608E-02  0.1092680E+00
         -4   -1    0    0    0  501 -0.00000000000E+00  0.00000000000E+00  0.55760740966E+03  0.55760740966E+03  0.00000000000E+00 0.  1.
          4   -1    0    0  502    0  0.00000000000E+00 -0.00000000000E+00 -0.15149888465E+03  0.15149888465E+03  0.00000000000E+00 0. -1.
          6    1    1    2  502    0  0.31741083908E+02  0.22575339555E+03  0.13712717198E+03  0.31679639093E+03  0.17200000000E+03 0. -1.
         -6    1    1    2    0  501 -0.31741083908E+02 -0.22575339555E+03  0.26898135303E+03  0.39230990338E+03  0.17200000000E+03 0. -1.
</event>
<event>
 4    1  0.3115421E-002  0.1772350E+03  0.7818608E-02  0.1170506E+00
         -2   -1    0    0    0  501 -0.00000000000E+00  0.00000000000E+00  0.12188631165E+03  0.12188631165E+03  0.00000000000E+00 0.  1.
          2   -1    0    0  502    0  0.00000000000E+00 -0.00000000000E+00 -0.26881872630E+03  0.26881872630E+03  0.00000000000E+00 0. -1.
          6    1    1    2  502    0  0.32629827563E+02  0.27632054226E+02 -0.11316475755E+03  0.21028194982E+03  0.17200000000E+03 0. -1.
         -6    1    1    2    0  501 -0.32629827563E+02 -0.27632054226E+02 -0.33767657100E+02  0.18042308814E+03  0.17200000000E+03 0.  1.
</event>
<event>
 4    1  0.3115421E-002  0.3406512E+03  0.7818608E-02  0.1066519E+00
         -3   -1    0    0    0  501 -0.00000000000E+00  0.00000000000E+00  0.77216184392E+03  0.77216184392E+03  0.00000000000E+00 0.  1.
          3   -1    0    0  502    0  0.00000000000E+00 -0.00000000000E+00 -0.16481028967E+03  0.16481028967E+03  0.00000000000E+00 0. -1.
          6    1    1    2  502    0  0.26114124547E+03 -0.13514626201E+03  0.16458836173E+03  0.37832868122E+03  0.17200000000E+03 0. -1.
         -6    1    1    2    0  501 -0.26114124547E+03  0.13514626201E+03  0.44276319252E+03  0.55864345237E+03  0.17200000000E+03 0.  1.
</event>
<event>
 4    1  0.3115421E-002  0.2448601E+03  0.7818608E-02  0.1116597E+00
          1   -1    0    0  502    0  0.00000000000E+00  0.00000000000E+00  0.11648355396E+04  0.11648355396E+04  0.00000000000E+00 0. -1.
         -1   -1    0    0    0  501 -0.00000000000E+00 -0.00000000000E+00 -0.95482194995E+02  0.95482194995E+02  0.00000000000E+00 0.  1.
          6    1    1    2  502    0  0.70762121757E+02  0.15926460669E+03  0.96250069902E+03  0.99315864213E+03  0.17200000000E+03 0. -1.
         -6    1    1    2    0  501 -0.70762121757E+02 -0.15926460669E+03  0.10685264559E+03  0.26715909247E+03  0.17200000000E+03 0.  1.
</event>
<event>
 4    1  0.3115421E-002  0.6068504E+03  0.7818608E-02  0.9891295E-01
         -2   -1    0    0    0  501 -0.00000000000E+00  0.00000000000E+00  0.34173807761E+03  0.34173807761E+03  0.00000000000E+00 0.  1.
          2   -1    0    0  502    0  0.00000000000E+00 -0.00000000000E+00 -0.13439836206E+04  0.13439836206E+04  0.00000000000E+00 0. -1.
          6    1    1    2  502    0  0.33062563161E+03 -0.47892602625E+03 -0.87634418710E+03  0.10659486766E+04  0.17200000000E+03 0. -1.
         -6    1    1    2    0  501 -0.33062563161E+03  0.47892602625E+03 -0.12590135591E+03  0.61977302162E+03  0.17200000000E+03 0.  1.
</event>
<event>
 4    1  0.3115421E-002  0.2167233E+03  0.7818608E-02  0.1136350E+00
          2   -1    0    0  502    0  0.00000000000E+00  0.00000000000E+00  0.43274306416E+03  0.43274306416E+03  0.00000000000E+00 0. -1.
         -2   -1    0    0    0  501 -0.00000000000E+00 -0.00000000000E+00 -0.19773409841E+03  0.19773409841E+03  0.00000000000E+00 0.  1.
          6    1    1    2  502    0  0.51469125199E+02  0.12139158148E+03 -0.94220427748E+02  0.23631858985E+03  0.17200000000E+03 0.  1.
         -6    1    1    2    0  501 -0.51469125199E+02 -0.12139158148E+03  0.32922939351E+03  0.39415857272E+03  0.17200000000E+03 0. -1.
</event>
<event>
 4    1  0.3115421E-002  0.3249360E+03  0.7818608E-02  0.1073400E+00
          2   -1    0    0  502    0  0.00000000000E+00  0.00000000000E+00  0.49582841657E+03  0.49582841657E+03  0.00000000000E+00 0. -1.
         -2   -1    0    0    0  501 -0.00000000000E+00 -0.00000000000E+00 -0.21796780837E+03  0.21796780837E+03  0.00000000000E+00 0.  1.
          6    1    1    2  502    0  0.25205519373E+03  0.11165819377E+03  0.19311690703E+03  0.37799141882E+03  0.17200000000E+03 0. -1.
         -6    1    1    2    0  501 -0.25205519373E+03 -0.11165819377E+03  0.84743701176E+02  0.33580480612E+03  0.17200000000E+03 0.  1.
</event>
<event>
 4    1  0.3115421E-002  0.4202164E+03  0.7818608E-02  0.1036996E+00
          2   -1    0    0  502    0  0.00000000000E+00  0.00000000000E+00  0.18504915514E+04  0.18504915514E+04  0.00000000000E+00 0. -1.
         -2   -1    0    0    0  501 -0.00000000000E+00 -0.00000000000E+00 -0.11541147835E+03  0.11541147835E+03  0.00000000000E+00 0.  1.
          6    1    1    2  502    0 -0.38310523669E+03  0.15106111061E+02  0.12765968175E+04  0.13439796320E+04  0.17200000000E+03 0. -1.
         -6    1    1    2    0  501  0.38310523669E+03 -0.15106111061E+02  0.45848325556E+03  0.62192339770E+03  0.17200000000E+03 0.  1.
</event>
<event>
 4    1  0.3115421E-002  0.3580639E+03  0.7818608E-02  0.1059353E+00
          1   -1    0    0  502    0  0.00000000000E+00  0.00000000000E+00  0.13776524772E+04  0.13776524772E+04  0.00000000000E+00 0. -1.
         -1   -1    0    0    0  501 -0.00000000000E+00 -0.00000000000E+00 -0.14088911449E+03  0.14088911449E+03  0.00000000000E+00 0.  1.
          6    1    1    2  502    0 -0.30719394564E+03  0.65250770561E+02  0.10607522299E+04  0.11195557497E+04  0.17200000000E+03 0. -1.
         -6    1    1    2    0  501  0.30719394564E+03 -0.65250770561E+02  0.17601113282E+03  0.39898584208E+03  0.17200000000E+03 0.  1.
</event>
<event>
 4    1  0.3115421E-002  0.2356989E+03  0.7818608E-02  0.1122692E+00
         -2   -1    0    0    0  501 -0.00000000000E+00  0.00000000000E+00  0.22490285328E+03  0.22490285328E+03  0.00000000000E+00 0.  1.
          2   -1    0    0  502    0  0.00000000000E+00 -0.00000000000E+00 -0.28237966238E+03  0.28237966238E+03  0.00000000000E+00 0. -1.
          6    1    1    2  502    0 -0.76354861858E+02  0.14191512883E+03  0.61024961739E+02  0.24347076760E+03  0.17200000000E+03 0. -1.
         -6    1    1    2    0  501  0.76354861858E+02 -0.14191512883E+03 -0.11850177084E+03  0.26381174806E+03  0.17200000000E+03 0. -1.
</event>
<event>
 4    1  0.3115421E-002  0.1387080E+04  0.7818608E-02  0.8963224E-01
          2   -1    0    0  502    0  0.00000000000E+00  0.00000000000E+00  0.28408417162E+04  0.28408417162E+04  0.00000000000E+00 0. -1.
         -2   -1    0    0    0  501 -0.00000000000E+00 -0.00000000000E+00 -0.21579842827E+04  0.21579842827E+04  0.00000000000E+00 0.  1.
          6    1    1    2  502    0  0.72889328024E+03  0.11675275017E+04  0.24118127588E+04  0.27822348328E+04  0.17200000000E+03 0. -1.
         -6    1    1    2    0  501 -0.72889328024E+03 -0.11675275017E+04 -0.17289553253E+04  0.22165911662E+04  0.17200000000E+03 0.  1.
</event>
<event>
 4    1  0.3115421E-002  0.2029992E+03  0.7818608E-02  0.1147233E+00
         -1   -1    0    0    0  501 -0.00000000000E+00  0.00000000000E+00  0.19560852255E+03  0.19560852255E+03  0.00000000000E+00 0.  1.
          1   -1    0    0  502    0  0.00000000000E+00 -0.00000000000E+00 -0.66742556499E+03  0.66742556499E+03  0.00000000000E+00 0. -1.
          6    1    1    2  502    0 -0.80926438290E+02 -0.71243233585E+02 -0.59288438178E+03  0.62667421912E+03  0.17200000000E+03 0. -1.
         -6    1    1    2    0  501  0.80926438290E+02  0.71243233585E+02  0.12106733935E+03  0.23635986843E+03  0.17200000000E+03 0.  1.
</event>
<event>
 4    1  0.3115421E-002  0.3879106E+03  0.7818608E-02  0.1048048E+00
          3   -1    0    0  502    0  0.00000000000E+00  0.00000000000E+00  0.14846014675E+04  0.14846014675E+04  0.00000000000E+00 0. -1.
         -3   -1    0    0    0  501 -0.00000000000E+00 -0.00000000000E+00 -0.10321068439E+03  0.10321068439E+03  0.00000000000E+00 0.  1.
          6    1    1    2  502    0  0.13444717575E+03  0.32064715881E+03  0.79709331908E+03  0.88647188497E+03  0.17200000000E+03 0. -1.
         -6    1    1    2    0  501 -0.13444717575E+03 -0.32064715881E+03  0.58429746399E+03  0.70134026688E+03  0.17200000000E+03 0.  1.
</event>
<event>
 4    1  0.3115421E-002  0.2758745E+03  0.7818608E-02  0.1097964E+00
         -1   -1    0    0    0  501 -0.00000000000E+00  0.00000000000E+00  0.12096278916E+04  0.12096278916E+04  0.00000000000E+00 0.  1.
          1   -1    0    0  502    0  0.00000000000E+00 -0.00000000000E+00 -0.11470545137E+03  0.11470545137E+03  0.00000000000E+00 0. -1.
          6    1    1    2  502    0 -0.14165473212E+03  0.16265509326E+03  0.10253323273E+03  0.29431242975E+03  0.17200000000E+03 0. -1.
         -6    1    1    2    0  501  0.14165473212E+03 -0.16265509326E+03  0.99238920755E+03  0.10300209133E+04  0.17200000000E+03 0.  1.
</event>
<event>
 4    1  0.3115421E-002  0.1806449E+03  0.7818608E-02  0.1167180E+00
          1   -1    0    0  502    0  0.00000000000E+00  0.00000000000E+00  0.75943484896E+02  0.75943484896E+02  0.00000000000E+00 0. -1.
         -1   -1    0    0    0  501 -0.00000000000E+00 -0.00000000000E+00 -0.44257193400E+03  0.44257193400E+03  0.00000000000E+00 0.  1.
          6    1    1    2  502    0 -0.38954907701E+02  0.39129308423E+02 -0.13909262353E+03  0.22798979261E+03  0.17200000000E+03 0. -1.
         -6    1    1    2    0  501  0.38954907701E+02 -0.39129308423E+02 -0.22753582557E+03  0.29052562629E+03  0.17200000000E+03 0.  1.
</event>
<event>
 4    1  0.3115421E-002  0.2013663E+03  0.7818608E-02  0.1148591E+00
          2   -1    0    0  502    0  0.00000000000E+00  0.00000000000E+00  0.97064606473E+02  0.97064606473E+02  0.00000000000E+00 0. -1.
         -2   -1    0    0    0  501 -0.00000000000E+00 -0.00000000000E+00 -0.54221513532E+03  0.54221513532E+03  0.00000000000E+00 0.  1.
          6    1    1    2  502    0 -0.89989152282E+02  0.53538148969E+02 -0.69429345314E+02  0.21299956553E+03  0.17200000000E+03 0. -1.
         -6    1    1    2    0  501  0.89989152282E+02 -0.53538148969E+02 -0.37572118353E+03  0.42628017627E+03  0.17200000000E+03 0.  1.
</event>
<event>
 4    1  0.3115421E-002  0.1749813E+03  0.7818608E-02  0.1172751E+00
         -2   -1    0    0    0  501 -0.00000000000E+00  0.00000000000E+00  0.24401230932E+02  0.24401230932E+02  0.00000000000E+00 0.  1.
          2   -1    0    0  502    0  0.00000000000E+00 -0.00000000000E+00 -0.13239555297E+04  0.13239555297E+04  0.00000000000E+00 0. -1.
          6    1    1    2  502    0  0.10605371280E+02 -0.30363972831E+02 -0.80386906864E+03  0.82269309239E+03  0.17200000000E+03 0. -1.
         -6    1    1    2    0  501 -0.10605371280E+02  0.30363972831E+02 -0.49568523014E+03  0.52566366826E+03  0.17200000000E+03 0.  1.
</event>
<event>
 4    1  0.3115421E-002  0.2212365E+03  0.7818608E-02  0.1132965E+00
          3   -1    0    0  502    0  0.00000000000E+00  0.00000000000E+00  0.89340820270E+03  0.89340820270E+03  0.00000000000E+00 0. -1.
         -3   -1    0    0    0  501 -0.00000000000E+00 -0.00000000000E+00 -0.58926060495E+02  0.58926060495E+02  0.00000000000E+00 0.  1.
          6    1    1    2  502    0 -0.70818338438E+02 -0.11977625339E+03  0.54346701043E+03  0.58677251074E+03  0.17200000000E+03 0. -1.
         -6    1    1    2    0  501  0.70818338438E+02  0.11977625339E+03  0.29101513178E+03  0.36556175246E+03  0.17200000000E+03 0.  1.
</event>
<event>
 4    1  0.3115421E-002  0.2574404E+03  0.7818608E-02  0.1108691E+00
         -1   -1    0    0    0  501 -0.00000000000E+00  0.00000000000E+00  0.54881796993E+02  0.54881796993E+02  0.00000000000E+00 0.  1.
          1   -1    0    0  502    0  0.00000000000E+00 -0.00000000000E+00 -0.15092535946E+04  0.15092535946E+04  0.00000000000E+00 0. -1.
          6    1    1    2  502    0 -0.54994044856E+02  0.18348623787E+03 -0.10768199589E+04  0.11071660979E+04  0.17200000000E+03 0.  1.
         -6    1    1    2    0  501  0.54994044856E+02 -0.18348623787E+03 -0.37755183866E+03  0.45696929364E+03  0.17200000000E+03 0.  1.
</event>
<event>
 4    1  0.3115421E-002  0.2927631E+03  0.7818608E-02  0.1088915E+00
          1   -1    0    0  502    0  0.00000000000E+00  0.00000000000E+00  0.41302708282E+03  0.41302708282E+03  0.00000000000E+00 0. -1.
         -1   -1    0    0    0  501 -0.00000000000E+00 -0.00000000000E+00 -0.22893446122E+03  0.22893446122E+03  0.00000000000E+00 0.  1.
          6    1    1    2  502    0  0.82042251817E+02 -0.22225050329E+03  0.19022236128E+03  0.34913430657E+03  0.17200000000E+03 0. -1.
         -6    1    1    2    0  501 -0.82042251817E+02  0.22225050329E+03 -0.61297396792E+01  0.29282723747E+03  0.17200000000E+03 0.  1.
</event>
<event>
 4    1  0.3115421E-002  0.1852258E+03  0.7818608E-02  0.1162839E+00
          2   -1    0    0  502    0  0.00000000000E+00  0.00000000000E+00  0.14194990201E+04  0.14194990201E+04  0.00000000000E+00 0. -1.
         -2   -1    0    0    0  501 -0.00000000000E+00 -0.00000000000E+00 -0.24572519190E+02  0.24572519190E+02  0.00000000000E+00 0.  1.
          6    1    1    2  502    0 -0.64358605970E+02  0.24136060544E+02  0.60499396785E+03  0.63271342701E+03  0.17200000000E+03 0.  1.
         -6    1    1    2    0  501  0.64358605970E+02 -0.24136060544E+02  0.78993253308E+03  0.81135811231E+03  0.17200000000E+03 0.  1.
</event>
<event>
 4    1  0.3115421E-002  0.2264344E+03  0.7818608E-02  0.1129175E+00
          1   -1    0    0  502    0  0.00000000000E+00  0.00000000000E+00  0.17710253166E+04  0.17710253166E+04  0.00000000000E+00 0. -1.
         -1   -1    0    0    0  501 -0.00000000000E+00 -0.00000000000E+00 -0.51052701174E+02  0.51052701174E+02  0.00000000000E+00 0.  1.
          6    1    1    2  502    0  0.95890236598E+02 -0.11177477695E+03  0.14594222336E+04  0.14768838120E+04  0.17200000000E+03 0. -1.
         -6    1    1    2    0  501 -0.95890236598E+02  0.11177477695E+03  0.26055038189E+03  0.34519420583E+03  0.17200000000E+03 0.  1.
</event>
<event>
 4    1  0.3115421E-002  0.1821427E+03  0.7818608E-02  0.1165745E+00
          2   -1    0    0  502    0  0.00000000000E+00  0.00000000000E+00  0.93012460560E+03  0.93012460560E+03  0.00000000000E+00 0. -1.
         -2   -1    0    0    0  501 -0.00000000000E+00 -0.00000000000E+00 -0.35692377824E+02  0.35692377824E+02  0.00000000000E+00 0.  1.
          6    1    1    2  502    0 -0.34194592526E+02 -0.49220969708E+02  0.45975570658E+03  0.49452126724E+03  0.17200000000E+03 0.  1.
         -6    1    1    2    0  501  0.34194592526E+02  0.49220969708E+02  0.43467652119E+03  0.47129571618E+03  0.17200000000E+03 0.  1.
</event>
<event>
 4    1  0.3115421E-002  0.1828532E+03  0.7818608E-02  0.1165070E+00
          2   -1    0    0  502    0  0.00000000000E+00  0.00000000000E+00  0.11110095508E+04  0.11110095508E+04  0.00000000000E+00 0. -1.
         -2   -1    0    0    0  501 -0.00000000000E+00 -0.00000000000E+00 -0.30263617051E+02  0.30263617051E+02  0.00000000000E+00 0.  1.
          6    1    1    2  502    0 -0.61661855842E+02  0.70064837146E+01  0.58303040741E+03  0.61103169414E+03  0.17200000000E+03 0.  1.
         -6    1    1    2    0  501  0.61661855842E+02 -0.70064837146E+01  0.49771552630E+03  0.53024147367E+03  0.17200000000E+03 0.  1.
</event>
<event>
 4    1  0.3115421E-002  0.2246545E+03  0.7818608E-02  0.1130460E+00
         -1   -1    0    0    0  501 -0.00000000000E+00  0.00000000000E+00  0.84336475608E+02  0.84336475608E+02  0.00000000000E+00 0.  1.
          1   -1    0    0  502    0  0.00000000000E+00 -0.00000000000E+00 -0.73926464700E+03  0.73926464700E+03  0.00000000000E+00 0. -1.
          6    1    1    2  502    0  0.12647968425E+03  0.69918116665E+02 -0.50720150171E+03  0.55472787645E+03  0.17200000000E+03 0. -1.
         -6    1    1    2    0  501 -0.12647968425E+03 -0.69918116665E+02 -0.14772666968E+03  0.26887324616E+03  0.17200000000E+03 0.  1.
</event>
<event>
 4    1  0.3115421E-002  0.2274067E+03  0.7818608E-02  0.1128478E+00
         -2   -1    0    0    0  501 -0.00000000000E+00  0.00000000000E+00  0.62598852376E+02  0.62598852376E+02  0.00000000000E+00 0.  1.
          2   -1    0    0  502    0  0.00000000000E+00 -0.00000000000E+00 -0.83224937629E+03  0.83224937629E+03  0.00000000000E+00 0. -1.
          6    1    1    2  502    0 -0.12459747604E+03  0.81272830338E+02 -0.42324057691E+03  0.48046476450E+03  0.17200000000E+03 0. -1.
         -6    1    1    2    0  501  0.12459747604E+03 -0.81272830338E+02 -0.34640994700E+03  0.41438346416E+03  0.17200000000E+03 0.  1.
</event>
<event>
 4    1  0.3115421E-002  0.1763375E+03  0.7818608E-02  0.1171395E+00
         -2   -1    0    0    0  501 -0.00000000000E+00  0.00000000000E+00  0.21574477857E+02  0.21574477857E+02  0.00000000000E+00 0.  1.
          2   -1    0    0  502    0  0.00000000000E+00 -0.00000000000E+00 -0.14615413825E+04  0.14615413825E+04  0.00000000000E+00 0. -1.
          6    1    1    2  502    0 -0.35375586457E+02  0.16107958135E+02 -0.80729198356E+03  0.82632635511E+03  0.17200000000E+03 0. -1.
         -6    1    1    2    0  501  0.35375586457E+02 -0.16107958135E+02 -0.63267492109E+03  0.65678950525E+03  0.17200000000E+03 0.  1.
</event>
<event>
 4    1  0.3115421E-002  0.2014679E+03  0.7818608E-02  0.1148506E+00
         -1   -1    0    0    0  501 -0.00000000000E+00  0.00000000000E+00  0.75857754682E+02  0.75857754682E+02  0.00000000000E+00 0.  1.
          1   -1    0    0  502    0  0.00000000000E+00 -0.00000000000E+00 -0.65112403318E+03  0.65112403318E+03  0.00000000000E+00 0. -1.
          6    1    1    2  502    0 -0.10101195580E+03  0.28317847553E+02 -0.44109100531E+03  0.48492328328E+03  0.17200000000E+03 0. -1.
         -6    1    1    2    0  501  0.10101195580E+03 -0.28317847553E+02 -0.13417527319E+03  0.24205850458E+03  0.17200000000E+03 0.  1.
</event>
<event>
 4    1  0.3115421E-002  0.2365465E+03  0.7818608E-02  0.1122115E+00
         -4   -1    0    0    0  501 -0.00000000000E+00  0.00000000000E+00  0.30223788450E+03  0.30223788450E+03  0.00000000000E+00 0.  1.
          4   -1    0    0  502    0  0.00000000000E+00 -0.00000000000E+00 -0.22167829896E+03  0.22167829896E+03  0.00000000000E+00 0. -1.
          6    1    1    2  502    0  0.58001362379E+02  0.15167764601E+03  0.14664137924E+03  0.27831270262E+03  0.17200000000E+03 0. -1.
         -6    1    1    2    0  501 -0.58001362379E+02 -0.15167764601E+03 -0.66081793701E+02  0.24560348083E+03  0.17200000000E+03 0. -1.
</event>
<event>
 4    1  0.3115421E-002  0.2875396E+03  0.7818608E-02  0.1091641E+00
          3   -1    0    0  502    0  0.00000000000E+00  0.00000000000E+00  0.30820956098E+03  0.30820956098E+03  0.00000000000E+00 0. -1.
         -3   -1    0    0    0  501 -0.00000000000E+00 -0.00000000000E+00 -0.12330000917E+04  0.12330000917E+04  0.00000000000E+00 0.  1.
          6    1    1    2  502    0  0.15517930019E+03  0.17033623948E+03 -0.11440371122E+04  0.11796185671E+04  0.17200000000E+03 0. -1.
         -6    1    1    2    0  501 -0.15517930019E+03 -0.17033623948E+03  0.21924658149E+03  0.36159108560E+03  0.17200000000E+03 0. -1.
</event>
<event>
 4    1  0.3115421E-002  0.2743002E+03  0.7818608E-02  0.1098843E+00
          2   -1    0    0  502    0  0.00000000000E+00  0.00000000000E+00  0.40718246511E+03  0.40718246511E+03  0.00000000000E+00 0. -1.
         -2   -1    0    0    0  501 -0.00000000000E+00 -0.00000000000E+00 -0.21616005113E+03  0.21616005113E+03  0.00000000000E+00 0.  1.
          6    1    1    2  502    0 -0.19116839406E+03  0.95452766791E+02 -0.23232855282E+02  0.27528231171E+03  0.17200000000E+03 0.  1.
         -6    1    1    2    0  501  0.19116839406E+03 -0.95452766791E+02  0.21425526926E+03  0.34806020453E+03  0.17200000000E+03 0. -1.
</event>
<event>
 4    1  0.3115421E-002  0.1145784E+04  0.7818608E-02  0.9161682E-01
          2   -1    0    0  502    0  0.00000000000E+00  0.00000000000E+00  0.33114682817E+04  0.33114682817E+04  0.00000000000E+00 0. -1.
         -2   -1    0    0    0  501 -0.00000000000E+00 -0.00000000000E+00 -0.40690035127E+03  0.40690035127E+03  0.00000000000E+00 0.  1.
          6    1    1    2  502    0  0.10603849630E+03 -0.11278261630E+04  0.17502841497E+04  0.20919642973E+04  0.17200000000E+03 0. -1.
         -6    1    1    2    0  501 -0.10603849630E+03  0.11278261630E+04  0.11542837808E+04  0.16264043357E+04  0.17200000000E+03 0.  1.
</event>
<event>
 4    1  0.3115421E-002  0.4146004E+03  0.7818608E-02  0.1038838E+00
         -2   -1    0    0    0  501 -0.00000000000E+00  0.00000000000E+00  0.17301261395E+03  0.17301261395E+03  0.00000000000E+00 0.  1.
          2   -1    0    0  502    0  0.00000000000E+00 -0.00000000000E+00 -0.16073512753E+04  0.16073512753E+04  0.00000000000E+00 0. -1.
          6    1    1    2  502    0  0.27253643562E+03  0.26083203460E+03 -0.12672721445E+04  0.13333687214E+04  0.17200000000E+03 0. -1.
         -6    1    1    2    0  501 -0.27253643562E+03 -0.26083203460E+03 -0.16706651686E+03  0.44699516784E+03  0.17200000000E+03 0.  1.
</event>
<event>
 4    1  0.3115421E-002  0.1756731E+03  0.7818608E-02  0.1172058E+00
          2   -1    0    0  502    0  0.00000000000E+00  0.00000000000E+00  0.34126839927E+03  0.34126839927E+03  0.00000000000E+00 0. -1.
         -2   -1    0    0    0  501 -0.00000000000E+00 -0.00000000000E+00 -0.10755220235E+03  0.10755220235E+03  0.00000000000E+00 0.  1.
          6    1    1    2  502    0 -0.95145366622E+01 -0.34446005025E+02  0.20639607712E+03  0.27103578052E+03  0.17200000000E+03 0. -1.
         -6    1    1    2    0  501  0.95145366622E+01  0.34446005025E+02  0.27320119805E+02  0.17778482111E+03  0.17200000000E+03 0.  1.
</event>
<event>
 4    1  0.3115421E-002  0.2109731E+03  0.7818608E-02  0.1140798E+00
         -2   -1    0    0    0  501 -0.00000000000E+00  0.00000000000E+00  0.55544167612E+03  0.55544167612E+03  0.00000000000E+00 0.  1.
          2   -1    0    0  502    0  0.00000000000E+00 -0.00000000000E+00 -0.10388099636E+03  0.10388099636E+03  0.00000000000E+00 0. -1.
          6    1    1    2  502    0 -0.48951922330E+02  0.11193458091E+03  0.68162157304E+02  0.22171089462E+03  0.17200000000E+03 0. -1.
         -6    1    1    2    0  501  0.48951922330E+02 -0.11193458091E+03  0.38339852246E+03  0.43761177787E+03  0.17200000000E+03 0.  1.
</event>
<event>
 4    1  0.3115421E-002  0.1743476E+03  0.7818608E-02  0.1173388E+00
          2   -1    0    0  502    0  0.00000000000E+00  0.00000000000E+00  0.61470142988E+03  0.61470142988E+03  0.00000000000E+00 0. -1.
         -2   -1    0    0    0  501 -0.00000000000E+00 -0.00000000000E+00 -0.74071455715E+02  0.74071455715E+02  0.00000000000E+00 0.  1.
          6    1    1    2  502    0  0.10677193594E+02 -0.26440399500E+02  0.46886772058E+03  0.50023398185E+03  0.17200000000E+03 0. -1.
         -6    1    1    2    0  501 -0.10677193594E+02  0.26440399500E+02  0.71762253585E+02  0.18853890375E+03  0.17200000000E+03 0.  1.
</event>
<event>
 4    1  0.3115421E-002  0.2484799E+03  0.7818608E-02  0.1114269E+00
          2   -1    0    0  502    0  0.00000000000E+00  0.00000000000E+00  0.42264053755E+03  0.42264053755E+03  0.00000000000E+00 0. -1.
         -2   -1    0    0    0  501 -0.00000000000E+00 -0.00000000000E+00 -0.15191076342E+03  0.15191076342E+03  0.00000000000E+00 0.  1.
          6    1    1    2  502    0  0.15638049829E+03  0.87768978328E+02  0.79116581912E+02  0.26077133151E+03  0.17200000000E+03 0.  1.
         -6    1    1    2    0  501 -0.15638049829E+03 -0.87768978328E+02  0.19161319221E+03  0.31377996946E+03  0.17200000000E+03 0. -1.
</event>
<event>
 4    1  0.3115421E-002  0.1743425E+03  0.7818608E-02  0.1173393E+00
         -1   -1    0    0    0  501 -0.00000000000E+00  0.00000000000E+00  0.21844389334E+02  0.21844389334E+02  0.00000000000E+00 0.  1.
          1   -1    0    0  502    0  0.00000000000E+00 -0.00000000000E+00 -0.20090516842E+04  0.20090516842E+04  0.00000000000E+00 0. -1.
          6    1    1    2  502    0 -0.77851720531E+01 -0.27398944121E+02 -0.15566153519E+04  0.15663481940E+04  0.17200000000E+03 0. -1.
         -6    1    1    2    0  501  0.77851720531E+01  0.27398944121E+02 -0.43059194298E+03  0.46454787956E+03  0.17200000000E+03 0.  1.
</event>
<event>
 4    1  0.3115421E-002  0.7755438E+03  0.7818608E-02  0.9596107E-01
         -2   -1    0    0    0  501 -0.00000000000E+00  0.00000000000E+00  0.48232070750E+03  0.48232070750E+03  0.00000000000E+00 0.  1.
          2   -1    0    0  502    0  0.00000000000E+00 -0.00000000000E+00 -0.13250555278E+04  0.13250555278E+04  0.00000000000E+00 0. -1.
          6    1    1    2  502    0  0.41800293643E+03 -0.63020453880E+03 -0.20207635992E+03  0.80143812664E+03  0.17200000000E+03 0. -1.
         -6    1    1    2    0  501 -0.41800293643E+03  0.63020453880E+03 -0.64065846038E+03  0.10059381087E+04  0.17200000000E+03 0.  1.
</event>
<event>
 4    1  0.3115421E-002  0.2778507E+03  0.7818608E-02  0.1096869E+00
          4   -1    0    0  502    0  0.00000000000E+00  0.00000000000E+00  0.65643478265E+03  0.65643478265E+03  0.00000000000E+00 0. -1.
         -4   -1    0    0    0  501 -0.00000000000E+00 -0.00000000000E+00 -0.15760469229E+03  0.15760469229E+03  0.00000000000E+00 0.  1.
          6    1    1    2  502    0 -0.17981052165E+03 -0.12363331791E+03  0.45446084797E+03  0.53266845535E+03  0.17200000000E+03 0. -1.
         -6    1    1    2    0  501  0.17981052165E+03  0.12363331791E+03  0.44369242396E+02  0.28137101959E+03  0.17200000000E+03 0.  1.
</event>
<event>
 4    1  0.3115421E-002  0.2700415E+03  0.7818608E-02  0.1101256E+00
          1   -1    0    0  502    0  0.00000000000E+00  0.00000000000E+00  0.28676857418E+03  0.28676857418E+03  0.00000000000E+00 0. -1.
         -1   -1    0    0    0  501 -0.00000000000E+00 -0.00000000000E+00 -0.26058619940E+03  0.26058619940E+03  0.00000000000E+00 0.  1.
          6    1    1    2  502    0 -0.94037745667E+02 -0.18572914593E+03  0.55631289960E+02  0.27571226611E+03  0.17200000000E+03 0. -1.
         -6    1    1    2    0  501  0.94037745667E+02  0.18572914593E+03 -0.29448915181E+02  0.27164250747E+03  0.17200000000E+03 0.  1.
</event>
<event>
 4    1  0.3115421E-002  0.3883683E+03  0.7818608E-02  0.1047883E+00
         -2   -1    0    0    0  501 -0.00000000000E+00  0.00000000000E+00  0.82491468798E+02  0.82491468798E+02  0.00000000000E+00 0.  1.
          2   -1    0    0  502    0  0.00000000000E+00 -0.00000000000E+00 -0.30291103909E+04  0.30291103909E+04  0.00000000000E+00 0. -1.
          6    1    1    2  502    0  0.33547675430E+03  0.93280558060E+02 -0.24528222259E+04  0.24833780999E+04  0.17200000000E+03 0. -1.
         -6    1    1    2    0  501 -0.33547675430E+03 -0.93280558060E+02 -0.49379669617E+03  0.62822375976E+03  0.17200000000E+03 0.  1.
</event>
<event>
 4    1  0.3115421E-002  0.3941783E+03  0.7818608E-02  0.1045814E+00
          2   -1    0    0  502    0  0.00000000000E+00  0.00000000000E+00  0.13261291532E+04  0.13261291532E+04  0.00000000000E+00 0. -1.
         -2   -1    0    0    0  501 -0.00000000000E+00 -0.00000000000E+00 -0.13476409155E+03  0.13476409155E+03  0.00000000000E+00 0.  1.
          6    1    1    2  502    0 -0.22899437086E+03 -0.27083969822E+03  0.85964400499E+03  0.94570840079E+03  0.17200000000E+03 0. -1.
         -6    1    1    2    0  501  0.22899437086E+03  0.27083969822E+03  0.33172105670E+03  0.51518484399E+03  0.17200000000E+03 0.  1.
</event>
<event>
 4    1  0.3115421E-002  0.2167411E+03  0.7818608E-02  0.1136336E+00
          3   -1    0    0  502    0  0.00000000000E+00  0.00000000000E+00  0.10991652777E+04  0.10991652777E+04  0.00000000000E+00 0. -1.
         -3   -1    0    0    0  501 -0.00000000000E+00 -0.00000000000E+00 -0.90640702832E+02  0.90640702832E+02  0.00000000000E+00 0.  1.
          6    1    1    2  502    0 -0.92616212542E+02  0.93887863987E+02  0.93673846076E+03  0.96148616095E+03  0.17200000000E+03 0. -1.
         -6    1    1    2    0  501  0.92616212542E+02 -0.93887863987E+02  0.71786114089E+02  0.22831981956E+03  0.17200000000E+03 0.  1.
</event>
<event>
 4    1  0.3115421E-002  0.1764112E+03  0.7818608E-02  0.1171322E+00
         -3   -1    0    0    0  501 -0.00000000000E+00  0.00000000000E+00  0.21645923274E+03  0.21645923274E+03  0.00000000000E+00 0.  1.
          3   -1    0    0  502    0  0.00000000000E+00 -0.00000000000E+00 -0.18016090848E+03  0.18016090848E+03  0.00000000000E+00 0. -1.
          6    1    1    2  502    0 -0.31475093884E+02  0.23371408330E+02  0.10727333006E+03  0.20646663557E+03  0.17200000000E+03 0.  1.
         -6    1    1    2    0  501  0.31475093884E+02 -0.23371408330E+02 -0.70975005803E+02  0.19015350565E+03  0.17200000000E+03 0. -1.
</event>
<event>
 4    1  0.3115421E-002  0.2253040E+03  0.7818608E-02  0.1129989E+00
          1   -1    0    0  502    0  0.00000000000E+00  0.00000000000E+00  0.42317904294E+03  0.42317904294E+03  0.00000000000E+00 0. -1.
         -1   -1    0    0    0  501 -0.00000000000E+00 -0.00000000000E+00 -0.12439347338E+03  0.12439347338E+03  0.00000000000E+00 0.  1.
          6    1    1    2  502    0  0.65268027467E+02  0.13006911414E+03  0.20111695034E+03  0.30200979716E+03  0.17200000000E+03 0. -1.
         -6    1    1    2    0  501 -0.65268027467E+02 -0.13006911414E+03  0.97668619211E+02  0.24556271916E+03  0.17200000000E+03 0.  1.
</event>
<event>
 4    1  0.3115421E-002  0.1965770E+03  0.7818608E-02  0.1152660E+00
         -2   -1    0    0    0  501 -0.00000000000E+00  0.00000000000E+00  0.24558239765E+02  0.24558239765E+02  0.00000000000E+00 0.  1.
          2   -1    0    0  502    0  0.00000000000E+00 -0.00000000000E+00 -0.15792930101E+04  0.15792930101E+04  0.00000000000E+00 0. -1.
          6    1    1    2  502    0 -0.86459554505E+02 -0.39790150058E+02 -0.72881940974E+03  0.75486438690E+03  0.17200000000E+03 0. -1.
         -6    1    1    2    0  501  0.86459554505E+02  0.39790150058E+02 -0.82591536056E+03  0.84898686292E+03  0.17200000000E+03 0. -1.
</event>
<event>
 4    1  0.3115421E-002  0.2024018E+03  0.7818608E-02  0.1147728E+00
          1   -1    0    0  502    0  0.00000000000E+00  0.00000000000E+00  0.12450929931E+04  0.12450929931E+04  0.00000000000E+00 0. -1.
         -1   -1    0    0    0  501 -0.00000000000E+00 -0.00000000000E+00 -0.62405598669E+02  0.62405598669E+02  0.00000000000E+00 0.  1.
          6    1    1    2  502    0 -0.10510425908E+03  0.18318600038E+02  0.10408485976E+04  0.10603453586E+04  0.17200000000E+03 0. -1.
         -6    1    1    2    0  501  0.10510425908E+03 -0.18318600038E+02  0.14183879685E+03  0.24715323319E+03  0.17200000000E+03 0.  1.
</event>
<event>
 4    1  0.3115421E-002  0.2388198E+03  0.7818608E-02  0.1120582E+00
          2   -1    0    0  502    0  0.00000000000E+00  0.00000000000E+00  0.18373083775E+04  0.18373083775E+04  0.00000000000E+00 0. -1.
         -2   -1    0    0    0  501 -0.00000000000E+00 -0.00000000000E+00 -0.34981239370E+02  0.34981239370E+02  0.00000000000E+00 0.  1.
          6    1    1    2  502    0  0.12321284415E+03 -0.11076769457E+03  0.12152844473E+04  0.12385278257E+04  0.17200000000E+03 0. -1.
         -6    1    1    2    0  501 -0.12321284415E+03  0.11076769457E+03  0.58704269086E+03  0.63376179123E+03  0.17200000000E+03 0.  1.
</event>
<event>
 4    1  0.3115421E-002  0.3552167E+03  0.7818608E-02  0.1060494E+00
         -1   -1    0    0    0  501 -0.00000000000E+00  0.00000000000E+00  0.54051514607E+03  0.54051514607E+03  0.00000000000E+00 0.  1.
          1   -1    0    0  502    0  0.00000000000E+00 -0.00000000000E+00 -0.36068969933E+03  0.36068969933E+03  0.00000000000E+00 0. -1.
          6    1    1    2  502    0 -0.23805582514E+03 -0.19981081243E+03 -0.17772764702E+03  0.39719775070E+03  0.17200000000E+03 0. -1.
         -6    1    1    2    0  501  0.23805582514E+03  0.19981081243E+03  0.35755309376E+03  0.50400709470E+03  0.17200000000E+03 0.  1.
</event>
<event>
 4    1  0.3115421E-002  0.2113171E+03  0.7818608E-02  0.1140527E+00
         -1   -1    0    0    0  501 -0.00000000000E+00  0.00000000000E+00  0.16473950150E+03  0.16473950150E+03  0.00000000000E+00 0.  1.
          1   -1    0    0  502    0  0.00000000000E+00 -0.00000000000E+00 -0.53230357631E+03  0.53230357631E+03  0.00000000000E+00 0. -1.
          6    1    1    2  502    0 -0.86292453815E+01 -0.12245994427E+03 -0.42793930190E+03  0.47727030909E+03  0.17200000000E+03 0. -1.
         -6    1    1    2    0  501  0.86292453815E+01  0.12245994427E+03  0.60375227082E+02  0.21977276872E+03  0.17200000000E+03 0.  1.
</event>
<event>
 4    1  0.3115421E-002  0.3272778E+03  0.7818608E-02  0.1072348E+00
         -1   -1    0    0    0  501 -0.00000000000E+00  0.00000000000E+00  0.23516393940E+03  0.23516393940E+03  0.00000000000E+00 0.  1.
          1   -1    0    0  502    0  0.00000000000E+00 -0.00000000000E+00 -0.45632745591E+03  0.45632745591E+03  0.00000000000E+00 0. -1.
          6    1    1    2  502    0 -0.25768944091E+03 -0.10546515253E+03 -0.95617739030E+02  0.34095967265E+03  0.17200000000E+03 0. -1.
         -6    1    1    2    0  501  0.25768944091E+03  0.10546515253E+03 -0.12554577748E+03  0.35053172267E+03  0.17200000000E+03 0.  1.
</event>
<event>
 4    1  0.3115421E-002  0.2189211E+03  0.7818608E-02  0.1134690E+00
         -1   -1    0    0    0  501 -0.00000000000E+00  0.00000000000E+00  0.82591077977E+03  0.82591077977E+03  0.00000000000E+00 0.  1.
          1   -1    0    0  502    0  0.00000000000E+00 -0.00000000000E+00 -0.64962677115E+02  0.64962677115E+02  0.00000000000E+00 0. -1.
          6    1    1    2  502    0  0.13501995163E+03  0.10585240147E+02  0.52600281554E+03  0.56974151736E+03  0.17200000000E+03 0.  1.
         -6    1    1    2    0  501 -0.13501995163E+03 -0.10585240147E+02  0.23494528712E+03  0.32113193953E+03  0.17200000000E+03 0. -1.
</event>
<event>
 4    1  0.3115421E-002  0.2561512E+03  0.7818608E-02  0.1109478E+00
          1   -1    0    0  502    0  0.00000000000E+00  0.00000000000E+00  0.18857535583E+03  0.18857535583E+03  0.00000000000E+00 0. -1.
         -1   -1    0    0    0  501 -0.00000000000E+00 -0.00000000000E+00 -0.66128816757E+03  0.66128816757E+03  0.00000000000E+00 0.  1.
          6    1    1    2  502    0  0.61406616786E+02 -0.17960693729E+03  0.56150082621E+02  0.26223320973E+03  0.17200000000E+03 0. -1.
         -6    1    1    2    0  501 -0.61406616786E+02  0.17960693729E+03 -0.52886289437E+03  0.58763031367E+03  0.17200000000E+03 0.  1.
</event>
<event>
 4    1  0.3115421E-002  0.1856360E+03  0.7818608E-02  0.1162457E+00
          1   -1    0    0  502    0  0.00000000000E+00  0.00000000000E+00  0.18358508645E+04  0.18358508645E+04  0.00000000000E+00 0. -1.
         -1   -1    0    0    0  501 -0.00000000000E+00 -0.00000000000E+00 -0.21368559326E+02  0.21368559326E+02  0.00000000000E+00 0.  1.
          6    1    1    2  502    0 -0.66787146461E+02 -0.20401269437E+02  0.58347657439E+03  0.61229539242E+03  0.17200000000E+03 0.  1.
         -6    1    1    2    0  501  0.66787146461E+02  0.20401269437E+02  0.12310057308E+04  0.12449240314E+04  0.17200000000E+03 0.  1.
</event>
<event>
 4    1  0.3115421E-002  0.1931114E+03  0.7818608E-02  0.1155685E+00
          1   -1    0    0  502    0  0.00000000000E+00  0.00000000000E+00  0.74681458312E+02  0.74681458312E+02  0.00000000000E+00 0. -1.
         -1   -1    0    0    0  501 -0.00000000000E+00 -0.00000000000E+00 -0.50082521418E+03  0.50082521418E+03  0.00000000000E+00 0.  1.
          6    1    1    2  502    0  0.87647569043E+02 -0.50917866802E+01 -0.22870072519E+03  0.29932598342E+03  0.17200000000E+03 0. -1.
         -6    1    1    2    0  501 -0.87647569043E+02  0.50917866802E+01 -0.19744303068E+03  0.27618068907E+03  0.17200000000E+03 0.  1.
</event>
<event>
 4    1  0.3115421E-002  0.1823425E+03  0.7818608E-02  0.1165555E+00
         -1   -1    0    0    0  501 -0.00000000000E+00  0.00000000000E+00  0.31280969801E+02  0.31280969801E+02  0.00000000000E+00 0.  1.
          1   -1    0    0  502    0  0.00000000000E+00 -0.00000000000E+00 -0.10692435951E+04  0.10692435951E+04  0.00000000000E+00 0. -1.
          6    1    1    2  502    0 -0.50073885634E+02 -0.34020274323E+02 -0.56134043913E+03  0.59021340352E+03  0.17200000000E+03 0. -1.
         -6    1    1    2    0  501  0.50073885634E+02  0.34020274323E+02 -0.47662218619E+03  0.51031116141E+03  0.17200000000E+03 0.  1.
</event>
<event>
 4    1  0.3115421E-002  0.2231612E+03  0.7818608E-02  0.1131548E+00
         -2   -1    0    0    0  501 -0.00000000000E+00  0.00000000000E+00  0.34921327499E+02  0.34921327499E+02  0.00000000000E+00 0.  1.
          2   -1    0    0  502    0  0.00000000000E+00 -0.00000000000E+00 -0.14492238745E+04  0.14492238745E+04  0.00000000000E+00 0. -1.
          6    1    1    2  502    0 -0.14216377186E+03  0.25279729860E+01 -0.61339287718E+03  0.65272639785E+03  0.17200000000E+03 0.  1.
         -6    1    1    2    0  501  0.14216377186E+03 -0.25279729860E+01 -0.80090966983E+03  0.83141880415E+03  0.17200000000E+03 0. -1.
</event>
<event>
 4    1  0.3115421E-002  0.2196062E+03  0.7818608E-02  0.1134177E+00
         -1   -1    0    0    0  501 -0.00000000000E+00  0.00000000000E+00  0.62818623150E+03  0.62818623150E+03  0.00000000000E+00 0.  1.
          1   -1    0    0  502    0  0.00000000000E+00 -0.00000000000E+00 -0.78413565286E+02  0.78413565286E+02  0.00000000000E+00 0. -1.
          6    1    1    2  502    0 -0.73196522422E+02 -0.11526127793E+03  0.32601016200E+03  0.39307698840E+03  0.17200000000E+03 0. -1.
         -6    1    1    2    0  501  0.73196522422E+02  0.11526127793E+03  0.22376250422E+03  0.31352280838E+03  0.17200000000E+03 0.  1.
</event>
<event>
 4    1  0.3115421E-002  0.3554959E+03  0.7818608E-02  0.1060382E+00
          2   -1    0    0  502    0  0.00000000000E+00  0.00000000000E+00  0.10851413567E+04  0.10851413567E+04  0.00000000000E+00 0. -1.
         -2   -1    0    0    0  501 -0.00000000000E+00 -0.00000000000E+00 -0.19570538965E+03  0.19570538965E+03  0.00000000000E+00 0.  1.
          6    1    1    2  502    0  0.28143738938E+03 -0.13261340532E+03  0.37198528877E+02  0.35743677758E+03  0.17200000000E+03 0. -1.
         -6    1    1    2    0  501 -0.28143738938E+03  0.13261340532E+03  0.85223743817E+03  0.92340996877E+03  0.17200000000E+03 0.  1.
</event>
<event>
 4    1  0.3115421E-002  0.3573139E+03  0.7818608E-02  0.1059653E+00
          1   -1    0    0  502    0  0.00000000000E+00  0.00000000000E+00  0.10109088427E+04  0.10109088427E+04  0.00000000000E+00 0. -1.
         -1   -1    0    0    0  501 -0.00000000000E+00 -0.00000000000E+00 -0.20138790126E+03  0.20138790126E+03  0.00000000000E+00 0.  1.
          6    1    1    2  502    0 -0.29323577141E+03  0.11000919016E+03  0.34625392329E+02  0.35898768412E+03  0.17200000000E+03 0. -1.
         -6    1    1    2    0  501  0.29323577141E+03 -0.11000919016E+03  0.77489554912E+03  0.85330905984E+03  0.17200000000E+03 0. -1.
</event>
<event>
 4    1  0.3115421E-002  0.2571027E+03  0.7818608E-02  0.1108897E+00
         -2   -1    0    0    0  501 -0.00000000000E+00  0.00000000000E+00  0.15367980626E+04  0.15367980626E+04  0.00000000000E+00 0.  1.
          2   -1    0    0  502    0  0.00000000000E+00 -0.00000000000E+00 -0.52479997308E+02  0.52479997308E+02  0.00000000000E+00 0. -1.
          6    1    1    2  502    0 -0.43466990075E+02  0.18608712450E+03  0.10796689580E+04  0.11098589352E+04  0.17200000000E+03 0.  1.
         -6    1    1    2    0  501  0.43466990075E+02 -0.18608712450E+03  0.40464910735E+03  0.47941912478E+03  0.17200000000E+03 0. -1.
</event>
<event>
 4    1  0.3115421E-002  0.2275345E+03  0.7818608E-02  0.1128387E+00
          1   -1    0    0  502    0  0.00000000000E+00  0.00000000000E+00  0.39166370973E+03  0.39166370973E+03  0.00000000000E+00 0. -1.
         -1   -1    0    0    0  501 -0.00000000000E+00 -0.00000000000E+00 -0.21521402322E+03  0.21521402322E+03  0.00000000000E+00 0.  1.
          6    1    1    2  502    0 -0.55070579100E+02 -0.13840231507E+03 -0.10024919799E+03  0.24864004343E+03  0.17200000000E+03 0. -1.
         -6    1    1    2    0  501  0.55070579100E+02  0.13840231507E+03  0.27669888451E+03  0.35823768951E+03  0.17200000000E+03 0. -1.
</event>
<event>
 4    1  0.3115421E-002  0.2055901E+03  0.7818608E-02  0.1145107E+00
         -1   -1    0    0    0  501 -0.00000000000E+00  0.00000000000E+00  0.90214946007E+03  0.90214946007E+03  0.00000000000E+00 0.  1.
          1   -1    0    0  502    0  0.00000000000E+00 -0.00000000000E+00 -0.95871205280E+02  0.95871205280E+02  0.00000000000E+00 0. -1.
          6    1    1    2  502    0  0.10955309141E+03 -0.26103453364E+02  0.46318675864E+02  0.21074318459E+03  0.17200000000E+03 0. -1.
         -6    1    1    2    0  501 -0.10955309141E+03  0.26103453364E+02  0.75995957893E+03  0.78727748077E+03  0.17200000000E+03 0.  1.
</event>
<event>
 4    1  0.3115421E-002  0.2407465E+03  0.7818608E-02  0.1119297E+00
         -2   -1    0    0    0  501 -0.00000000000E+00  0.00000000000E+00  0.10842659360E+03  0.10842659360E+03  0.00000000000E+00 0.  1.
          2   -1    0    0  502    0  0.00000000000E+00 -0.00000000000E+00 -0.61884762529E+03  0.61884762529E+03  0.00000000000E+00 0. -1.
          6    1    1    2  502    0 -0.97471189512E+02 -0.13738351140E+03 -0.12099657446E+03  0.26944207730E+03  0.17200000000E+03 0. -1.
         -6    1    1    2    0  501  0.97471189512E+02  0.13738351140E+03 -0.38942445722E+03  0.45783214159E+03  0.17200000000E+03 0.  1.
</event>
<event>
 4    1  0.3115421E-002  0.3313749E+03  0.7818608E-02  0.1070530E+00
         -2   -1    0    0    0  501 -0.00000000000E+00  0.00000000000E+00  0.98306570748E+03  0.98306570748E+03  0.00000000000E+00 0.  1.
          2   -1    0    0  502    0  0.00000000000E+00 -0.00000000000E+00 -0.15979333180E+03  0.15979333180E+03  0.00000000000E+00 0. -1.
          6    1    1    2  502    0 -0.20000855082E+03 -0.20055396230E+03  0.98147574902E+02  0.34560419363E+03  0.17200000000E+03 0. -1.
         -6    1    1    2    0  501  0.20000855082E+03  0.20055396230E+03  0.72512480078E+03  0.79725484565E+03  0.17200000000E+03 0.  1.
</event>
<event>
 4    1  0.3115421E-002  0.3019191E+03  0.7818608E-02  0.1084285E+00
         -1   -1    0    0    0  501 -0.00000000000E+00  0.00000000000E+00  0.52523984959E+03  0.52523984959E+03  0.00000000000E+00 0.  1.
          1   -1    0    0  502    0  0.00000000000E+00 -0.00000000000E+00 -0.15648317650E+04  0.15648317650E+04  0.00000000000E+00 0. -1.
          6    1    1    2  502    0 -0.18331351017E+03  0.16723420630E+03 -0.15051787331E+04  0.15351606239E+04  0.17200000000E+03 0. -1.
         -6    1    1    2    0  501  0.18331351017E+03 -0.16723420630E+03  0.46558681767E+03  0.55491099066E+03  0.17200000000E+03 0.  1.
</event>
<event>
 4    1  0.3115421E-002  0.2067123E+03  0.7818608E-02  0.1144196E+00
          1   -1    0    0  502    0  0.00000000000E+00  0.00000000000E+00  0.19344457480E+04  0.19344457480E+04  0.00000000000E+00 0. -1.
         -1   -1    0    0    0  501 -0.00000000000E+00 -0.00000000000E+00 -0.22146741907E+02  0.22146741907E+02  0.00000000000E+00 0.  1.
          6    1    1    2  502    0  0.50932988080E+02  0.10272192077E+03  0.90619436442E+03  0.92947199440E+03  0.17200000000E+03 0.  1.
         -6    1    1    2    0  501 -0.50932988080E+02 -0.10272192077E+03  0.10061046417E+04  0.10271204955E+04  0.17200000000E+03 0. -1.
</event>
<event>
 4    1  0.3115421E-002  0.3359499E+03  0.7818608E-02  0.1068534E+00
         -2   -1    0    0    0  501 -0.00000000000E+00  0.00000000000E+00  0.40919735364E+03  0.40919735364E+03  0.00000000000E+00 0.  1.
          2   -1    0    0  502    0  0.00000000000E+00 -0.00000000000E+00 -0.30080546123E+03  0.30080546123E+03  0.00000000000E+00 0. -1.
          6    1    1    2  502    0  0.83894194855E+02 -0.27611604104E+03 -0.48129631665E+02  0.33937997215E+03  0.17200000000E+03 0. -1.
         -6    1    1    2    0  501 -0.83894194855E+02  0.27611604104E+03  0.15652152408E+03  0.37062284273E+03  0.17200000000E+03 0.  1.
</event>
<event>
 4    1  0.3115421E-002  0.2475853E+03  0.7818608E-02  0.1114840E+00
          2   -1    0    0  502    0  0.00000000000E+00  0.00000000000E+00  0.83122229445E+03  0.83122229445E+03  0.00000000000E+00 0. -1.
         -2   -1    0    0    0  501 -0.00000000000E+00 -0.00000000000E+00 -0.12128988523E+03  0.12128988523E+03  0.00000000000E+00 0.  1.
          6    1    1    2  502    0  0.15520433536E+03 -0.87327606921E+02  0.65314729889E+03  0.69849831116E+03  0.17200000000E+03 0. -1.
         -6    1    1    2    0  501 -0.15520433536E+03  0.87327606921E+02  0.56785110333E+02  0.25401386852E+03  0.17200000000E+03 0.  1.
</event>
<event>
 4    1  0.3115421E-002  0.2252768E+03  0.7818608E-02  0.1130009E+00
         -2   -1    0    0    0  501 -0.00000000000E+00  0.00000000000E+00  0.57181385393E+02  0.57181385393E+02  0.00000000000E+00 0.  1.
          2   -1    0    0  502    0  0.00000000000E+00 -0.00000000000E+00 -0.10613526493E+04  0.10613526493E+04  0.00000000000E+00 0. -1.
          6    1    1    2  502    0  0.11079883014E+02 -0.14506164466E+03 -0.72842211360E+03  0.76246207784E+03  0.17200000000E+03 0.  1.
         -6    1    1    2    0  501 -0.11079883014E+02  0.14506164466E+03 -0.27574915028E+03  0.35607195683E+03  0.17200000000E+03 0.  1.
</event>
<event>
 4    1  0.3115421E-002  0.3907002E+03  0.7818608E-02  0.1047048E+00
         -2   -1    0    0    0  501 -0.00000000000E+00  0.00000000000E+00  0.20999785157E+03  0.20999785157E+03  0.00000000000E+00 0.  1.
          2   -1    0    0  502    0  0.00000000000E+00 -0.00000000000E+00 -0.99157645552E+03  0.99157645552E+03  0.00000000000E+00 0. -1.
          6    1    1    2  502    0 -0.33465024656E+03 -0.10522279380E+03 -0.70118691408E+03  0.80268905084E+03  0.17200000000E+03 0. -1.
         -6    1    1    2    0  501  0.33465024656E+03  0.10522279380E+03 -0.80391689865E+02  0.39888525626E+03  0.17200000000E+03 0.  1.
</event>
<event>
 4    1  0.3115421E-002  0.5853977E+03  0.7818608E-02  0.9936173E-01
          1   -1    0    0  502    0  0.00000000000E+00  0.00000000000E+00  0.16859631313E+04  0.16859631313E+04  0.00000000000E+00 0. -1.
         -1   -1    0    0    0  501 -0.00000000000E+00 -0.00000000000E+00 -0.33229521228E+03  0.33229521228E+03  0.00000000000E+00 0.  1.
          6    1    1    2  502    0  0.21076301734E+03 -0.51834874356E+03  0.13056697312E+04  0.14308961934E+04  0.17200000000E+03 0. -1.
         -6    1    1    2    0  501 -0.21076301734E+03  0.51834874356E+03  0.47998187865E+02  0.58736215018E+03  0.17200000000E+03 0.  1.
</event>
<event>
 4    1  0.3115421E-002  0.2039928E+03  0.7818608E-02  0.1146413E+00
         -1   -1    0    0    0  501 -0.00000000000E+00  0.00000000000E+00  0.44010801404E+03  0.44010801404E+03  0.00000000000E+00 0.  1.
          1   -1    0    0  502    0  0.00000000000E+00 -0.00000000000E+00 -0.11627288591E+03  0.11627288591E+03  0.00000000000E+00 0. -1.
          6    1    1    2  502    0  0.47683793411E+02  0.98769043110E+02  0.41679403355E+02  0.20820720616E+03  0.17200000000E+03 0. -1.
         -6    1    1    2    0  501 -0.47683793411E+02 -0.98769043110E+02  0.28215572477E+03  0.34817369380E+03  0.17200000000E+03 0.  1.
</event>
<event>
 4    1  0.3115421E-002  0.2224800E+03  0.7818608E-02  0.1132048E+00
         -2   -1    0    0    0  501 -0.00000000000E+00  0.00000000000E+00  0.32416398957E+02  0.32416398957E+02  0.00000000000E+00 0.  1.
          2   -1    0    0  502    0  0.00000000000E+00 -0.00000000000E+00 -0.17406093633E+04  0.17406093633E+04  0.00000000000E+00 0. -1.
          6    1    1    2  502    0 -0.10377039333E+03 -0.95629735522E+02 -0.54348111976E+03  0.58725553926E+03  0.17200000000E+03 0. -1.
         -6    1    1    2    0  501  0.10377039333E+03  0.95629735522E+02 -0.11647118446E+04  0.11857702230E+04  0.17200000000E+03 0.  1.
</event>
<event>
 4    1  0.3115421E-002  0.2345457E+03  0.7818608E-02  0.1123481E+00
          2   -1    0    0  502    0  0.00000000000E+00  0.00000000000E+00  0.30747877483E+04  0.30747877483E+04  0.00000000000E+00 0. -1.
         -2   -1    0    0    0  501 -0.00000000000E+00 -0.00000000000E+00 -0.17910937401E+02  0.17910937401E+02  0.00000000000E+00 0.  1.
          6    1    1    2  502    0 -0.42625188607E+02  0.15365805082E+03  0.15797453391E+04  0.15970620024E+04  0.17200000000E+03 0.  1.
         -6    1    1    2    0  501  0.42625188607E+02 -0.15365805082E+03  0.14771314718E+04  0.14956366833E+04  0.17200000000E+03 0.  1.
</event>
<event>
 4    1  0.3115421E-002  0.1975820E+03  0.7818608E-02  0.1151795E+00
          2   -1    0    0  502    0  0.00000000000E+00  0.00000000000E+00  0.14442444360E+03  0.14442444360E+03  0.00000000000E+00 0. -1.
         -2   -1    0    0    0  501 -0.00000000000E+00 -0.00000000000E+00 -0.80711179414E+03  0.80711179414E+03  0.00000000000E+00 0.  1.
          6    1    1    2  502    0  0.62162676393E+02 -0.74769228485E+02  0.56661509768E+02  0.20554601079E+03  0.17200000000E+03 0. -1.
         -6    1    1    2    0  501 -0.62162676393E+02  0.74769228485E+02 -0.71934886031E+03  0.74599022694E+03  0.17200000000E+03 0.  1.
</event>
<event>
 4    1  0.3115421E-002  0.1872689E+03  0.7818608E-02  0.1160948E+00
          1   -1    0    0  502    0  0.00000000000E+00  0.00000000000E+00  0.79497328351E+03  0.79497328351E+03  0.00000000000E+00 0. -1.
         -1   -1    0    0    0  501 -0.00000000000E+00 -0.00000000000E+00 -0.60010304216E+02  0.60010304216E+02  0.00000000000E+00 0.  1.
          6    1    1    2  502    0  0.65773109833E+02 -0.34051898457E+02  0.58750030290E+03  0.61662487759E+03  0.17200000000E+03 0. -1.
         -6    1    1    2    0  501 -0.65773109833E+02  0.34051898457E+02  0.14746267640E+03  0.23835871013E+03  0.17200000000E+03 0.  1.
</event>
<event>
 4    1  0.3115421E-002  0.1807404E+03  0.7818608E-02  0.1167088E+00
          2   -1    0    0  502    0  0.00000000000E+00  0.00000000000E+00  0.78914870811E+02  0.78914870811E+02  0.00000000000E+00 0. -1.
         -2   -1    0    0    0  501 -0.00000000000E+00 -0.00000000000E+00 -0.41733030286E+03  0.41733030286E+03  0.00000000000E+00 0.  1.
          6    1    1    2  502    0 -0.45628164006E+02  0.31640919342E+02 -0.14688807440E+03  0.23290166064E+03  0.17200000000E+03 0. -1.
         -6    1    1    2    0  501  0.45628164006E+02 -0.31640919342E+02 -0.19152735764E+03  0.26334351303E+03  0.17200000000E+03 0.  1.
</event>
<event>
 4    1  0.3115421E-002  0.2716322E+03  0.7818608E-02  0.1100349E+00
         -1   -1    0    0    0  501 -0.00000000000E+00  0.00000000000E+00  0.45843112102E+03  0.45843112102E+03  0.00000000000E+00 0.  1.
          1   -1    0    0  502    0  0.00000000000E+00 -0.00000000000E+00 -0.16096519433E+03  0.16096519433E+03  0.00000000000E+00 0. -1.
          6    1    1    2  502    0  0.14676154898E+03 -0.15053601924E+03  0.14562969479E+03  0.30820780871E+03  0.17200000000E+03 0. -1.
         -6    1    1    2    0  501 -0.14676154898E+03  0.15053601924E+03  0.15183623189E+03  0.31118850664E+03  0.17200000000E+03 0.  1.
</event>
<event>
 4    1  0.3115421E-002  0.2188132E+03  0.7818608E-02  0.1134771E+00
          2   -1    0    0  502    0  0.00000000000E+00  0.00000000000E+00  0.94949147695E+03  0.94949147695E+03  0.00000000000E+00 0. -1.
         -2   -1    0    0    0  501 -0.00000000000E+00 -0.00000000000E+00 -0.75831842438E+02  0.75831842438E+02  0.00000000000E+00 0.  1.
          6    1    1    2  502    0  0.12711877820E+03 -0.46217294121E+02  0.73356589483E+03  0.76550515616E+03  0.17200000000E+03 0. -1.
         -6    1    1    2    0  501 -0.12711877820E+03  0.46217294121E+02  0.14009373968E+03  0.25981816323E+03  0.17200000000E+03 0.  1.
</event>
<event>
 4    1  0.3115421E-002  0.1838337E+03  0.7818608E-02  0.1164144E+00
         -2   -1    0    0    0  501 -0.00000000000E+00  0.00000000000E+00  0.10323625735E+03  0.10323625735E+03  0.00000000000E+00 0.  1.
          2   -1    0    0  502    0  0.00000000000E+00 -0.00000000000E+00 -0.90394797907E+03  0.90394797907E+03  0.00000000000E+00 0. -1.
          6    1    1    2  502    0  0.15302550178E+02 -0.63060707983E+02 -0.80255597259E+03  0.82334130837E+03  0.17200000000E+03 0. -1.
         -6    1    1    2    0  501 -0.15302550178E+02  0.63060707983E+02  0.18442508614E+01  0.18384292805E+03  0.17200000000E+03 0.  1.
</event>
<event>
 4    1  0.3115421E-002  0.7917096E+03  0.7818608E-02  0.9572095E-01
         -1   -1    0    0    0  501 -0.00000000000E+00  0.00000000000E+00  0.65926453475E+03  0.65926453475E+03  0.00000000000E+00 0.  1.
          1   -1    0    0  502    0  0.00000000000E+00 -0.00000000000E+00 -0.16415001104E+04  0.16415001104E+04  0.00000000000E+00 0. -1.
          6    1    1    2  502    0  0.34022119841E+03  0.69388007016E+03 -0.12373573756E+04  0.14689647002E+04  0.17200000000E+03 0. -1.
         -6    1    1    2    0  501 -0.34022119841E+03 -0.69388007016E+03  0.25512179990E+03  0.83179994494E+03  0.17200000000E+03 0.  1.
</event>
<event>
 4    1  0.3115421E-002  0.2606988E+03  0.7818608E-02  0.1106724E+00
          2   -1    0    0  502    0  0.00000000000E+00  0.00000000000E+00  0.10986483852E+03  0.10986483852E+03  0.00000000000E+00 0. -1.
         -2   -1    0    0    0  501 -0.00000000000E+00 -0.00000000000E+00 -0.62329265708E+03  0.62329265708E+03  0.00000000000E+00 0.  1.
          6    1    1    2  502    0 -0.17912088031E+03  0.79344517036E+02 -0.28847663906E+03  0.38882208454E+03  0.17200000000E+03 0.  1.
         -6    1    1    2    0  501  0.17912088031E+03 -0.79344517036E+02 -0.22495117950E+03  0.34433541105E+03  0.17200000000E+03 0. -1.
</event>
<event>
 4    1  0.3115421E-002  0.2941591E+03  0.7818608E-02  0.1088197E+00
         -3   -1    0    0    0  501 -0.00000000000E+00  0.00000000000E+00  0.71554272844E+02  0.71554272844E+02  0.00000000000E+00 0.  1.
          3   -1    0    0  502    0  0.00000000000E+00 -0.00000000000E+00 -0.12094086759E+04  0.12094086759E+04  0.00000000000E+00 0. -1.
          6    1    1    2  502    0 -0.23447578625E+03 -0.44347332797E+02 -0.56247656263E+03  0.63475149765E+03  0.17200000000E+03 0. -1.
         -6    1    1    2    0  501  0.23447578625E+03  0.44347332797E+02 -0.57537784040E+03  0.64621145107E+03  0.17200000000E+03 0. -1.
</event>
<event>
 4    1  0.3115421E-002  0.6989862E+03  0.7818608E-02  0.9718968E-01
         -2   -1    0    0    0  501 -0.00000000000E+00  0.00000000000E+00  0.74849292939E+03  0.74849292939E+03  0.00000000000E+00 0.  1.
          2   -1    0    0  502    0  0.00000000000E+00 -0.00000000000E+00 -0.80125089769E+03  0.80125089769E+03  0.00000000000E+00 0. -1.
          6    1    1    2  502    0  0.39781255904E+03  0.54840023311E+03 -0.35996247725E+03  0.78622810483E+03  0.17200000000E+03 0. -1.
         -6    1    1    2    0  501 -0.39781255904E+03 -0.54840023311E+03  0.30720450895E+03  0.76351572225E+03  0.17200000000E+03 0.  1.
</event>
<event>
 4    1  0.3115421E-002  0.2745724E+03  0.7818608E-02  0.1098691E+00
         -2   -1    0    0    0  501 -0.00000000000E+00  0.00000000000E+00  0.22060492926E+02  0.22060492926E+02  0.00000000000E+00 0.  1.
          2   -1    0    0  502    0  0.00000000000E+00 -0.00000000000E+00 -0.35403997387E+04  0.35403997387E+04  0.00000000000E+00 0. -1.
          6    1    1    2  502    0  0.15566980618E+03  0.14687726025E+03 -0.20911456996E+04  0.21090946766E+04  0.17200000000E+03 0. -1.
         -6    1    1    2    0  501 -0.15566980618E+03 -0.14687726025E+03 -0.14271935462E+04  0.14533655550E+04  0.17200000000E+03 0.  1.
</event>
<event>
 4    1  0.3115421E-002  0.3892184E+03  0.7818608E-02  0.1047578E+00
          2   -1    0    0  502    0  0.00000000000E+00  0.00000000000E+00  0.26789061872E+04  0.26789061872E+04  0.00000000000E+00 0. -1.
         -2   -1    0    0    0  501 -0.00000000000E+00 -0.00000000000E+00 -0.69706215567E+02  0.69706215567E+02  0.00000000000E+00 0.  1.
          6    1    1    2  502    0  0.21894778547E+03  0.27197210129E+03  0.19016635443E+04  0.19410860857E+04  0.17200000000E+03 0. -1.
         -6    1    1    2    0  501 -0.21894778547E+03 -0.27197210129E+03  0.70753642736E+03  0.80752631702E+03  0.17200000000E+03 0.  1.
</event>
<event>
 4    1  0.3115421E-002  0.1834055E+03  0.7818608E-02  0.1164547E+00
         -2   -1    0    0    0  501 -0.00000000000E+00  0.00000000000E+00  0.80168413700E+02  0.80168413700E+02  0.00000000000E+00 0.  1.
          2   -1    0    0  502    0  0.00000000000E+00 -0.00000000000E+00 -0.86261671699E+03  0.86261671699E+03  0.00000000000E+00 0. -1.
          6    1    1    2  502    0  0.33738797789E+02  0.53993350112E+02 -0.72904810660E+03  0.75176374618E+03  0.17200000000E+03 0. -1.
         -6    1    1    2    0  501 -0.33738797789E+02 -0.53993350112E+02 -0.53400196685E+02  0.19102138451E+03  0.17200000000E+03 0.  1.
</event>
<event>
 4    1  0.3115421E-002  0.2872867E+03  0.7818608E-02  0.1091774E+00
         -2   -1    0    0    0  501 -0.00000000000E+00  0.00000000000E+00  0.27800472041E+03  0.27800472041E+03  0.00000000000E+00 0.  1.
          2   -1    0    0  502    0  0.00000000000E+00 -0.00000000000E+00 -0.11778333061E+04  0.11778333061E+04  0.00000000000E+00 0. -1.
          6    1    1    2  502    0 -0.22348738218E+03 -0.54799932722E+02 -0.10794464893E+04  0.11170220973E+04  0.17200000000E+03 0. -1.
         -6    1    1    2    0  501  0.22348738218E+03  0.54799932722E+02  0.17961790357E+03  0.33881592923E+03  0.17200000000E+03 0.  1.
</event>
<event>
 4    1  0.3115421E-002  0.1899923E+03  0.7818608E-02  0.1158468E+00
         -2   -1    0    0    0  501 -0.00000000000E+00  0.00000000000E+00  0.15321379103E+02  0.15321379103E+02  0.00000000000E+00 0.  1.
          2   -1    0    0  502    0  0.00000000000E+00 -0.00000000000E+00 -0.25590374275E+04  0.25590374275E+04  0.00000000000E+00 0. -1.
          6    1    1    2  502    0  0.10964682821E+02  0.79955385857E+02 -0.90928584239E+03  0.92892294146E+03  0.17200000000E+03 0. -1.
         -6    1    1    2    0  501 -0.10964682821E+02 -0.79955385857E+02 -0.16344302060E+04  0.16454358652E+04  0.17200000000E+03 0.  1.
</event>
<event>
 4    1  0.3115421E-002  0.3307954E+03  0.7818608E-02  0.1070785E+00
          2   -1    0    0  502    0  0.00000000000E+00  0.00000000000E+00  0.31600714717E+04  0.31600714717E+04  0.00000000000E+00 0. -1.
         -2   -1    0    0    0  501 -0.00000000000E+00 -0.00000000000E+00 -0.50238090310E+02  0.50238090310E+02  0.00000000000E+00 0.  1.
          6    1    1    2  502    0  0.11259999853E+03  0.25915796719E+03  0.24496816676E+04  0.24719154282E+04  0.17200000000E+03 0. -1.
         -6    1    1    2    0  501 -0.11259999853E+03 -0.25915796719E+03  0.66015171385E+03  0.73839413387E+03  0.17200000000E+03 0.  1.
</event>
<event>
 4    1  0.3115421E-002  0.4356202E+03  0.7818608E-02  0.1032099E+00
          1   -1    0    0  502    0  0.00000000000E+00  0.00000000000E+00  0.26208924699E+03  0.26208924699E+03  0.00000000000E+00 0. -1.
         -1   -1    0    0    0  501 -0.00000000000E+00 -0.00000000000E+00 -0.72463198429E+03  0.72463198429E+03  0.00000000000E+00 0.  1.
          6    1    1    2  502    0 -0.24651979594E+03 -0.31529183914E+03 -0.24528816128E+03  0.49993123095E+03  0.17200000000E+03 0. -1.
         -6    1    1    2    0  501  0.24651979594E+03  0.31529183914E+03 -0.21725457602E+03  0.48679000033E+03  0.17200000000E+03 0.  1.
</event>
<event>
 4    1  0.3115421E-002  0.1881850E+03  0.7818608E-02  0.1160109E+00
         -2   -1    0    0    0  501 -0.00000000000E+00  0.00000000000E+00  0.94197488402E+02  0.94197488402E+02  0.00000000000E+00 0.  1.
          2   -1    0    0  502    0  0.00000000000E+00 -0.00000000000E+00 -0.37732582672E+03  0.37732582672E+03  0.00000000000E+00 0. -1.
          6    1    1    2  502    0  0.50819733394E+02 -0.56981872886E+02 -0.12732971391E+03  0.22721451359E+03  0.17200000000E+03 0. -1.
         -6    1    1    2    0  501 -0.50819733394E+02  0.56981872886E+02 -0.15579862441E+03  0.24430880153E+03  0.17200000000E+03 0.  1.
</event>
<event>
 4    1  0.3115421E-002  0.1902452E+03  0.7818608E-02  0.1158240E+00
          1   -1    0    0  502    0  0.00000000000E+00  0.00000000000E+00  0.42940460152E+03  0.42940460152E+03  0.00000000000E+00 0. -1.
         -1   -1    0    0    0  501 -0.00000000000E+00 -0.00000000000E+00 -0.84524171676E+02  0.84524171676E+02  0.00000000000E+00 0.  1.
          6    1    1    2  502    0 -0.14452096741E+02 -0.80002446233E+02  0.18605003406E+03  0.26609748153E+03  0.17200000000E+03 0. -1.
         -6    1    1    2    0  501  0.14452096741E+02  0.80002446233E+02  0.15883039579E+03  0.24783129167E+03  0.17200000000E+03 0.  1.
</event>
<event>
 4    1  0.3115421E-002  0.1784758E+03  0.7818608E-02  0.1169286E+00
         -1   -1    0    0    0  501 -0.00000000000E+00  0.00000000000E+00  0.30835645513E+02  0.30835645513E+02  0.00000000000E+00 0.  1.
          1   -1    0    0  502    0  0.00000000000E+00 -0.00000000000E+00 -0.10333734692E+04  0.10333734692E+04  0.00000000000E+00 0. -1.
          6    1    1    2  502    0 -0.17059755273E+02  0.44481279294E+02 -0.49132939460E+03  0.52274103862E+03  0.17200000000E+03 0. -1.
         -6    1    1    2    0  501  0.17059755273E+02 -0.44481279294E+02 -0.51120842905E+03  0.54146807606E+03  0.17200000000E+03 0.  1.
</event>
<event>
 4    1  0.3115421E-002  0.2815033E+03  0.7818608E-02  0.1094871E+00
         -2   -1    0    0    0  501 -0.00000000000E+00  0.00000000000E+00  0.47652494220E+02  0.47652494220E+02  0.00000000000E+00 0.  1.
          2   -1    0    0  502    0  0.00000000000E+00 -0.00000000000E+00 -0.18332114567E+04  0.18332114567E+04  0.00000000000E+00 0. -1.
          6    1    1    2  502    0  0.22033641506E+03 -0.33346350571E+02 -0.11793744632E+04  0.12125049441E+04  0.17200000000E+03 0.  1.
         -6    1    1    2    0  501 -0.22033641506E+03  0.33346350571E+02 -0.60618449930E+03  0.66835900689E+03  0.17200000000E+03 0.  1.
</event>
<event>
 4    1  0.3115421E-002  0.2894522E+03  0.7818608E-02  0.1090635E+00
          2   -1    0    0  502    0  0.00000000000E+00  0.00000000000E+00  0.22798406748E+04  0.22798406748E+04  0.00000000000E+00 0. -1.
         -2   -1    0    0    0  501 -0.00000000000E+00 -0.00000000000E+00 -0.38042059496E+02  0.38042059496E+02  0.00000000000E+00 0.  1.
          6    1    1    2  502    0  0.15134192514E+03 -0.17690169608E+03  0.13345407073E+04  0.13655700231E+04  0.17200000000E+03 0. -1.
         -6    1    1    2    0  501 -0.15134192514E+03  0.17690169608E+03  0.90725790795E+03  0.95231271121E+03  0.17200000000E+03 0.  1.
</event>
<event>
 4    1  0.3115421E-002  0.3264874E+03  0.7818608E-02  0.1072702E+00
          2   -1    0    0  502    0  0.00000000000E+00  0.00000000000E+00  0.87792258095E+02  0.87792258095E+02  0.00000000000E+00 0. -1.
         -2   -1    0    0    0  501 -0.00000000000E+00 -0.00000000000E+00 -0.12146233944E+04  0.12146233944E+04  0.00000000000E+00 0.  1.
          6    1    1    2  502    0  0.13987669715E+03  0.23967589151E+03 -0.55072337912E+03  0.64022672834E+03  0.17200000000E+03 0. -1.
         -6    1    1    2    0  501 -0.13987669715E+03 -0.23967589151E+03 -0.57610775719E+03  0.66218892415E+03  0.17200000000E+03 0.  1.
</event>
<event>
 4    1  0.3115421E-002  0.5795071E+03  0.7818608E-02  0.9948859E-01
          2   -1    0    0  502    0  0.00000000000E+00  0.00000000000E+00  0.93550052231E+03  0.93550052231E+03  0.00000000000E+00 0. -1.
         -2   -1    0    0    0  501 -0.00000000000E+00 -0.00000000000E+00 -0.35983199539E+03  0.35983199539E+03  0.00000000000E+00 0.  1.
          6    1    1    2  502    0  0.16730291534E+03 -0.52749802460E+03  0.25636761982E+03  0.63368192962E+03  0.17200000000E+03 0. -1.
         -6    1    1    2    0  501 -0.16730291534E+03  0.52749802460E+03  0.31930090709E+03  0.66165058808E+03  0.17200000000E+03 0.  1.
</event>
<event>
 4    1  0.3115421E-002  0.3534842E+03  0.7818608E-02  0.1061194E+00
          2   -1    0    0  502    0  0.00000000000E+00  0.00000000000E+00  0.36363257221E+03  0.36363257221E+03  0.00000000000E+00 0. -1.
         -2   -1    0    0    0  501 -0.00000000000E+00 -0.00000000000E+00 -0.37453842369E+03  0.37453842369E+03  0.00000000000E+00 0.  1.
          6    1    1    2  502    0 -0.18173891283E+03 -0.24967588442E+03  0.10059303305E+03  0.36751875870E+03  0.17200000000E+03 0. -1.
         -6    1    1    2    0  501  0.18173891283E+03  0.24967588442E+03 -0.11149888453E+03  0.37065223720E+03  0.17200000000E+03 0.  1.
</event>
<event>
 4    1  0.3115421E-002  0.2346769E+03  0.7818608E-02  0.1123391E+00
         -1   -1    0    0    0  501 -0.00000000000E+00  0.00000000000E+00  0.92217805037E+03  0.92217805037E+03  0.00000000000E+00 0.  1.
          1   -1    0    0  502    0  0.00000000000E+00 -0.00000000000E+00 -0.62168450610E+03  0.62168450610E+03  0.00000000000E+00 0. -1.
          6    1    1    2  502    0  0.90415237877E+02  0.13158393472E+03 -0.58367155955E+03  0.62908325089E+03  0.17200000000E+03 0. -1.
         -6    1    1    2    0  501 -0.90415237877E+02 -0.13158393472E+03  0.88416510382E+03  0.91477930559E+03  0.17200000000E+03 0.  1.
</event>
<event>
 4    1  0.3115421E-002  0.2440356E+03  0.7818608E-02  0.1117133E+00
          1   -1    0    0  502    0  0.00000000000E+00  0.00000000000E+00  0.63190741042E+03  0.63190741042E+03  0.00000000000E+00 0. -1.
         -1   -1    0    0    0  501 -0.00000000000E+00 -0.00000000000E+00 -0.97190884606E+02  0.97190884606E+02  0.00000000000E+00 0.  1.
          6    1    1    2  502    0 -0.16990865403E+03  0.33172692110E+02  0.20387825311E+03  0.31799327085E+03  0.17200000000E+03 0.  1.
         -6    1    1    2    0  501  0.16990865403E+03 -0.33172692110E+02  0.33083827270E+03  0.41110502418E+03  0.17200000000E+03 0.  1.
</event>
<event>
 4    1  0.3115421E-002  0.6801702E+03  0.7818608E-02  0.9751758E-01
         -1   -1    0    0    0  501 -0.00000000000E+00  0.00000000000E+00  0.57097927109E+03  0.57097927109E+03  0.00000000000E+00 0.  1.
          1   -1    0    0  502    0  0.00000000000E+00 -0.00000000000E+00 -0.17514292876E+04  0.17514292876E+04  0.00000000000E+00 0. -1.
          6    1    1    2  502    0  0.53786589141E+03 -0.37914085359E+03 -0.14414616362E+04  0.15938767683E+04  0.17200000000E+03 0. -1.
         -6    1    1    2    0  501 -0.53786589141E+03  0.37914085359E+03  0.26101161965E+03  0.72853179038E+03  0.17200000000E+03 0.  1.
</event>
<event>
 4    1  0.3115421E-002  0.2137295E+03  0.7818608E-02  0.1138646E+00
         -1   -1    0    0    0  501 -0.00000000000E+00  0.00000000000E+00  0.31657696007E+02  0.31657696007E+02  0.00000000000E+00 0.  1.
          1   -1    0    0  502    0  0.00000000000E+00 -0.00000000000E+00 -0.31958857865E+04  0.31958857865E+04  0.00000000000E+00 0. -1.
          6    1    1    2  502    0 -0.21548312349E+02 -0.12502785911E+03 -0.27772854062E+04  0.27854971770E+04  0.17200000000E+03 0. -1.
         -6    1    1    2    0  501  0.21548312349E+02  0.12502785911E+03 -0.38694268422E+03  0.44204630548E+03  0.17200000000E+03 0.  1.
</event>
<event>
 4    1  0.3115421E-002  0.2066990E+03  0.7818608E-02  0.1144207E+00
          2   -1    0    0  502    0  0.00000000000E+00  0.00000000000E+00  0.10344766815E+04  0.10344766815E+04  0.00000000000E+00 0. -1.
         -2   -1    0    0    0  501 -0.00000000000E+00 -0.00000000000E+00 -0.68357127130E+02  0.68357127130E+02  0.00000000000E+00 0.  1.
          6    1    1    2  502    0  0.92234988199E+02 -0.68067508660E+02  0.82997585227E+03  0.85532706852E+03  0.17200000000E+03 0. -1.
         -6    1    1    2    0  501 -0.92234988199E+02  0.68067508660E+02  0.13614370211E+03  0.24750674013E+03  0.17200000000E+03 0.  1.
</event>
<event>
 4    1  0.3115421E-002  0.1748188E+03  0.7818608E-02  0.1172914E+00
          2   -1    0    0  502    0  0.00000000000E+00  0.00000000000E+00  0.69292412325E+03  0.69292412325E+03  0.00000000000E+00 0. -1.
         -2   -1    0    0    0  501 -0.00000000000E+00 -0.00000000000E+00 -0.19889491662E+03  0.19889491662E+03  0.00000000000E+00 0.  1.
          6    1    1    2  502    0 -0.21857612318E+02  0.22357711479E+02  0.64038875807E+03  0.66382180135E+03  0.17200000000E+03 0. -1.
         -6    1    1    2    0  501  0.21857612318E+02 -0.22357711479E+02 -0.14635955143E+03  0.22799723852E+03  0.17200000000E+03 0.  1.
</event>
<event>
 4    1  0.3115421E-002  0.1735878E+03  0.7818608E-02  0.1174157E+00
         -2   -1    0    0    0  501 -0.00000000000E+00  0.00000000000E+00  0.16456178578E+02  0.16456178578E+02  0.00000000000E+00 0.  1.
          2   -1    0    0  502    0  0.00000000000E+00 -0.00000000000E+00 -0.18379837888E+04  0.18379837888E+04  0.00000000000E+00 0. -1.
          6    1    1    2  502    0 -0.80320212637E+01 -0.22005049853E+02 -0.85397573600E+03  0.87143978178E+03  0.17200000000E+03 0.  1.
         -6    1    1    2    0  501  0.80320212637E+01  0.22005049853E+02 -0.96755187419E+03  0.98300018557E+03  0.17200000000E+03 0. -1.
</event>
<event>
 4    1  0.3115421E-002  0.1916364E+03  0.7818608E-02  0.1156994E+00
         -2   -1    0    0    0  501 -0.00000000000E+00  0.00000000000E+00  0.93817276307E+02  0.93817276307E+02  0.00000000000E+00 0.  1.
          2   -1    0    0  502    0  0.00000000000E+00 -0.00000000000E+00 -0.11603167110E+04  0.11603167110E+04  0.00000000000E+00 0. -1.
          6    1    1    2  502    0 -0.46541297927E+02 -0.70529619623E+02 -0.10436982496E+04  0.10611458693E+04  0.17200000000E+03 0. -1.
         -6    1    1    2    0  501  0.46541297927E+02  0.70529619623E+02 -0.22801185083E+02  0.19298811802E+03  0.17200000000E+03 0.  1.
</event>
<event>
 4    1  0.3115421E-002  0.2418346E+03  0.7818608E-02  0.1118577E+00
         -3   -1    0    0    0  501 -0.00000000000E+00  0.00000000000E+00  0.25662999493E+03  0.25662999493E+03  0.00000000000E+00 0.  1.
          3   -1    0    0  502    0  0.00000000000E+00 -0.00000000000E+00 -0.23194964005E+03  0.23194964005E+03  0.00000000000E+00 0. -1.
          6    1    1    2  502    0 -0.14526858048E+02 -0.16937817546E+03  0.44649661586E+02  0.24592191485E+03  0.17200000000E+03 0.  1.
         -6    1    1    2    0  501  0.14526858048E+02  0.16937817546E+03 -0.19969306702E+02  0.24265772012E+03  0.17200000000E+03 0. -1.
</event>
<event>
 4    1  0.3115421E-002  0.2544114E+03  0.7818608E-02  0.1110548E+00
          1   -1    0    0  502    0  0.00000000000E+00  0.00000000000E+00  0.44371203588E+03  0.44371203588E+03  0.00000000000E+00 0. -1.
         -1   -1    0    0    0  501 -0.00000000000E+00 -0.00000000000E+00 -0.15906460920E+03  0.15906460920E+03  0.00000000000E+00 0.  1.
          6    1    1    2  502    0 -0.18642983085E+03 -0.19623353764E+02  0.22912079965E+03  0.34237625308E+03  0.17200000000E+03 0. -1.
         -6    1    1    2    0  501  0.18642983085E+03  0.19623353764E+02  0.55526627039E+02  0.26040039200E+03  0.17200000000E+03 0.  1.
</event>
<event>
 4    1  0.3115421E-002  0.1913738E+03  0.7818608E-02  0.1157228E+00
         -2   -1    0    0    0  501 -0.00000000000E+00  0.00000000000E+00  0.79768792909E+03  0.79768792909E+03  0.00000000000E+00 0.  1.
          2   -1    0    0  502    0  0.00000000000E+00 -0.00000000000E+00 -0.47708384816E+02  0.47708384816E+02  0.00000000000E+00 0. -1.
          6    1    1    2  502    0  0.82069621157E+02 -0.17450446610E+02  0.45699811271E+03  0.49545051804E+03  0.17200000000E+03 0.  1.
         -6    1    1    2    0  501 -0.82069621157E+02  0.17450446610E+02  0.29298143156E+03  0.34994579586E+03  0.17200000000E+03 0.  1.
</event>
<event>
 4    1  0.3115421E-002  0.2028143E+03  0.7818608E-02  0.1147386E+00
         -1   -1    0    0    0  501 -0.00000000000E+00  0.00000000000E+00  0.16139404109E+03  0.16139404109E+03  0.00000000000E+00 0.  1.
          1   -1    0    0  502    0  0.00000000000E+00 -0.00000000000E+00 -0.45004953176E+03  0.45004953176E+03  0.00000000000E+00 0. -1.
          6    1    1    2  502    0 -0.10390738176E+03 -0.27438951266E+02 -0.34566275056E+03  0.40076973084E+03  0.17200000000E+03 0. -1.
         -6    1    1    2    0  501  0.10390738176E+03  0.27438951266E+02  0.57007259891E+02  0.21067384202E+03  0.17200000000E+03 0.  1.
</event>
<event>
 4    1  0.3115421E-002  0.8581781E+03  0.7818608E-02  0.9479426E-01
          4   -1    0    0  502    0  0.00000000000E+00  0.00000000000E+00  0.11442991544E+04  0.11442991544E+04  0.00000000000E+00 0. -1.
         -4   -1    0    0    0  501 -0.00000000000E+00 -0.00000000000E+00 -0.11299591553E+04  0.11299591553E+04  0.00000000000E+00 0.  1.
          6    1    1    2  502    0 -0.59637198508E+03  0.59264335931E+03  0.75320199456E+03  0.11418331492E+04  0.17200000000E+03 0. -1.
         -6    1    1    2    0  501  0.59637198508E+03 -0.59264335931E+03 -0.73886199544E+03  0.11324251605E+04  0.17200000000E+03 0.  1.
</event>
<event>
 4    1  0.3115421E-002  0.2167401E+03  0.7818608E-02  0.1136337E+00
         -1   -1    0    0    0  501 -0.00000000000E+00  0.00000000000E+00  0.80158732067E+02  0.80158732067E+02  0.00000000000E+00 0.  1.
          1   -1    0    0  502    0  0.00000000000E+00 -0.00000000000E+00 -0.13357705972E+04  0.13357705972E+04  0.00000000000E+00 0. -1.
          6    1    1    2  502    0  0.13176723469E+03 -0.54450311901E+01 -0.11581993853E+04  0.11783047436E+04  0.17200000000E+03 0. -1.
         -6    1    1    2    0  501 -0.13176723469E+03  0.54450311901E+01 -0.97412479766E+02  0.23762458568E+03  0.17200000000E+03 0.  1.
</event>
<event>
 4    1  0.3115421E-002  0.1932975E+03  0.7818608E-02  0.1155520E+00
          2   -1    0    0  502    0  0.00000000000E+00  0.00000000000E+00  0.36726561282E+03  0.36726561282E+03  0.00000000000E+00 0. -1.
         -2   -1    0    0    0  501 -0.00000000000E+00 -0.00000000000E+00 -0.19653201905E+03  0.19653201905E+03  0.00000000000E+00 0.  1.
          6    1    1    2  502    0 -0.15047092380E+02 -0.86910931271E+02  0.28114888211E+03  0.34118707313E+03  0.17200000000E+03 0. -1.
         -6    1    1    2    0  501  0.15047092380E+02  0.86910931271E+02 -0.11041528833E+03  0.22261055874E+03  0.17200000000E+03 0.  1.
</event>
<event>
 4    1  0.3115421E-002  0.1932546E+03  0.7818608E-02  0.1155558E+00
         -1   -1    0    0    0  501 -0.00000000000E+00  0.00000000000E+00  0.15818052025E+02  0.15818052025E+02  0.00000000000E+00 0.  1.
          1   -1    0    0  502    0  0.00000000000E+00 -0.00000000000E+00 -0.43032384147E+04  0.43032384147E+04  0.00000000000E+00 0. -1.
          6    1    1    2  502    0  0.31859619895E+02  0.82147984653E+02 -0.35945051767E+04  0.35996964861E+04  0.17200000000E+03 0. -1.
         -6    1    1    2    0  501 -0.31859619895E+02 -0.82147984653E+02 -0.69291518599E+03  0.71935998064E+03  0.17200000000E+03 0.  1.
</event>
<event>
 4    1  0.3115421E-002  0.1830702E+03  0.7818608E-02  0.1164864E+00
         -3   -1    0    0    0  501 -0.00000000000E+00  0.00000000000E+00  0.12415175675E+03  0.12415175675E+03  0.00000000000E+00 0.  1.
          3   -1    0    0  502    0  0.00000000000E+00 -0.00000000000E+00 -0.61688643491E+03  0.61688643491E+03  0.00000000000E+00 0. -1.
          6    1    1    2  502    0 -0.20639055486E+02 -0.59200830916E+02 -0.52423194617E+03  0.55527816667E+03  0.17200000000E+03 0. -1.
         -6    1    1    2    0  501  0.20639055486E+02  0.59200830916E+02  0.31497268008E+02  0.18576002499E+03  0.17200000000E+03 0.  1.
</event>
<event>
 4    1  0.3115421E-002  0.2617370E+03  0.7818608E-02  0.1106104E+00
         -2   -1    0    0    0  501 -0.00000000000E+00  0.00000000000E+00  0.48623653004E+02  0.48623653004E+02  0.00000000000E+00 0.  1.
          2   -1    0    0  502    0  0.00000000000E+00 -0.00000000000E+00 -0.14842054963E+04  0.14842054963E+04  0.00000000000E+00 0. -1.
          6    1    1    2  502    0 -0.17239540665E+03  0.95927522549E+02 -0.89041695323E+03  0.92808868995E+03  0.17200000000E+03 0.  1.
         -6    1    1    2    0  501  0.17239540665E+03 -0.95927522549E+02 -0.54516489008E+03  0.60474045936E+03  0.17200000000E+03 0.  1.
</event>
<event>
 4    1  0.3115421E-002  0.2848304E+03  0.7818608E-02  0.1093080E+00
         -1   -1    0    0    0  501 -0.00000000000E+00  0.00000000000E+00  0.53809709820E+03  0.53809709820E+03  0.00000000000E+00 0.  1.
          1   -1    0    0  502    0  0.00000000000E+00 -0.00000000000E+00 -0.22512110774E+03  0.22512110774E+03  0.00000000000E+00 0. -1.
          6    1    1    2  502    0  0.41933417234E+02 -0.22312765095E+03 -0.62821414820E+02  0.29167600220E+03  0.17200000000E+03 0. -1.
         -6    1    1    2    0  501 -0.41933417234E+02  0.22312765095E+03  0.37579740527E+03  0.47154220374E+03  0.17200000000E+03 0.  1.
</event>
<event>
 4    1  0.3115421E-002  0.4143498E+03  0.7818608E-02  0.1038921E+00
         -1   -1    0    0    0  501 -0.00000000000E+00  0.00000000000E+00  0.18437681315E+03  0.18437681315E+03  0.00000000000E+00 0.  1.
          1   -1    0    0  502    0  0.00000000000E+00 -0.00000000000E+00 -0.12691957814E+04  0.12691957814E+04  0.00000000000E+00 0. -1.
          6    1    1    2  502    0 -0.37590969045E+03 -0.28172603217E+02 -0.91748490833E+03  0.10067096642E+04  0.17200000000E+03 0. -1.
         -6    1    1    2    0  501  0.37590969045E+03  0.28172603217E+02 -0.16733405996E+03  0.44686293040E+03  0.17200000000E+03 0.  1.
</event>
<event>
 4    1  0.3115421E-002  0.3912035E+03  0.7818608E-02  0.1046869E+00
         -2   -1    0    0    0  501 -0.00000000000E+00  0.00000000000E+00  0.93523300174E+02  0.93523300174E+02  0.00000000000E+00 0.  1.
          2   -1    0    0  502    0  0.00000000000E+00 -0.00000000000E+00 -0.18220034962E+04  0.18220034962E+04  0.00000000000E+00 0. -1.
          6    1    1    2  502    0  0.53626298729E+02  0.34724693292E+03 -0.11699385028E+04  0.12336110864E+04  0.17200000000E+03 0. -1.
         -6    1    1    2    0  501 -0.53626298729E+02 -0.34724693292E+03 -0.55854169324E+03  0.68191570992E+03  0.17200000000E+03 0.  1.
</event>
<event>
 4    1  0.3115421E-002  0.2541112E+03  0.7818608E-02  0.1110734E+00
         -3   -1    0    0    0  501 -0.00000000000E+00  0.00000000000E+00  0.16720759545E+04  0.16720759545E+04  0.00000000000E+00 0.  1.
          3   -1    0    0  502    0  0.00000000000E+00 -0.00000000000E+00 -0.23590915905E+03  0.23590915905E+03  0.00000000000E+00 0. -1.
          6    1    1    2  502    0  0.16925550730E+03 -0.79630760833E+02 -0.15433783927E+03  0.29730902014E+03  0.17200000000E+03 0. -1.
         -6    1    1    2    0  501 -0.16925550730E+03  0.79630760833E+02  0.15905046348E+04  0.16106760934E+04  0.17200000000E+03 0.  1.
</event>
<event>
 4    1  0.3115421E-002  0.3671492E+03  0.7818608E-02  0.1055788E+00
          1   -1    0    0  502    0  0.00000000000E+00  0.00000000000E+00  0.46451786295E+03  0.46451786295E+03  0.00000000000E+00 0. -1.
         -1   -1    0    0    0  501 -0.00000000000E+00 -0.00000000000E+00 -0.29265756982E+03  0.29265756982E+03  0.00000000000E+00 0.  1.
          6    1    1    2  502    0 -0.26036086972E+03 -0.19345986862E+03  0.12069249627E+03  0.38647791904E+03  0.17200000000E+03 0. -1.
         -6    1    1    2    0  501  0.26036086972E+03  0.19345986862E+03  0.51167796860E+02  0.37069751373E+03  0.17200000000E+03 0.  1.
</event>
<event>
 4    1  0.3115421E-002  0.3578714E+03  0.7818608E-02  0.1059430E+00
          2   -1    0    0  502    0  0.00000000000E+00  0.00000000000E+00  0.56286619518E+03  0.56286619518E+03  0.00000000000E+00 0. -1.
         -2   -1    0    0    0  501 -0.00000000000E+00 -0.00000000000E+00 -0.29152221915E+03  0.29152221915E+03  0.00000000000E+00 0.  1.
          6    1    1    2  502    0 -0.19022753280E+03  0.24960246986E+03  0.33581261378E+03  0.49075657792E+03  0.17200000000E+03 0. -1.
         -6    1    1    2    0  501  0.19022753280E+03 -0.24960246986E+03 -0.64468637756E+02  0.36363183641E+03  0.17200000000E+03 0.  1.
</event>
<event>
 4    1  0.3115421E-002  0.2041346E+03  0.7818608E-02  0.1146297E+00
          2   -1    0    0  502    0  0.00000000000E+00  0.00000000000E+00  0.33792310394E+04  0.33792310394E+04  0.00000000000E+00 0. -1.
         -2   -1    0    0    0  501 -0.00000000000E+00 -0.00000000000E+00 -0.12375741132E+02  0.12375741132E+02  0.00000000000E+00 0.  1.
          6    1    1    2  502    0 -0.91159388566E+02  0.61456348993E+02  0.15820118691E+04  0.15951277287E+04  0.17200000000E+03 0.  1.
         -6    1    1    2    0  501  0.91159388566E+02 -0.61456348993E+02  0.17848434292E+04  0.17964790519E+04  0.17200000000E+03 0.  1.
</event>
<event>
 4    1  0.3115421E-002  0.2669392E+03  0.7818608E-02  0.1103044E+00
          3   -1    0    0  502    0  0.00000000000E+00  0.00000000000E+00  0.20911717680E+03  0.20911717680E+03  0.00000000000E+00 0. -1.
         -3   -1    0    0    0  501 -0.00000000000E+00 -0.00000000000E+00 -0.35682646595E+03  0.35682646595E+03  0.00000000000E+00 0.  1.
          6    1    1    2  502    0  0.20162009130E+03  0.31966986803E+02 -0.13391919841E+03  0.29864845749E+03  0.17200000000E+03 0. -1.
         -6    1    1    2    0  501 -0.20162009130E+03 -0.31966986803E+02 -0.13790090747E+02  0.26729518526E+03  0.17200000000E+03 0.  1.
</event>
<event>
 4    1  0.3115421E-002  0.3457853E+03  0.7818608E-02  0.1064358E+00
          1   -1    0    0  502    0  0.00000000000E+00  0.00000000000E+00  0.29479749714E+04  0.29479749714E+04  0.00000000000E+00 0. -1.
         -1   -1    0    0    0  501 -0.00000000000E+00 -0.00000000000E+00 -0.56725000919E+02  0.56725000919E+02  0.00000000000E+00 0.  1.
          6    1    1    2  502    0 -0.22667996126E+03 -0.19646792660E+03  0.22476404217E+04  0.22740833134E+04  0.17200000000E+03 0. -1.
         -6    1    1    2    0  501  0.22667996126E+03  0.19646792660E+03  0.64360954882E+03  0.73061665896E+03  0.17200000000E+03 0.  1.
</event>
<event>
 4    1  0.3115421E-002  0.2188724E+03  0.7818608E-02  0.1134727E+00
          2   -1    0    0  502    0  0.00000000000E+00  0.00000000000E+00  0.77113735857E+03  0.77113735857E+03  0.00000000000E+00 0. -1.
         -2   -1    0    0    0  501 -0.00000000000E+00 -0.00000000000E+00 -0.11140033259E+03  0.11140033259E+03  0.00000000000E+00 0.  1.
          6    1    1    2  502    0 -0.31576958968E+02 -0.13162068475E+03  0.62335295776E+03  0.66066180375E+03  0.17200000000E+03 0. -1.
         -6    1    1    2    0  501  0.31576958968E+02  0.13162068475E+03  0.36384068229E+02  0.22187588741E+03  0.17200000000E+03 0.  1.
</event>
<event>
 4    1  0.3115421E-002  0.1788178E+03  0.7818608E-02  0.1168952E+00
         -1   -1    0    0    0  501 -0.00000000000E+00  0.00000000000E+00  0.38623843435E+02  0.38623843435E+02  0.00000000000E+00 0.  1.
          1   -1    0    0  502    0  0.00000000000E+00 -0.00000000000E+00 -0.82934460861E+03  0.82934460861E+03  0.00000000000E+00 0. -1.
          6    1    1    2  502    0 -0.48073447543E+02  0.89859989139E+01 -0.41361455388E+03  0.45061380773E+03  0.17200000000E+03 0. -1.
         -6    1    1    2    0  501  0.48073447543E+02 -0.89859989139E+01 -0.37710621130E+03  0.41735464432E+03  0.17200000000E+03 0. -1.
</event>
<event>
 4    1  0.3115421E-002  0.2427590E+03  0.7818608E-02  0.1117968E+00
         -3   -1    0    0    0  501 -0.00000000000E+00  0.00000000000E+00  0.23262985265E+03  0.23262985265E+03  0.00000000000E+00 0.  1.
          3   -1    0    0  502    0  0.00000000000E+00 -0.00000000000E+00 -0.28576160831E+03  0.28576160831E+03  0.00000000000E+00 0. -1.
          6    1    1    2  502    0 -0.16530592156E+03  0.44965636073E+02 -0.11388610940E+03  0.26814548671E+03  0.17200000000E+03 0. -1.
         -6    1    1    2    0  501  0.16530592156E+03 -0.44965636073E+02  0.60754353738E+02  0.25024597425E+03  0.17200000000E+03 0.  1.
</event>
<event>
 4    1  0.3115421E-002  0.8747607E+03  0.7818608E-02  0.9457694E-01
         -2   -1    0    0    0  501 -0.00000000000E+00  0.00000000000E+00  0.54336466348E+03  0.54336466348E+03  0.00000000000E+00 0.  1.
          2   -1    0    0  502    0  0.00000000000E+00 -0.00000000000E+00 -0.14125603344E+04  0.14125603344E+04  0.00000000000E+00 0. -1.
          6    1    1    2  502    0 -0.54791124686E+03  0.65986023940E+03 -0.38072533381E+03  0.95402203842E+03  0.17200000000E+03 0. -1.
         -6    1    1    2    0  501  0.54791124686E+03 -0.65986023940E+03 -0.48847033716E+03  0.10019029595E+04  0.17200000000E+03 0.  1.
</event>
<event>
 4    1  0.3115421E-002  0.1750533E+03  0.7818608E-02  0.1172678E+00
         -1   -1    0    0    0  501 -0.00000000000E+00  0.00000000000E+00  0.41730453819E+02  0.41730453819E+02  0.00000000000E+00 0.  1.
          1   -1    0    0  502    0  0.00000000000E+00 -0.00000000000E+00 -0.79159805218E+03  0.79159805218E+03  0.00000000000E+00 0. -1.
          6    1    1    2  502    0 -0.84847697953E+00 -0.32541214069E+02 -0.48701040015E+03  0.51751597113E+03  0.17200000000E+03 0. -1.
         -6    1    1    2    0  501  0.84847697953E+00  0.32541214069E+02 -0.26285719822E+03  0.31581253487E+03  0.17200000000E+03 0. -1.
</event>
<event>
 4    1  0.3115421E-002  0.2230722E+03  0.7818608E-02  0.1131613E+00
          1   -1    0    0  502    0  0.00000000000E+00  0.00000000000E+00  0.70744860597E+02  0.70744860597E+02  0.00000000000E+00 0. -1.
         -1   -1    0    0    0  501 -0.00000000000E+00 -0.00000000000E+00 -0.82162231137E+03  0.82162231137E+03  0.00000000000E+00 0.  1.
          6    1    1    2  502    0 -0.42567378609E+02  0.13551842893E+03 -0.20618213089E+03  0.30376355509E+03  0.17200000000E+03 0. -1.
         -6    1    1    2    0  501  0.42567378609E+02 -0.13551842893E+03 -0.54469531988E+03  0.58860361688E+03  0.17200000000E+03 0. -1.
</event>
<event>
 4    1  0.3115421E-002  0.4517778E+03  0.7818608E-02  0.1027193E+00
         -1   -1    0    0    0  501 -0.00000000000E+00  0.00000000000E+00  0.12732100393E+03  0.12732100393E+03  0.00000000000E+00 0.  1.
          1   -1    0    0  502    0  0.00000000000E+00 -0.00000000000E+00 -0.19142539421E+04  0.19142539421E+04  0.00000000000E+00 0. -1.
          6    1    1    2  502    0  0.27167742775E+03  0.31734927336E+03 -0.13050436112E+04  0.13810293311E+04  0.17200000000E+03 0. -1.
         -6    1    1    2    0  501 -0.27167742775E+03 -0.31734927336E+03 -0.48188932696E+03  0.66054561500E+03  0.17200000000E+03 0.  1.
</event>
<event>
 4    1  0.3115421E-002  0.1840486E+03  0.7818608E-02  0.1163941E+00
          4   -1    0    0  502    0  0.00000000000E+00  0.00000000000E+00  0.11731138354E+04  0.11731138354E+04  0.00000000000E+00 0. -1.
         -4   -1    0    0    0  501 -0.00000000000E+00 -0.00000000000E+00 -0.56457652962E+02  0.56457652962E+02  0.00000000000E+00 0.  1.
          6    1    1    2  502    0  0.50583303901E+02  0.41607996049E+02  0.98804142115E+03  0.10050371863E+04  0.17200000000E+03 0. -1.
         -6    1    1    2    0  501 -0.50583303901E+02 -0.41607996049E+02  0.12861476126E+03  0.22453430202E+03  0.17200000000E+03 0.  1.
</event>
<event>
 4    1  0.3115421E-002  0.1833907E+03  0.7818608E-02  0.1164561E+00
          2   -1    0    0  502    0  0.00000000000E+00  0.00000000000E+00  0.15116017663E+04  0.15116017663E+04  0.00000000000E+00 0. -1.
         -2   -1    0    0    0  501 -0.00000000000E+00 -0.00000000000E+00 -0.38227058543E+02  0.38227058543E+02  0.00000000000E+00 0.  1.
          6    1    1    2  502    0 -0.61064398315E+02  0.17868756694E+02  0.23570136884E+03  0.29864240904E+03  0.17200000000E+03 0.  1.
         -6    1    1    2    0  501  0.61064398315E+02 -0.17868756694E+02  0.12376733389E+04  0.12511864158E+04  0.17200000000E+03 0. -1.
</event>
<event>
 4    1  0.3115421E-002  0.1791965E+03  0.7818608E-02  0.1168583E+00
          2   -1    0    0  502    0  0.00000000000E+00  0.00000000000E+00  0.12805568409E+04  0.12805568409E+04  0.00000000000E+00 0. -1.
         -2   -1    0    0    0  501 -0.00000000000E+00 -0.00000000000E+00 -0.30653866506E+02  0.30653866506E+02  0.00000000000E+00 0.  1.
          6    1    1    2  502    0 -0.45024723748E+02  0.22364051482E+02  0.90461117528E+03  0.92218911021E+03  0.17200000000E+03 0. -1.
         -6    1    1    2    0  501  0.45024723748E+02 -0.22364051482E+02  0.34529179908E+03  0.38902159716E+03  0.17200000000E+03 0.  1.
</event>
<event>
 4    1  0.3115421E-002  0.1962378E+03  0.7818608E-02  0.1152953E+00
          2   -1    0    0  502    0  0.00000000000E+00  0.00000000000E+00  0.10015385886E+04  0.10015385886E+04  0.00000000000E+00 0. -1.
         -2   -1    0    0    0  501 -0.00000000000E+00 -0.00000000000E+00 -0.42068525780E+02  0.42068525780E+02  0.00000000000E+00 0.  1.
          6    1    1    2  502    0 -0.22106507763E+02 -0.91850759669E+02  0.63276911678E+03  0.66249982256E+03  0.17200000000E+03 0. -1.
         -6    1    1    2    0  501  0.22106507763E+02  0.91850759669E+02  0.32670094604E+03  0.38110729182E+03  0.17200000000E+03 0.  1.
</event>
<event>
 4    1  0.3115421E-002  0.3997882E+03  0.7818608E-02  0.1043853E+00
         -1   -1    0    0    0  501 -0.00000000000E+00  0.00000000000E+00  0.96168716446E+02  0.96168716446E+02  0.00000000000E+00 0.  1.
          1   -1    0    0  502    0  0.00000000000E+00 -0.00000000000E+00 -0.16666137813E+04  0.16666137813E+04  0.00000000000E+00 0. -1.
          6    1    1    2  502    0 -0.35990356347E+03  0.26759205515E+02 -0.73875522496E+03  0.83999399551E+03  0.17200000000E+03 0.  1.
         -6    1    1    2    0  501  0.35990356347E+03 -0.26759205515E+02 -0.83168983987E+03  0.92278850221E+03  0.17200000000E+03 0. -1.
</event>
<event>
 4    1  0.3115421E-002  0.2179921E+03  0.7818608E-02  0.1135389E+00
          3   -1    0    0  502    0  0.00000000000E+00  0.00000000000E+00  0.46471030687E+03  0.46471030687E+03  0.00000000000E+00 0. -1.
         -3   -1    0    0    0  501 -0.00000000000E+00 -0.00000000000E+00 -0.10289929569E+03  0.10289929569E+03  0.00000000000E+00 0.  1.
          6    1    1    2  502    0 -0.13278535367E+03 -0.17453083844E+02  0.20330235418E+03  0.29808120957E+03  0.17200000000E+03 0. -1.
         -6    1    1    2    0  501  0.13278535367E+03  0.17453083844E+02  0.15850865700E+03  0.26952839299E+03  0.17200000000E+03 0.  1.
</event>
<event>
 4    1  0.3115421E-002  0.2584309E+03  0.7818608E-02  0.1108090E+00
         -2   -1    0    0    0  501 -0.00000000000E+00  0.00000000000E+00  0.41591859898E+02  0.41591859898E+02  0.00000000000E+00 0.  1.
          2   -1    0    0  502    0  0.00000000000E+00 -0.00000000000E+00 -0.25038001294E+04  0.25038001294E+04  0.00000000000E+00 0. -1.
          6    1    1    2  502    0 -0.10487704318E+03 -0.16187441853E+03 -0.19933110005E+04  0.20099938473E+04  0.17200000000E+03 0. -1.
         -6    1    1    2    0  501  0.10487704318E+03  0.16187441853E+03 -0.46889726906E+03  0.53539814203E+03  0.17200000000E+03 0.  1.
</event>
<event>
 4    1  0.3115421E-002  0.2500441E+03  0.7818608E-02  0.1113277E+00
         -2   -1    0    0    0  501 -0.00000000000E+00  0.00000000000E+00  0.10681423026E+03  0.10681423026E+03  0.00000000000E+00 0.  1.
          2   -1    0    0  502    0  0.00000000000E+00 -0.00000000000E+00 -0.61408778816E+03  0.61408778816E+03  0.00000000000E+00 0. -1.
          6    1    1    2  502    0  0.61606606647E+02 -0.17071221201E+03 -0.33163348122E+03  0.41533456295E+03  0.17200000000E+03 0. -1.
         -6    1    1    2    0  501 -0.61606606647E+02  0.17071221201E+03 -0.17564007668E+03  0.30556745548E+03  0.17200000000E+03 0.  1.
</event>
<event>
 4    1  0.3115421E-002  0.2330597E+03  0.7818608E-02  0.1124505E+00
          2   -1    0    0  502    0  0.00000000000E+00  0.00000000000E+00  0.12420988261E+04  0.12420988261E+04  0.00000000000E+00 0. -1.
         -2   -1    0    0    0  501 -0.00000000000E+00 -0.00000000000E+00 -0.13792368170E+03  0.13792368170E+03  0.00000000000E+00 0.  1.
          6    1    1    2  502    0  0.14932005078E+03  0.49359330253E+02  0.11223147828E+04  0.11462579521E+04  0.17200000000E+03 0. -1.
         -6    1    1    2    0  501 -0.14932005078E+03 -0.49359330253E+02 -0.18139638353E+02  0.23376455576E+03  0.17200000000E+03 0.  1.
</event>
<event>
 4    1  0.3115421E-002  0.1739488E+03  0.7818608E-02  0.1173791E+00
         -1   -1    0    0    0  501 -0.00000000000E+00  0.00000000000E+00  0.35664177574E+02  0.35664177574E+02  0.00000000000E+00 0.  1.
          1   -1    0    0  502    0  0.00000000000E+00 -0.00000000000E+00 -0.88827498423E+03  0.88827498423E+03  0.00000000000E+00 0. -1.
          6    1    1    2  502    0  0.25656141079E+02  0.39927882815E+01 -0.52416068810E+03  0.55227041102E+03  0.17200000000E+03 0. -1.
         -6    1    1    2    0  501 -0.25656141079E+02 -0.39927882815E+01 -0.32845011856E+03  0.37166875079E+03  0.17200000000E+03 0.  1.
</event>
<event>
 4    1  0.3115421E-002  0.2033079E+03  0.7818608E-02  0.1146978E+00
         -4   -1    0    0    0  501 -0.00000000000E+00  0.00000000000E+00  0.79298985426E+02  0.79298985426E+02  0.00000000000E+00 0.  1.
          4   -1    0    0  502    0  0.00000000000E+00 -0.00000000000E+00 -0.57473479011E+03  0.57473479011E+03  0.00000000000E+00 0. -1.
          6    1    1    2  502    0 -0.71683735623E+02 -0.81311401577E+02 -0.34748259867E+03  0.40258944144E+03  0.17200000000E+03 0. -1.
         -6    1    1    2    0  501  0.71683735623E+02  0.81311401577E+02 -0.14795320601E+03  0.25144433409E+03  0.17200000000E+03 0.  1.
</event>
<event>
 4    1  0.3115421E-002  0.3768520E+03  0.7818608E-02  0.1052103E+00
         -1   -1    0    0    0  501 -0.00000000000E+00  0.00000000000E+00  0.98487289192E+02  0.98487289192E+02  0.00000000000E+00 0.  1.
          1   -1    0    0  502    0  0.00000000000E+00 -0.00000000000E+00 -0.14821409621E+04  0.14821409621E+04  0.00000000000E+00 0. -1.
          6    1    1    2  502    0  0.28270778174E+03  0.18030466849E+03 -0.82190823630E+03  0.90418505420E+03  0.17200000000E+03 0. -1.
         -6    1    1    2    0  501 -0.28270778174E+03 -0.18030466849E+03 -0.56174543660E+03  0.67644319708E+03  0.17200000000E+03 0.  1.
</event>
<event>
 4    1  0.3115421E-002  0.2571425E+03  0.7818608E-02  0.1108872E+00
          2   -1    0    0  502    0  0.00000000000E+00  0.00000000000E+00  0.29007354609E+03  0.29007354609E+03  0.00000000000E+00 0. -1.
         -2   -1    0    0    0  501 -0.00000000000E+00 -0.00000000000E+00 -0.25619712945E+03  0.25619712945E+03  0.00000000000E+00 0.  1.
          6    1    1    2  502    0  0.74371588037E+02  0.17608844747E+03  0.10763202270E+03  0.27875962181E+03  0.17200000000E+03 0. -1.
         -6    1    1    2    0  501 -0.74371588037E+02 -0.17608844747E+03 -0.73755606067E+02  0.26751105373E+03  0.17200000000E+03 0.  1.
</event>
<event>
 4    1  0.3115421E-002  0.1960710E+03  0.7818608E-02  0.1153097E+00
         -1   -1    0    0    0  501 -0.00000000000E+00  0.00000000000E+00  0.31500855133E+03  0.31500855133E+03  0.00000000000E+00 0.  1.
          1   -1    0    0  502    0  0.00000000000E+00 -0.00000000000E+00 -0.12217760818E+03  0.12217760818E+03  0.00000000000E+00 0. -1.
          6    1    1    2  502    0 -0.10979905127E+01  0.94120260942E+02  0.89095127671E+02  0.21536427484E+03  0.17200000000E+03 0. -1.
         -6    1    1    2    0  501  0.10979905127E+01 -0.94120260942E+02  0.10373581548E+03  0.22182188466E+03  0.17200000000E+03 0. -1.
</event>
<event>
 4    1  0.3115421E-002  0.2046885E+03  0.7818608E-02  0.1145843E+00
          2   -1    0    0  502    0  0.00000000000E+00  0.00000000000E+00  0.60858965037E+03  0.60858965037E+03  0.00000000000E+00 0. -1.
         -2   -1    0    0    0  501 -0.00000000000E+00 -0.00000000000E+00 -0.71761754450E+02  0.71761754450E+02  0.00000000000E+00 0.  1.
          6    1    1    2  502    0 -0.35955264908E+02  0.10497896755E+03  0.33701452135E+03  0.39430464403E+03  0.17200000000E+03 0. -1.
         -6    1    1    2    0  501  0.35955264908E+02 -0.10497896755E+03  0.19981337458E+03  0.28604676080E+03  0.17200000000E+03 0.  1.
</event>
<event>
 4    1  0.3115421E-002  0.2122358E+03  0.7818608E-02  0.1139808E+00
         -2   -1    0    0    0  501 -0.00000000000E+00  0.00000000000E+00  0.95265669276E+02  0.95265669276E+02  0.00000000000E+00 0.  1.
          2   -1    0    0  502    0  0.00000000000E+00 -0.00000000000E+00 -0.69961323625E+03  0.69961323625E+03  0.00000000000E+00 0. -1.
          6    1    1    2  502    0  0.10378180475E+03 -0.68479048802E+02 -0.75890904286E+02  0.22539625657E+03  0.17200000000E+03 0.  1.
         -6    1    1    2    0  501 -0.10378180475E+03  0.68479048802E+02 -0.52845666269E+03  0.56948264895E+03  0.17200000000E+03 0. -1.
</event>
<event>
 4    1  0.3115421E-002  0.3770821E+03  0.7818608E-02  0.1052018E+00
         -2   -1    0    0    0  501 -0.00000000000E+00  0.00000000000E+00  0.51810973914E+02  0.51810973914E+02  0.00000000000E+00 0.  1.
          2   -1    0    0  502    0  0.00000000000E+00 -0.00000000000E+00 -0.28909999387E+04  0.28909999387E+04  0.00000000000E+00 0. -1.
          6    1    1    2  502    0 -0.32723245537E+03 -0.74335784029E+02 -0.17509169300E+04  0.17910614128E+04  0.17200000000E+03 0. -1.
         -6    1    1    2    0  501  0.32723245537E+03  0.74335784029E+02 -0.10882720348E+04  0.11517494998E+04  0.17200000000E+03 0.  1.
</event>
<event>
 4    1  0.3115421E-002  0.3443885E+03  0.7818608E-02  0.1064942E+00
         -2   -1    0    0    0  501 -0.00000000000E+00  0.00000000000E+00  0.21365602645E+03  0.21365602645E+03  0.00000000000E+00 0.  1.
          2   -1    0    0  502    0  0.00000000000E+00 -0.00000000000E+00 -0.57822737058E+03  0.57822737058E+03  0.00000000000E+00 0. -1.
          6    1    1    2  502    0 -0.14164188995E+03 -0.26259661963E+03 -0.26144742454E+03  0.43238659256E+03  0.17200000000E+03 0. -1.
         -6    1    1    2    0  501  0.14164188995E+03  0.26259661963E+03 -0.10312391959E+03  0.35949680446E+03  0.17200000000E+03 0.  1.
</event>
<event>
 4    1  0.3115421E-002  0.2579898E+03  0.7818608E-02  0.1108357E+00
         -1   -1    0    0    0  501 -0.00000000000E+00  0.00000000000E+00  0.73524145210E+03  0.73524145210E+03  0.00000000000E+00 0.  1.
          1   -1    0    0  502    0  0.00000000000E+00 -0.00000000000E+00 -0.92302437976E+02  0.92302437976E+02  0.00000000000E+00 0. -1.
          6    1    1    2  502    0  0.13138800342E+02  0.19183882241E+03  0.26407364707E+03  0.36917970277E+03  0.17200000000E+03 0. -1.
         -6    1    1    2    0  501 -0.13138800342E+02 -0.19183882241E+03  0.37886536706E+03  0.45836418731E+03  0.17200000000E+03 0.  1.
</event>
<event>
 4    1  0.3115421E-002  0.7244787E+03  0.7818608E-02  0.9676262E-01
         -2   -1    0    0    0  501 -0.00000000000E+00  0.00000000000E+00  0.19605574242E+03  0.19605574242E+03  0.00000000000E+00 0.  1.
          2   -1    0    0  502    0  0.00000000000E+00 -0.00000000000E+00 -0.27433219670E+04  0.27433219670E+04  0.00000000000E+00 0. -1.
          6    1    1    2  502    0 -0.21346119251E+03  0.67061147614E+03 -0.15019006144E+04  0.16675055886E+04  0.17200000000E+03 0. -1.
         -6    1    1    2    0  501  0.21346119251E+03 -0.67061147614E+03 -0.10453656102E+04  0.12718721208E+04  0.17200000000E+03 0.  1.
</event>
<event>
 4    1  0.3115421E-002  0.1830000E+03  0.7818608E-02  0.1164931E+00
          2   -1    0    0  502    0  0.00000000000E+00  0.00000000000E+00  0.11013854893E+04  0.11013854893E+04  0.00000000000E+00 0. -1.
         -2   -1    0    0    0  501 -0.00000000000E+00 -0.00000000000E+00 -0.34394545320E+02  0.34394545320E+02  0.00000000000E+00 0.  1.
          6    1    1    2  502    0 -0.61434270064E+02 -0.11437550111E+02  0.34011444335E+03  0.38622120820E+03  0.17200000000E+03 0. -1.
         -6    1    1    2    0  501  0.61434270064E+02  0.11437550111E+02  0.72687650066E+03  0.74955882644E+03  0.17200000000E+03 0.  1.
</event>
<event>
 4    1  0.3115421E-002  0.2526486E+03  0.7818608E-02  0.1111642E+00
          2   -1    0    0  502    0  0.00000000000E+00  0.00000000000E+00  0.14308172809E+04  0.14308172809E+04  0.00000000000E+00 0. -1.
         -2   -1    0    0    0  501 -0.00000000000E+00 -0.00000000000E+00 -0.83155014116E+02  0.83155014116E+02  0.00000000000E+00 0.  1.
          6    1    1    2  502    0 -0.17805449082E+03 -0.50436997986E+02  0.15846266921E+03  0.29823096754E+03  0.17200000000E+03 0. -1.
         -6    1    1    2    0  501  0.17805449082E+03  0.50436997986E+02  0.11891995975E+04  0.12157413274E+04  0.17200000000E+03 0.  1.
</event>
<event>
 4    1  0.3115421E-002  0.4622610E+03  0.7818608E-02  0.1024127E+00
         -2   -1    0    0    0  501 -0.00000000000E+00  0.00000000000E+00  0.12126175581E+03  0.12126175581E+03  0.00000000000E+00 0.  1.
          2   -1    0    0  502    0  0.00000000000E+00 -0.00000000000E+00 -0.19639516930E+04  0.19639516930E+04  0.00000000000E+00 0. -1.
          6    1    1    2  502    0 -0.40788422459E+03  0.13316046442E+03 -0.12555272228E+04  0.13379214690E+04  0.17200000000E+03 0. -1.
         -6    1    1    2    0  501  0.40788422459E+03 -0.13316046442E+03 -0.58716271436E+03  0.74729197981E+03  0.17200000000E+03 0.  1.
</event>
<event>
 4    1  0.3115421E-002  0.4517013E+03  0.7818608E-02  0.1027216E+00
         -2   -1    0    0    0  501 -0.00000000000E+00  0.00000000000E+00  0.80772143246E+03  0.80772143246E+03  0.00000000000E+00 0.  1.
          2   -1    0    0  502    0  0.00000000000E+00 -0.00000000000E+00 -0.83366319592E+03  0.83366319592E+03  0.00000000000E+00 0. -1.
          6    1    1    2  502    0  0.13064672321E+03  0.39671338237E+03 -0.69813569530E+03  0.83152121025E+03  0.17200000000E+03 0. -1.
         -6    1    1    2    0  501 -0.13064672321E+03 -0.39671338237E+03  0.67219393184E+03  0.80986341814E+03  0.17200000000E+03 0.  1.
</event>
<event>
 4    1  0.3115421E-002  0.1762455E+03  0.7818608E-02  0.1171487E+00
         -2   -1    0    0    0  501 -0.00000000000E+00  0.00000000000E+00  0.36106836750E+02  0.36106836750E+02  0.00000000000E+00 0.  1.
          2   -1    0    0  502    0  0.00000000000E+00 -0.00000000000E+00 -0.12732606649E+04  0.12732606649E+04  0.00000000000E+00 0. -1.
          6    1    1    2  502    0 -0.23672731532E+02  0.30299779843E+02 -0.99142394758E+03  0.10069676850E+04  0.17200000000E+03 0. -1.
         -6    1    1    2    0  501  0.23672731532E+02 -0.30299779843E+02 -0.24572988052E+03  0.30239981657E+03  0.17200000000E+03 0.  1.
</event>
<event>
 4    1  0.3115421E-002  0.2014693E+03  0.7818608E-02  0.1148505E+00
          2   -1    0    0  502    0  0.00000000000E+00  0.00000000000E+00  0.29086970106E+04  0.29086970106E+04  0.00000000000E+00 0. -1.
         -2   -1    0    0    0  501 -0.00000000000E+00 -0.00000000000E+00 -0.14336204623E+02  0.14336204623E+02  0.00000000000E+00 0.  1.
          6    1    1    2  502    0 -0.81726217817E+02 -0.65777657765E+02  0.16856098507E+04  0.16976072701E+04  0.17200000000E+03 0. -1.
         -6    1    1    2    0  501  0.81726217817E+02  0.65777657765E+02  0.12087509554E+04  0.12254259451E+04  0.17200000000E+03 0.  1.
</event>
<event>
 4    1  0.3115421E-002  0.2726390E+03  0.7818608E-02  0.1099779E+00
         -1   -1    0    0    0  501 -0.00000000000E+00  0.00000000000E+00  0.28358019662E+02  0.28358019662E+02  0.00000000000E+00 0.  1.
          1   -1    0    0  502    0  0.00000000000E+00 -0.00000000000E+00 -0.29033012964E+04  0.29033012964E+04  0.00000000000E+00 0. -1.
          6    1    1    2  502    0 -0.90240568903E+02  0.19132341760E+03 -0.98055094639E+03  0.10177485784E+04  0.17200000000E+03 0. -1.
         -6    1    1    2    0  501  0.90240568903E+02 -0.19132341760E+03 -0.18943923304E+04  0.19139107377E+04  0.17200000000E+03 0.  1.
</event>
<event>
 4    1  0.3115421E-002  0.2308387E+03  0.7818608E-02  0.1126051E+00
         -2   -1    0    0    0  501 -0.00000000000E+00  0.00000000000E+00  0.18943312499E+03  0.18943312499E+03  0.00000000000E+00 0.  1.
          2   -1    0    0  502    0  0.00000000000E+00 -0.00000000000E+00 -0.29311843156E+03  0.29311843156E+03  0.00000000000E+00 0. -1.
          6    1    1    2  502    0  0.79632605272E+02  0.13176173010E+03 -0.10030140539E+03  0.25168805547E+03  0.17200000000E+03 0. -1.
         -6    1    1    2    0  501 -0.79632605272E+02 -0.13176173010E+03 -0.33839011776E+01  0.23086350108E+03  0.17200000000E+03 0.  1.
</event>
<event>
 4    1  0.3115421E-002  0.2780823E+03  0.7818608E-02  0.1096741E+00
         -3   -1    0    0    0  501 -0.00000000000E+00  0.00000000000E+00  0.26788282188E+04  0.26788282188E+04  0.00000000000E+00 0.  1.
          3   -1    0    0  502    0  0.00000000000E+00 -0.00000000000E+00 -0.29655760439E+02  0.29655760439E+02  0.00000000000E+00 0. -1.
          6    1    1    2  502    0 -0.21850743945E+03 -0.52965632735E+00  0.11037301144E+04  0.11382222749E+04  0.17200000000E+03 0. -1.
         -6    1    1    2    0  501  0.21850743945E+03  0.52965632735E+00  0.15454423440E+04  0.15702617044E+04  0.17200000000E+03 0. -1.
</event>
<event>
 4    1  0.3115421E-002  0.7393311E+03  0.7818608E-02  0.9652238E-01
          1   -1    0    0  502    0  0.00000000000E+00  0.00000000000E+00  0.69099053695E+03  0.69099053695E+03  0.00000000000E+00 0. -1.
         -1   -1    0    0    0  501 -0.00000000000E+00 -0.00000000000E+00 -0.97517785380E+03  0.97517785380E+03  0.00000000000E+00 0.  1.
          6    1    1    2  502    0 -0.44774248536E+02 -0.71765011132E+03  0.21990145902E+03  0.77134108363E+03  0.17200000000E+03 0. -1.
         -6    1    1    2    0  501  0.44774248536E+02  0.71765011132E+03 -0.50408877588E+03  0.89482730712E+03  0.17200000000E+03 0.  1.
</event>
<event>
 4    1  0.3115421E-002  0.1826140E+03  0.7818608E-02  0.1165297E+00
          1   -1    0    0  502    0  0.00000000000E+00  0.00000000000E+00  0.33010711985E+03  0.33010711985E+03  0.00000000000E+00 0. -1.
         -1   -1    0    0    0  501 -0.00000000000E+00 -0.00000000000E+00 -0.12391359177E+03  0.12391359177E+03  0.00000000000E+00 0.  1.
          6    1    1    2  502    0 -0.56215505357E+02  0.24570074720E+02  0.20066989092E+03  0.27132319609E+03  0.17200000000E+03 0. -1.
         -6    1    1    2    0  501  0.56215505357E+02 -0.24570074720E+02  0.55236371546E+01  0.18269751553E+03  0.17200000000E+03 0.  1.
</event>
<event>
 4    1  0.3115421E-002  0.2479373E+03  0.7818608E-02  0.1114615E+00
          1   -1    0    0  502    0  0.00000000000E+00  0.00000000000E+00  0.68407800066E+03  0.68407800066E+03  0.00000000000E+00 0. -1.
         -1   -1    0    0    0  501 -0.00000000000E+00 -0.00000000000E+00 -0.27483102669E+03  0.27483102669E+03  0.00000000000E+00 0.  1.
          6    1    1    2  502    0  0.14881828046E+03  0.98701749302E+02  0.59795933086E+03  0.64732393535E+03  0.17200000000E+03 0. -1.
         -6    1    1    2    0  501 -0.14881828046E+03 -0.98701749302E+02 -0.18871235689E+03  0.31158509200E+03  0.17200000000E+03 0.  1.
</event>
<event>
 4    1  0.3115421E-002  0.3587152E+03  0.7818608E-02  0.1059094E+00
         -1   -1    0    0    0  501 -0.00000000000E+00  0.00000000000E+00  0.11849010212E+03  0.11849010212E+03  0.00000000000E+00 0.  1.
          1   -1    0    0  502    0  0.00000000000E+00 -0.00000000000E+00 -0.14334651755E+04  0.14334651755E+04  0.00000000000E+00 0. -1.
          6    1    1    2  502    0 -0.31450473074E+03 -0.13391718342E+02 -0.10395467887E+04  0.10996972719E+04  0.17200000000E+03 0. -1.
         -6    1    1    2    0  501  0.31450473074E+03  0.13391718342E+02 -0.27542828461E+03  0.45225800572E+03  0.17200000000E+03 0.  1.
</event>
<event>
 4    1  0.3115421E-002  0.2687381E+03  0.7818608E-02  0.1102004E+00
          2   -1    0    0  502    0  0.00000000000E+00  0.00000000000E+00  0.28141605403E+03  0.28141605403E+03  0.00000000000E+00 0. -1.
         -2   -1    0    0    0  501 -0.00000000000E+00 -0.00000000000E+00 -0.32373481181E+03  0.32373481181E+03  0.00000000000E+00 0.  1.
          6    1    1    2  502    0  0.63754951898E+02 -0.19639627830E+03  0.11659686990E+03  0.29294201148E+03  0.17200000000E+03 0. -1.
         -6    1    1    2    0  501 -0.63754951898E+02  0.19639627830E+03 -0.15891562767E+03  0.31220885436E+03  0.17200000000E+03 0.  1.
</event>
<event>
 4    1  0.3115421E-002  0.5487326E+03  0.7818608E-02  0.1001788E+00
         -1   -1    0    0    0  501 -0.00000000000E+00  0.00000000000E+00  0.14987256542E+04  0.14987256542E+04  0.00000000000E+00 0.  1.
          1   -1    0    0  502    0  0.00000000000E+00 -0.00000000000E+00 -0.20926695115E+03  0.20926695115E+03  0.00000000000E+00 0. -1.
          6    1    1    2  502    0  0.47202392602E+03  0.22071895772E+03  0.47405979629E+03  0.72514835412E+03  0.17200000000E+03 0. -1.
         -6    1    1    2    0  501 -0.47202392602E+03 -0.22071895772E+03  0.81539890674E+03  0.98284425121E+03  0.17200000000E+03 0.  1.
</event>
<event>
 4    1  0.3115421E-002  0.2916133E+03  0.7818608E-02  0.1089510E+00
         -2   -1    0    0    0  501 -0.00000000000E+00  0.00000000000E+00  0.18020027074E+03  0.18020027074E+03  0.00000000000E+00 0.  1.
          2   -1    0    0  502    0  0.00000000000E+00 -0.00000000000E+00 -0.67689629724E+03  0.67689629724E+03  0.00000000000E+00 0. -1.
          6    1    1    2  502    0  0.10663748115E+02 -0.23524578857E+03 -0.48417917160E+03  0.56521479703E+03  0.17200000000E+03 0. -1.
         -6    1    1    2    0  501 -0.10663748115E+02  0.23524578857E+03 -0.12516854897E+02  0.29188177096E+03  0.17200000000E+03 0.  1.
</event>
<event>
 4    1  0.3115421E-002  0.1948596E+03  0.7818608E-02  0.1154150E+00
         -2   -1    0    0    0  501 -0.00000000000E+00  0.00000000000E+00  0.48556997381E+02  0.48556997381E+02  0.00000000000E+00 0.  1.
          2   -1    0    0  502    0  0.00000000000E+00 -0.00000000000E+00 -0.10201377813E+04  0.10201377813E+04  0.00000000000E+00 0. -1.
          6    1    1    2  502    0 -0.55039699278E+02 -0.73190891378E+02 -0.74397644605E+03  0.76907166594E+03  0.17200000000E+03 0. -1.
         -6    1    1    2    0  501  0.55039699278E+02  0.73190891378E+02 -0.22760433791E+03  0.29962311278E+03  0.17200000000E+03 0.  1.
</event>
<event>
 4    1  0.3115421E-002  0.2054261E+03  0.7818608E-02  0.1145240E+00
          1   -1    0    0  502    0  0.00000000000E+00  0.00000000000E+00  0.15000334923E+04  0.15000334923E+04  0.00000000000E+00 0. -1.
         -1   -1    0    0    0  501 -0.00000000000E+00 -0.00000000000E+00 -0.41050682991E+02  0.41050682991E+02  0.00000000000E+00 0.  1.
          6    1    1    2  502    0  0.50567427184E+02  0.10029373951E+03  0.11617409767E+04  0.11797635338E+04  0.17200000000E+03 0. -1.
         -6    1    1    2    0  501 -0.50567427184E+02 -0.10029373951E+03  0.29724183265E+03  0.36132064147E+03  0.17200000000E+03 0.  1.
</event>
<event>
 4    1  0.3115421E-002  0.5356618E+03  0.7818608E-02  0.1004868E+00
         -1   -1    0    0    0  501 -0.00000000000E+00  0.00000000000E+00  0.34687321222E+03  0.34687321222E+03  0.00000000000E+00 0.  1.
          1   -1    0    0  502    0  0.00000000000E+00 -0.00000000000E+00 -0.82997758299E+03  0.82997758299E+03  0.00000000000E+00 0. -1.
          6    1    1    2  502    0 -0.22752823314E+03 -0.45340983536E+03 -0.20751297634E+03  0.57445209637E+03  0.17200000000E+03 0. -1.
         -6    1    1    2    0  501  0.22752823314E+03  0.45340983536E+03 -0.27559139443E+03  0.60239869884E+03  0.17200000000E+03 0.  1.
</event>
<event>
 4    1  0.3115421E-002  0.2576577E+03  0.7818608E-02  0.1108559E+00
          1   -1    0    0  502    0  0.00000000000E+00  0.00000000000E+00  0.20220363990E+03  0.20220363990E+03  0.00000000000E+00 0. -1.
         -1   -1    0    0    0  501 -0.00000000000E+00 -0.00000000000E+00 -0.34235343281E+03  0.34235343281E+03  0.00000000000E+00 0.  1.
          6    1    1    2  502    0  0.13840998434E+03 -0.13283881302E+03 -0.14948457365E+02  0.25809093434E+03  0.17200000000E+03 0. -1.
         -6    1    1    2    0  501 -0.13840998434E+03  0.13283881302E+03 -0.12520133555E+03  0.28646613837E+03  0.17200000000E+03 0.  1.
</event>
<event>
 4    1  0.3115421E-002  0.2147171E+03  0.7818608E-02  0.1137884E+00
         -3   -1    0    0    0  501 -0.00000000000E+00  0.00000000000E+00  0.79716820187E+03  0.79716820187E+03  0.00000000000E+00 0.  1.
          3   -1    0    0  502    0  0.00000000000E+00 -0.00000000000E+00 -0.68719291699E+02  0.68719291699E+02  0.00000000000E+00 0. -1.
          6    1    1    2  502    0 -0.11630096557E+03  0.54713160745E+02  0.53653493827E+03  0.57790413092E+03  0.17200000000E+03 0.  1.
         -6    1    1    2    0  501  0.11630096557E+03 -0.54713160745E+02  0.19191397191E+03  0.28798336265E+03  0.17200000000E+03 0. -1.
</event>
<event>
 4    1  0.3115421E-002  0.1925325E+03  0.7818608E-02  0.1156197E+00
         -2   -1    0    0    0  501 -0.00000000000E+00  0.00000000000E+00  0.84681072788E+02  0.84681072788E+02  0.00000000000E+00 0.  1.
          2   -1    0    0  502    0  0.00000000000E+00 -0.00000000000E+00 -0.53950927033E+03  0.53950927033E+03  0.00000000000E+00 0. -1.
          6    1    1    2  502    0  0.46188909587E+02  0.73152801630E+02 -0.36295939795E+03  0.41086283881E+03  0.17200000000E+03 0. -1.
         -6    1    1    2    0  501 -0.46188909587E+02 -0.73152801630E+02 -0.91868799590E+02  0.21332750431E+03  0.17200000000E+03 0.  1.
</event>
<event>
 4    1  0.3115421E-002  0.2557386E+03  0.7818608E-02  0.1109731E+00
          1   -1    0    0  502    0  0.00000000000E+00  0.00000000000E+00  0.72855784875E+02  0.72855784875E+02  0.00000000000E+00 0. -1.
         -1   -1    0    0    0  501 -0.00000000000E+00 -0.00000000000E+00 -0.10379275522E+04  0.10379275522E+04  0.00000000000E+00 0.  1.
          6    1    1    2  502    0 -0.17271103957E+03 -0.77389315349E+02 -0.27838952874E+03  0.37802505080E+03  0.17200000000E+03 0. -1.
         -6    1    1    2    0  501  0.17271103957E+03  0.77389315349E+02 -0.68668223854E+03  0.73275828623E+03  0.17200000000E+03 0. -1.
</event>
<event>
 4    1  0.3115421E-002  0.1849145E+03  0.7818608E-02  0.1163130E+00
         -1   -1    0    0    0  501 -0.00000000000E+00  0.00000000000E+00  0.10614178874E+04  0.10614178874E+04  0.00000000000E+00 0.  1.
          1   -1    0    0  502    0  0.00000000000E+00 -0.00000000000E+00 -0.47090297230E+02  0.47090297230E+02  0.00000000000E+00 0. -1.
          6    1    1    2  502    0  0.51640107658E+02  0.44075902336E+02  0.19564901966E+03  0.26920610093E+03  0.17200000000E+03 0. -1.
         -6    1    1    2    0  501 -0.51640107658E+02 -0.44075902336E+02  0.81867857053E+03  0.83930208371E+03  0.17200000000E+03 0.  1.
</event>
<event>
 4    1  0.3115421E-002  0.3705588E+03  0.7818608E-02  0.1054480E+00
          2   -1    0    0  502    0  0.00000000000E+00  0.00000000000E+00  0.22733268749E+03  0.22733268749E+03  0.00000000000E+00 0. -1.
         -2   -1    0    0    0  501 -0.00000000000E+00 -0.00000000000E+00 -0.67266238174E+03  0.67266238174E+03  0.00000000000E+00 0.  1.
          6    1    1    2  502    0 -0.32740467733E+03  0.23151215744E+02 -0.78916321294E+02  0.37886882598E+03  0.17200000000E+03 0.  1.
         -6    1    1    2    0  501  0.32740467733E+03 -0.23151215744E+02 -0.36641337295E+03  0.52112624325E+03  0.17200000000E+03 0. -1.
</event>
<event>
 4    1  0.3115421E-002  0.2089483E+03  0.7818608E-02  0.1142402E+00
         -1   -1    0    0    0  501 -0.00000000000E+00  0.00000000000E+00  0.30497794929E+02  0.30497794929E+02  0.00000000000E+00 0.  1.
          1   -1    0    0  502    0  0.00000000000E+00 -0.00000000000E+00 -0.20819380238E+04  0.20819380238E+04  0.00000000000E+00 0. -1.
          6    1    1    2  502    0  0.95216010678E+02 -0.70776327672E+02 -0.16160612712E+04  0.16295132431E+04  0.17200000000E+03 0. -1.
         -6    1    1    2    0  501 -0.95216010678E+02  0.70776327672E+02 -0.43537895770E+03  0.48292257563E+03  0.17200000000E+03 0.  1.
</event>
<event>
 4    1  0.3115421E-002  0.2201947E+03  0.7818608E-02  0.1133738E+00
         -1   -1    0    0    0  501 -0.00000000000E+00  0.00000000000E+00  0.73362807220E+03  0.73362807220E+03  0.00000000000E+00 0.  1.
          1   -1    0    0  502    0  0.00000000000E+00 -0.00000000000E+00 -0.70944058392E+02  0.70944058392E+02  0.00000000000E+00 0. -1.
          6    1    1    2  502    0  0.11889676261E+03 -0.69030895145E+02  0.22611778301E+03  0.31561837151E+03  0.17200000000E+03 0. -1.
         -6    1    1    2    0  501 -0.11889676261E+03  0.69030895145E+02  0.43656623080E+03  0.48895375908E+03  0.17200000000E+03 0.  1.
</event>
<event>
 4    1  0.3115421E-002  0.1835654E+03  0.7818608E-02  0.1164396E+00
          2   -1    0    0  502    0  0.00000000000E+00  0.00000000000E+00  0.48955665291E+02  0.48955665291E+02  0.00000000000E+00 0. -1.
         -2   -1    0    0    0  501 -0.00000000000E+00 -0.00000000000E+00 -0.81953311416E+03  0.81953311416E+03  0.00000000000E+00 0.  1.
          6    1    1    2  502    0  0.20669648241E+02  0.60704380909E+02 -0.21152054398E+03  0.28006641489E+03  0.17200000000E+03 0. -1.
         -6    1    1    2    0  501 -0.20669648241E+02 -0.60704380909E+02 -0.55905690489E+03  0.58842236457E+03  0.17200000000E+03 0.  1.
</event>
<event>
 4    1  0.3115421E-002  0.2251820E+03  0.7818608E-02  0.1130078E+00
         -1   -1    0    0    0  501 -0.00000000000E+00  0.00000000000E+00  0.27311419491E+02  0.27311419491E+02  0.00000000000E+00 0.  1.
          1   -1    0    0  502    0  0.00000000000E+00 -0.00000000000E+00 -0.32588939908E+04  0.32588939908E+04  0.00000000000E+00 0. -1.
          6    1    1    2  502    0  0.23564157756E+02  0.14341437182E+03 -0.26936104410E+04  0.27030065037E+04  0.17200000000E+03 0. -1.
         -6    1    1    2    0  501 -0.23564157756E+02 -0.14341437182E+03 -0.53797213034E+03  0.58319890655E+03  0.17200000000E+03 0.  1.
</event>
<event>
 4    1  0.3115421E-002  0.2172578E+03  0.7818608E-02  0.1135944E+00
         -3   -1    0    0    0  501 -0.00000000000E+00  0.00000000000E+00  0.28662406418E+03  0.28662406418E+03  0.00000000000E+00 0.  1.
          3   -1    0    0  502    0  0.00000000000E+00 -0.00000000000E+00 -0.17065672569E+03  0.17065672569E+03  0.00000000000E+00 0. -1.
          6    1    1    2  502    0 -0.10329072891E+03 -0.83354629354E+02  0.15192056048E+02  0.21778835479E+03  0.17200000000E+03 0. -1.
         -6    1    1    2    0  501  0.10329072891E+03  0.83354629354E+02  0.10077528244E+03  0.23949243509E+03  0.17200000000E+03 0.  1.
</event>
<event>
 4    1  0.3115421E-002  0.1744708E+03  0.7818608E-02  0.1173264E+00
         -4   -1    0    0    0  501 -0.00000000000E+00  0.00000000000E+00  0.42136175450E+03  0.42136175450E+03  0.00000000000E+00 0.  1.
          4   -1    0    0  502    0  0.00000000000E+00 -0.00000000000E+00 -0.10843404253E+03  0.10843404253E+03  0.00000000000E+00 0. -1.
          6    1    1    2  502    0  0.13007722680E+02  0.26208149541E+02  0.30950263555E+03  0.35529135841E+03  0.17200000000E+03 0.  1.
         -6    1    1    2    0  501 -0.13007722680E+02 -0.26208149541E+02  0.34250764244E+01  0.17450443863E+03  0.17200000000E+03 0. -1.
</event>
<event>
 4    1  0.3115421E-002  0.3218086E+03  0.7818608E-02  0.1074820E+00
          2   -1    0    0  502    0  0.00000000000E+00  0.00000000000E+00  0.13807608185E+04  0.13807608185E+04  0.00000000000E+00 0. -1.
         -2   -1    0    0    0  501 -0.00000000000E+00 -0.00000000000E+00 -0.78522628895E+02  0.78522628895E+02  0.00000000000E+00 0.  1.
          6    1    1    2  502    0 -0.26938974721E+03 -0.37495562479E+02  0.80560213707E+03  0.86749960021E+03  0.17200000000E+03 0. -1.
         -6    1    1    2    0  501  0.26938974721E+03  0.37495562479E+02  0.49663605248E+03  0.59178384714E+03  0.17200000000E+03 0.  1.
</event>
<event>
 4    1  0.3115421E-002  0.3141984E+03  0.7818608E-02  0.1078351E+00
          2   -1    0    0  502    0  0.00000000000E+00  0.00000000000E+00  0.36448443509E+04  0.36448443509E+04  0.00000000000E+00 0. -1.
         -2   -1    0    0    0  501 -0.00000000000E+00 -0.00000000000E+00 -0.31072777965E+02  0.31072777965E+02  0.00000000000E+00 0.  1.
          6    1    1    2  502    0  0.16412122503E+03  0.20542850140E+03  0.24653173103E+04  0.24852585552E+04  0.17200000000E+03 0.  1.
         -6    1    1    2    0  501 -0.16412122503E+03 -0.20542850140E+03  0.11484542627E+04  0.11906585737E+04  0.17200000000E+03 0. -1.
</event>
<event>
 4    1  0.3115421E-002  0.6438938E+03  0.7818608E-02  0.9818305E-01
          2   -1    0    0  502    0  0.00000000000E+00  0.00000000000E+00  0.84829289597E+03  0.84829289597E+03  0.00000000000E+00 0. -1.
         -2   -1    0    0    0  501 -0.00000000000E+00 -0.00000000000E+00 -0.49943851677E+03  0.49943851677E+03  0.00000000000E+00 0.  1.
          6    1    1    2  502    0 -0.53637523715E+03  0.31195639947E+03  0.27302923947E+03  0.69938841555E+03  0.17200000000E+03 0. -1.
         -6    1    1    2    0  501  0.53637523715E+03 -0.31195639947E+03  0.75825139738E+02  0.64834299720E+03  0.17200000000E+03 0.  1.
</event>
<event>
 4    1  0.3115421E-002  0.1751931E+03  0.7818608E-02  0.1172538E+00
         -2   -1    0    0    0  501 -0.00000000000E+00  0.00000000000E+00  0.36460557465E+02  0.36460557465E+02  0.00000000000E+00 0.  1.
          2   -1    0    0  502    0  0.00000000000E+00 -0.00000000000E+00 -0.10898314194E+04  0.10898314194E+04  0.00000000000E+00 0. -1.
          6    1    1    2  502    0 -0.24586425834E+02 -0.22452810577E+02 -0.79533844056E+03  0.81440521614E+03  0.17200000000E+03 0. -1.
         -6    1    1    2    0  501  0.24586425834E+02  0.22452810577E+02 -0.25803242139E+03  0.31188676074E+03  0.17200000000E+03 0.  1.
</event>
<event>
 4    1  0.3115421E-002  0.2453020E+03  0.7818608E-02  0.1116310E+00
          2   -1    0    0  502    0  0.00000000000E+00  0.00000000000E+00  0.36006612149E+03  0.36006612149E+03  0.00000000000E+00 0. -1.
         -2   -1    0    0    0  501 -0.00000000000E+00 -0.00000000000E+00 -0.17462028531E+03  0.17462028531E+03  0.00000000000E+00 0.  1.
          6    1    1    2  502    0 -0.17373970017E+03  0.20089160897E+02  0.14814164579E+03  0.28656413770E+03  0.17200000000E+03 0. -1.
         -6    1    1    2    0  501  0.17373970017E+03 -0.20089160897E+02  0.37304190380E+02  0.24812226909E+03  0.17200000000E+03 0.  1.
</event>
<event>
 4    1  0.3115421E-002  0.2735761E+03  0.7818608E-02  0.1099250E+00
          1   -1    0    0  502    0  0.00000000000E+00  0.00000000000E+00  0.32028395844E+03  0.32028395844E+03  0.00000000000E+00 0. -1.
         -1   -1    0    0    0  501 -0.00000000000E+00 -0.00000000000E+00 -0.24941425963E+03  0.24941425963E+03  0.00000000000E+00 0.  1.
          6    1    1    2  502    0 -0.18520840588E+03  0.10467920677E+03  0.10698000009E+03  0.29374923039E+03  0.17200000000E+03 0. -1.
         -6    1    1    2    0  501  0.18520840588E+03 -0.10467920677E+03 -0.36110301282E+02  0.27594898767E+03  0.17200000000E+03 0.  1.
</event>
<event>
 4    1  0.3115421E-002  0.1884165E+03  0.7818608E-02  0.1159897E+00
         -2   -1    0    0    0  501 -0.00000000000E+00  0.00000000000E+00  0.15647777023E+03  0.15647777023E+03  0.00000000000E+00 0.  1.
          2   -1    0    0  502    0  0.00000000000E+00 -0.00000000000E+00 -0.22698389799E+03  0.22698389799E+03  0.00000000000E+00 0. -1.
          6    1    1    2  502    0  0.80704485916E+01  0.76496037180E+02 -0.31038948722E+02  0.19095599541E+03  0.17200000000E+03 0.  1.
         -6    1    1    2    0  501 -0.80704485916E+01 -0.76496037180E+02 -0.39467179030E+02  0.19250567281E+03  0.17200000000E+03 0.  1.
</event>
<event>
 4    1  0.3115421E-002  0.3198670E+03  0.7818608E-02  0.1075711E+00
         -2   -1    0    0    0  501 -0.00000000000E+00  0.00000000000E+00  0.95172491640E+02  0.95172491640E+02  0.00000000000E+00 0.  1.
          2   -1    0    0  502    0  0.00000000000E+00 -0.00000000000E+00 -0.15699369604E+04  0.15699369604E+04  0.00000000000E+00 0. -1.
          6    1    1    2  502    0  0.17269226724E+03 -0.20714306864E+03 -0.12048225330E+04  0.12465601494E+04  0.17200000000E+03 0.  1.
         -6    1    1    2    0  501 -0.17269226724E+03  0.20714306864E+03 -0.26994193572E+03  0.41854930260E+03  0.17200000000E+03 0.  1.
</event>
<event>
 4    1  0.3115421E-002  0.2621576E+03  0.7818608E-02  0.1105854E+00
          2   -1    0    0  502    0  0.00000000000E+00  0.00000000000E+00  0.16425896642E+03  0.16425896642E+03  0.00000000000E+00 0. -1.
         -2   -1    0    0    0  501 -0.00000000000E+00 -0.00000000000E+00 -0.62305765308E+03  0.62305765308E+03  0.00000000000E+00 0.  1.
          6    1    1    2  502    0 -0.46473671361E+02  0.19230909920E+03 -0.37858005462E+01  0.26218490431E+03  0.17200000000E+03 0. -1.
         -6    1    1    2    0  501  0.46473671361E+02 -0.19230909920E+03 -0.45501288611E+03  0.52513171518E+03  0.17200000000E+03 0.  1.
</event>
<event>
 4    1  0.3115421E-002  0.3501914E+03  0.7818608E-02  0.1062537E+00
         -1   -1    0    0    0  501 -0.00000000000E+00  0.00000000000E+00  0.26520384326E+03  0.26520384326E+03  0.00000000000E+00 0.  1.
          1   -1    0    0  502    0  0.00000000000E+00 -0.00000000000E+00 -0.46328940386E+03  0.46328940386E+03  0.00000000000E+00 0. -1.
          6    1    1    2  502    0 -0.15889433282E+03  0.26038928624E+03 -0.83210064286E+02  0.35994152885E+03  0.17200000000E+03 0. -1.
         -6    1    1    2    0  501  0.15889433282E+03 -0.26038928624E+03 -0.11487549632E+03  0.36855171828E+03  0.17200000000E+03 0.  1.
</event>
<event>
 4    1  0.3115421E-002  0.2498645E+03  0.7818608E-02  0.1113390E+00
          1   -1    0    0  502    0  0.00000000000E+00  0.00000000000E+00  0.23689227233E+04  0.23689227233E+04  0.00000000000E+00 0. -1.
         -1   -1    0    0    0  501 -0.00000000000E+00 -0.00000000000E+00 -0.28402054929E+02  0.28402054929E+02  0.00000000000E+00 0.  1.
          6    1    1    2  502    0  0.17653019862E+03  0.41053000268E+02  0.84843663546E+03  0.88446423571E+03  0.17200000000E+03 0. -1.
         -6    1    1    2    0  501 -0.17653019862E+03 -0.41053000268E+02  0.14920840329E+04  0.15128605425E+04  0.17200000000E+03 0. -1.
</event>
<event>
 4    1  0.3115421E-002  0.4451927E+03  0.7818608E-02  0.1029165E+00
         -2   -1    0    0    0  501 -0.00000000000E+00  0.00000000000E+00  0.12258875639E+03  0.12258875639E+03  0.00000000000E+00 0.  1.
          2   -1    0    0  502    0  0.00000000000E+00 -0.00000000000E+00 -0.27607986424E+04  0.27607986424E+04  0.00000000000E+00 0. -1.
          6    1    1    2  502    0 -0.11223416324E+03 -0.39498863996E+03 -0.39104488627E+03  0.59254758136E+03  0.17200000000E+03 0. -1.
         -6    1    1    2    0  501  0.11223416324E+03  0.39498863996E+03 -0.22471649997E+04  0.22908398174E+04  0.17200000000E+03 0.  1.
</event>
<event>
 4    1  0.3115421E-002  0.2166755E+03  0.7818608E-02  0.1136386E+00
         -1   -1    0    0    0  501 -0.00000000000E+00  0.00000000000E+00  0.24841637482E+02  0.24841637482E+02  0.00000000000E+00 0.  1.
          1   -1    0    0  502    0  0.00000000000E+00 -0.00000000000E+00 -0.20335013233E+04  0.20335013233E+04  0.00000000000E+00 0. -1.
          6    1    1    2  502    0 -0.98277135815E+02 -0.87783245532E+02 -0.73084095496E+03  0.76228393337E+03  0.17200000000E+03 0.  1.
         -6    1    1    2    0  501  0.98277135815E+02  0.87783245532E+02 -0.12778187309E+04  0.12960590274E+04  0.17200000000E+03 0.  1.
</event>
<event>
 4    1  0.3115421E-002  0.5794314E+03  0.7818608E-02  0.9949023E-01
         -1   -1    0    0    0  501 -0.00000000000E+00  0.00000000000E+00  0.15095651002E+04  0.15095651002E+04  0.00000000000E+00 0.  1.
          1   -1    0    0  502    0  0.00000000000E+00 -0.00000000000E+00 -0.23037757658E+03  0.23037757658E+03  0.00000000000E+00 0. -1.
          6    1    1    2  502    0  0.14755751441E+03 -0.53327626470E+03  0.80139300210E+03  0.98892443512E+03  0.17200000000E+03 0. -1.
         -6    1    1    2    0  501 -0.14755751441E+03  0.53327626470E+03  0.47779452155E+03  0.75101824171E+03  0.17200000000E+03 0.  1.
</event>
<event>
 4    1  0.3115421E-002  0.4510138E+03  0.7818608E-02  0.1027420E+00
          1   -1    0    0  502    0  0.00000000000E+00  0.00000000000E+00  0.63406870656E+03  0.63406870656E+03  0.00000000000E+00 0. -1.
         -1   -1    0    0    0  501 -0.00000000000E+00 -0.00000000000E+00 -0.34267122967E+03  0.34267122967E+03  0.00000000000E+00 0.  1.
          6    1    1    2  502    0  0.31489092743E+03  0.27326385001E+03  0.26906066979E+03  0.52517337320E+03  0.17200000000E+03 0. -1.
         -6    1    1    2    0  501 -0.31489092743E+03 -0.27326385001E+03  0.22336807102E+02  0.45156656303E+03  0.17200000000E+03 0.  1.
</event>
<event>
 4    1  0.3115421E-002  0.2929710E+03  0.7818608E-02  0.1088808E+00
         -2   -1    0    0    0  501 -0.00000000000E+00  0.00000000000E+00  0.53293047302E+02  0.53293047302E+02  0.00000000000E+00 0.  1.
          2   -1    0    0  502    0  0.00000000000E+00 -0.00000000000E+00 -0.16122012685E+04  0.16122012685E+04  0.00000000000E+00 0. -1.
          6    1    1    2  502    0 -0.20570830075E+03  0.11803421613E+03 -0.75293430967E+03  0.80792453599E+03  0.17200000000E+03 0. -1.
         -6    1    1    2    0  501  0.20570830075E+03 -0.11803421613E+03 -0.80597391151E+03  0.85756977979E+03  0.17200000000E+03 0.  1.
</event>
<event>
 4    1  0.3115421E-002  0.2010314E+03  0.7818608E-02  0.1148872E+00
         -1   -1    0    0    0  501 -0.00000000000E+00  0.00000000000E+00  0.12329492048E+03  0.12329492048E+03  0.00000000000E+00 0.  1.
          1   -1    0    0  502    0  0.00000000000E+00 -0.00000000000E+00 -0.56005013550E+03  0.56005013550E+03  0.00000000000E+00 0. -1.
          6    1    1    2  502    0  0.65165912498E+02 -0.81135854320E+02 -0.43841332731E+03  0.48230681995E+03  0.17200000000E+03 0. -1.
         -6    1    1    2    0  501 -0.65165912498E+02  0.81135854320E+02  0.16581122986E+01  0.20103823603E+03  0.17200000000E+03 0.  1.
</event>
<event>
 4    1  0.3115421E-002  0.1898095E+03  0.7818608E-02  0.1158633E+00
          2   -1    0    0  502    0  0.00000000000E+00  0.00000000000E+00  0.10541296218E+03  0.10541296218E+03  0.00000000000E+00 0. -1.
         -2   -1    0    0    0  501 -0.00000000000E+00 -0.00000000000E+00 -0.35733987411E+03  0.35733987411E+03  0.00000000000E+00 0.  1.
          6    1    1    2  502    0  0.63093897681E+02  0.49626517882E+02 -0.17425107590E+03  0.25766464378E+03  0.17200000000E+03 0.  1.
         -6    1    1    2    0  501 -0.63093897681E+02 -0.49626517882E+02 -0.77675836024E+02  0.20508819250E+03  0.17200000000E+03 0. -1.
</event>
<event>
 4    1  0.3115421E-002  0.4355834E+03  0.7818608E-02  0.1032111E+00
          2   -1    0    0  502    0  0.00000000000E+00  0.00000000000E+00  0.26081902408E+04  0.26081902408E+04  0.00000000000E+00 0. -1.
         -2   -1    0    0    0  501 -0.00000000000E+00 -0.00000000000E+00 -0.73256550198E+02  0.73256550198E+02  0.00000000000E+00 0.  1.
          6    1    1    2  502    0  0.34807022960E+03  0.19747406054E+03  0.13794996981E+04  0.14466348214E+04  0.17200000000E+03 0. -1.
         -6    1    1    2    0  501 -0.34807022960E+03 -0.19747406054E+03  0.11554339924E+04  0.12348119696E+04  0.17200000000E+03 0.  1.
</event>
<event>
 4    1  0.3115421E-002  0.3237261E+03  0.7818608E-02  0.1073947E+00
         -2   -1    0    0    0  501 -0.00000000000E+00  0.00000000000E+00  0.20570073387E+03  0.20570073387E+03  0.00000000000E+00 0.  1.
          2   -1    0    0  502    0  0.00000000000E+00 -0.00000000000E+00 -0.66734469801E+03  0.66734469801E+03  0.00000000000E+00 0. -1.
          6    1    1    2  502    0 -0.18786887737E+03 -0.19979954129E+03 -0.44313984986E+03  0.54879094227E+03  0.17200000000E+03 0. -1.
         -6    1    1    2    0  501  0.18786887737E+03  0.19979954129E+03 -0.18504114272E+02  0.32425448960E+03  0.17200000000E+03 0.  1.
</event>
<event>
 4    1  0.3115421E-002  0.1828868E+03  0.7818608E-02  0.1165038E+00
         -2   -1    0    0    0  501 -0.00000000000E+00  0.00000000000E+00  0.89853543720E+02  0.89853543720E+02  0.00000000000E+00 0.  1.
          2   -1    0    0  502    0  0.00000000000E+00 -0.00000000000E+00 -0.39586212491E+03  0.39586212491E+03  0.00000000000E+00 0. -1.
          6    1    1    2  502    0  0.58223238808E+02 -0.21762800316E+02 -0.21232281186E+03  0.28022944430E+03  0.17200000000E+03 0. -1.
         -6    1    1    2    0  501 -0.58223238808E+02  0.21762800316E+02 -0.93685769326E+02  0.20548622433E+03  0.17200000000E+03 0.  1.
</event>
<event>
 4    1  0.3115421E-002  0.3046139E+03  0.7818608E-02  0.1082957E+00
          2   -1    0    0  502    0  0.00000000000E+00  0.00000000000E+00  0.52629319581E+03  0.52629319581E+03  0.00000000000E+00 0. -1.
         -2   -1    0    0    0  501 -0.00000000000E+00 -0.00000000000E+00 -0.25642022389E+03  0.25642022389E+03  0.00000000000E+00 0.  1.
          6    1    1    2  502    0 -0.10732972547E+03 -0.22734544498E+03  0.35368567404E+03  0.46677958112E+03  0.17200000000E+03 0. -1.
         -6    1    1    2    0  501  0.10732972547E+03  0.22734544498E+03 -0.83812702113E+02  0.31593383858E+03  0.17200000000E+03 0.  1.
</event>
<event>
 4    1  0.3115421E-002  0.1879219E+03  0.7818608E-02  0.1160349E+00
         -2   -1    0    0    0  501 -0.00000000000E+00  0.00000000000E+00  0.22795194689E+02  0.22795194689E+02  0.00000000000E+00 0.  1.
          2   -1    0    0  502    0  0.00000000000E+00 -0.00000000000E+00 -0.15840680297E+04  0.15840680297E+04  0.00000000000E+00 0. -1.
          6    1    1    2  502    0  0.32332704785E+01  0.75632016653E+02 -0.66146209390E+03  0.68763853706E+03  0.17200000000E+03 0.  1.
         -6    1    1    2    0  501 -0.32332704785E+01 -0.75632016653E+02 -0.89981074115E+03  0.91922468737E+03  0.17200000000E+03 0. -1.
</event>
<event>
 4    1  0.3115421E-002  0.2340017E+03  0.7818608E-02  0.1123854E+00
          2   -1    0    0  502    0  0.00000000000E+00  0.00000000000E+00  0.87660709199E+03  0.87660709199E+03  0.00000000000E+00 0. -1.
         -2   -1    0    0    0  501 -0.00000000000E+00 -0.00000000000E+00 -0.68837737908E+02  0.68837737908E+02  0.00000000000E+00 0.  1.
          6    1    1    2  502    0 -0.14483756988E+03 -0.64767832814E+02  0.54772283979E+03  0.59561489491E+03  0.17200000000E+03 0. -1.
         -6    1    1    2    0  501  0.14483756988E+03  0.64767832814E+02  0.26004651430E+03  0.34982993499E+03  0.17200000000E+03 0.  1.
</event>
<event>
 4    1  0.3115421E-002  0.3003656E+03  0.7818608E-02  0.1085058E+00
         -2   -1    0    0    0  501 -0.00000000000E+00  0.00000000000E+00  0.31827827509E+03  0.31827827509E+03  0.00000000000E+00 0.  1.
          2   -1    0    0  502    0  0.00000000000E+00 -0.00000000000E+00 -0.31221259924E+03  0.31221259924E+03  0.00000000000E+00 0. -1.
          6    1    1    2  502    0  0.19226354111E+03  0.15385135375E+03  0.98698016034E+02  0.31616578983E+03  0.17200000000E+03 0.  1.
         -6    1    1    2    0  501 -0.19226354111E+03 -0.15385135375E+03 -0.92632340186E+02  0.31432508449E+03  0.17200000000E+03 0. -1.
</event>
<event>
 4    1  0.3115421E-002  0.1896858E+03  0.7818608E-02  0.1158745E+00
         -1   -1    0    0    0  501 -0.00000000000E+00  0.00000000000E+00  0.27464317043E+03  0.27464317043E+03  0.00000000000E+00 0.  1.
          1   -1    0    0  502    0  0.00000000000E+00 -0.00000000000E+00 -0.30037748861E+03  0.30037748861E+03  0.00000000000E+00 0. -1.
          6    1    1    2  502    0 -0.43436923852E+02  0.67155934762E+02 -0.22875901499E+03  0.29717229492E+03  0.17200000000E+03 0. -1.
         -6    1    1    2    0  501  0.43436923852E+02 -0.67155934762E+02  0.20302469682E+03  0.27784836412E+03  0.17200000000E+03 0.  1.
</event>
<event>
 4    1  0.3115421E-002  0.3744671E+03  0.7818608E-02  0.1052998E+00
         -4   -1    0    0    0  501 -0.00000000000E+00  0.00000000000E+00  0.57847839497E+03  0.57847839497E+03  0.00000000000E+00 0.  1.
          4   -1    0    0  502    0  0.00000000000E+00 -0.00000000000E+00 -0.25374729405E+03  0.25374729405E+03  0.00000000000E+00 0. -1.
          6    1    1    2  502    0  0.45613027666E+02 -0.32948604326E+03  0.74387183024E+02  0.38178404104E+03  0.17200000000E+03 0. -1.
         -6    1    1    2    0  501 -0.45613027666E+02  0.32948604326E+03  0.25034391790E+03  0.45044164797E+03  0.17200000000E+03 0.  1.
</event>
<event>
 4    1  0.3115421E-002  0.2766628E+03  0.7818608E-02  0.1097526E+00
         -1   -1    0    0    0  501 -0.00000000000E+00  0.00000000000E+00  0.15012859813E+03  0.15012859813E+03  0.00000000000E+00 0.  1.
          1   -1    0    0  502    0  0.00000000000E+00 -0.00000000000E+00 -0.11257895493E+04  0.11257895493E+04  0.00000000000E+00 0. -1.
          6    1    1    2  502    0 -0.93225794621E+02 -0.19562013173E+03 -0.95971430157E+03  0.99879618810E+03  0.17200000000E+03 0. -1.
         -6    1    1    2    0  501  0.93225794621E+02  0.19562013173E+03 -0.15946649624E+02  0.27712195936E+03  0.17200000000E+03 0.  1.
</event>
<event>
 4    1  0.3115421E-002  0.2363699E+03  0.7818608E-02  0.1122235E+00
         -1   -1    0    0    0  501 -0.00000000000E+00  0.00000000000E+00  0.59025660013E+02  0.59025660013E+02  0.00000000000E+00 0.  1.
          1   -1    0    0  502    0  0.00000000000E+00 -0.00000000000E+00 -0.10926579703E+04  0.10926579703E+04  0.00000000000E+00 0. -1.
          6    1    1    2  502    0 -0.57135741039E+02  0.15173076604E+03 -0.30624516356E+03  0.38685503547E+03  0.17200000000E+03 0.  1.
         -6    1    1    2    0  501  0.57135741039E+02 -0.15173076604E+03 -0.72738714677E+03  0.76482859489E+03  0.17200000000E+03 0. -1.
</event>
<event>
 4    1  0.3115421E-002  0.1860530E+03  0.7818608E-02  0.1162070E+00
         -1   -1    0    0    0  501 -0.00000000000E+00  0.00000000000E+00  0.39912712455E+03  0.39912712455E+03  0.00000000000E+00 0.  1.
          1   -1    0    0  502    0  0.00000000000E+00 -0.00000000000E+00 -0.20990226656E+03  0.20990226656E+03  0.00000000000E+00 0. -1.
          6    1    1    2  502    0  0.70897850809E+02  0.22799740394E+01 -0.13865750868E+03  0.23203794570E+03  0.17200000000E+03 0. -1.
         -6    1    1    2    0  501 -0.70897850809E+02 -0.22799740394E+01  0.32788236668E+03  0.37699144540E+03  0.17200000000E+03 0.  1.
</event>
<event>
 4    1  0.3115421E-002  0.3949771E+03  0.7818608E-02  0.1045533E+00
          1   -1    0    0  502    0  0.00000000000E+00  0.00000000000E+00  0.69264978949E+03  0.69264978949E+03  0.00000000000E+00 0. -1.
         -1   -1    0    0    0  501 -0.00000000000E+00 -0.00000000000E+00 -0.24434739733E+03  0.24434739733E+03  0.00000000000E+00 0.  1.
          6    1    1    2  502    0  0.19859643978E+03  0.29492769039E+03  0.35518889073E+03  0.53119303135E+03  0.17200000000E+03 0.  1.
         -6    1    1    2    0  501 -0.19859643978E+03 -0.29492769039E+03  0.93113501423E+02  0.40580415548E+03  0.17200000000E+03 0.  1.
</event>
<event>
 4    1  0.3115421E-002  0.1831149E+03  0.7818608E-02  0.1164822E+00
          2   -1    0    0  502    0  0.00000000000E+00  0.00000000000E+00  0.10464309112E+04  0.10464309112E+04  0.00000000000E+00 0. -1.
         -2   -1    0    0    0  501 -0.00000000000E+00 -0.00000000000E+00 -0.36885812287E+02  0.36885812287E+02  0.00000000000E+00 0.  1.
          6    1    1    2  502    0 -0.10716957698E+02 -0.61904824129E+02  0.30851208569E+03  0.35876282897E+03  0.17200000000E+03 0.  1.
         -6    1    1    2    0  501  0.10716957698E+02  0.61904824129E+02  0.70103301317E+03  0.72455389447E+03  0.17200000000E+03 0. -1.
</event>
<event>
 4    1  0.3115421E-002  0.2301338E+03  0.7818608E-02  0.1126546E+00
          1   -1    0    0  502    0  0.00000000000E+00  0.00000000000E+00  0.13776719225E+04  0.13776719225E+04  0.00000000000E+00 0. -1.
         -1   -1    0    0    0  501 -0.00000000000E+00 -0.00000000000E+00 -0.78098876347E+02  0.78098876347E+02  0.00000000000E+00 0.  1.
          6    1    1    2  502    0  0.15002460756E+03 -0.29499063750E+02  0.11684616726E+04  0.11909090049E+04  0.17200000000E+03 0. -1.
         -6    1    1    2    0  501 -0.15002460756E+03  0.29499063750E+02  0.13111137364E+03  0.26486179403E+03  0.17200000000E+03 0.  1.
</event>
<event>
 4    1  0.3115421E-002  0.3440747E+03  0.7818608E-02  0.1065074E+00
         -2   -1    0    0    0  501 -0.00000000000E+00  0.00000000000E+00  0.55377170707E+03  0.55377170707E+03  0.00000000000E+00 0.  1.
          2   -1    0    0  502    0  0.00000000000E+00 -0.00000000000E+00 -0.21378419535E+03  0.21378419535E+03  0.00000000000E+00 0. -1.
          6    1    1    2  502    0  0.14828874525E+03  0.25848372871E+03  0.17055013656E+03  0.38402439904E+03  0.17200000000E+03 0. -1.
         -6    1    1    2    0  501 -0.14828874525E+03 -0.25848372871E+03  0.16943737516E+03  0.38353150337E+03  0.17200000000E+03 0.  1.
</event>
<event>
 4    1  0.3115421E-002  0.2138949E+03  0.7818608E-02  0.1138518E+00
          2   -1    0    0  502    0  0.00000000000E+00  0.00000000000E+00  0.14996910656E+04  0.14996910656E+04  0.00000000000E+00 0. -1.
         -2   -1    0    0    0  501 -0.00000000000E+00 -0.00000000000E+00 -0.31581087663E+02  0.31581087663E+02  0.00000000000E+00 0.  1.
          6    1    1    2  502    0 -0.11986338812E+03  0.42423952803E+02  0.87525531139E+03  0.90101214403E+03  0.17200000000E+03 0. -1.
         -6    1    1    2    0  501  0.11986338812E+03 -0.42423952803E+02  0.59285466654E+03  0.63026000922E+03  0.17200000000E+03 0.  1.
</event>
<event>
 4    1  0.3115421E-002  0.2573104E+03  0.7818608E-02  0.1108770E+00
         -1   -1    0    0    0  501 -0.00000000000E+00  0.00000000000E+00  0.37500302393E+02  0.37500302393E+02  0.00000000000E+00 0.  1.
          1   -1    0    0  502    0  0.00000000000E+00 -0.00000000000E+00 -0.18071200291E+04  0.18071200291E+04  0.00000000000E+00 0. -1.
          6    1    1    2  502    0 -0.41593672768E+02 -0.18680093794E+03 -0.10246972369E+04  0.10565098444E+04  0.17200000000E+03 0.  1.
         -6    1    1    2    0  501  0.41593672768E+02  0.18680093794E+03 -0.74492248983E+03  0.78811048710E+03  0.17200000000E+03 0. -1.
</event>
<event>
 4    1  0.3115421E-002  0.2900947E+03  0.7818608E-02  0.1090300E+00
          2   -1    0    0  502    0  0.00000000000E+00  0.00000000000E+00  0.12138287077E+04  0.12138287077E+04  0.00000000000E+00 0. -1.
         -2   -1    0    0    0  501 -0.00000000000E+00 -0.00000000000E+00 -0.74408855153E+02  0.74408855153E+02  0.00000000000E+00 0.  1.
          6    1    1    2  502    0  0.19227156809E+03  0.13267475224E+03  0.73798875019E+03  0.79295796937E+03  0.17200000000E+03 0. -1.
         -6    1    1    2    0  501 -0.19227156809E+03 -0.13267475224E+03  0.40143110232E+03  0.49527959345E+03  0.17200000000E+03 0.  1.
</event>
<event>
 4    1  0.3115421E-002  0.1740707E+03  0.7818608E-02  0.1173668E+00
          2   -1    0    0  502    0  0.00000000000E+00  0.00000000000E+00  0.34578044629E+03  0.34578044629E+03  0.00000000000E+00 0. -1.
         -2   -1    0    0    0  501 -0.00000000000E+00 -0.00000000000E+00 -0.97211021252E+02  0.97211021252E+02  0.00000000000E+00 0.  1.
          6    1    1    2  502    0  0.15969640463E+02 -0.21484695791E+02  0.19382257077E+03  0.26051451113E+03  0.17200000000E+03 0. -1.
         -6    1    1    2    0  501 -0.15969640463E+02  0.21484695791E+02  0.54746854272E+02  0.18247695641E+03  0.17200000000E+03 0.  1.
</event>
<event>
 4    1  0.3115421E-002  0.2949075E+03  0.7818608E-02  0.1087814E+00
         -3   -1    0    0    0  501 -0.00000000000E+00  0.00000000000E+00  0.19523846675E+04  0.19523846675E+04  0.00000000000E+00 0.  1.
          3   -1    0    0  502    0  0.00000000000E+00 -0.00000000000E+00 -0.69322304798E+02  0.69322304798E+02  0.00000000000E+00 0. -1.
          6    1    1    2  502    0 -0.87475454468E+02  0.22301224284E+03  0.15458585758E+04  0.15737373199E+04  0.17200000000E+03 0.  1.
         -6    1    1    2    0  501  0.87475454468E+02 -0.22301224284E+03  0.33720378689E+03  0.44796965241E+03  0.17200000000E+03 0. -1.
</event>
<event>
 4    1  0.3115421E-002  0.2056290E+03  0.7818608E-02  0.1145075E+00
          3   -1    0    0  502    0  0.00000000000E+00  0.00000000000E+00  0.22302361762E+03  0.22302361762E+03  0.00000000000E+00 0. -1.
         -3   -1    0    0    0  501 -0.00000000000E+00 -0.00000000000E+00 -0.18983585727E+03  0.18983585727E+03  0.00000000000E+00 0.  1.
          6    1    1    2  502    0 -0.99868931340E+02  0.52206031148E+02  0.91802673551E+01  0.20583379325E+03  0.17200000000E+03 0. -1.
         -6    1    1    2    0  501  0.99868931340E+02 -0.52206031148E+02  0.24007492994E+02  0.20702568163E+03  0.17200000000E+03 0.  1.
</event>
<event>
 4    1  0.3115421E-002  0.5669505E+03  0.7818608E-02  0.9976449E-01
          1   -1    0    0  502    0  0.00000000000E+00  0.00000000000E+00  0.70557573653E+03  0.70557573653E+03  0.00000000000E+00 0. -1.
         -1   -1    0    0    0  501 -0.00000000000E+00 -0.00000000000E+00 -0.73340400107E+03  0.73340400107E+03  0.00000000000E+00 0.  1.
          6    1    1    2  502    0 -0.48755072728E+03 -0.23268685471E+03  0.42893181026E+03  0.71092572178E+03  0.17200000000E+03 0. -1.
         -6    1    1    2    0  501  0.48755072728E+03  0.23268685471E+03 -0.45676007481E+03  0.72805401583E+03  0.17200000000E+03 0.  1.
</event>
<event>
 4    1  0.3115421E-002  0.2300900E+03  0.7818608E-02  0.1126576E+00
          1   -1    0    0  502    0  0.00000000000E+00  0.00000000000E+00  0.11119967798E+04  0.11119967798E+04  0.00000000000E+00 0. -1.
         -1   -1    0    0    0  501 -0.00000000000E+00 -0.00000000000E+00 -0.10729155002E+03  0.10729155002E+03  0.00000000000E+00 0.  1.
          6    1    1    2  502    0 -0.80689689143E+02 -0.12979447067E+03  0.95704336275E+03  0.98431368412E+03  0.17200000000E+03 0. -1.
         -6    1    1    2    0  501  0.80689689143E+02  0.12979447067E+03  0.47661867017E+02  0.23497464569E+03  0.17200000000E+03 0.  1.
</event>
<event>
 4    1  0.3115421E-002  0.3241633E+03  0.7818608E-02  0.1073749E+00
         -1   -1    0    0    0  501 -0.00000000000E+00  0.00000000000E+00  0.49812981821E+03  0.49812981821E+03  0.00000000000E+00 0.  1.
          1   -1    0    0  502    0  0.00000000000E+00 -0.00000000000E+00 -0.29470235823E+03  0.29470235823E+03  0.00000000000E+00 0. -1.
          6    1    1    2  502    0 -0.27323231020E+03 -0.29016469269E+02 -0.10961127113E+03  0.34219363171E+03  0.17200000000E+03 0. -1.
         -6    1    1    2    0  501  0.27323231020E+03  0.29016469269E+02  0.31303873111E+03  0.45063854473E+03  0.17200000000E+03 0.  1.
</event>
<event>
 4    1  0.3115421E-002  0.1739631E+03  0.7818608E-02  0.1173777E+00
          2   -1    0    0  502    0  0.00000000000E+00  0.00000000000E+00  0.62363066043E+03  0.62363066043E+03  0.00000000000E+00 0. -1.
         -2   -1    0    0    0  501 -0.00000000000E+00 -0.00000000000E+00 -0.49880904189E+02  0.49880904189E+02  0.00000000000E+00 0.  1.
          6    1    1    2  502    0  0.25935205601E+02  0.25520523038E+01  0.23140150674E+03  0.28949923175E+03  0.17200000000E+03 0.  1.
         -6    1    1    2    0  501 -0.25935205601E+02 -0.25520523038E+01  0.34234824950E+03  0.38401233287E+03  0.17200000000E+03 0.  1.
</event>
<event>
 4    1  0.3115421E-002  0.2352780E+03  0.7818608E-02  0.1122979E+00
          1   -1    0    0  502    0  0.00000000000E+00  0.00000000000E+00  0.15123811238E+03  0.15123811238E+03  0.00000000000E+00 0. -1.
         -1   -1    0    0    0  501 -0.00000000000E+00 -0.00000000000E+00 -0.38990905698E+03  0.38990905698E+03  0.00000000000E+00 0.  1.
          6    1    1    2  502    0  0.89244385748E+02  0.13344360576E+03 -0.52358064752E+02  0.24103344841E+03  0.17200000000E+03 0. -1.
         -6    1    1    2    0  501 -0.89244385748E+02 -0.13344360576E+03 -0.18631287985E+03  0.30011372095E+03  0.17200000000E+03 0.  1.
</event>
<event>
 4    1  0.3115421E-002  0.3573814E+03  0.7818608E-02  0.1059626E+00
         -1   -1    0    0    0  501 -0.00000000000E+00  0.00000000000E+00  0.10469270131E+03  0.10469270131E+03  0.00000000000E+00 0.  1.
          1   -1    0    0  502    0  0.00000000000E+00 -0.00000000000E+00 -0.13927568445E+04  0.13927568445E+04  0.00000000000E+00 0. -1.
          6    1    1    2  502    0 -0.26283345981E+03 -0.17045827003E+03 -0.90775382564E+03  0.97557083668E+03  0.17200000000E+03 0. -1.
         -6    1    1    2    0  501  0.26283345981E+03  0.17045827003E+03 -0.38031031757E+03  0.52187870916E+03  0.17200000000E+03 0.  1.
</event>
<event>
 4    1  0.3115421E-002  0.1762398E+03  0.7818608E-02  0.1171493E+00
          1   -1    0    0  502    0  0.00000000000E+00  0.00000000000E+00  0.54706165313E+03  0.54706165313E+03  0.00000000000E+00 0. -1.
         -1   -1    0    0    0  501 -0.00000000000E+00 -0.00000000000E+00 -0.66372853448E+02  0.66372853448E+02  0.00000000000E+00 0.  1.
          6    1    1    2  502    0  0.16506108131E+02  0.34699052196E+02  0.35696803409E+03  0.39810382212E+03  0.17200000000E+03 0. -1.
         -6    1    1    2    0  501 -0.16506108131E+02 -0.34699052196E+02  0.12372076560E+03  0.21533068446E+03  0.17200000000E+03 0.  1.
</event>
<event>
 4    1  0.3115421E-002  0.1766118E+03  0.7818608E-02  0.1171123E+00
         -2   -1    0    0    0  501 -0.00000000000E+00  0.00000000000E+00  0.25418201637E+02  0.25418201637E+02  0.00000000000E+00 0.  1.
          2   -1    0    0  502    0  0.00000000000E+00 -0.00000000000E+00 -0.15777593661E+04  0.15777593661E+04  0.00000000000E+00 0. -1.
          6    1    1    2  502    0  0.37948398430E+02 -0.12948225953E+02 -0.11540455201E+04  0.11674813917E+04  0.17200000000E+03 0. -1.
         -6    1    1    2    0  501 -0.37948398430E+02  0.12948225953E+02 -0.39829564440E+03  0.43569617608E+03  0.17200000000E+03 0.  1.
</event>
<event>
 4    1  0.3115421E-002  0.5687601E+03  0.7818608E-02  0.9972426E-01
         -2   -1    0    0    0  501 -0.00000000000E+00  0.00000000000E+00  0.83826824718E+02  0.83826824718E+02  0.00000000000E+00 0.  1.
          2   -1    0    0  502    0  0.00000000000E+00 -0.00000000000E+00 -0.43957556718E+04  0.43957556718E+04  0.00000000000E+00 0. -1.
          6    1    1    2  502    0 -0.51381070709E+03 -0.17292369516E+03 -0.29386322780E+04  0.29931668367E+04  0.17200000000E+03 0. -1.
         -6    1    1    2    0  501  0.51381070709E+03  0.17292369516E+03 -0.13732965691E+04  0.14864156598E+04  0.17200000000E+03 0.  1.
</event>
<event>
 4    1  0.3115421E-002  0.1825998E+03  0.7818608E-02  0.1165310E+00
         -1   -1    0    0    0  501 -0.00000000000E+00  0.00000000000E+00  0.10061363061E+03  0.10061363061E+03  0.00000000000E+00 0.  1.
          1   -1    0    0  502    0  0.00000000000E+00 -0.00000000000E+00 -0.64542755488E+03  0.64542755488E+03  0.00000000000E+00 0. -1.
          6    1    1    2  502    0  0.12578792454E+02 -0.60003803361E+02 -0.53260113893E+03  0.56303344095E+03  0.17200000000E+03 0. -1.
         -6    1    1    2    0  501 -0.12578792454E+02  0.60003803361E+02 -0.12212785351E+02  0.18300774455E+03  0.17200000000E+03 0.  1.
</event>
<event>
 4    1  0.3115421E-002  0.2270538E+03  0.7818608E-02  0.1128731E+00
         -3   -1    0    0    0  501 -0.00000000000E+00  0.00000000000E+00  0.13247574755E+03  0.13247574755E+03  0.00000000000E+00 0.  1.
          3   -1    0    0  502    0  0.00000000000E+00 -0.00000000000E+00 -0.49271135243E+03  0.49271135243E+03  0.00000000000E+00 0. -1.
          6    1    1    2  502    0 -0.13605596501E+03 -0.58806630532E+02 -0.36808447817E+02  0.23001805851E+03  0.17200000000E+03 0.  1.
         -6    1    1    2    0  501  0.13605596501E+03  0.58806630532E+02 -0.32342715707E+03  0.39516904147E+03  0.17200000000E+03 0.  1.
</event>
<event>
 4    1  0.3115421E-002  0.1906852E+03  0.7818608E-02  0.1157845E+00
          2   -1    0    0  502    0  0.00000000000E+00  0.00000000000E+00  0.44678773700E+03  0.44678773700E+03  0.00000000000E+00 0. -1.
         -2   -1    0    0    0  501 -0.00000000000E+00 -0.00000000000E+00 -0.81968488384E+02  0.81968488384E+02  0.00000000000E+00 0.  1.
          6    1    1    2  502    0 -0.30371287523E+02 -0.76514356580E+02  0.20475639322E+03  0.27979643035E+03  0.17200000000E+03 0. -1.
         -6    1    1    2    0  501  0.30371287523E+02  0.76514356580E+02  0.16006285539E+03  0.24895979504E+03  0.17200000000E+03 0.  1.
</event>
<event>
 4    1  0.3115421E-002  0.2191422E+03  0.7818608E-02  0.1134524E+00
          1   -1    0    0  502    0  0.00000000000E+00  0.00000000000E+00  0.14515234085E+04  0.14515234085E+04  0.00000000000E+00 0. -1.
         -1   -1    0    0    0  501 -0.00000000000E+00 -0.00000000000E+00 -0.10151084456E+03  0.10151084456E+03  0.00000000000E+00 0.  1.
          6    1    1    2  502    0 -0.92653575075E+02  0.99270509394E+02  0.13125436269E+04  0.13307118740E+04  0.17200000000E+03 0. -1.
         -6    1    1    2    0  501  0.92653575075E+02 -0.99270509394E+02  0.37468937069E+02  0.22232237911E+03  0.17200000000E+03 0.  1.
</event>
<event>
 4    1  0.3115421E-002  0.3134151E+03  0.7818608E-02  0.1078720E+00
         -1   -1    0    0    0  501 -0.00000000000E+00  0.00000000000E+00  0.72938362622E+02  0.72938362622E+02  0.00000000000E+00 0.  1.
          1   -1    0    0  502    0  0.00000000000E+00 -0.00000000000E+00 -0.18833970594E+04  0.18833970594E+04  0.00000000000E+00 0. -1.
          6    1    1    2  502    0 -0.25697058083E+03 -0.51099587161E+02 -0.14273737168E+04  0.14613776974E+04  0.17200000000E+03 0. -1.
         -6    1    1    2    0  501  0.25697058083E+03  0.51099587161E+02 -0.38308497998E+03  0.49495772456E+03  0.17200000000E+03 0.  1.
</event>
<event>
 4    1  0.3115421E-002  0.2997906E+03  0.7818608E-02  0.1085345E+00
         -1   -1    0    0    0  501 -0.00000000000E+00  0.00000000000E+00  0.65309658184E+03  0.65309658184E+03  0.00000000000E+00 0.  1.
          1   -1    0    0  502    0  0.00000000000E+00 -0.00000000000E+00 -0.15306429728E+03  0.15306429728E+03  0.00000000000E+00 0. -1.
          6    1    1    2  502    0 -0.20444966913E+03  0.13598073239E+03  0.37808411703E+03  0.48251634826E+03  0.17200000000E+03 0.  1.
         -6    1    1    2    0  501  0.20444966913E+03 -0.13598073239E+03  0.12194816754E+03  0.32364453086E+03  0.17200000000E+03 0.  1.
</event>
<event>
 4    1  0.3115421E-002  0.1734201E+03  0.7818608E-02  0.1174327E+00
          2   -1    0    0  502    0  0.00000000000E+00  0.00000000000E+00  0.46913790846E+02  0.46913790846E+02  0.00000000000E+00 0. -1.
         -2   -1    0    0    0  501 -0.00000000000E+00 -0.00000000000E+00 -0.64568359039E+03  0.64568359039E+03  0.00000000000E+00 0.  1.
          6    1    1    2  502    0 -0.20369676990E+02  0.86943279052E+01 -0.32869183279E+03  0.37163535357E+03  0.17200000000E+03 0.  1.
         -6    1    1    2    0  501  0.20369676990E+02 -0.86943279052E+01 -0.27007796675E+03  0.32096202766E+03  0.17200000000E+03 0. -1.
</event>
<event>
 4    1  0.3115421E-002  0.1857991E+03  0.7818608E-02  0.1162306E+00
         -1   -1    0    0    0  501 -0.00000000000E+00  0.00000000000E+00  0.25693025604E+03  0.25693025604E+03  0.00000000000E+00 0.  1.
          1   -1    0    0  502    0  0.00000000000E+00 -0.00000000000E+00 -0.13906769843E+03  0.13906769843E+03  0.00000000000E+00 0. -1.
          6    1    1    2  502    0 -0.30548110080E+02 -0.63278149714E+02  0.22504142185E+02  0.18715701343E+03  0.17200000000E+03 0. -1.
         -6    1    1    2    0  501  0.30548110080E+02  0.63278149714E+02  0.95358415422E+02  0.20884094104E+03  0.17200000000E+03 0.  1.
</event>
<event>
 4    1  0.3115421E-002  0.1731970E+03  0.7818608E-02  0.1174554E+00
          4   -1    0    0  502    0  0.00000000000E+00  0.00000000000E+00  0.15148104119E+03  0.15148104119E+03  0.00000000000E+00 0. -1.
         -4   -1    0    0    0  501 -0.00000000000E+00 -0.00000000000E+00 -0.25982813530E+03  0.25982813530E+03  0.00000000000E+00 0.  1.
          6    1    1    2  502    0  0.49187413917E+01  0.19723430585E+02  0.46125433804E+02  0.17923382319E+03  0.17200000000E+03 0. -1.
         -6    1    1    2    0  501 -0.49187413917E+01 -0.19723430585E+02 -0.15447252791E+03  0.23207535330E+03  0.17200000000E+03 0.  1.
</event>
<event>
 4    1  0.3115421E-002  0.2082646E+03  0.7818608E-02  0.1142948E+00
         -1   -1    0    0    0  501 -0.00000000000E+00  0.00000000000E+00  0.19600263034E+03  0.19600263034E+03  0.00000000000E+00 0.  1.
          1   -1    0    0  502    0  0.00000000000E+00 -0.00000000000E+00 -0.22871456362E+03  0.22871456362E+03  0.00000000000E+00 0. -1.
          6    1    1    2  502    0  0.88835123402E+02 -0.76801425955E+02 -0.54607735359E+02  0.21530476757E+03  0.17200000000E+03 0. -1.
         -6    1    1    2    0  501 -0.88835123402E+02  0.76801425955E+02  0.21895802079E+02  0.20941242639E+03  0.17200000000E+03 0.  1.
</event>
<event>
 4    1  0.3115421E-002  0.2008732E+03  0.7818608E-02  0.1149004E+00
          1   -1    0    0  502    0  0.00000000000E+00  0.00000000000E+00  0.58075231611E+03  0.58075231611E+03  0.00000000000E+00 0. -1.
         -1   -1    0    0    0  501 -0.00000000000E+00 -0.00000000000E+00 -0.24208917858E+03  0.24208917858E+03  0.00000000000E+00 0.  1.
          6    1    1    2  502    0 -0.23005132768E+02  0.10117716605E+03  0.51673313916E+03  0.55440345613E+03  0.17200000000E+03 0. -1.
         -6    1    1    2    0  501  0.23005132768E+02 -0.10117716605E+03 -0.17807000163E+03  0.26843803856E+03  0.17200000000E+03 0.  1.
</event>
<event>
 4    1  0.3115421E-002  0.2552173E+03  0.7818608E-02  0.1110051E+00
          1   -1    0    0  502    0  0.00000000000E+00  0.00000000000E+00  0.12996178010E+04  0.12996178010E+04  0.00000000000E+00 0. -1.
         -1   -1    0    0    0  501 -0.00000000000E+00 -0.00000000000E+00 -0.62163721317E+02  0.62163721317E+02  0.00000000000E+00 0.  1.
          6    1    1    2  502    0 -0.80026761907E+02 -0.17072669521E+03  0.91843795900E+03  0.95323877995E+03  0.17200000000E+03 0. -1.
         -6    1    1    2    0  501  0.80026761907E+02  0.17072669521E+03  0.31901612066E+03  0.40854274234E+03  0.17200000000E+03 0.  1.
</event>
<event>
 4    1  0.3115421E-002  0.2519853E+03  0.7818608E-02  0.1112057E+00
         -1   -1    0    0    0  501 -0.00000000000E+00  0.00000000000E+00  0.18200479185E+03  0.18200479185E+03  0.00000000000E+00 0.  1.
          1   -1    0    0  502    0  0.00000000000E+00 -0.00000000000E+00 -0.35000645206E+03  0.35000645206E+03  0.00000000000E+00 0. -1.
          6    1    1    2  502    0  0.16031575992E+03 -0.90617125851E+02 -0.68865106949E+02  0.26122597369E+03  0.17200000000E+03 0.  1.
         -6    1    1    2    0  501 -0.16031575992E+03  0.90617125851E+02 -0.99136553269E+02  0.27078527022E+03  0.17200000000E+03 0. -1.
</event>
<event>
 4    1  0.3115421E-002  0.3504068E+03  0.7818608E-02  0.1062448E+00
          2   -1    0    0  502    0  0.00000000000E+00  0.00000000000E+00  0.67426755688E+03  0.67426755688E+03  0.00000000000E+00 0. -1.
         -2   -1    0    0    0  501 -0.00000000000E+00 -0.00000000000E+00 -0.18830050781E+03  0.18830050781E+03  0.00000000000E+00 0.  1.
          6    1    1    2  502    0 -0.18005484636E+03 -0.24653844363E+03  0.32123781556E+03  0.47537215530E+03  0.17200000000E+03 0. -1.
         -6    1    1    2    0  501  0.18005484636E+03  0.24653844363E+03  0.16472923351E+03  0.38719590940E+03  0.17200000000E+03 0.  1.
</event>
<event>
 4    1  0.3115421E-002  0.5174743E+03  0.7818608E-02  0.1009316E+00
          1   -1    0    0  502    0  0.00000000000E+00  0.00000000000E+00  0.32071642698E+04  0.32071642698E+04  0.00000000000E+00 0. -1.
         -1   -1    0    0    0  501 -0.00000000000E+00 -0.00000000000E+00 -0.85976973848E+02  0.85976973848E+02  0.00000000000E+00 0.  1.
          6    1    1    2  502    0 -0.48000701489E+03 -0.88254692974E+02  0.18404000118E+04  0.19117666774E+04  0.17200000000E+03 0. -1.
         -6    1    1    2    0  501  0.48000701489E+03  0.88254692974E+02  0.12807872842E+04  0.13813745663E+04  0.17200000000E+03 0.  1.
</event>
<event>
 4    1  0.3115421E-002  0.3042823E+03  0.7818608E-02  0.1083119E+00
         -2   -1    0    0    0  501 -0.00000000000E+00  0.00000000000E+00  0.42964713220E+02  0.42964713220E+02  0.00000000000E+00 0.  1.
          2   -1    0    0  502    0  0.00000000000E+00 -0.00000000000E+00 -0.35138472113E+04  0.35138472113E+04  0.00000000000E+00 0. -1.
          6    1    1    2  502    0  0.24984528020E+02  0.24975885565E+03 -0.28413757609E+04  0.28576220756E+04  0.17200000000E+03 0. -1.
         -6    1    1    2    0  501 -0.24984528020E+02 -0.24975885565E+03 -0.62950673724E+03  0.69918984893E+03  0.17200000000E+03 0.  1.
</event>
<event>
 4    1  0.3115421E-002  0.2611642E+03  0.7818608E-02  0.1106446E+00
         -1   -1    0    0    0  501 -0.00000000000E+00  0.00000000000E+00  0.15681194579E+03  0.15681194579E+03  0.00000000000E+00 0.  1.
          1   -1    0    0  502    0  0.00000000000E+00 -0.00000000000E+00 -0.46641086809E+03  0.46641086809E+03  0.00000000000E+00 0. -1.
          6    1    1    2  502    0 -0.18819795063E+03  0.56606346852E+02 -0.73879974303E+02  0.27141296529E+03  0.17200000000E+03 0.  1.
         -6    1    1    2    0  501  0.18819795063E+03 -0.56606346852E+02 -0.23571894799E+03  0.35180984860E+03  0.17200000000E+03 0. -1.
</event>
<event>
 4    1  0.3115421E-002  0.2039455E+03  0.7818608E-02  0.1146452E+00
          1   -1    0    0  502    0  0.00000000000E+00  0.00000000000E+00  0.32902682814E+03  0.32902682814E+03  0.00000000000E+00 0. -1.
         -1   -1    0    0    0  501 -0.00000000000E+00 -0.00000000000E+00 -0.13809193994E+03  0.13809193994E+03  0.00000000000E+00 0.  1.
          6    1    1    2  502    0  0.99252383630E+02 -0.46462153524E+02  0.16338572296E+03  0.26132099386E+03  0.17200000000E+03 0.  1.
         -6    1    1    2    0  501 -0.99252383630E+02  0.46462153524E+02  0.27549165233E+02  0.20579777421E+03  0.17200000000E+03 0.  1.
</event>
<event>
 4    1  0.3115421E-002  0.3301432E+03  0.7818608E-02  0.1071074E+00
         -2   -1    0    0    0  501 -0.00000000000E+00  0.00000000000E+00  0.43825007891E+03  0.43825007891E+03  0.00000000000E+00 0.  1.
          2   -1    0    0  502    0  0.00000000000E+00 -0.00000000000E+00 -0.63927863031E+03  0.63927863031E+03  0.00000000000E+00 0. -1.
          6    1    1    2  502    0 -0.15119639269E+03 -0.23780281153E+03 -0.52163421315E+03  0.61733036428E+03  0.17200000000E+03 0. -1.
         -6    1    1    2    0  501  0.15119639269E+03  0.23780281153E+03  0.32060566175E+03  0.46019834493E+03  0.17200000000E+03 0.  1.
</event>
<event>
 4    1  0.3115421E-002  0.2175839E+03  0.7818608E-02  0.1135697E+00
          2   -1    0    0  502    0  0.00000000000E+00  0.00000000000E+00  0.20055426780E+04  0.20055426780E+04  0.00000000000E+00 0. -1.
         -2   -1    0    0    0  501 -0.00000000000E+00 -0.00000000000E+00 -0.25201721757E+02  0.25201721757E+02  0.00000000000E+00 0.  1.
          6    1    1    2  502    0 -0.36124390734E+02 -0.12827227838E+03  0.12456728586E+04  0.12645329650E+04  0.17200000000E+03 0. -1.
         -6    1    1    2    0  501  0.36124390734E+02  0.12827227838E+03  0.73466809765E+03  0.76621143473E+03  0.17200000000E+03 0.  1.
</event>
<event>
 4    1  0.3115421E-002  0.6838078E+03  0.7818608E-02  0.9745331E-01
          1   -1    0    0  502    0  0.00000000000E+00  0.00000000000E+00  0.14391755288E+04  0.14391755288E+04  0.00000000000E+00 0. -1.
         -1   -1    0    0    0  501 -0.00000000000E+00 -0.00000000000E+00 -0.33992018095E+03  0.33992018095E+03  0.00000000000E+00 0.  1.
          6    1    1    2  502    0 -0.66182251050E+03  0.23286209016E+00  0.73659623710E+03  0.10050706971E+04  0.17200000000E+03 0. -1.
         -6    1    1    2    0  501  0.66182251050E+03 -0.23286209016E+00  0.36265911076E+03  0.77402501267E+03  0.17200000000E+03 0.  1.
</event>
<event>
 4    1  0.3115421E-002  0.1912530E+03  0.7818608E-02  0.1157336E+00
         -2   -1    0    0    0  501 -0.00000000000E+00  0.00000000000E+00  0.22456835837E+03  0.22456835837E+03  0.00000000000E+00 0.  1.
          2   -1    0    0  502    0  0.00000000000E+00 -0.00000000000E+00 -0.58584204247E+03  0.58584204247E+03  0.00000000000E+00 0. -1.
          6    1    1    2  502    0  0.54384315799E+02  0.63529876738E+02 -0.52493557868E+03  0.55869048749E+03  0.17200000000E+03 0. -1.
         -6    1    1    2    0  501 -0.54384315799E+02 -0.63529876738E+02  0.16366189457E+03  0.25171991335E+03  0.17200000000E+03 0.  1.
</event>
<event>
 4    1  0.3115421E-002  0.1968228E+03  0.7818608E-02  0.1152448E+00
         -1   -1    0    0    0  501 -0.00000000000E+00  0.00000000000E+00  0.40777388677E+03  0.40777388677E+03  0.00000000000E+00 0.  1.
          1   -1    0    0  502    0  0.00000000000E+00 -0.00000000000E+00 -0.13523424458E+03  0.13523424458E+03  0.00000000000E+00 0. -1.
          6    1    1    2  502    0  0.86300881446E+02 -0.41320304612E+02 -0.11818832521E+02  0.19717731744E+03  0.17200000000E+03 0. -1.
         -6    1    1    2    0  501 -0.86300881446E+02  0.41320304612E+02  0.28435847471E+03  0.34583081391E+03  0.17200000000E+03 0.  1.
</event>
<event>
 4    1  0.3115421E-002  0.2487166E+03  0.7818608E-02  0.1114119E+00
         -2   -1    0    0    0  501 -0.00000000000E+00  0.00000000000E+00  0.10334828110E+03  0.10334828110E+03  0.00000000000E+00 0.  1.
          2   -1    0    0  502    0  0.00000000000E+00 -0.00000000000E+00 -0.14871983464E+04  0.14871983464E+04  0.00000000000E+00 0. -1.
          6    1    1    2  502    0  0.11665940666E+03  0.13662559847E+03 -0.13066698884E+04  0.13301301321E+04  0.17200000000E+03 0. -1.
         -6    1    1    2    0  501 -0.11665940666E+03 -0.13662559847E+03 -0.77180176913E+02  0.26041649531E+03  0.17200000000E+03 0.  1.
</event>
<event>
 4    1  0.3115421E-002  0.3069888E+03  0.7818608E-02  0.1081798E+00
         -1   -1    0    0    0  501 -0.00000000000E+00  0.00000000000E+00  0.61444035513E+03  0.61444035513E+03  0.00000000000E+00 0.  1.
          1   -1    0    0  502    0  0.00000000000E+00 -0.00000000000E+00 -0.15367815324E+03  0.15367815324E+03  0.00000000000E+00 0. -1.
          6    1    1    2  502    0 -0.77617406111E+02  0.24214394692E+03  0.21343184669E+03  0.37389210468E+03  0.17200000000E+03 0. -1.
         -6    1    1    2    0  501  0.77617406111E+02 -0.24214394692E+03  0.24733035520E+03  0.39422640369E+03  0.17200000000E+03 0.  1.
</event>
<event>
 4    1  0.3115421E-002  0.1866726E+03  0.7818608E-02  0.1161497E+00
         -1   -1    0    0    0  501 -0.00000000000E+00  0.00000000000E+00  0.40332457308E+02  0.40332457308E+02  0.00000000000E+00 0.  1.
          1   -1    0    0  502    0  0.00000000000E+00 -0.00000000000E+00 -0.90266311978E+03  0.90266311978E+03  0.00000000000E+00 0. -1.
          6    1    1    2  502    0  0.41408067304E+02  0.59565267289E+02 -0.52876491369E+03  0.56074859166E+03  0.17200000000E+03 0. -1.
         -6    1    1    2    0  501 -0.41408067304E+02 -0.59565267289E+02 -0.33356574879E+03  0.38224698543E+03  0.17200000000E+03 0.  1.
</event>
<event>
 4    1  0.3115421E-002  0.1994988E+03  0.7818608E-02  0.1150163E+00
          2   -1    0    0  502    0  0.00000000000E+00  0.00000000000E+00  0.35192262118E+03  0.35192262118E+03  0.00000000000E+00 0. -1.
         -2   -1    0    0    0  501 -0.00000000000E+00 -0.00000000000E+00 -0.21497921959E+03  0.21497921959E+03  0.00000000000E+00 0.  1.
          6    1    1    2  502    0  0.68871876604E+02  0.73975993581E+02 -0.12666482921E+03  0.23631284767E+03  0.17200000000E+03 0.  1.
         -6    1    1    2    0  501 -0.68871876604E+02 -0.73975993581E+02  0.26360823081E+03  0.33058899310E+03  0.17200000000E+03 0. -1.
</event>
<event>
 4    1  0.3115421E-002  0.2351905E+03  0.7818608E-02  0.1123039E+00
          2   -1    0    0  502    0  0.00000000000E+00  0.00000000000E+00  0.14658747147E+04  0.14658747147E+04  0.00000000000E+00 0. -1.
         -2   -1    0    0    0  501 -0.00000000000E+00 -0.00000000000E+00 -0.79028000188E+02  0.79028000188E+02  0.00000000000E+00 0.  1.
          6    1    1    2  502    0  0.58203328740E+02 -0.14947553933E+03  0.12517902321E+04  0.12736928003E+04  0.17200000000E+03 0. -1.
         -6    1    1    2    0  501 -0.58203328740E+02  0.14947553933E+03  0.13505648242E+03  0.27120991460E+03  0.17200000000E+03 0.  1.
</event>
<event>
 4    1  0.3115421E-002  0.1879600E+03  0.7818608E-02  0.1160314E+00
          2   -1    0    0  502    0  0.00000000000E+00  0.00000000000E+00  0.13388787999E+04  0.13388787999E+04  0.00000000000E+00 0. -1.
         -2   -1    0    0    0  501 -0.00000000000E+00 -0.00000000000E+00 -0.45008182247E+02  0.45008182247E+02  0.00000000000E+00 0.  1.
          6    1    1    2  502    0 -0.75232804994E+02  0.92186114811E+01  0.10920058406E+04  0.11080639484E+04  0.17200000000E+03 0. -1.
         -6    1    1    2    0  501  0.75232804994E+02 -0.92186114811E+01  0.20186477699E+03  0.27582303373E+03  0.17200000000E+03 0.  1.
</event>
<event>
 4    1  0.3115421E-002  0.1737497E+03  0.7818608E-02  0.1173993E+00
         -1   -1    0    0    0  501 -0.00000000000E+00  0.00000000000E+00  0.35059202709E+02  0.35059202709E+02  0.00000000000E+00 0.  1.
          1   -1    0    0  502    0  0.00000000000E+00 -0.00000000000E+00 -0.11600040228E+04  0.11600040228E+04  0.00000000000E+00 0. -1.
          6    1    1    2  502    0  0.13695558371E+01  0.24557592527E+02 -0.86579724404E+03  0.88305935181E+03  0.17200000000E+03 0. -1.
         -6    1    1    2    0  501 -0.13695558371E+01 -0.24557592527E+02 -0.25914757609E+03  0.31200387374E+03  0.17200000000E+03 0.  1.
</event>
<event>
 4    1  0.3115421E-002  0.7057723E+03  0.7818608E-02  0.9707411E-01
         -2   -1    0    0    0  501 -0.00000000000E+00  0.00000000000E+00  0.51250053431E+03  0.51250053431E+03  0.00000000000E+00 0.  1.
          2   -1    0    0  502    0  0.00000000000E+00 -0.00000000000E+00 -0.10323600374E+04  0.10323600374E+04  0.00000000000E+00 0. -1.
          6    1    1    2  502    0 -0.62603853679E+02 -0.68162401342E+03 -0.44681321629E+03  0.83531825577E+03  0.17200000000E+03 0. -1.
         -6    1    1    2    0  501  0.62603853679E+02  0.68162401342E+03 -0.73046286846E+02  0.70954231599E+03  0.17200000000E+03 0.  1.
</event>
<event>
 4    1  0.3115421E-002  0.1854364E+03  0.7818608E-02  0.1162643E+00
         -1   -1    0    0    0  501 -0.00000000000E+00  0.00000000000E+00  0.29251998026E+02  0.29251998026E+02  0.00000000000E+00 0.  1.
          1   -1    0    0  502    0  0.00000000000E+00 -0.00000000000E+00 -0.12398907321E+04  0.12398907321E+04  0.00000000000E+00 0. -1.
          6    1    1    2  502    0 -0.29815408055E+02 -0.62559607373E+02 -0.46074472543E+03  0.49666121757E+03  0.17200000000E+03 0. -1.
         -6    1    1    2    0  501  0.29815408055E+02  0.62559607373E+02 -0.74989400867E+03  0.77248151258E+03  0.17200000000E+03 0.  1.
</event>
<event>
 4    1  0.3115421E-002  0.1994998E+03  0.7818608E-02  0.1150162E+00
         -3   -1    0    0    0  501 -0.00000000000E+00  0.00000000000E+00  0.13714318541E+03  0.13714318541E+03  0.00000000000E+00 0.  1.
          3   -1    0    0  502    0  0.00000000000E+00 -0.00000000000E+00 -0.29392110257E+03  0.29392110257E+03  0.00000000000E+00 0. -1.
          6    1    1    2  502    0 -0.76996134759E+02  0.65481036096E+02 -0.10261114847E+03  0.22434174522E+03  0.17200000000E+03 0. -1.
         -6    1    1    2    0  501  0.76996134759E+02 -0.65481036096E+02 -0.54166768691E+02  0.20672254276E+03  0.17200000000E+03 0.  1.
</event>
<event>
 4    1  0.3115421E-002  0.3833225E+03  0.7818608E-02  0.1049713E+00
          2   -1    0    0  502    0  0.00000000000E+00  0.00000000000E+00  0.80939649462E+03  0.80939649462E+03  0.00000000000E+00 0. -1.
         -2   -1    0    0    0  501 -0.00000000000E+00 -0.00000000000E+00 -0.20603899349E+03  0.20603899349E+03  0.00000000000E+00 0.  1.
          6    1    1    2  502    0 -0.29131629330E+03 -0.18024140343E+03  0.47676026560E+03  0.61174872056E+03  0.17200000000E+03 0. -1.
         -6    1    1    2    0  501  0.29131629330E+03  0.18024140343E+03  0.12659723553E+03  0.40368676755E+03  0.17200000000E+03 0.  1.
</event>
<event>
 4    1  0.3115421E-002  0.1767186E+03  0.7818608E-02  0.1171017E+00
         -2   -1    0    0    0  501 -0.00000000000E+00  0.00000000000E+00  0.19265638142E+02  0.19265638142E+02  0.00000000000E+00 0.  1.
          2   -1    0    0  502    0  0.00000000000E+00 -0.00000000000E+00 -0.19606998651E+04  0.19606998651E+04  0.00000000000E+00 0. -1.
          6    1    1    2  502    0 -0.36531243519E+02 -0.17633434956E+02 -0.13827900166E+04  0.13940364772E+04  0.17200000000E+03 0. -1.
         -6    1    1    2    0  501  0.36531243519E+02  0.17633434956E+02 -0.55864421039E+03  0.58592902606E+03  0.17200000000E+03 0.  1.
</event>
<event>
 4    1  0.3115421E-002  0.2660642E+03  0.7818608E-02  0.1103554E+00
          2   -1    0    0  502    0  0.00000000000E+00  0.00000000000E+00  0.16026459862E+04  0.16026459862E+04  0.00000000000E+00 0. -1.
         -2   -1    0    0    0  501 -0.00000000000E+00 -0.00000000000E+00 -0.44560783982E+02  0.44560783982E+02  0.00000000000E+00 0.  1.
          6    1    1    2  502    0 -0.17696174066E+03 -0.99452055419E+02  0.70199478178E+03  0.75072421210E+03  0.17200000000E+03 0. -1.
         -6    1    1    2    0  501  0.17696174066E+03  0.99452055419E+02  0.85609042044E+03  0.89648255808E+03  0.17200000000E+03 0. -1.
</event>
<event>
 4    1  0.3115421E-002  0.3139782E+03  0.7818608E-02  0.1078455E+00
         -2   -1    0    0    0  501 -0.00000000000E+00  0.00000000000E+00  0.68826162925E+02  0.68826162925E+02  0.00000000000E+00 0.  1.
          2   -1    0    0  502    0  0.00000000000E+00 -0.00000000000E+00 -0.20194043060E+04  0.20194043060E+04  0.00000000000E+00 0. -1.
          6    1    1    2  502    0  0.20528289895E+03  0.16388173909E+03 -0.15382529916E+04  0.15699696045E+04  0.17200000000E+03 0. -1.
         -6    1    1    2    0  501 -0.20528289895E+03 -0.16388173909E+03 -0.41232515145E+03  0.51826086436E+03  0.17200000000E+03 0.  1.
</event>
<event>
 4    1  0.3115421E-002  0.1891359E+03  0.7818608E-02  0.1159243E+00
         -2   -1    0    0    0  501 -0.00000000000E+00  0.00000000000E+00  0.42904192297E+03  0.42904192297E+03  0.00000000000E+00 0.  1.
          2   -1    0    0  502    0  0.00000000000E+00 -0.00000000000E+00 -0.44713727531E+03  0.44713727531E+03  0.00000000000E+00 0. -1.
          6    1    1    2  502    0  0.69678410829E+02 -0.36514605699E+02 -0.40418668342E+03  0.44625023520E+03  0.17200000000E+03 0. -1.
         -6    1    1    2    0  501 -0.69678410829E+02  0.36514605699E+02  0.38609133108E+03  0.42992896308E+03  0.17200000000E+03 0.  1.
</event>
<event>
 4    1  0.3115421E-002  0.3341298E+03  0.7818608E-02  0.1069324E+00
         -2   -1    0    0    0  501 -0.00000000000E+00  0.00000000000E+00  0.23622316382E+03  0.23622316382E+03  0.00000000000E+00 0.  1.
          2   -1    0    0  502    0  0.00000000000E+00 -0.00000000000E+00 -0.69695292785E+03  0.69695292785E+03  0.00000000000E+00 0. -1.
          6    1    1    2  502    0  0.25654997304E+03 -0.12743942599E+03 -0.49508252453E+03  0.59728502582E+03  0.17200000000E+03 0. -1.
         -6    1    1    2    0  501 -0.25654997304E+03  0.12743942599E+03  0.34352760509E+02  0.33589106585E+03  0.17200000000E+03 0.  1.
</event>
<event>
 4    1  0.3115421E-002  0.3129324E+03  0.7818608E-02  0.1078949E+00
         -4   -1    0    0    0  501 -0.00000000000E+00  0.00000000000E+00  0.34948962946E+03  0.34948962946E+03  0.00000000000E+00 0.  1.
          4   -1    0    0  502    0  0.00000000000E+00 -0.00000000000E+00 -0.38953900044E+03  0.38953900044E+03  0.00000000000E+00 0. -1.
          6    1    1    2  502    0  0.25416709371E+03  0.61170084757E+02  0.17574483110E+03  0.35890519146E+03  0.17200000000E+03 0.  1.
         -6    1    1    2    0  501 -0.25416709371E+03 -0.61170084757E+02 -0.21579420209E+03  0.38012343844E+03  0.17200000000E+03 0. -1.
</event>
<event>
 4    1  0.3115421E-002  0.2654613E+03  0.7818608E-02  0.1103906E+00
          2   -1    0    0  502    0  0.00000000000E+00  0.00000000000E+00  0.75506663666E+03  0.75506663666E+03  0.00000000000E+00 0. -1.
         -2   -1    0    0    0  501 -0.00000000000E+00 -0.00000000000E+00 -0.94548228825E+02  0.94548228825E+02  0.00000000000E+00 0.  1.
          6    1    1    2  502    0  0.10815175997E+03 -0.17084762851E+03  0.28202177603E+03  0.38730607729E+03  0.17200000000E+03 0. -1.
         -6    1    1    2    0  501 -0.10815175997E+03  0.17084762851E+03  0.37849663180E+03  0.46230878819E+03  0.17200000000E+03 0.  1.
</event>
<event>
 4    1  0.3115421E-002  0.8203886E+03  0.7818608E-02  0.9530965E-01
          2   -1    0    0  502    0  0.00000000000E+00  0.00000000000E+00  0.89112631163E+03  0.89112631163E+03  0.00000000000E+00 0. -1.
         -2   -1    0    0    0  501 -0.00000000000E+00 -0.00000000000E+00 -0.90563138456E+03  0.90563138456E+03  0.00000000000E+00 0.  1.
          6    1    1    2  502    0 -0.78802225283E+03  0.14991480998E+03  0.35881189429E+03  0.89542364090E+03  0.17200000000E+03 0. -1.
         -6    1    1    2    0  501  0.78802225283E+03 -0.14991480998E+03 -0.37331696722E+03  0.90133405528E+03  0.17200000000E+03 0.  1.
</event>
<event>
 4    1  0.3115421E-002  0.2075569E+03  0.7818608E-02  0.1143515E+00
          1   -1    0    0  502    0  0.00000000000E+00  0.00000000000E+00  0.19291404579E+03  0.19291404579E+03  0.00000000000E+00 0. -1.
         -1   -1    0    0    0  501 -0.00000000000E+00 -0.00000000000E+00 -0.23351615133E+03  0.23351615133E+03  0.00000000000E+00 0.  1.
          6    1    1    2  502    0  0.88152134517E+02  0.75664190840E+02  0.24271221380E+02  0.20897119606E+03  0.17200000000E+03 0. -1.
         -6    1    1    2    0  501 -0.88152134517E+02 -0.75664190840E+02 -0.64873326927E+02  0.21745900106E+03  0.17200000000E+03 0. -1.
</event>
<event>
 4    1  0.3115421E-002  0.2089278E+03  0.7818608E-02  0.1142418E+00
          2   -1    0    0  502    0  0.00000000000E+00  0.00000000000E+00  0.60885551080E+03  0.60885551080E+03  0.00000000000E+00 0. -1.
         -2   -1    0    0    0  501 -0.00000000000E+00 -0.00000000000E+00 -0.14086958810E+03  0.14086958810E+03  0.00000000000E+00 0.  1.
          6    1    1    2  502    0  0.11821066774E+03 -0.96466774200E+01  0.49668219163E+03  0.53883580044E+03  0.17200000000E+03 0. -1.
         -6    1    1    2    0  501 -0.11821066774E+03  0.96466774200E+01 -0.28696268936E+02  0.21088929846E+03  0.17200000000E+03 0.  1.
</event>
<event>
 4    1  0.3115421E-002  0.2824711E+03  0.7818608E-02  0.1094347E+00
         -1   -1    0    0    0  501 -0.00000000000E+00  0.00000000000E+00  0.82589233390E+02  0.82589233390E+02  0.00000000000E+00 0.  1.
          1   -1    0    0  502    0  0.00000000000E+00 -0.00000000000E+00 -0.98898095341E+03  0.98898095341E+03  0.00000000000E+00 0. -1.
          6    1    1    2  502    0  0.45738642362E+02  0.21934875775E+03 -0.37170988594E+03  0.46685987216E+03  0.17200000000E+03 0. -1.
         -6    1    1    2    0  501 -0.45738642362E+02 -0.21934875775E+03 -0.53468183408E+03  0.60471031464E+03  0.17200000000E+03 0.  1.
</event>
<event>
 4    1  0.3115421E-002  0.1836284E+03  0.7818608E-02  0.1164337E+00
          2   -1    0    0  502    0  0.00000000000E+00  0.00000000000E+00  0.30839755899E+04  0.30839755899E+04  0.00000000000E+00 0. -1.
         -2   -1    0    0    0  501 -0.00000000000E+00 -0.00000000000E+00 -0.17224064986E+02  0.17224064986E+02  0.00000000000E+00 0.  1.
          6    1    1    2  502    0 -0.63399313932E+02 -0.10765752851E+02  0.24704383285E+04  0.24772535012E+04  0.17200000000E+03 0. -1.
         -6    1    1    2    0  501  0.63399313932E+02  0.10765752851E+02  0.59631319639E+03  0.62394615363E+03  0.17200000000E+03 0.  1.
</event>
<event>
 4    1  0.3115421E-002  0.2459654E+03  0.7818608E-02  0.1115881E+00
          2   -1    0    0  502    0  0.00000000000E+00  0.00000000000E+00  0.94064125271E+03  0.94064125271E+03  0.00000000000E+00 0. -1.
         -2   -1    0    0    0  501 -0.00000000000E+00 -0.00000000000E+00 -0.89022564166E+02  0.89022564166E+02  0.00000000000E+00 0.  1.
          6    1    1    2  502    0 -0.17561317014E+03  0.86595651271E+01  0.69702523326E+03  0.73915028877E+03  0.17200000000E+03 0. -1.
         -6    1    1    2    0  501  0.17561317014E+03 -0.86595651271E+01  0.15459345529E+03  0.29051352811E+03  0.17200000000E+03 0.  1.
</event>
<event>
 4    1  0.3115421E-002  0.2288184E+03  0.7818608E-02  0.1127474E+00
          2   -1    0    0  502    0  0.00000000000E+00  0.00000000000E+00  0.45946904602E+02  0.45946904602E+02  0.00000000000E+00 0. -1.
         -2   -1    0    0    0  501 -0.00000000000E+00 -0.00000000000E+00 -0.17975691413E+04  0.17975691413E+04  0.00000000000E+00 0.  1.
          6    1    1    2  502    0  0.13709300546E+03  0.63082068429E+02 -0.31811162311E+03  0.39185819407E+03  0.17200000000E+03 0. -1.
         -6    1    1    2    0  501 -0.13709300546E+03 -0.63082068429E+02 -0.14335106135E+04  0.14516578518E+04  0.17200000000E+03 0.  1.
</event>
<event>
 4    1  0.3115421E-002  0.1944686E+03  0.7818608E-02  0.1154492E+00
         -1   -1    0    0    0  501 -0.00000000000E+00  0.00000000000E+00  0.19388220724E+04  0.19388220724E+04  0.00000000000E+00 0.  1.
          1   -1    0    0  502    0  0.00000000000E+00 -0.00000000000E+00 -0.27360212910E+02  0.27360212910E+02  0.00000000000E+00 0. -1.
          6    1    1    2  502    0  0.51503591226E+02 -0.74708908502E+02  0.42899340647E+03  0.47101314601E+03  0.17200000000E+03 0. -1.
         -6    1    1    2    0  501 -0.51503591226E+02  0.74708908502E+02  0.14824684531E+04  0.14951691393E+04  0.17200000000E+03 0.  1.
</event>
<event>
 4    1  0.3115421E-002  0.2019361E+03  0.7818608E-02  0.1148116E+00
         -2   -1    0    0    0  501 -0.00000000000E+00  0.00000000000E+00  0.20223660529E+04  0.20223660529E+04  0.00000000000E+00 0.  1.
          2   -1    0    0  502    0  0.00000000000E+00 -0.00000000000E+00 -0.20166290801E+02  0.20166290801E+02  0.00000000000E+00 0. -1.
          6    1    1    2  502    0 -0.79436125205E+02 -0.69886393187E+02  0.10128687555E+04  0.10328026539E+04  0.17200000000E+03 0. -1.
         -6    1    1    2    0  501  0.79436125205E+02  0.69886393187E+02  0.98933100655E+03  0.10097296898E+04  0.17200000000E+03 0. -1.
</event>
<event>
 4    1  0.3115421E-002  0.1751161E+03  0.7818608E-02  0.1172615E+00
         -1   -1    0    0    0  501 -0.00000000000E+00  0.00000000000E+00  0.96911438241E+02  0.96911438241E+02  0.00000000000E+00 0.  1.
          1   -1    0    0  502    0  0.00000000000E+00 -0.00000000000E+00 -0.54312940250E+03  0.54312940250E+03  0.00000000000E+00 0. -1.
          6    1    1    2  502    0  0.13531432501E+02 -0.29975771850E+02 -0.42986188496E+03  0.46416256496E+03  0.17200000000E+03 0. -1.
         -6    1    1    2    0  501 -0.13531432501E+02  0.29975771850E+02 -0.16356079298E+02  0.17587827579E+03  0.17200000000E+03 0.  1.
</event>
<event>
 4    1  0.3115421E-002  0.2244090E+03  0.7818608E-02  0.1130638E+00
          2   -1    0    0  502    0  0.00000000000E+00  0.00000000000E+00  0.18653480664E+03  0.18653480664E+03  0.00000000000E+00 0. -1.
         -2   -1    0    0    0  501 -0.00000000000E+00 -0.00000000000E+00 -0.29198417686E+03  0.29198417686E+03  0.00000000000E+00 0.  1.
          6    1    1    2  502    0  0.13713391202E+03 -0.44381169149E+02 -0.11841618997E+03  0.25373567358E+03  0.17200000000E+03 0.  1.
         -6    1    1    2    0  501 -0.13713391202E+03  0.44381169149E+02  0.12966819749E+02  0.22478330991E+03  0.17200000000E+03 0. -1.
</event>
<event>
 4    1  0.3115421E-002  0.2643100E+03  0.7818608E-02  0.1104581E+00
          2   -1    0    0  502    0  0.00000000000E+00  0.00000000000E+00  0.31325514547E+04  0.31325514547E+04  0.00000000000E+00 0. -1.
         -2   -1    0    0    0  501 -0.00000000000E+00 -0.00000000000E+00 -0.81192753854E+02  0.81192753854E+02  0.00000000000E+00 0.  1.
          6    1    1    2  502    0  0.19949590913E+03 -0.21843375469E+02  0.28941928036E+04  0.29062366963E+04  0.17200000000E+03 0. -1.
         -6    1    1    2    0  501 -0.19949590913E+03  0.21843375469E+02  0.15716589728E+03  0.30750751223E+03  0.17200000000E+03 0.  1.
</event>
<event>
 4    1  0.3115421E-002  0.1762949E+03  0.7818608E-02  0.1171438E+00
          2   -1    0    0  502    0  0.00000000000E+00  0.00000000000E+00  0.14607380123E+04  0.14607380123E+04  0.00000000000E+00 0. -1.
         -2   -1    0    0    0  501 -0.00000000000E+00 -0.00000000000E+00 -0.41906174159E+02  0.41906174159E+02  0.00000000000E+00 0.  1.
          6    1    1    2  502    0  0.10889385785E+02 -0.37112109224E+02  0.12365605287E+04  0.12490643812E+04  0.17200000000E+03 0. -1.
         -6    1    1    2    0  501 -0.10889385785E+02  0.37112109224E+02  0.18227130952E+03  0.25357980528E+03  0.17200000000E+03 0.  1.
</event>
<event>
 4    1  0.3115421E-002  0.2996507E+03  0.7818608E-02  0.1085415E+00
         -1   -1    0    0    0  501 -0.00000000000E+00  0.00000000000E+00  0.34497829752E+02  0.34497829752E+02  0.00000000000E+00 0.  1.
          1   -1    0    0  502    0  0.00000000000E+00 -0.00000000000E+00 -0.27287684542E+04  0.27287684542E+04  0.00000000000E+00 0. -1.
          6    1    1    2  502    0  0.21832106162E+03 -0.11199299023E+03 -0.16440024043E+04  0.16710877958E+04  0.17200000000E+03 0. -1.
         -6    1    1    2    0  501 -0.21832106162E+03  0.11199299023E+03 -0.10502682201E+04  0.10921784881E+04  0.17200000000E+03 0.  1.
</event>
<event>
 4    1  0.3115421E-002  0.3146655E+03  0.7818608E-02  0.1078131E+00
          1   -1    0    0  502    0  0.00000000000E+00  0.00000000000E+00  0.10088390248E+04  0.10088390248E+04  0.00000000000E+00 0. -1.
         -1   -1    0    0    0  501 -0.00000000000E+00 -0.00000000000E+00 -0.14510610172E+03  0.14510610172E+03  0.00000000000E+00 0.  1.
          6    1    1    2  502    0 -0.26321898395E+03  0.12089863232E+02  0.76009231756E+03  0.82265103751E+03  0.17200000000E+03 0. -1.
         -6    1    1    2    0  501  0.26321898395E+03 -0.12089863232E+02  0.10364060554E+03  0.33129408902E+03  0.17200000000E+03 0.  1.
</event>
<event>
 4    1  0.3115421E-002  0.1835519E+03  0.7818608E-02  0.1164409E+00
          2   -1    0    0  502    0  0.00000000000E+00  0.00000000000E+00  0.59454919068E+03  0.59454919068E+03  0.00000000000E+00 0. -1.
         -2   -1    0    0    0  501 -0.00000000000E+00 -0.00000000000E+00 -0.56786825341E+02  0.56786825341E+02  0.00000000000E+00 0.  1.
          6    1    1    2  502    0 -0.19417382208E+02 -0.61075750214E+02  0.28384486099E+03  0.33802246538E+03  0.17200000000E+03 0. -1.
         -6    1    1    2    0  501  0.19417382208E+02  0.61075750214E+02  0.25391750436E+03  0.31331355064E+03  0.17200000000E+03 0. -1.
</event>
<event>
 4    1  0.3115421E-002  0.2119674E+03  0.7818608E-02  0.1140017E+00
          2   -1    0    0  502    0  0.00000000000E+00  0.00000000000E+00  0.18697200280E+04  0.18697200280E+04  0.00000000000E+00 0. -1.
         -2   -1    0    0    0  501 -0.00000000000E+00 -0.00000000000E+00 -0.24689291443E+02  0.24689291443E+02  0.00000000000E+00 0.  1.
          6    1    1    2  502    0 -0.11763205139E+03 -0.38844304074E+02  0.10772494534E+04  0.10979055353E+04  0.17200000000E+03 0. -1.
         -6    1    1    2    0  501  0.11763205139E+03  0.38844304074E+02  0.76778128318E+03  0.79650378421E+03  0.17200000000E+03 0.  1.
</event>
<event>
 4    1  0.3115421E-002  0.6012358E+03  0.7818608E-02  0.9902845E-01
         -1   -1    0    0    0  501 -0.00000000000E+00  0.00000000000E+00  0.13428653566E+04  0.13428653566E+04  0.00000000000E+00 0.  1.
          1   -1    0    0  502    0  0.00000000000E+00 -0.00000000000E+00 -0.27733831889E+03  0.27733831889E+03  0.00000000000E+00 0. -1.
          6    1    1    2  502    0 -0.56043355188E+03  0.13347184936E+03  0.39389718892E+03  0.71877638810E+03  0.17200000000E+03 0. -1.
         -6    1    1    2    0  501  0.56043355188E+03 -0.13347184936E+03  0.67162984875E+03  0.90142728735E+03  0.17200000000E+03 0.  1.
</event>
<event>
 4    1  0.3115421E-002  0.1876318E+03  0.7818608E-02  0.1160615E+00
          2   -1    0    0  502    0  0.00000000000E+00  0.00000000000E+00  0.25229768617E+03  0.25229768617E+03  0.00000000000E+00 0. -1.
         -2   -1    0    0    0  501 -0.00000000000E+00 -0.00000000000E+00 -0.15285517728E+03  0.15285517728E+03  0.00000000000E+00 0.  1.
          6    1    1    2  502    0  0.49841670178E+02  0.56013509704E+02 -0.10067119660E+02  0.18790170902E+03  0.17200000000E+03 0. -1.
         -6    1    1    2    0  501 -0.49841670178E+02 -0.56013509704E+02  0.10950962855E+03  0.21725115443E+03  0.17200000000E+03 0. -1.
</event>
<event>
 4    1  0.3115421E-002  0.1980071E+03  0.7818608E-02  0.1151431E+00
          2   -1    0    0  502    0  0.00000000000E+00  0.00000000000E+00  0.29132907374E+03  0.29132907374E+03  0.00000000000E+00 0. -1.
         -2   -1    0    0    0  501 -0.00000000000E+00 -0.00000000000E+00 -0.13800692678E+03  0.13800692678E+03  0.00000000000E+00 0.  1.
          6    1    1    2  502    0 -0.78424512404E+01  0.97781908098E+02  0.11049294903E+03  0.22674985640E+03  0.17200000000E+03 0. -1.
         -6    1    1    2    0  501  0.78424512404E+01 -0.97781908098E+02  0.42829197927E+02  0.20258614412E+03  0.17200000000E+03 0.  1.
</event>
<event>
 4    1  0.3115421E-002  0.1830609E+03  0.7818608E-02  0.1164873E+00
         -2   -1    0    0    0  501 -0.00000000000E+00  0.00000000000E+00  0.53008689728E+03  0.53008689728E+03  0.00000000000E+00 0.  1.
          2   -1    0    0  502    0  0.00000000000E+00 -0.00000000000E+00 -0.44788054788E+03  0.44788054788E+03  0.00000000000E+00 0. -1.
          6    1    1    2  502    0  0.62188049638E+02 -0.77418634240E+01 -0.41205829940E+03  0.45089170769E+03  0.17200000000E+03 0. -1.
         -6    1    1    2    0  501 -0.62188049638E+02  0.77418634240E+01  0.49426464880E+03  0.52707573746E+03  0.17200000000E+03 0.  1.
</event>
<event>
 4    1  0.3115421E-002  0.3105664E+03  0.7818608E-02  0.1080075E+00
          2   -1    0    0  502    0  0.00000000000E+00  0.00000000000E+00  0.17537090726E+04  0.17537090726E+04  0.00000000000E+00 0. -1.
         -2   -1    0    0    0  501 -0.00000000000E+00 -0.00000000000E+00 -0.61832365965E+02  0.61832365965E+02  0.00000000000E+00 0.  1.
          6    1    1    2  502    0  0.21672008114E+03  0.14106700232E+03  0.11477244405E+04  0.11890007923E+04  0.17200000000E+03 0.  1.
         -6    1    1    2    0  501 -0.21672008114E+03 -0.14106700232E+03  0.54415226614E+03  0.62654064629E+03  0.17200000000E+03 0.  1.
</event>
<event>
 4    1  0.3115421E-002  0.2349311E+03  0.7818608E-02  0.1123216E+00
         -2   -1    0    0    0  501 -0.00000000000E+00  0.00000000000E+00  0.44354683978E+02  0.44354683978E+02  0.00000000000E+00 0.  1.
          2   -1    0    0  502    0  0.00000000000E+00 -0.00000000000E+00 -0.15884986012E+04  0.15884986012E+04  0.00000000000E+00 0. -1.
          6    1    1    2  502    0 -0.95004498584E+02 -0.12877402768E+03 -0.11520852898E+04  0.11757946759E+04  0.17200000000E+03 0. -1.
         -6    1    1    2    0  501  0.95004498584E+02  0.12877402768E+03 -0.39205862741E+03  0.45705860925E+03  0.17200000000E+03 0.  1.
</event>
<event>
 4    1  0.3115421E-002  0.2245083E+03  0.7818608E-02  0.1130566E+00
         -1   -1    0    0    0  501 -0.00000000000E+00  0.00000000000E+00  0.22159705528E+03  0.22159705528E+03  0.00000000000E+00 0.  1.
          1   -1    0    0  502    0  0.00000000000E+00 -0.00000000000E+00 -0.60009149682E+03  0.60009149682E+03  0.00000000000E+00 0. -1.
          6    1    1    2  502    0  0.13752844405E+03  0.43656877069E+02 -0.51299703033E+03  0.55997316808E+03  0.17200000000E+03 0. -1.
         -6    1    1    2    0  501 -0.13752844405E+03 -0.43656877069E+02  0.13450258879E+03  0.26171538401E+03  0.17200000000E+03 0.  1.
</event>
<event>
 4    1  0.3115421E-002  0.2550983E+03  0.7818608E-02  0.1110125E+00
         -2   -1    0    0    0  501 -0.00000000000E+00  0.00000000000E+00  0.47048330285E+02  0.47048330285E+02  0.00000000000E+00 0.  1.
          2   -1    0    0  502    0  0.00000000000E+00 -0.00000000000E+00 -0.14803963555E+04  0.14803963555E+04  0.00000000000E+00 0. -1.
          6    1    1    2  502    0  0.77605897674E+02  0.17166376434E+03 -0.52093722063E+03  0.58004371489E+03  0.17200000000E+03 0.  1.
         -6    1    1    2    0  501 -0.77605897674E+02 -0.17166376434E+03 -0.91241080460E+03  0.94740097091E+03  0.17200000000E+03 0. -1.
</event>
<event>
 4    1  0.3115421E-002  0.1997760E+03  0.7818608E-02  0.1149928E+00
         -1   -1    0    0    0  501 -0.00000000000E+00  0.00000000000E+00  0.22423834737E+03  0.22423834737E+03  0.00000000000E+00 0.  1.
          1   -1    0    0  502    0  0.00000000000E+00 -0.00000000000E+00 -0.97740592341E+03  0.97740592341E+03  0.00000000000E+00 0. -1.
          6    1    1    2  502    0 -0.67035531340E+02 -0.76372136875E+02 -0.91995536735E+03  0.94139701703E+03  0.17200000000E+03 0. -1.
         -6    1    1    2    0  501  0.67035531340E+02  0.76372136875E+02  0.16678779131E+03  0.26024725375E+03  0.17200000000E+03 0.  1.
</event>
<event>
 4    1  0.3115421E-002  0.1793792E+03  0.7818608E-02  0.1168405E+00
         -1   -1    0    0    0  501 -0.00000000000E+00  0.00000000000E+00  0.11211033447E+03  0.11211033447E+03  0.00000000000E+00 0.  1.
          1   -1    0    0  502    0  0.00000000000E+00 -0.00000000000E+00 -0.41276735728E+03  0.41276735728E+03  0.00000000000E+00 0. -1.
          6    1    1    2  502    0 -0.50800743358E+02 -0.34887026598E+01 -0.29518588803E+03  0.34541510544E+03  0.17200000000E+03 0. -1.
         -6    1    1    2    0  501  0.50800743358E+02  0.34887026598E+01 -0.54711347854E+01  0.17946258632E+03  0.17200000000E+03 0.  1.
</event>
<event>
 4    1  0.3115421E-002  0.3397283E+03  0.7818608E-02  0.1066912E+00
          1   -1    0    0  502    0  0.00000000000E+00  0.00000000000E+00  0.18259141685E+04  0.18259141685E+04  0.00000000000E+00 0. -1.
         -1   -1    0    0    0  501 -0.00000000000E+00 -0.00000000000E+00 -0.69102750014E+02  0.69102750014E+02  0.00000000000E+00 0.  1.
          6    1    1    2  502    0  0.28850146119E+03 -0.50972824904E+02  0.11551054934E+04  0.12040282484E+04  0.17200000000E+03 0. -1.
         -6    1    1    2    0  501 -0.28850146119E+03  0.50972824904E+02  0.60170592513E+03  0.69098867019E+03  0.17200000000E+03 0.  1.
</event>
<event>
 4    1  0.3115421E-002  0.6660997E+03  0.7818608E-02  0.9777030E-01
          2   -1    0    0  502    0  0.00000000000E+00  0.00000000000E+00  0.19880201599E+04  0.19880201599E+04  0.00000000000E+00 0. -1.
         -2   -1    0    0    0  501 -0.00000000000E+00 -0.00000000000E+00 -0.23665463973E+03  0.23665463973E+03  0.00000000000E+00 0.  1.
          6    1    1    2  502    0  0.63488917112E+03  0.10497890813E+03  0.11410928395E+04  0.13212803257E+04  0.17200000000E+03 0. -1.
         -6    1    1    2    0  501 -0.63488917112E+03 -0.10497890813E+03  0.61027268070E+03  0.90339447395E+03  0.17200000000E+03 0.  1.
</event>
<event>
 4    1  0.3115421E-002  0.2270048E+03  0.7818608E-02  0.1128766E+00
          2   -1    0    0  502    0  0.00000000000E+00  0.00000000000E+00  0.51736714716E+03  0.51736714716E+03  0.00000000000E+00 0. -1.
         -2   -1    0    0    0  501 -0.00000000000E+00 -0.00000000000E+00 -0.11190312529E+03  0.11190312529E+03  0.00000000000E+00 0.  1.
          6    1    1    2  502    0 -0.79238546268E+02  0.12517367498E+03  0.30704661288E+03  0.38184920925E+03  0.17200000000E+03 0.  1.
         -6    1    1    2    0  501  0.79238546268E+02 -0.12517367498E+03  0.98417408990E+02  0.24742106320E+03  0.17200000000E+03 0.  1.
</event>
<event>
 4    1  0.3115421E-002  0.1858197E+03  0.7818608E-02  0.1162287E+00
          2   -1    0    0  502    0  0.00000000000E+00  0.00000000000E+00  0.13291281260E+04  0.13291281260E+04  0.00000000000E+00 0. -1.
         -2   -1    0    0    0  501 -0.00000000000E+00 -0.00000000000E+00 -0.26604249131E+02  0.26604249131E+02  0.00000000000E+00 0.  1.
          6    1    1    2  502    0 -0.45716756170E+02  0.53431581970E+02  0.75520994909E+03  0.77773454530E+03  0.17200000000E+03 0. -1.
         -6    1    1    2    0  501  0.45716756170E+02 -0.53431581970E+02  0.54731392774E+03  0.57799782979E+03  0.17200000000E+03 0. -1.
</event>
<event>
 4    1  0.3115421E-002  0.3395924E+03  0.7818608E-02  0.1066970E+00
          2   -1    0    0  502    0  0.00000000000E+00  0.00000000000E+00  0.84309956546E+03  0.84309956546E+03  0.00000000000E+00 0. -1.
         -2   -1    0    0    0  501 -0.00000000000E+00 -0.00000000000E+00 -0.21578386648E+03  0.21578386648E+03  0.00000000000E+00 0.  1.
          6    1    1    2  502    0 -0.13347177633E+03  0.26062281350E+03  0.63400468070E+03  0.71922520892E+03  0.17200000000E+03 0. -1.
         -6    1    1    2    0  501  0.13347177633E+03 -0.26062281350E+03 -0.66889817175E+01  0.33965822302E+03  0.17200000000E+03 0.  1.
</event>
<event>
 4    1  0.3115421E-002  0.2591952E+03  0.7818608E-02  0.1107628E+00
          2   -1    0    0  502    0  0.00000000000E+00  0.00000000000E+00  0.49432472760E+02  0.49432472760E+02  0.00000000000E+00 0. -1.
         -2   -1    0    0    0  501 -0.00000000000E+00 -0.00000000000E+00 -0.13590693083E+04  0.13590693083E+04  0.00000000000E+00 0.  1.
          6    1    1    2  502    0  0.24918377685E+01 -0.19388640641E+03 -0.65456475611E+03  0.70401503378E+03  0.17200000000E+03 0. -1.
         -6    1    1    2    0  501 -0.24918377685E+01  0.19388640641E+03 -0.65507207944E+03  0.70448674729E+03  0.17200000000E+03 0. -1.
</event>
<event>
 4    1  0.3115421E-002  0.2381166E+03  0.7818608E-02  0.1121054E+00
          2   -1    0    0  502    0  0.00000000000E+00  0.00000000000E+00  0.10927498264E+04  0.10927498264E+04  0.00000000000E+00 0. -1.
         -2   -1    0    0    0  501 -0.00000000000E+00 -0.00000000000E+00 -0.78369542317E+02  0.78369542317E+02  0.00000000000E+00 0.  1.
          6    1    1    2  502    0  0.16408181626E+03 -0.13880265771E+02  0.84758061441E+03  0.88039332240E+03  0.17200000000E+03 0. -1.
         -6    1    1    2    0  501 -0.16408181626E+03  0.13880265771E+02  0.16679966968E+03  0.29072604632E+03  0.17200000000E+03 0.  1.
</event>
<event>
 4    1  0.3115421E-002  0.5741661E+03  0.7818608E-02  0.9960502E-01
         -1   -1    0    0    0  501 -0.00000000000E+00  0.00000000000E+00  0.37308182128E+03  0.37308182128E+03  0.00000000000E+00 0.  1.
          1   -1    0    0  502    0  0.00000000000E+00 -0.00000000000E+00 -0.94262705483E+03  0.94262705483E+03  0.00000000000E+00 0. -1.
          6    1    1    2  502    0  0.34722603947E+03  0.42369426520E+03 -0.44935011479E+03  0.72909689240E+03  0.17200000000E+03 0. -1.
         -6    1    1    2    0  501 -0.34722603947E+03 -0.42369426520E+03 -0.12019511876E+03  0.58661198370E+03  0.17200000000E+03 0.  1.
</event>
<event>
 4    1  0.3115421E-002  0.2215356E+03  0.7818608E-02  0.1132743E+00
         -1   -1    0    0    0  501 -0.00000000000E+00  0.00000000000E+00  0.84136337960E+03  0.84136337960E+03  0.00000000000E+00 0.  1.
          1   -1    0    0  502    0  0.00000000000E+00 -0.00000000000E+00 -0.67926753578E+02  0.67926753578E+02  0.00000000000E+00 0. -1.
          6    1    1    2  502    0 -0.13830824880E+03 -0.19101556569E+02  0.21584318556E+03  0.30929972826E+03  0.17200000000E+03 0. -1.
         -6    1    1    2    0  501  0.13830824880E+03  0.19101556569E+02  0.55759344047E+03  0.59999040493E+03  0.17200000000E+03 0. -1.
</event>
<event>
 4    1  0.3115421E-002  0.4984678E+03  0.7818608E-02  0.1014180E+00
         -2   -1    0    0    0  501 -0.00000000000E+00  0.00000000000E+00  0.28279318494E+03  0.28279318494E+03  0.00000000000E+00 0.  1.
          2   -1    0    0  502    0  0.00000000000E+00 -0.00000000000E+00 -0.11647623220E+04  0.11647623220E+04  0.00000000000E+00 0. -1.
          6    1    1    2  502    0  0.44228466347E+03 -0.15254634632E+03 -0.79971752797E+03  0.94234719497E+03  0.17200000000E+03 0. -1.
         -6    1    1    2    0  501 -0.44228466347E+03  0.15254634632E+03 -0.82251609128E+02  0.50520831201E+03  0.17200000000E+03 0.  1.
</event>
<event>
 4    1  0.3115421E-002  0.2290471E+03  0.7818608E-02  0.1127312E+00
         -2   -1    0    0    0  501 -0.00000000000E+00  0.00000000000E+00  0.37875788043E+02  0.37875788043E+02  0.00000000000E+00 0.  1.
          2   -1    0    0  502    0  0.00000000000E+00 -0.00000000000E+00 -0.14761443947E+04  0.14761443947E+04  0.00000000000E+00 0. -1.
          6    1    1    2  502    0  0.10617411630E+03  0.10772953296E+03 -0.53115463660E+03  0.57843568633E+03  0.17200000000E+03 0. -1.
         -6    1    1    2    0  501 -0.10617411630E+03 -0.10772953296E+03 -0.90711397003E+03  0.93558449638E+03  0.17200000000E+03 0. -1.
</event>
<event>
 4    1  0.3115421E-002  0.2170046E+03  0.7818608E-02  0.1136136E+00
          1   -1    0    0  502    0  0.00000000000E+00  0.00000000000E+00  0.23471745300E+04  0.23471745300E+04  0.00000000000E+00 0. -1.
         -1   -1    0    0    0  501 -0.00000000000E+00 -0.00000000000E+00 -0.20062926824E+02  0.20062926824E+02  0.00000000000E+00 0.  1.
          6    1    1    2  502    0 -0.93728771617E+02 -0.93391152947E+02  0.11611119102E+04  0.11812162622E+04  0.17200000000E+03 0. -1.
         -6    1    1    2    0  501  0.93728771617E+02  0.93391152947E+02  0.11659996930E+04  0.11860211946E+04  0.17200000000E+03 0.  1.
</event>
<event>
 4    1  0.3115421E-002  0.2334999E+03  0.7818608E-02  0.1124200E+00
         -2   -1    0    0    0  501 -0.00000000000E+00  0.00000000000E+00  0.50494121739E+02  0.50494121739E+02  0.00000000000E+00 0.  1.
          2   -1    0    0  502    0  0.00000000000E+00 -0.00000000000E+00 -0.10908386483E+04  0.10908386483E+04  0.00000000000E+00 0. -1.
          6    1    1    2  502    0  0.15699162009E+03 -0.17082900688E+02 -0.46269599868E+03  0.51827577743E+03  0.17200000000E+03 0. -1.
         -6    1    1    2    0  501 -0.15699162009E+03  0.17082900688E+02 -0.57764852786E+03  0.62305699259E+03  0.17200000000E+03 0.  1.
</event>
<event>
 4    1  0.3115421E-002  0.1721156E+03  0.7818608E-02  0.1175659E+00
          1   -1    0    0  502    0  0.00000000000E+00  0.00000000000E+00  0.76981354111E+03  0.76981354111E+03  0.00000000000E+00 0. -1.
         -1   -1    0    0    0  501 -0.00000000000E+00 -0.00000000000E+00 -0.28946590824E+03  0.28946590824E+03  0.00000000000E+00 0.  1.
          6    1    1    2  502    0  0.52679501256E+01 -0.34701175591E+01  0.73335326632E+03  0.75328003175E+03  0.17200000000E+03 0. -1.
         -6    1    1    2    0  501 -0.52679501256E+01  0.34701175591E+01 -0.25300563345E+03  0.30599941760E+03  0.17200000000E+03 0.  1.
</event>
<event>
 4    1  0.3115421E-002  0.4299414E+03  0.7818608E-02  0.1033878E+00
         -2   -1    0    0    0  501 -0.00000000000E+00  0.00000000000E+00  0.62275898146E+03  0.62275898146E+03  0.00000000000E+00 0.  1.
          2   -1    0    0  502    0  0.00000000000E+00 -0.00000000000E+00 -0.15756815184E+04  0.15756815184E+04  0.00000000000E+00 0. -1.
          6    1    1    2  502    0 -0.28721125438E+03  0.26976895743E+03 -0.14667495491E+04  0.15284645351E+04  0.17200000000E+03 0. -1.
         -6    1    1    2    0  501  0.28721125438E+03 -0.26976895743E+03  0.51382701216E+03  0.66997596484E+03  0.17200000000E+03 0.  1.
</event>
<event>
 4    1  0.3115421E-002  0.2322839E+03  0.7818608E-02  0.1125043E+00
         -1   -1    0    0    0  501 -0.00000000000E+00  0.00000000000E+00  0.14328155595E+04  0.14328155595E+04  0.00000000000E+00 0.  1.
          1   -1    0    0  502    0  0.00000000000E+00 -0.00000000000E+00 -0.44826511703E+02  0.44826511703E+02  0.00000000000E+00 0. -1.
          6    1    1    2  502    0 -0.12389708035E+00 -0.15611461167E+03  0.39852598393E+03  0.46127946756E+03  0.17200000000E+03 0. -1.
         -6    1    1    2    0  501  0.12389708035E+00  0.15611461167E+03  0.98946306391E+03  0.10163626037E+04  0.17200000000E+03 0.  1.
</event>
<event>
 4    1  0.3115421E-002  0.3459350E+03  0.7818608E-02  0.1064296E+00
         -3   -1    0    0    0  501 -0.00000000000E+00  0.00000000000E+00  0.35895512792E+03  0.35895512792E+03  0.00000000000E+00 0.  1.
          3   -1    0    0  502    0  0.00000000000E+00 -0.00000000000E+00 -0.47835681678E+03  0.47835681678E+03  0.00000000000E+00 0. -1.
          6    1    1    2  502    0 -0.24313111354E+03 -0.17599506659E+03 -0.29017380629E+03  0.45152169349E+03  0.17200000000E+03 0. -1.
         -6    1    1    2    0  501  0.24313111354E+03  0.17599506659E+03  0.17077211743E+03  0.38579025121E+03  0.17200000000E+03 0.  1.
</event>
<event>
 4    1  0.3115421E-002  0.7228909E+03  0.7818608E-02  0.9678867E-01
          2   -1    0    0  502    0  0.00000000000E+00  0.00000000000E+00  0.14951229261E+04  0.14951229261E+04  0.00000000000E+00 0. -1.
         -2   -1    0    0    0  501 -0.00000000000E+00 -0.00000000000E+00 -0.70621191256E+03  0.70621191256E+03  0.00000000000E+00 0.  1.
          6    1    1    2  502    0 -0.49968895727E+03  0.49325273999E+03 -0.38777882000E+03  0.82033147737E+03  0.17200000000E+03 0.  1.
         -6    1    1    2    0  501  0.49968895727E+03 -0.49325273999E+03  0.11766898335E+04  0.13810033613E+04  0.17200000000E+03 0. -1.
</event>
<event>
 4    1  0.3115421E-002  0.2892538E+03  0.7818608E-02  0.1090739E+00
          2   -1    0    0  502    0  0.00000000000E+00  0.00000000000E+00  0.18626711272E+04  0.18626711272E+04  0.00000000000E+00 0. -1.
         -2   -1    0    0    0  501 -0.00000000000E+00 -0.00000000000E+00 -0.45320789714E+02  0.45320789714E+02  0.00000000000E+00 0.  1.
          6    1    1    2  502    0 -0.20637981200E+03  0.10719674394E+03  0.99859347295E+03  0.10396425794E+04  0.17200000000E+03 0. -1.
         -6    1    1    2    0  501  0.20637981200E+03 -0.10719674394E+03  0.81875686450E+03  0.86834933747E+03  0.17200000000E+03 0.  1.
</event>
<event>
 4    1  0.3115421E-002  0.1840239E+03  0.7818608E-02  0.1163965E+00
          1   -1    0    0  502    0  0.00000000000E+00  0.00000000000E+00  0.12276124009E+04  0.12276124009E+04  0.00000000000E+00 0. -1.
         -1   -1    0    0    0  501 -0.00000000000E+00 -0.00000000000E+00 -0.32072025029E+02  0.32072025029E+02  0.00000000000E+00 0.  1.
          6    1    1    2  502    0 -0.33876915706E+02 -0.55974510592E+02  0.83333169602E+03  0.85340875719E+03  0.17200000000E+03 0. -1.
         -6    1    1    2    0  501  0.33876915706E+02  0.55974510592E+02  0.36220867987E+03  0.40627566876E+03  0.17200000000E+03 0.  1.
</event>
<event>
 4    1  0.3115421E-002  0.2270097E+03  0.7818608E-02  0.1128762E+00
          2   -1    0    0  502    0  0.00000000000E+00  0.00000000000E+00  0.19387009756E+04  0.19387009756E+04  0.00000000000E+00 0. -1.
         -2   -1    0    0    0  501 -0.00000000000E+00 -0.00000000000E+00 -0.26583266555E+02  0.26583266555E+02  0.00000000000E+00 0.  1.
          6    1    1    2  502    0 -0.13360024188E+03  0.64034076298E+02  0.96429122552E+03  0.99065178301E+03  0.17200000000E+03 0. -1.
         -6    1    1    2    0  501  0.13360024188E+03 -0.64034076298E+02  0.94782648355E+03  0.97463245918E+03  0.17200000000E+03 0.  1.
</event>
<event>
 4    1  0.3115421E-002  0.1769842E+03  0.7818608E-02  0.1170754E+00
         -3   -1    0    0    0  501 -0.00000000000E+00  0.00000000000E+00  0.51858314556E+02  0.51858314556E+02  0.00000000000E+00 0.  1.
          3   -1    0    0  502    0  0.00000000000E+00 -0.00000000000E+00 -0.60415814895E+03  0.60415814895E+03  0.00000000000E+00 0. -1.
          6    1    1    2  502    0  0.30421925122E+02 -0.28529301064E+02 -0.27117448075E+03  0.32381941504E+03  0.17200000000E+03 0.  1.
         -6    1    1    2    0  501 -0.30421925122E+02  0.28529301064E+02 -0.28112535365E+03  0.33219704847E+03  0.17200000000E+03 0. -1.
</event>
<event>
 4    1  0.3115421E-002  0.1829327E+03  0.7818608E-02  0.1164995E+00
          1   -1    0    0  502    0  0.00000000000E+00  0.00000000000E+00  0.42993903011E+02  0.42993903011E+02  0.00000000000E+00 0. -1.
         -1   -1    0    0    0  501 -0.00000000000E+00 -0.00000000000E+00 -0.11833815481E+04  0.11833815481E+04  0.00000000000E+00 0.  1.
          6    1    1    2  502    0  0.49676302855E+02 -0.37585292120E+02 -0.92892937891E+03  0.94677039468E+03  0.17200000000E+03 0.  1.
         -6    1    1    2    0  501 -0.49676302855E+02  0.37585292120E+02 -0.21145826622E+03  0.27960505646E+03  0.17200000000E+03 0. -1.
</event>
<event>
 4    1  0.3115421E-002  0.2435465E+03  0.7818608E-02  0.1117453E+00
         -2   -1    0    0    0  501 -0.00000000000E+00  0.00000000000E+00  0.43571859657E+02  0.43571859657E+02  0.00000000000E+00 0.  1.
          2   -1    0    0  502    0  0.00000000000E+00 -0.00000000000E+00 -0.15924396940E+04  0.15924396940E+04  0.00000000000E+00 0. -1.
          6    1    1    2  502    0 -0.44345344847E+02 -0.16662651058E+03 -0.46279571569E+03  0.52296728205E+03  0.17200000000E+03 0.  1.
         -6    1    1    2    0  501  0.44345344847E+02  0.16662651058E+03 -0.10860721187E+04  0.11130442716E+04  0.17200000000E+03 0.  1.
</event>
<event>
 4    1  0.3115421E-002  0.2385061E+03  0.7818608E-02  0.1120792E+00
         -1   -1    0    0    0  501 -0.00000000000E+00  0.00000000000E+00  0.13092167123E+03  0.13092167123E+03  0.00000000000E+00 0.  1.
          1   -1    0    0  502    0  0.00000000000E+00 -0.00000000000E+00 -0.14700200254E+04  0.14700200254E+04  0.00000000000E+00 0. -1.
          6    1    1    2  502    0  0.16374222397E+03 -0.22128226451E+02 -0.13413857056E+04  0.13624245981E+04  0.17200000000E+03 0. -1.
         -6    1    1    2    0  501 -0.16374222397E+03  0.22128226451E+02  0.22873514166E+01  0.23851709853E+03  0.17200000000E+03 0.  1.
</event>
<event>
 4    1  0.3115421E-002  0.2335290E+03  0.7818608E-02  0.1124180E+00
          1   -1    0    0  502    0  0.00000000000E+00  0.00000000000E+00  0.12245231222E+03  0.12245231222E+03  0.00000000000E+00 0. -1.
         -1   -1    0    0    0  501 -0.00000000000E+00 -0.00000000000E+00 -0.79414235981E+03  0.79414235981E+03  0.00000000000E+00 0.  1.
          6    1    1    2  502    0 -0.13042169529E+03 -0.89117884867E+02 -0.63956481884E+03  0.68086634041E+03  0.17200000000E+03 0.  1.
         -6    1    1    2    0  501  0.13042169529E+03  0.89117884867E+02 -0.32125228753E+02  0.23572833162E+03  0.17200000000E+03 0. -1.
</event>
<event>
 4    1  0.3115421E-002  0.2038140E+03  0.7818608E-02  0.1146560E+00
          2   -1    0    0  502    0  0.00000000000E+00  0.00000000000E+00  0.21062453118E+04  0.21062453118E+04  0.00000000000E+00 0. -1.
         -2   -1    0    0    0  501 -0.00000000000E+00 -0.00000000000E+00 -0.29791335934E+02  0.29791335934E+02  0.00000000000E+00 0.  1.
          6    1    1    2  502    0 -0.41123225256E+02 -0.10131645435E+03  0.16591334924E+04  0.16716052432E+04  0.17200000000E+03 0. -1.
         -6    1    1    2    0  501  0.41123225256E+02  0.10131645435E+03  0.41732048350E+03  0.46443140455E+03  0.17200000000E+03 0.  1.
</event>
<event>
 4    1  0.3115421E-002  0.1867001E+03  0.7818608E-02  0.1161472E+00
          2   -1    0    0  502    0  0.00000000000E+00  0.00000000000E+00  0.72121233768E+03  0.72121233768E+03  0.00000000000E+00 0. -1.
         -2   -1    0    0    0  501 -0.00000000000E+00 -0.00000000000E+00 -0.50160808365E+02  0.50160808365E+02  0.00000000000E+00 0.  1.
          6    1    1    2  502    0 -0.68555626686E+02  0.23938873309E+02  0.26186264527E+03  0.32160377578E+03  0.17200000000E+03 0.  1.
         -6    1    1    2    0  501  0.68555626686E+02 -0.23938873309E+02  0.40918888404E+03  0.44976937026E+03  0.17200000000E+03 0. -1.
</event>
<event>
 4    1  0.3115421E-002  0.1751727E+03  0.7818608E-02  0.1172558E+00
         -1   -1    0    0    0  501 -0.00000000000E+00  0.00000000000E+00  0.36943750878E+03  0.36943750878E+03  0.00000000000E+00 0.  1.
          1   -1    0    0  502    0  0.00000000000E+00 -0.00000000000E+00 -0.83285729614E+02  0.83285729614E+02  0.00000000000E+00 0. -1.
          6    1    1    2  502    0  0.22484668182E+02 -0.24411316807E+02  0.13129089364E+03  0.21891270279E+03  0.17200000000E+03 0.  1.
         -6    1    1    2    0  501 -0.22484668182E+02  0.24411316807E+02  0.15486088552E+03  0.23381053560E+03  0.17200000000E+03 0.  1.
</event>
<event>
 4    1  0.3115421E-002  0.1844415E+03  0.7818608E-02  0.1163572E+00
         -2   -1    0    0    0  501 -0.00000000000E+00  0.00000000000E+00  0.42443487288E+03  0.42443487288E+03  0.00000000000E+00 0.  1.
          2   -1    0    0  502    0  0.00000000000E+00 -0.00000000000E+00 -0.11577661884E+03  0.11577661884E+03  0.00000000000E+00 0. -1.
          6    1    1    2  502    0  0.59889655368E+02 -0.29118902486E+02  0.44961369120E+01  0.18449633208E+03  0.17200000000E+03 0. -1.
         -6    1    1    2    0  501 -0.59889655368E+02  0.29118902486E+02  0.30416211713E+03  0.35571515964E+03  0.17200000000E+03 0.  1.
</event>
<event>
 4    1  0.3115421E-002  0.2096968E+03  0.7818608E-02  0.1141806E+00
          2   -1    0    0  502    0  0.00000000000E+00  0.00000000000E+00  0.96825924963E+03  0.96825924963E+03  0.00000000000E+00 0. -1.
         -2   -1    0    0    0  501 -0.00000000000E+00 -0.00000000000E+00 -0.55535469547E+02  0.55535469547E+02  0.00000000000E+00 0.  1.
          6    1    1    2  502    0 -0.11921377963E+03  0.13296749678E+02  0.67489384372E+03  0.70672089901E+03  0.17200000000E+03 0. -1.
         -6    1    1    2    0  501  0.11921377963E+03 -0.13296749678E+02  0.23782993637E+03  0.31707382017E+03  0.17200000000E+03 0.  1.
</event>
<event>
 4    1  0.3115421E-002  0.3502883E+03  0.7818608E-02  0.1062497E+00
         -2   -1    0    0    0  501 -0.00000000000E+00  0.00000000000E+00  0.12768354323E+03  0.12768354323E+03  0.00000000000E+00 0.  1.
          2   -1    0    0  502    0  0.00000000000E+00 -0.00000000000E+00 -0.11596889414E+04  0.11596889414E+04  0.00000000000E+00 0. -1.
          6    1    1    2  502    0  0.85297692010E+02  0.29298844254E+03 -0.78244741019E+03  0.85727817740E+03  0.17200000000E+03 0. -1.
         -6    1    1    2    0  501 -0.85297692010E+02 -0.29298844254E+03 -0.24955798794E+03  0.43009430718E+03  0.17200000000E+03 0.  1.
</event>
<event>
 4    1  0.3115421E-002  0.1778976E+03  0.7818608E-02  0.1169853E+00
         -2   -1    0    0    0  501 -0.00000000000E+00  0.00000000000E+00  0.10674336574E+03  0.10674336574E+03  0.00000000000E+00 0.  1.
          2   -1    0    0  502    0  0.00000000000E+00 -0.00000000000E+00 -0.29748048798E+03  0.29748048798E+03  0.00000000000E+00 0. -1.
          6    1    1    2  502    0  0.98941937533E+01 -0.44335644075E+02 -0.83662353105E+02  0.19658823396E+03  0.17200000000E+03 0. -1.
         -6    1    1    2    0  501 -0.98941937533E+01  0.44335644075E+02 -0.10707476914E+03  0.20763561976E+03  0.17200000000E+03 0. -1.
</event>
<event>
 4    1  0.3115421E-002  0.2576211E+03  0.7818608E-02  0.1108581E+00
         -2   -1    0    0    0  501 -0.00000000000E+00  0.00000000000E+00  0.34230802021E+02  0.34230802021E+02  0.00000000000E+00 0.  1.
          2   -1    0    0  502    0  0.00000000000E+00 -0.00000000000E+00 -0.19690548642E+04  0.19690548642E+04  0.00000000000E+00 0. -1.
          6    1    1    2  502    0  0.60387048287E+00  0.19179226039E+03 -0.84336942056E+03  0.88183933647E+03  0.17200000000E+03 0.  1.
         -6    1    1    2    0  501 -0.60387048287E+00 -0.19179226039E+03 -0.10914546416E+04  0.11214463298E+04  0.17200000000E+03 0. -1.
</event>
<event>
 4    1  0.3115421E-002  0.2170103E+03  0.7818608E-02  0.1136132E+00
         -2   -1    0    0    0  501 -0.00000000000E+00  0.00000000000E+00  0.75338595327E+02  0.75338595327E+02  0.00000000000E+00 0.  1.
          2   -1    0    0  502    0  0.00000000000E+00 -0.00000000000E+00 -0.62573061909E+03  0.62573061909E+03  0.00000000000E+00 0. -1.
          6    1    1    2  502    0  0.30152108780E+02  0.12884226622E+03 -0.26398894712E+03  0.34173621908E+03  0.17200000000E+03 0. -1.
         -6    1    1    2    0  501 -0.30152108780E+02 -0.12884226622E+03 -0.28640307664E+03  0.35933299534E+03  0.17200000000E+03 0.  1.
</event>
<event>
 4    1  0.3115421E-002  0.1942406E+03  0.7818608E-02  0.1154691E+00
         -2   -1    0    0    0  501 -0.00000000000E+00  0.00000000000E+00  0.43185749334E+03  0.43185749334E+03  0.00000000000E+00 0.  1.
          2   -1    0    0  502    0  0.00000000000E+00 -0.00000000000E+00 -0.11967216197E+03  0.11967216197E+03  0.00000000000E+00 0. -1.
          6    1    1    2  502    0  0.85899261284E+02 -0.27689825748E+02  0.12811563497E+02  0.19466264587E+03  0.17200000000E+03 0. -1.
         -6    1    1    2    0  501 -0.85899261284E+02  0.27689825748E+02  0.29937376787E+03  0.35686700944E+03  0.17200000000E+03 0.  1.
</event>
<event>
 4    1  0.3115421E-002  0.5870054E+03  0.7818608E-02  0.9932739E-01
         -2   -1    0    0    0  501 -0.00000000000E+00  0.00000000000E+00  0.10671476193E+04  0.10671476193E+04  0.00000000000E+00 0.  1.
          2   -1    0    0  502    0  0.00000000000E+00 -0.00000000000E+00 -0.34857168396E+03  0.34857168396E+03  0.00000000000E+00 0. -1.
          6    1    1    2  502    0  0.45192411213E+03 -0.33280014633E+03  0.16716433198E+03  0.61034355441E+03  0.17200000000E+03 0. -1.
         -6    1    1    2    0  501 -0.45192411213E+03  0.33280014633E+03  0.55141160334E+03  0.80537574884E+03  0.17200000000E+03 0.  1.
</event>
<event>
 4    1  0.3115421E-002  0.2616442E+03  0.7818608E-02  0.1106159E+00
         -1   -1    0    0    0  501 -0.00000000000E+00  0.00000000000E+00  0.11608614832E+03  0.11608614832E+03  0.00000000000E+00 0.  1.
          1   -1    0    0  502    0  0.00000000000E+00 -0.00000000000E+00 -0.10595595460E+04  0.10595595460E+04  0.00000000000E+00 0. -1.
          6    1    1    2  502    0 -0.14069889854E+02  0.19666150396E+03 -0.86317291803E+03  0.90195631566E+03  0.17200000000E+03 0. -1.
         -6    1    1    2    0  501  0.14069889854E+02 -0.19666150396E+03 -0.80300479601E+02  0.27368937861E+03  0.17200000000E+03 0.  1.
</event>
<event>
 4    1  0.3115421E-002  0.2243299E+03  0.7818608E-02  0.1130696E+00
          1   -1    0    0  502    0  0.00000000000E+00  0.00000000000E+00  0.35383087596E+03  0.35383087596E+03  0.00000000000E+00 0. -1.
         -1   -1    0    0    0  501 -0.00000000000E+00 -0.00000000000E+00 -0.40496272114E+03  0.40496272114E+03  0.00000000000E+00 0.  1.
          6    1    1    2  502    0 -0.14296714162E+03  0.17328728024E+02  0.28002937771E+03  0.35880404231E+03  0.17200000000E+03 0. -1.
         -6    1    1    2    0  501  0.14296714162E+03 -0.17328728024E+02 -0.33116122289E+03  0.39998955479E+03  0.17200000000E+03 0.  1.
</event>
<event>
 4    1  0.3115421E-002  0.1976485E+03  0.7818608E-02  0.1151738E+00
         -2   -1    0    0    0  501 -0.00000000000E+00  0.00000000000E+00  0.15571068401E+03  0.15571068401E+03  0.00000000000E+00 0.  1.
          2   -1    0    0  502    0  0.00000000000E+00 -0.00000000000E+00 -0.28108696645E+03  0.28108696645E+03  0.00000000000E+00 0. -1.
          6    1    1    2  502    0  0.92886215983E+02  0.29207395685E+02 -0.13428156425E+03  0.23894865469E+03  0.17200000000E+03 0. -1.
         -6    1    1    2    0  501 -0.92886215983E+02 -0.29207395685E+02  0.89052818155E+01  0.19784899577E+03  0.17200000000E+03 0.  1.
</event>
<event>
 4    1  0.3115421E-002  0.2656008E+03  0.7818608E-02  0.1103824E+00
         -4   -1    0    0    0  501 -0.00000000000E+00  0.00000000000E+00  0.31602690597E+03  0.31602690597E+03  0.00000000000E+00 0.  1.
          4   -1    0    0  502    0  0.00000000000E+00 -0.00000000000E+00 -0.25649036396E+03  0.25649036396E+03  0.00000000000E+00 0. -1.
          6    1    1    2  502    0  0.15055665899E+03  0.13524966228E+03 -0.73328870675E+02  0.27553747837E+03  0.17200000000E+03 0.  1.
         -6    1    1    2    0  501 -0.15055665899E+03 -0.13524966228E+03  0.13286541269E+03  0.29697979157E+03  0.17200000000E+03 0.  1.
</event>
<event>
 4    1  0.3115421E-002  0.1783784E+03  0.7818608E-02  0.1169382E+00
          1   -1    0    0  502    0  0.00000000000E+00  0.00000000000E+00  0.14313815810E+04  0.14313815810E+04  0.00000000000E+00 0. -1.
         -1   -1    0    0    0  501 -0.00000000000E+00 -0.00000000000E+00 -0.22230010867E+02  0.22230010867E+02  0.00000000000E+00 0.  1.
          6    1    1    2  502    0  0.42047143780E+02  0.21607737822E+02  0.70099704816E+03  0.72333651792E+03  0.17200000000E+03 0.  1.
         -6    1    1    2    0  501 -0.42047143780E+02 -0.21607737822E+02  0.70815452200E+03  0.73027507397E+03  0.17200000000E+03 0.  1.
</event>
<event>
 4    1  0.3115421E-002  0.3386213E+03  0.7818608E-02  0.1067385E+00
         -1   -1    0    0    0  501 -0.00000000000E+00  0.00000000000E+00  0.45182684893E+03  0.45182684893E+03  0.00000000000E+00 0.  1.
          1   -1    0    0  502    0  0.00000000000E+00 -0.00000000000E+00 -0.39886186776E+03  0.39886186776E+03  0.00000000000E+00 0. -1.
          6    1    1    2  502    0 -0.27949619471E+03  0.83440098190E+02 -0.23004670404E+03  0.40937251848E+03  0.17200000000E+03 0. -1.
         -6    1    1    2    0  501  0.27949619471E+03 -0.83440098190E+02  0.28301168520E+03  0.44131619821E+03  0.17200000000E+03 0.  1.
</event>
<event>
 4    1  0.3115421E-002  0.2182235E+03  0.7818608E-02  0.1135214E+00
          3   -1    0    0  502    0  0.00000000000E+00  0.00000000000E+00  0.11020537239E+03  0.11020537239E+03  0.00000000000E+00 0. -1.
         -3   -1    0    0    0  501 -0.00000000000E+00 -0.00000000000E+00 -0.43530143984E+03  0.43530143984E+03  0.00000000000E+00 0.  1.
          6    1    1    2  502    0 -0.12704784161E+03  0.43547022003E+02 -0.18588070610E+03  0.28665856708E+03  0.17200000000E+03 0.  1.
         -6    1    1    2    0  501  0.12704784161E+03 -0.43547022003E+02 -0.13921536135E+03  0.25884824515E+03  0.17200000000E+03 0. -1.
</event>
<event>
 4    1  0.3115421E-002  0.4353453E+03  0.7818608E-02  0.1032185E+00
         -1   -1    0    0    0  501 -0.00000000000E+00  0.00000000000E+00  0.24941787887E+03  0.24941787887E+03  0.00000000000E+00 0.  1.
          1   -1    0    0  502    0  0.00000000000E+00 -0.00000000000E+00 -0.90711710098E+03  0.90711710098E+03  0.00000000000E+00 0. -1.
          6    1    1    2  502    0 -0.22848820431E+03  0.32822958380E+03 -0.56182946788E+03  0.71075865817E+03  0.17200000000E+03 0. -1.
         -6    1    1    2    0  501  0.22848820431E+03 -0.32822958380E+03 -0.95869754223E+02  0.44577632168E+03  0.17200000000E+03 0.  1.
</event>
<event>
 4    1  0.3115421E-002  0.1961104E+03  0.7818608E-02  0.1153063E+00
         -1   -1    0    0    0  501 -0.00000000000E+00  0.00000000000E+00  0.23139697173E+03  0.23139697173E+03  0.00000000000E+00 0.  1.
          1   -1    0    0  502    0  0.00000000000E+00 -0.00000000000E+00 -0.22743464563E+03  0.22743464563E+03  0.00000000000E+00 0. -1.
          6    1    1    2  502    0  0.89897501307E+02 -0.28173111446E+02  0.12101670398E+03  0.23044376232E+03  0.17200000000E+03 0.  1.
         -6    1    1    2    0  501 -0.89897501307E+02  0.28173111446E+02 -0.11705437788E+03  0.22838785504E+03  0.17200000000E+03 0. -1.
</event>
<event>
 4    1  0.3115421E-002  0.2217144E+03  0.7818608E-02  0.1132611E+00
          2   -1    0    0  502    0  0.00000000000E+00  0.00000000000E+00  0.15719830343E+04  0.15719830343E+04  0.00000000000E+00 0. -1.
         -2   -1    0    0    0  501 -0.00000000000E+00 -0.00000000000E+00 -0.42795926565E+02  0.42795926565E+02  0.00000000000E+00 0.  1.
          6    1    1    2  502    0 -0.86366874500E+02  0.11006377665E+03  0.11835833674E+04  0.12041706107E+04  0.17200000000E+03 0. -1.
         -6    1    1    2    0  501  0.86366874500E+02 -0.11006377665E+03  0.34560374034E+03  0.41060835023E+03  0.17200000000E+03 0.  1.
</event>
<event>
 4    1  0.3115421E-002  0.3697047E+03  0.7818608E-02  0.1054806E+00
         -2   -1    0    0    0  501 -0.00000000000E+00  0.00000000000E+00  0.52202469582E+03  0.52202469582E+03  0.00000000000E+00 0.  1.
          2   -1    0    0  502    0  0.00000000000E+00 -0.00000000000E+00 -0.27653110378E+03  0.27653110378E+03  0.00000000000E+00 0. -1.
          6    1    1    2  502    0  0.27635189847E+03 -0.17529183362E+03  0.30684488762E+02  0.37097592452E+03  0.17200000000E+03 0. -1.
         -6    1    1    2    0  501 -0.27635189847E+03  0.17529183362E+03  0.21480910328E+03  0.42757987508E+03  0.17200000000E+03 0.  1.
</event>
<event>
 4    1  0.3115421E-002  0.2917573E+03  0.7818608E-02  0.1089435E+00
          3   -1    0    0  502    0  0.00000000000E+00  0.00000000000E+00  0.14683312206E+03  0.14683312206E+03  0.00000000000E+00 0. -1.
         -3   -1    0    0    0  501 -0.00000000000E+00 -0.00000000000E+00 -0.84300748799E+03  0.84300748799E+03  0.00000000000E+00 0.  1.
          6    1    1    2  502    0  0.13761152589E+03 -0.19131487077E+03 -0.71499101107E+02  0.30039046805E+03  0.17200000000E+03 0. -1.
         -6    1    1    2    0  501 -0.13761152589E+03  0.19131487077E+03 -0.62467526482E+03  0.68945014201E+03  0.17200000000E+03 0.  1.
</event>
<event>
 4    1  0.3115421E-002  0.2586092E+03  0.7818608E-02  0.1107982E+00
         -2   -1    0    0    0  501 -0.00000000000E+00  0.00000000000E+00  0.49368040961E+02  0.49368040961E+02  0.00000000000E+00 0.  1.
          2   -1    0    0  502    0  0.00000000000E+00 -0.00000000000E+00 -0.13662103077E+04  0.13662103077E+04  0.00000000000E+00 0. -1.
          6    1    1    2  502    0 -0.19258039145E+03  0.14404932317E+02 -0.72339755479E+03  0.76823351367E+03  0.17200000000E+03 0. -1.
         -6    1    1    2    0  501  0.19258039145E+03 -0.14404932317E+02 -0.59344471190E+03  0.64734483495E+03  0.17200000000E+03 0.  1.
</event>
<event>
 4    1  0.3115421E-002  0.2071263E+03  0.7818608E-02  0.1143862E+00
          2   -1    0    0  502    0  0.00000000000E+00  0.00000000000E+00  0.12855707926E+04  0.12855707926E+04  0.00000000000E+00 0. -1.
         -2   -1    0    0    0  501 -0.00000000000E+00 -0.00000000000E+00 -0.11595362122E+03  0.11595362122E+03  0.00000000000E+00 0.  1.
          6    1    1    2  502    0  0.92535713845E+02 -0.68952564526E+02  0.11761955647E+04  0.11942936494E+04  0.17200000000E+03 0. -1.
         -6    1    1    2    0  501 -0.92535713845E+02  0.68952564526E+02 -0.65783932871E+01  0.20723076449E+03  0.17200000000E+03 0.  1.
</event>
<event>
 4    1  0.3115421E-002  0.6541693E+03  0.7818608E-02  0.9798987E-01
         -1   -1    0    0    0  501 -0.00000000000E+00  0.00000000000E+00  0.66255076924E+03  0.66255076924E+03  0.00000000000E+00 0.  1.
          1   -1    0    0  502    0  0.00000000000E+00 -0.00000000000E+00 -0.13895876742E+04  0.13895876742E+04  0.00000000000E+00 0. -1.
          6    1    1    2  502    0 -0.58939424046E+03 -0.22576062749E+03 -0.11141568690E+04  0.12920073376E+04  0.17200000000E+03 0. -1.
         -6    1    1    2    0  501  0.58939424046E+03  0.22576062749E+03  0.38711996401E+03  0.76013110589E+03  0.17200000000E+03 0.  1.
</event>
<event>
 4    1  0.3115421E-002  0.1979467E+03  0.7818608E-02  0.1151483E+00
         -2   -1    0    0    0  501 -0.00000000000E+00  0.00000000000E+00  0.21944054683E+02  0.21944054683E+02  0.00000000000E+00 0.  1.
          2   -1    0    0  502    0  0.00000000000E+00 -0.00000000000E+00 -0.18127372920E+04  0.18127372920E+04  0.00000000000E+00 0. -1.
          6    1    1    2  502    0  0.33347107951E+01 -0.97917108657E+02 -0.78311701522E+03  0.80774695295E+03  0.17200000000E+03 0.  1.
         -6    1    1    2    0  501 -0.33347107951E+01  0.97917108657E+02 -0.10076762221E+04  0.10269343938E+04  0.17200000000E+03 0. -1.
</event>
<event>
 4    1  0.3115421E-002  0.2208133E+03  0.7818608E-02  0.1133278E+00
         -1   -1    0    0    0  501 -0.00000000000E+00  0.00000000000E+00  0.42931945388E+03  0.42931945388E+03  0.00000000000E+00 0.  1.
          1   -1    0    0  502    0  0.00000000000E+00 -0.00000000000E+00 -0.12365170987E+03  0.12365170987E+03  0.00000000000E+00 0. -1.
          6    1    1    2  502    0 -0.88395421735E+00  0.13846925977E+03  0.23177513229E+03  0.32012220983E+03  0.17200000000E+03 0. -1.
         -6    1    1    2    0  501  0.88395421735E+00 -0.13846925977E+03  0.73892611722E+02  0.23284895392E+03  0.17200000000E+03 0.  1.
</event>
<event>
 4    1  0.3115421E-002  0.3183743E+03  0.7818608E-02  0.1076400E+00
         -2   -1    0    0    0  501 -0.00000000000E+00  0.00000000000E+00  0.81759280862E+02  0.81759280862E+02  0.00000000000E+00 0.  1.
          2   -1    0    0  502    0  0.00000000000E+00 -0.00000000000E+00 -0.12633237709E+04  0.12633237709E+04  0.00000000000E+00 0. -1.
          6    1    1    2  502    0  0.83784921423E+02  0.25447651052E+03 -0.49893884877E+03  0.59186331385E+03  0.17200000000E+03 0.  1.
         -6    1    1    2    0  501 -0.83784921423E+02 -0.25447651052E+03 -0.68262564126E+03  0.75321973790E+03  0.17200000000E+03 0. -1.
</event>
<event>
 4    1  0.3115421E-002  0.2182129E+03  0.7818608E-02  0.1135222E+00
          2   -1    0    0  502    0  0.00000000000E+00  0.00000000000E+00  0.49387455790E+03  0.49387455790E+03  0.00000000000E+00 0. -1.
         -2   -1    0    0    0  501 -0.00000000000E+00 -0.00000000000E+00 -0.10155111261E+03  0.10155111261E+03  0.00000000000E+00 0.  1.
          6    1    1    2  502    0  0.12068511239E+03 -0.58889587015E+02  0.26311557025E+03  0.34182844106E+03  0.17200000000E+03 0. -1.
         -6    1    1    2    0  501 -0.12068511239E+03  0.58889587015E+02  0.12920787505E+03  0.25359722945E+03  0.17200000000E+03 0. -1.
</event>
<event>
 4    1  0.3115421E-002  0.4792189E+03  0.7818608E-02  0.1019350E+00
          2   -1    0    0  502    0  0.00000000000E+00  0.00000000000E+00  0.26189865770E+04  0.26189865770E+04  0.00000000000E+00 0. -1.
         -2   -1    0    0    0  501 -0.00000000000E+00 -0.00000000000E+00 -0.21864621586E+03  0.21864621586E+03  0.00000000000E+00 0.  1.
          6    1    1    2  502    0  0.25089233026E+03 -0.37029696111E+03  0.22982234851E+04  0.23476545718E+04  0.17200000000E+03 0. -1.
         -6    1    1    2    0  501 -0.25089233026E+03  0.37029696111E+03  0.10211687604E+03  0.48997822111E+03  0.17200000000E+03 0.  1.
</event>
<event>
 4    1  0.3115421E-002  0.1896917E+03  0.7818608E-02  0.1158740E+00
          2   -1    0    0  502    0  0.00000000000E+00  0.00000000000E+00  0.10752831127E+03  0.10752831127E+03  0.00000000000E+00 0. -1.
         -2   -1    0    0    0  501 -0.00000000000E+00 -0.00000000000E+00 -0.45718211520E+03  0.45718211520E+03  0.00000000000E+00 0.  1.
          6    1    1    2  502    0  0.79155981535E+02 -0.11544001873E+02 -0.28643018515E+02  0.19184200766E+03  0.17200000000E+03 0. -1.
         -6    1    1    2    0  501 -0.79155981535E+02  0.11544001873E+02 -0.32101078541E+03  0.37286841881E+03  0.17200000000E+03 0.  1.
</event>
<event>
 4    1  0.3115421E-002  0.1747146E+03  0.7818608E-02  0.1173019E+00
         -1   -1    0    0    0  501 -0.00000000000E+00  0.00000000000E+00  0.69109895760E+03  0.69109895760E+03  0.00000000000E+00 0.  1.
          1   -1    0    0  502    0  0.00000000000E+00 -0.00000000000E+00 -0.52780621807E+02  0.52780621807E+02  0.00000000000E+00 0. -1.
          6    1    1    2  502    0 -0.28174263911E+02 -0.12140504591E+02  0.16892222829E+03  0.24302242738E+03  0.17200000000E+03 0. -1.
         -6    1    1    2    0  501  0.28174263911E+02  0.12140504591E+02  0.46939610750E+03  0.50085715203E+03  0.17200000000E+03 0.  1.
</event>
<event>
 4    1  0.3115421E-002  0.2911759E+03  0.7818608E-02  0.1089737E+00
         -1   -1    0    0    0  501 -0.00000000000E+00  0.00000000000E+00  0.11928322611E+03  0.11928322611E+03  0.00000000000E+00 0.  1.
          1   -1    0    0  502    0  0.00000000000E+00 -0.00000000000E+00 -0.10618948986E+04  0.10618948986E+04  0.00000000000E+00 0. -1.
          6    1    1    2  502    0  0.23372298307E+03 -0.23937085756E+02 -0.81090996861E+03  0.86160222498E+03  0.17200000000E+03 0. -1.
         -6    1    1    2    0  501 -0.23372298307E+03  0.23937085756E+02 -0.13170170388E+03  0.31957589974E+03  0.17200000000E+03 0.  1.
</event>
<event>
 4    1  0.3115421E-002  0.1811915E+03  0.7818608E-02  0.1166655E+00
          1   -1    0    0  502    0  0.00000000000E+00  0.00000000000E+00  0.98901334508E+03  0.98901334508E+03  0.00000000000E+00 0. -1.
         -1   -1    0    0    0  501 -0.00000000000E+00 -0.00000000000E+00 -0.33263373472E+02  0.33263373472E+02  0.00000000000E+00 0.  1.
          6    1    1    2  502    0 -0.40395445930E+02  0.40181652058E+02  0.45471123504E+03  0.48948203694E+03  0.17200000000E+03 0. -1.
         -6    1    1    2    0  501  0.40395445930E+02 -0.40181652058E+02  0.50103873657E+03  0.53279468162E+03  0.17200000000E+03 0. -1.
</event>
<event>
 4    1  0.3115421E-002  0.2605908E+03  0.7818608E-02  0.1106789E+00
          2   -1    0    0  502    0  0.00000000000E+00  0.00000000000E+00  0.55617489586E+03  0.55617489586E+03  0.00000000000E+00 0. -1.
         -2   -1    0    0    0  501 -0.00000000000E+00 -0.00000000000E+00 -0.13226649975E+03  0.13226649975E+03  0.00000000000E+00 0.  1.
          6    1    1    2  502    0  0.18773747530E+03 -0.55481446599E+02  0.30739887195E+03  0.40299083987E+03  0.17200000000E+03 0. -1.
         -6    1    1    2    0  501 -0.18773747530E+03  0.55481446599E+02  0.11650952416E+03  0.28545055573E+03  0.17200000000E+03 0.  1.
</event>
<event>
 4    1  0.3115421E-002  0.2681890E+03  0.7818608E-02  0.1102321E+00
         -4   -1    0    0    0  501 -0.00000000000E+00  0.00000000000E+00  0.89515468711E+03  0.89515468711E+03  0.00000000000E+00 0.  1.
          4   -1    0    0  502    0  0.00000000000E+00 -0.00000000000E+00 -0.13360011975E+03  0.13360011975E+03  0.00000000000E+00 0. -1.
          6    1    1    2  502    0 -0.14773882763E+03 -0.14322912135E+03  0.56033918804E+02  0.27398018624E+03  0.17200000000E+03 0. -1.
         -6    1    1    2    0  501  0.14773882763E+03  0.14322912135E+03  0.70552064856E+03  0.75477462063E+03  0.17200000000E+03 0.  1.
</event>
<event>
 4    1  0.3115421E-002  0.4594901E+03  0.7818608E-02  0.1024929E+00
          1   -1    0    0  502    0  0.00000000000E+00  0.00000000000E+00  0.12363296270E+04  0.12363296270E+04  0.00000000000E+00 0. -1.
         -1   -1    0    0    0  501 -0.00000000000E+00 -0.00000000000E+00 -0.17077267321E+03  0.17077267321E+03  0.00000000000E+00 0.  1.
          6    1    1    2  502    0  0.31606679680E+03 -0.28574279785E+03  0.53218783867E+03  0.70310387724E+03  0.17200000000E+03 0. -1.
         -6    1    1    2    0  501 -0.31606679680E+03  0.28574279785E+03  0.53336911511E+03  0.70399842295E+03  0.17200000000E+03 0.  1.
</event>
<event>
 4    1  0.3115421E-002  0.1801678E+03  0.7818608E-02  0.1167641E+00
          3   -1    0    0  502    0  0.00000000000E+00  0.00000000000E+00  0.46498133162E+02  0.46498133162E+02  0.00000000000E+00 0. -1.
         -3   -1    0    0    0  501 -0.00000000000E+00 -0.00000000000E+00 -0.96983646801E+03  0.96983646801E+03  0.00000000000E+00 0.  1.
          6    1    1    2  502    0  0.85555423467E+01  0.52945616656E+02 -0.73065530344E+03  0.75254076838E+03  0.17200000000E+03 0.  1.
         -6    1    1    2    0  501 -0.85555423467E+01 -0.52945616656E+02 -0.19268303141E+03  0.26379383280E+03  0.17200000000E+03 0. -1.
</event>
<event>
 4    1  0.3115421E-002  0.2840202E+03  0.7818608E-02  0.1093513E+00
         -2   -1    0    0    0  501 -0.00000000000E+00  0.00000000000E+00  0.15492814389E+03  0.15492814389E+03  0.00000000000E+00 0.  1.
          2   -1    0    0  502    0  0.00000000000E+00 -0.00000000000E+00 -0.73551809222E+03  0.73551809222E+03  0.00000000000E+00 0. -1.
          6    1    1    2  502    0 -0.14791270498E+03 -0.17089562043E+03 -0.53091953949E+03  0.60211546965E+03  0.17200000000E+03 0. -1.
         -6    1    1    2    0  501  0.14791270498E+03  0.17089562043E+03 -0.49670408838E+02  0.28833076647E+03  0.17200000000E+03 0.  1.
</event>
<event>
 4    1  0.3115421E-002  0.2018556E+03  0.7818608E-02  0.1148183E+00
         -1   -1    0    0    0  501 -0.00000000000E+00  0.00000000000E+00  0.16913165052E+04  0.16913165052E+04  0.00000000000E+00 0.  1.
          1   -1    0    0  502    0  0.00000000000E+00 -0.00000000000E+00 -0.35325909453E+02  0.35325909453E+02  0.00000000000E+00 0. -1.
          6    1    1    2  502    0  0.42185371759E+02  0.96861060578E+02  0.34113020289E+03  0.39637795849E+03  0.17200000000E+03 0. -1.
         -6    1    1    2    0  501 -0.42185371759E+02 -0.96861060578E+02  0.13148603928E+04  0.13302644561E+04  0.17200000000E+03 0.  1.
</event>
<event>
 4    1  0.3115421E-002  0.2867702E+03  0.7818608E-02  0.1092048E+00
         -2   -1    0    0    0  501 -0.00000000000E+00  0.00000000000E+00  0.33906595400E+03  0.33906595400E+03  0.00000000000E+00 0.  1.
          2   -1    0    0  502    0  0.00000000000E+00 -0.00000000000E+00 -0.25141388475E+03  0.25141388475E+03  0.00000000000E+00 0. -1.
          6    1    1    2  502    0  0.22532409385E+03 -0.43384243331E+02  0.99292606473E+02  0.30347349397E+03  0.17200000000E+03 0.  1.
         -6    1    1    2    0  501 -0.22532409385E+03  0.43384243331E+02 -0.11640537221E+02  0.28700634479E+03  0.17200000000E+03 0.  1.
</event>
<event>
 4    1  0.3115421E-002  0.2244391E+03  0.7818608E-02  0.1130616E+00
         -2   -1    0    0    0  501 -0.00000000000E+00  0.00000000000E+00  0.96084025097E+02  0.96084025097E+02  0.00000000000E+00 0.  1.
          2   -1    0    0  502    0  0.00000000000E+00 -0.00000000000E+00 -0.98816601880E+03  0.98816601880E+03  0.00000000000E+00 0. -1.
          6    1    1    2  502    0 -0.10518406954E+03 -0.98616628362E+02 -0.81749060425E+03  0.84774041776E+03  0.17200000000E+03 0. -1.
         -6    1    1    2    0  501  0.10518406954E+03  0.98616628362E+02 -0.74591389455E+02  0.23650962614E+03  0.17200000000E+03 0.  1.
</event>
<event>
 4    1  0.3115421E-002  0.2461755E+03  0.7818608E-02  0.1115746E+00
         -2   -1    0    0    0  501 -0.00000000000E+00  0.00000000000E+00  0.67687490454E+02  0.67687490454E+02  0.00000000000E+00 0.  1.
          2   -1    0    0  502    0  0.00000000000E+00 -0.00000000000E+00 -0.93446257811E+03  0.93446257811E+03  0.00000000000E+00 0. -1.
          6    1    1    2  502    0  0.28320720434E+02  0.17382844480E+03 -0.53593183397E+03  0.58976717617E+03  0.17200000000E+03 0. -1.
         -6    1    1    2    0  501 -0.28320720434E+02 -0.17382844480E+03 -0.33084325369E+03  0.41238289239E+03  0.17200000000E+03 0.  1.
</event>
<event>
 4    1  0.3115421E-002  0.1734185E+03  0.7818608E-02  0.1174329E+00
          1   -1    0    0  502    0  0.00000000000E+00  0.00000000000E+00  0.66145385577E+03  0.66145385577E+03  0.00000000000E+00 0. -1.
         -1   -1    0    0    0  501 -0.00000000000E+00 -0.00000000000E+00 -0.45718041970E+02  0.45718041970E+02  0.00000000000E+00 0.  1.
          6    1    1    2  502    0 -0.15643314939E+02  0.15661009294E+02  0.28163955161E+03  0.33074887384E+03  0.17200000000E+03 0. -1.
         -6    1    1    2    0  501  0.15643314939E+02 -0.15661009294E+02  0.33409626219E+03  0.37642302390E+03  0.17200000000E+03 0.  1.
</event>
<event>
 4    1  0.3115421E-002  0.2109774E+03  0.7818608E-02  0.1140794E+00
         -3   -1    0    0    0  501 -0.00000000000E+00  0.00000000000E+00  0.38839202038E+02  0.38839202038E+02  0.00000000000E+00 0.  1.
          3   -1    0    0  502    0  0.00000000000E+00 -0.00000000000E+00 -0.12111185434E+04  0.12111185434E+04  0.00000000000E+00 0. -1.
          6    1    1    2  502    0  0.76966586957E+02 -0.94887305340E+02 -0.73100875156E+03  0.76084509006E+03  0.17200000000E+03 0. -1.
         -6    1    1    2    0  501 -0.76966586957E+02  0.94887305340E+02 -0.44127058985E+03  0.48911265541E+03  0.17200000000E+03 0.  1.
</event>
<event>
 4    1  0.3115421E-002  0.3504816E+03  0.7818608E-02  0.1062418E+00
         -2   -1    0    0    0  501 -0.00000000000E+00  0.00000000000E+00  0.29192813456E+03  0.29192813456E+03  0.00000000000E+00 0.  1.
          2   -1    0    0  502    0  0.00000000000E+00 -0.00000000000E+00 -0.49063814808E+03  0.49063814808E+03  0.00000000000E+00 0. -1.
          6    1    1    2  502    0 -0.99942690442E+02  0.28855640749E+03 -0.24700074583E+03  0.42877349512E+03  0.17200000000E+03 0. -1.
         -6    1    1    2    0  501  0.99942690442E+02 -0.28855640749E+03  0.48290732309E+02  0.35379278752E+03  0.17200000000E+03 0.  1.
</event>
<event>
 4    1  0.3115421E-002  0.4478177E+03  0.7818608E-02  0.1028375E+00
          2   -1    0    0  502    0  0.00000000000E+00  0.00000000000E+00  0.13605421505E+04  0.13605421505E+04  0.00000000000E+00 0. -1.
         -2   -1    0    0    0  501 -0.00000000000E+00 -0.00000000000E+00 -0.16006571104E+03  0.16006571104E+03  0.00000000000E+00 0.  1.
          6    1    1    2  502    0  0.40904910067E+03  0.60295403635E+02  0.81412961933E+03  0.92916507658E+03  0.17200000000E+03 0. -1.
         -6    1    1    2    0  501 -0.40904910067E+03 -0.60295403635E+02  0.38634682012E+03  0.59144278496E+03  0.17200000000E+03 0.  1.
</event>
<event>
 4    1  0.3115421E-002  0.1759911E+03  0.7818608E-02  0.1171740E+00
          2   -1    0    0  502    0  0.00000000000E+00  0.00000000000E+00  0.12754846430E+04  0.12754846430E+04  0.00000000000E+00 0. -1.
         -2   -1    0    0    0  501 -0.00000000000E+00 -0.00000000000E+00 -0.33268272379E+02  0.33268272379E+02  0.00000000000E+00 0.  1.
          6    1    1    2  502    0 -0.71694005489E+01  0.36571156516E+02  0.96118209250E+03  0.97716112527E+03  0.17200000000E+03 0. -1.
         -6    1    1    2    0  501  0.71694005489E+01 -0.36571156516E+02  0.28103427815E+03  0.33159179014E+03  0.17200000000E+03 0.  1.
</event>
<event>
 4    1  0.3115421E-002  0.1794628E+03  0.7818608E-02  0.1168324E+00
         -1   -1    0    0    0  501 -0.00000000000E+00  0.00000000000E+00  0.11422813858E+03  0.11422813858E+03  0.00000000000E+00 0.  1.
          1   -1    0    0  502    0  0.00000000000E+00 -0.00000000000E+00 -0.28687207602E+03  0.28687207602E+03  0.00000000000E+00 0. -1.
          6    1    1    2  502    0 -0.51213046492E+02  0.33354958361E+00 -0.11258537452E+03  0.21185455847E+03  0.17200000000E+03 0.  1.
         -6    1    1    2    0  501  0.51213046492E+02 -0.33354958361E+00 -0.60058562919E+02  0.18924565614E+03  0.17200000000E+03 0.  1.
</event>
<event>
 4    1  0.3115421E-002  0.4418636E+03  0.7818608E-02  0.1030177E+00
          2   -1    0    0  502    0  0.00000000000E+00  0.00000000000E+00  0.19963728544E+04  0.19963728544E+04  0.00000000000E+00 0. -1.
         -2   -1    0    0    0  501 -0.00000000000E+00 -0.00000000000E+00 -0.13478597535E+03  0.13478597535E+03  0.00000000000E+00 0.  1.
          6    1    1    2  502    0  0.86664701661E+02  0.39767912528E+03  0.14889902160E+04  0.15531694436E+04  0.17200000000E+03 0. -1.
         -6    1    1    2    0  501 -0.86664701661E+02 -0.39767912528E+03  0.37259666309E+03  0.57798938619E+03  0.17200000000E+03 0.  1.
</event>
<event>
 4    1  0.3115421E-002  0.2310463E+03  0.7818608E-02  0.1125905E+00
          1   -1    0    0  502    0  0.00000000000E+00  0.00000000000E+00  0.39445156346E+03  0.39445156346E+03  0.00000000000E+00 0. -1.
         -1   -1    0    0    0  501 -0.00000000000E+00 -0.00000000000E+00 -0.13575221476E+03  0.13575221476E+03  0.00000000000E+00 0.  1.
          6    1    1    2  502    0  0.72399241625E+02  0.13622321853E+03  0.11462235747E+03  0.25791607218E+03  0.17200000000E+03 0. -1.
         -6    1    1    2    0  501 -0.72399241625E+02 -0.13622321853E+03  0.14407699123E+03  0.27228770603E+03  0.17200000000E+03 0.  1.
</event>
<event>
 4    1  0.3115421E-002  0.2265250E+03  0.7818608E-02  0.1129110E+00
         -1   -1    0    0    0  501 -0.00000000000E+00  0.00000000000E+00  0.97268411407E+02  0.97268411407E+02  0.00000000000E+00 0.  1.
          1   -1    0    0  502    0  0.00000000000E+00 -0.00000000000E+00 -0.54587394009E+03  0.54587394009E+03  0.00000000000E+00 0. -1.
          6    1    1    2  502    0 -0.43557042653E+02  0.14082744201E+03 -0.28322577874E+03  0.36267123697E+03  0.17200000000E+03 0. -1.
         -6    1    1    2    0  501  0.43557042653E+02 -0.14082744201E+03 -0.16537974995E+03  0.28047111452E+03  0.17200000000E+03 0.  1.
</event>
<event>
 4    1  0.3115421E-002  0.1894742E+03  0.7818608E-02  0.1158936E+00
          2   -1    0    0  502    0  0.00000000000E+00  0.00000000000E+00  0.16901130679E+04  0.16901130679E+04  0.00000000000E+00 0. -1.
         -2   -1    0    0    0  501 -0.00000000000E+00 -0.00000000000E+00 -0.21241907054E+02  0.21241907054E+02  0.00000000000E+00 0.  1.
          6    1    1    2  502    0  0.79469656497E+02 -0.10140570603E+01  0.83839858603E+03  0.85954211280E+03  0.17200000000E+03 0.  1.
         -6    1    1    2    0  501 -0.79469656497E+02  0.10140570603E+01  0.83047257483E+03  0.85181286217E+03  0.17200000000E+03 0.  1.
</event>
<event>
 4    1  0.3115421E-002  0.1755228E+03  0.7818608E-02  0.1172208E+00
          2   -1    0    0  502    0  0.00000000000E+00  0.00000000000E+00  0.29010554811E+04  0.29010554811E+04  0.00000000000E+00 0. -1.
         -2   -1    0    0    0  501 -0.00000000000E+00 -0.00000000000E+00 -0.10645790329E+02  0.10645790329E+02  0.00000000000E+00 0.  1.
          6    1    1    2  502    0  0.33233322023E+02 -0.10944894991E+02  0.13730877024E+04  0.13842608435E+04  0.17200000000E+03 0.  1.
         -6    1    1    2    0  501 -0.33233322023E+02  0.10944894991E+02  0.15173219884E+04  0.15274404280E+04  0.17200000000E+03 0. -1.
</event>
<event>
 4    1  0.3115421E-002  0.2136946E+03  0.7818608E-02  0.1138673E+00
         -2   -1    0    0    0  501 -0.00000000000E+00  0.00000000000E+00  0.76590205296E+02  0.76590205296E+02  0.00000000000E+00 0.  1.
          2   -1    0    0  502    0  0.00000000000E+00 -0.00000000000E+00 -0.70556990065E+03  0.70556990065E+03  0.00000000000E+00 0. -1.
          6    1    1    2  502    0  0.10953454494E+03  0.63902690439E+02 -0.16053790262E+03  0.26727848503E+03  0.17200000000E+03 0. -1.
         -6    1    1    2    0  501 -0.10953454494E+03 -0.63902690439E+02 -0.46844179273E+03  0.51488162092E+03  0.17200000000E+03 0. -1.
</event>
<event>
 4    1  0.3115421E-002  0.7435643E+03  0.7818608E-02  0.9645501E-01
          2   -1    0    0  502    0  0.00000000000E+00  0.00000000000E+00  0.21399950369E+04  0.21399950369E+04  0.00000000000E+00 0. -1.
         -2   -1    0    0    0  501 -0.00000000000E+00 -0.00000000000E+00 -0.29803226449E+03  0.29803226449E+03  0.00000000000E+00 0.  1.
          6    1    1    2  502    0 -0.29968880306E+03  0.65839997323E+03  0.13657391406E+04  0.15550341808E+04  0.17200000000E+03 0. -1.
         -6    1    1    2    0  501  0.29968880306E+03 -0.65839997323E+03  0.47622363181E+03  0.88299312054E+03  0.17200000000E+03 0.  1.
</event>
<event>
 4    1  0.3115421E-002  0.2307891E+03  0.7818608E-02  0.1126086E+00
          3   -1    0    0  502    0  0.00000000000E+00  0.00000000000E+00  0.48751549519E+03  0.48751549519E+03  0.00000000000E+00 0. -1.
         -3   -1    0    0    0  501 -0.00000000000E+00 -0.00000000000E+00 -0.11236225853E+03  0.11236225853E+03  0.00000000000E+00 0.  1.
          6    1    1    2  502    0  0.10902968616E+03  0.10859155430E+03  0.23745334413E+03  0.33113092391E+03  0.17200000000E+03 0. -1.
         -6    1    1    2    0  501 -0.10902968616E+03 -0.10859155430E+03  0.13769989253E+03  0.26874682981E+03  0.17200000000E+03 0.  1.
</event>
<event>
 4    1  0.3115421E-002  0.2969012E+03  0.7818608E-02  0.1086800E+00
          2   -1    0    0  502    0  0.00000000000E+00  0.00000000000E+00  0.12378017062E+03  0.12378017062E+03  0.00000000000E+00 0. -1.
         -2   -1    0    0    0  501 -0.00000000000E+00 -0.00000000000E+00 -0.12696235391E+04  0.12696235391E+04  0.00000000000E+00 0.  1.
          6    1    1    2  502    0 -0.53640755608E+02 -0.23598514040E+03 -0.10345801113E+04  0.10763393164E+04  0.17200000000E+03 0.  1.
         -6    1    1    2    0  501  0.53640755608E+02  0.23598514040E+03 -0.11126325713E+03  0.31706439336E+03  0.17200000000E+03 0.  1.
</event>
<event>
 4    1  0.3115421E-002  0.3062146E+03  0.7818608E-02  0.1082175E+00
          2   -1    0    0  502    0  0.00000000000E+00  0.00000000000E+00  0.11159103995E+03  0.11159103995E+03  0.00000000000E+00 0. -1.
         -2   -1    0    0    0  501 -0.00000000000E+00 -0.00000000000E+00 -0.10743216727E+04  0.10743216727E+04  0.00000000000E+00 0.  1.
          6    1    1    2  502    0 -0.47469184703E+02 -0.24885755997E+03 -0.75812621875E+03  0.81763241876E+03  0.17200000000E+03 0.  1.
         -6    1    1    2    0  501  0.47469184703E+02  0.24885755997E+03 -0.20460441405E+03  0.36828029393E+03  0.17200000000E+03 0. -1.
</event>
<event>
 4    1  0.3115421E-002  0.2100534E+03  0.7818608E-02  0.1141524E+00
          2   -1    0    0  502    0  0.00000000000E+00  0.00000000000E+00  0.11447731506E+04  0.11447731506E+04  0.00000000000E+00 0. -1.
         -2   -1    0    0    0  501 -0.00000000000E+00 -0.00000000000E+00 -0.42933573707E+02  0.42933573707E+02  0.00000000000E+00 0.  1.
          6    1    1    2  502    0 -0.72788944213E+02  0.96125983778E+02  0.36100211908E+03  0.41766609287E+03  0.17200000000E+03 0. -1.
         -6    1    1    2    0  501  0.72788944213E+02 -0.96125983778E+02  0.74083745779E+03  0.77004063141E+03  0.17200000000E+03 0. -1.
</event>
<event>
 4    1  0.3115421E-002  0.2609947E+03  0.7818608E-02  0.1106547E+00
         -2   -1    0    0    0  501 -0.00000000000E+00  0.00000000000E+00  0.16646420456E+03  0.16646420456E+03  0.00000000000E+00 0.  1.
          2   -1    0    0  502    0  0.00000000000E+00 -0.00000000000E+00 -0.10623842272E+04  0.10623842272E+04  0.00000000000E+00 0. -1.
          6    1    1    2  502    0 -0.10407356930E+03 -0.16644196900E+03 -0.92973383057E+03  0.96567242508E+03  0.17200000000E+03 0. -1.
         -6    1    1    2    0  501  0.10407356930E+03  0.16644196900E+03  0.33813807949E+02  0.26317600666E+03  0.17200000000E+03 0.  1.
</event>
<event>
 4    1  0.3115421E-002  0.2205529E+03  0.7818608E-02  0.1133472E+00
          2   -1    0    0  502    0  0.00000000000E+00  0.00000000000E+00  0.97260413967E+03  0.97260413967E+03  0.00000000000E+00 0. -1.
         -2   -1    0    0    0  501 -0.00000000000E+00 -0.00000000000E+00 -0.56421176731E+02  0.56421176731E+02  0.00000000000E+00 0.  1.
          6    1    1    2  502    0  0.26080038356E+02  0.13557066821E+03  0.28470428642E+03  0.36013900814E+03  0.17200000000E+03 0. -1.
         -6    1    1    2    0  501 -0.26080038356E+02 -0.13557066821E+03  0.63147867653E+03  0.66888630827E+03  0.17200000000E+03 0. -1.
</event>
<event>
 4    1  0.3115421E-002  0.1780405E+03  0.7818608E-02  0.1169713E+00
         -3   -1    0    0    0  501 -0.00000000000E+00  0.00000000000E+00  0.92853448349E+03  0.92853448349E+03  0.00000000000E+00 0.  1.
          3   -1    0    0  502    0  0.00000000000E+00 -0.00000000000E+00 -0.35044527435E+02  0.35044527435E+02  0.00000000000E+00 0. -1.
          6    1    1    2  502    0 -0.23275760514E+02  0.39656911455E+02  0.36926198772E+03  0.40994249258E+03  0.17200000000E+03 0.  1.
         -6    1    1    2    0  501  0.23275760514E+02 -0.39656911455E+02  0.52422796834E+03  0.55363651835E+03  0.17200000000E+03 0.  1.
</event>
<event>
 4    1  0.3115421E-002  0.1887590E+03  0.7818608E-02  0.1159585E+00
         -1   -1    0    0    0  501 -0.00000000000E+00  0.00000000000E+00  0.36747880600E+02  0.36747880600E+02  0.00000000000E+00 0.  1.
          1   -1    0    0  502    0  0.00000000000E+00 -0.00000000000E+00 -0.16824023940E+04  0.16824023940E+04  0.00000000000E+00 0. -1.
          6    1    1    2  502    0  0.16288336950E+02 -0.76030513373E+02 -0.13823401273E+04  0.13951681535E+04  0.17200000000E+03 0. -1.
         -6    1    1    2    0  501 -0.16288336950E+02  0.76030513373E+02 -0.26331438604E+03  0.32398212108E+03  0.17200000000E+03 0.  1.
</event>
<event>
 4    1  0.3115421E-002  0.7860768E+03  0.7818608E-02  0.9580392E-01
          2   -1    0    0  502    0  0.00000000000E+00  0.00000000000E+00  0.17023942004E+04  0.17023942004E+04  0.00000000000E+00 0. -1.
         -2   -1    0    0    0  501 -0.00000000000E+00 -0.00000000000E+00 -0.36658719807E+03  0.36658719807E+03  0.00000000000E+00 0.  1.
          6    1    1    2  502    0  0.26212877924E+03  0.72084754140E+03  0.77067474686E+03  0.11008434222E+04  0.17200000000E+03 0. -1.
         -6    1    1    2    0  501 -0.26212877924E+03 -0.72084754140E+03  0.56513225547E+03  0.96813797623E+03  0.17200000000E+03 0.  1.
</event>
<event>
 4    1  0.3115421E-002  0.2594006E+03  0.7818608E-02  0.1107504E+00
         -2   -1    0    0    0  501 -0.00000000000E+00  0.00000000000E+00  0.26473106811E+03  0.26473106811E+03  0.00000000000E+00 0.  1.
          2   -1    0    0  502    0  0.00000000000E+00 -0.00000000000E+00 -0.25419721713E+03  0.25419721713E+03  0.00000000000E+00 0. -1.
          6    1    1    2  502    0 -0.16700505730E+03  0.99065469565E+02  0.29763934290E+01  0.25941764655E+03  0.17200000000E+03 0. -1.
         -6    1    1    2    0  501  0.16700505730E+03 -0.99065469565E+02  0.75574575505E+01  0.25951063868E+03  0.17200000000E+03 0.  1.
</event>
<event>
 4    1  0.3115421E-002  0.3834909E+03  0.7818608E-02  0.1049651E+00
          2   -1    0    0  502    0  0.00000000000E+00  0.00000000000E+00  0.11802378999E+04  0.11802378999E+04  0.00000000000E+00 0. -1.
         -2   -1    0    0    0  501 -0.00000000000E+00 -0.00000000000E+00 -0.31469911449E+03  0.31469911449E+03  0.00000000000E+00 0.  1.
          6    1    1    2  502    0  0.13435873582E+03  0.31532362159E+03  0.10137047595E+04  0.10838185253E+04  0.17200000000E+03 0. -1.
         -6    1    1    2    0  501 -0.13435873582E+03 -0.31532362159E+03 -0.14816597411E+03  0.41111848913E+03  0.17200000000E+03 0.  1.
</event>
<event>
 4    1  0.3115421E-002  0.2020418E+03  0.7818608E-02  0.1148028E+00
          1   -1    0    0  502    0  0.00000000000E+00  0.00000000000E+00  0.66055283149E+03  0.66055283149E+03  0.00000000000E+00 0. -1.
         -1   -1    0    0    0  501 -0.00000000000E+00 -0.00000000000E+00 -0.77165458066E+02  0.77165458066E+02  0.00000000000E+00 0.  1.
          6    1    1    2  502    0  0.10131274472E+03 -0.31186493555E+02  0.12708621160E+03  0.23868760923E+03  0.17200000000E+03 0.  1.
         -6    1    1    2    0  501 -0.10131274472E+03  0.31186493555E+02  0.45630116182E+03  0.49903068032E+03  0.17200000000E+03 0. -1.
</event>
<event>
 4    1  0.3115421E-002  0.2920867E+03  0.7818608E-02  0.1089265E+00
         -1   -1    0    0    0  501 -0.00000000000E+00  0.00000000000E+00  0.24534649575E+03  0.24534649575E+03  0.00000000000E+00 0.  1.
          1   -1    0    0  502    0  0.00000000000E+00 -0.00000000000E+00 -0.52494271099E+03  0.52494271099E+03  0.00000000000E+00 0. -1.
          6    1    1    2  502    0 -0.10507238303E+03  0.21140107789E+03 -0.36357429806E+03  0.46636990857E+03  0.17200000000E+03 0. -1.
         -6    1    1    2    0  501  0.10507238303E+03 -0.21140107789E+03  0.83978082810E+02  0.30391929817E+03  0.17200000000E+03 0.  1.
</event>
<event>
 4    1  0.3115421E-002  0.5817807E+03  0.7818608E-02  0.9943943E-01
         -2   -1    0    0    0  501 -0.00000000000E+00  0.00000000000E+00  0.32071806734E+03  0.32071806734E+03  0.00000000000E+00 0.  1.
          2   -1    0    0  502    0  0.00000000000E+00 -0.00000000000E+00 -0.11739242605E+04  0.11739242605E+04  0.00000000000E+00 0. -1.
          6    1    1    2  502    0 -0.15404533574E+03 -0.53399884971E+03 -0.66411675854E+03  0.88290418842E+03  0.17200000000E+03 0. -1.
         -6    1    1    2    0  501  0.15404533574E+03  0.53399884971E+03 -0.18908943465E+03  0.61173813944E+03  0.17200000000E+03 0.  1.
</event>
<event>
 4    1  0.3115421E-002  0.2052439E+03  0.7818608E-02  0.1145389E+00
         -2   -1    0    0    0  501 -0.00000000000E+00  0.00000000000E+00  0.11800917968E+03  0.11800917968E+03  0.00000000000E+00 0.  1.
          2   -1    0    0  502    0  0.00000000000E+00 -0.00000000000E+00 -0.38387585883E+03  0.38387585883E+03  0.00000000000E+00 0. -1.
          6    1    1    2  502    0 -0.51460926515E+02  0.99462811764E+02 -0.19937605088E+03  0.28613962946E+03  0.17200000000E+03 0. -1.
         -6    1    1    2    0  501  0.51460926515E+02 -0.99462811764E+02 -0.66490628268E+02  0.21574540906E+03  0.17200000000E+03 0. -1.
</event>
<event>
 4    1  0.3115421E-002  0.2284319E+03  0.7818608E-02  0.1127748E+00
         -1   -1    0    0    0  501 -0.00000000000E+00  0.00000000000E+00  0.28488845837E+02  0.28488845837E+02  0.00000000000E+00 0.  1.
          1   -1    0    0  502    0  0.00000000000E+00 -0.00000000000E+00 -0.19265737216E+04  0.19265737216E+04  0.00000000000E+00 0. -1.
          6    1    1    2  502    0 -0.29246000645E+02 -0.14745104043E+03 -0.11660435142E+04  0.11882081530E+04  0.17200000000E+03 0. -1.
         -6    1    1    2    0  501  0.29246000645E+02  0.14745104043E+03 -0.73204136150E+03  0.76685441436E+03  0.17200000000E+03 0.  1.
</event>
<event>
 4    1  0.3115421E-002  0.6641037E+03  0.7818608E-02  0.9780669E-01
          1   -1    0    0  502    0  0.00000000000E+00  0.00000000000E+00  0.66382049255E+03  0.66382049255E+03  0.00000000000E+00 0. -1.
         -1   -1    0    0    0  501 -0.00000000000E+00 -0.00000000000E+00 -0.66439000355E+03  0.66439000355E+03  0.00000000000E+00 0.  1.
          6    1    1    2  502    0  0.45098655541E+03  0.45613682949E+03  0.11361707289E+01  0.66410463879E+03  0.17200000000E+03 0. -1.
         -6    1    1    2    0  501 -0.45098655541E+03 -0.45613682949E+03 -0.17056817294E+01  0.66410585732E+03  0.17200000000E+03 0.  1.
</event>
<event>
 4    1  0.3115421E-002  0.5228546E+03  0.7818608E-02  0.1007980E+00
         -1   -1    0    0    0  501 -0.00000000000E+00  0.00000000000E+00  0.19317727213E+04  0.19317727213E+04  0.00000000000E+00 0.  1.
          1   -1    0    0  502    0  0.00000000000E+00 -0.00000000000E+00 -0.17042949738E+03  0.17042949738E+03  0.00000000000E+00 0. -1.
          6    1    1    2  502    0 -0.32696945699E+03  0.36997828675E+03  0.13136055281E+04  0.14138374878E+04  0.17200000000E+03 0. -1.
         -6    1    1    2    0  501  0.32696945699E+03 -0.36997828675E+03  0.44773769585E+03  0.68836473090E+03  0.17200000000E+03 0.  1.
</event>
<event>
 4    1  0.3115421E-002  0.1836655E+03  0.7818608E-02  0.1164302E+00
          2   -1    0    0  502    0  0.00000000000E+00  0.00000000000E+00  0.23316613473E+03  0.23316613473E+03  0.00000000000E+00 0. -1.
         -2   -1    0    0    0  501 -0.00000000000E+00 -0.00000000000E+00 -0.25087472830E+03  0.25087472830E+03  0.00000000000E+00 0.  1.
          6    1    1    2  502    0 -0.32978437295E+01  0.64328264380E+02  0.14861213536E+03  0.23625953557E+03  0.17200000000E+03 0. -1.
         -6    1    1    2    0  501  0.32978437295E+01 -0.64328264380E+02 -0.16632072893E+03  0.24778132747E+03  0.17200000000E+03 0.  1.
</event>
<event>
 4    1  0.3115421E-002  0.1849583E+03  0.7818608E-02  0.1163089E+00
         -2   -1    0    0    0  501 -0.00000000000E+00  0.00000000000E+00  0.21459683315E+03  0.21459683315E+03  0.00000000000E+00 0.  1.
          2   -1    0    0  502    0  0.00000000000E+00 -0.00000000000E+00 -0.40681218616E+03  0.40681218616E+03  0.00000000000E+00 0. -1.
          6    1    1    2  502    0  0.19516855334E+02  0.65151135671E+02 -0.33840549038E+03  0.38565250426E+03  0.17200000000E+03 0. -1.
         -6    1    1    2    0  501 -0.19516855334E+02 -0.65151135671E+02  0.14619013737E+03  0.23575651505E+03  0.17200000000E+03 0.  1.
</event>
<event>
 4    1  0.3115421E-002  0.2546375E+03  0.7818608E-02  0.1110409E+00
         -2   -1    0    0    0  501 -0.00000000000E+00  0.00000000000E+00  0.81454631897E+02  0.81454631897E+02  0.00000000000E+00 0.  1.
          2   -1    0    0  502    0  0.00000000000E+00 -0.00000000000E+00 -0.11123759967E+04  0.11123759967E+04  0.00000000000E+00 0. -1.
          6    1    1    2  502    0  0.33047704383E+02  0.18483540396E+03 -0.83378406230E+03  0.87180051610E+03  0.17200000000E+03 0. -1.
         -6    1    1    2    0  501 -0.33047704383E+02 -0.18483540396E+03 -0.19713730252E+03  0.32203011252E+03  0.17200000000E+03 0.  1.
</event>
<event>
 4    1  0.3115421E-002  0.2280872E+03  0.7818608E-02  0.1127993E+00
          1   -1    0    0  502    0  0.00000000000E+00  0.00000000000E+00  0.61230468706E+03  0.61230468706E+03  0.00000000000E+00 0. -1.
         -1   -1    0    0    0  501 -0.00000000000E+00 -0.00000000000E+00 -0.12343972621E+03  0.12343972621E+03  0.00000000000E+00 0.  1.
          6    1    1    2  502    0  0.38006483062E+02 -0.14489749381E+03  0.44981507843E+03  0.50433855816E+03  0.17200000000E+03 0. -1.
         -6    1    1    2    0  501 -0.38006483062E+02  0.14489749381E+03  0.39049882421E+02  0.23140585512E+03  0.17200000000E+03 0.  1.
</event>
<event>
 4    1  0.3115421E-002  0.1837458E+03  0.7818608E-02  0.1164226E+00
         -2   -1    0    0    0  501 -0.00000000000E+00  0.00000000000E+00  0.64610699437E+03  0.64610699437E+03  0.00000000000E+00 0.  1.
          2   -1    0    0  502    0  0.00000000000E+00 -0.00000000000E+00 -0.80971855390E+02  0.80971855390E+02  0.00000000000E+00 0. -1.
          6    1    1    2  502    0 -0.43324775898E+02 -0.47973730118E+02  0.66071188701E+02  0.19526371134E+03  0.17200000000E+03 0. -1.
         -6    1    1    2    0  501  0.43324775898E+02  0.47973730118E+02  0.49906395028E+03  0.53181513842E+03  0.17200000000E+03 0.  1.
</event>
<event>
 4    1  0.3115421E-002  0.3950409E+03  0.7818608E-02  0.1045510E+00
          2   -1    0    0  502    0  0.00000000000E+00  0.00000000000E+00  0.21009956838E+04  0.21009956838E+04  0.00000000000E+00 0. -1.
         -2   -1    0    0    0  501 -0.00000000000E+00 -0.00000000000E+00 -0.16809702693E+03  0.16809702693E+03  0.00000000000E+00 0.  1.
          6    1    1    2  502    0  0.35561924001E+03 -0.28766298629E+01  0.18140439146E+04  0.18565593562E+04  0.17200000000E+03 0. -1.
         -6    1    1    2    0  501 -0.35561924001E+03  0.28766298629E+01  0.11885474227E+03  0.41253335456E+03  0.17200000000E+03 0.  1.
</event>
<event>
 4    1  0.3115421E-002  0.2338075E+03  0.7818608E-02  0.1123988E+00
          2   -1    0    0  502    0  0.00000000000E+00  0.00000000000E+00  0.58478253155E+03  0.58478253155E+03  0.00000000000E+00 0. -1.
         -2   -1    0    0    0  501 -0.00000000000E+00 -0.00000000000E+00 -0.93567895675E+02  0.93567895675E+02  0.00000000000E+00 0.  1.
          6    1    1    2  502    0  0.13774287598E+03  0.78159160492E+02  0.25595381643E+03  0.34666743487E+03  0.17200000000E+03 0. -1.
         -6    1    1    2    0  501 -0.13774287598E+03 -0.78159160492E+02  0.23526081944E+03  0.33168299235E+03  0.17200000000E+03 0.  1.
</event>
<event>
 4    1  0.3115421E-002  0.4845460E+03  0.7818608E-02  0.1017893E+00
         -2   -1    0    0    0  501 -0.00000000000E+00  0.00000000000E+00  0.13189497045E+03  0.13189497045E+03  0.00000000000E+00 0.  1.
          2   -1    0    0  502    0  0.00000000000E+00 -0.00000000000E+00 -0.18042308136E+04  0.18042308136E+04  0.00000000000E+00 0. -1.
          6    1    1    2  502    0 -0.31556984402E+02  0.45189046886E+03 -0.94814750631E+03  0.10647856746E+04  0.17200000000E+03 0. -1.
         -6    1    1    2    0  501  0.31556984402E+02 -0.45189046886E+03 -0.72418833684E+03  0.87134010944E+03  0.17200000000E+03 0.  1.
</event>
<event>
 4    1  0.3115421E-002  0.2774654E+03  0.7818608E-02  0.1097081E+00
          2   -1    0    0  502    0  0.00000000000E+00  0.00000000000E+00  0.72225953191E+03  0.72225953191E+03  0.00000000000E+00 0. -1.
         -2   -1    0    0    0  501 -0.00000000000E+00 -0.00000000000E+00 -0.11934348153E+03  0.11934348153E+03  0.00000000000E+00 0.  1.
          6    1    1    2  502    0  0.85245250557E+02 -0.20034047432E+03  0.43900750627E+03  0.51934059051E+03  0.17200000000E+03 0.  1.
         -6    1    1    2    0  501 -0.85245250557E+02  0.20034047432E+03  0.16390854412E+03  0.32226242293E+03  0.17200000000E+03 0.  1.
</event>
<event>
 4    1  0.3115421E-002  0.2663109E+03  0.7818608E-02  0.1103410E+00
          2   -1    0    0  502    0  0.00000000000E+00  0.00000000000E+00  0.29223617026E+03  0.29223617026E+03  0.00000000000E+00 0. -1.
         -2   -1    0    0    0  501 -0.00000000000E+00 -0.00000000000E+00 -0.31665916132E+03  0.31665916132E+03  0.00000000000E+00 0.  1.
          6    1    1    2  502    0 -0.20116105405E+03 -0.29524882751E+02  0.13493675544E+03  0.29854550128E+03  0.17200000000E+03 0. -1.
         -6    1    1    2    0  501  0.20116105405E+03  0.29524882751E+02 -0.15935974650E+03  0.31034983030E+03  0.17200000000E+03 0.  1.
</event>
<event>
 4    1  0.3115421E-002  0.2222838E+03  0.7818608E-02  0.1132192E+00
         -1   -1    0    0    0  501 -0.00000000000E+00  0.00000000000E+00  0.50346497604E+02  0.50346497604E+02  0.00000000000E+00 0.  1.
          1   -1    0    0  502    0  0.00000000000E+00 -0.00000000000E+00 -0.19211497699E+04  0.19211497699E+04  0.00000000000E+00 0. -1.
          6    1    1    2  502    0  0.11111844979E+03  0.86479987253E+02 -0.16248333514E+04  0.16399675357E+04  0.17200000000E+03 0. -1.
         -6    1    1    2    0  501 -0.11111844979E+03 -0.86479987253E+02 -0.24596992090E+03  0.33152873189E+03  0.17200000000E+03 0.  1.
</event>
<event>
 4    1  0.3115421E-002  0.4645113E+03  0.7818608E-02  0.1023481E+00
         -1   -1    0    0    0  501 -0.00000000000E+00  0.00000000000E+00  0.72233770163E+02  0.72233770163E+02  0.00000000000E+00 0.  1.
          1   -1    0    0  502    0  0.00000000000E+00 -0.00000000000E+00 -0.30568994556E+04  0.30568994556E+04  0.00000000000E+00 0. -1.
          6    1    1    2  502    0  0.34028598818E+03 -0.26531525552E+03 -0.17287211154E+04  0.17900411820E+04  0.17200000000E+03 0. -1.
         -6    1    1    2    0  501 -0.34028598818E+03  0.26531525552E+03 -0.12559445700E+04  0.13390920437E+04  0.17200000000E+03 0.  1.
</event>
<event>
 4    1  0.3115421E-002  0.2148666E+03  0.7818608E-02  0.1137769E+00
         -2   -1    0    0    0  501 -0.00000000000E+00  0.00000000000E+00  0.20852188645E+03  0.20852188645E+03  0.00000000000E+00 0.  1.
          2   -1    0    0  502    0  0.00000000000E+00 -0.00000000000E+00 -0.24746986622E+03  0.24746986622E+03  0.00000000000E+00 0. -1.
          6    1    1    2  502    0  0.68713861306E+02 -0.10891304346E+03 -0.93468461556E+02  0.23431602395E+03  0.17200000000E+03 0.  1.
         -6    1    1    2    0  501 -0.68713861306E+02  0.10891304346E+03  0.54520481786E+02  0.22167572873E+03  0.17200000000E+03 0.  1.
</event>
<event>
 4    1  0.3115421E-002  0.3675932E+03  0.7818608E-02  0.1055617E+00
          4   -1    0    0  502    0  0.00000000000E+00  0.00000000000E+00  0.11292218694E+04  0.11292218694E+04  0.00000000000E+00 0. -1.
         -4   -1    0    0    0  501 -0.00000000000E+00 -0.00000000000E+00 -0.11986796101E+03  0.11986796101E+03  0.00000000000E+00 0.  1.
          6    1    1    2  502    0 -0.32182910056E+03  0.44348256246E+02  0.47877693035E+03  0.60361584376E+03  0.17200000000E+03 0. -1.
         -6    1    1    2    0  501  0.32182910056E+03 -0.44348256246E+02  0.53057697802E+03  0.64547398662E+03  0.17200000000E+03 0.  1.
</event>
<event>
 4    1  0.3115421E-002  0.2061509E+03  0.7818608E-02  0.1144651E+00
         -2   -1    0    0    0  501 -0.00000000000E+00  0.00000000000E+00  0.35909158920E+02  0.35909158920E+02  0.00000000000E+00 0.  1.
          2   -1    0    0  502    0  0.00000000000E+00 -0.00000000000E+00 -0.11835584537E+04  0.11835584537E+04  0.00000000000E+00 0. -1.
          6    1    1    2  502    0 -0.95048141981E+02 -0.62289877220E+02 -0.57841659511E+03  0.61405531966E+03  0.17200000000E+03 0.  1.
         -6    1    1    2    0  501  0.95048141981E+02  0.62289877220E+02 -0.56923269965E+03  0.60541229294E+03  0.17200000000E+03 0. -1.
</event>
<event>
 4    1  0.3115421E-002  0.1726566E+03  0.7818608E-02  0.1175105E+00
          1   -1    0    0  502    0  0.00000000000E+00  0.00000000000E+00  0.55076751220E+02  0.55076751220E+02  0.00000000000E+00 0. -1.
         -1   -1    0    0    0  501 -0.00000000000E+00 -0.00000000000E+00 -0.55731248396E+03  0.55731248396E+03  0.00000000000E+00 0.  1.
          6    1    1    2  502    0  0.66429384524E+01  0.13497223441E+02 -0.30309969537E+03  0.34882621605E+03  0.17200000000E+03 0.  1.
         -6    1    1    2    0  501 -0.66429384524E+01 -0.13497223441E+02 -0.19913603737E+03  0.26356301912E+03  0.17200000000E+03 0. -1.
</event>
<event>
 4    1  0.3115421E-002  0.1868997E+03  0.7818608E-02  0.1161288E+00
         -1   -1    0    0    0  501 -0.00000000000E+00  0.00000000000E+00  0.99109395652E+02  0.99109395652E+02  0.00000000000E+00 0.  1.
          1   -1    0    0  502    0  0.00000000000E+00 -0.00000000000E+00 -0.11900796501E+04  0.11900796501E+04  0.00000000000E+00 0. -1.
          6    1    1    2  502    0 -0.51041197380E+02 -0.52367092240E+02 -0.10862687686E+04  0.11022301728E+04  0.17200000000E+03 0. -1.
         -6    1    1    2    0  501  0.51041197380E+02  0.52367092240E+02 -0.47014857673E+01  0.18695887288E+03  0.17200000000E+03 0.  1.
</event>
<event>
 4    1  0.3115421E-002  0.1918421E+03  0.7818608E-02  0.1156810E+00
          1   -1    0    0  502    0  0.00000000000E+00  0.00000000000E+00  0.45489666005E+03  0.45489666005E+03  0.00000000000E+00 0. -1.
         -1   -1    0    0    0  501 -0.00000000000E+00 -0.00000000000E+00 -0.82367133980E+02  0.82367133980E+02  0.00000000000E+00 0.  1.
          6    1    1    2  502    0  0.81580430827E+02  0.23749253305E+02  0.15047318083E+03  0.24381462605E+03  0.17200000000E+03 0.  1.
         -6    1    1    2    0  501 -0.81580430827E+02 -0.23749253305E+02  0.22205634524E+03  0.29344916798E+03  0.17200000000E+03 0. -1.
</event>
<event>
 4    1  0.3115421E-002  0.1747977E+03  0.7818608E-02  0.1172935E+00
         -2   -1    0    0    0  501 -0.00000000000E+00  0.00000000000E+00  0.34496923302E+02  0.34496923302E+02  0.00000000000E+00 0.  1.
          2   -1    0    0  502    0  0.00000000000E+00 -0.00000000000E+00 -0.91611287786E+03  0.91611287786E+03  0.00000000000E+00 0. -1.
          6    1    1    2  502    0  0.13019075949E+02 -0.28297524081E+02 -0.35421950873E+03  0.39500089440E+03  0.17200000000E+03 0. -1.
         -6    1    1    2    0  501 -0.13019075949E+02  0.28297524081E+02 -0.52739644583E+03  0.55560890677E+03  0.17200000000E+03 0. -1.
</event>
<event>
 4    1  0.3115421E-002  0.5595221E+03  0.7818608E-02  0.9993136E-01
          1   -1    0    0  502    0  0.00000000000E+00  0.00000000000E+00  0.10213909479E+04  0.10213909479E+04  0.00000000000E+00 0. -1.
         -1   -1    0    0    0  501 -0.00000000000E+00 -0.00000000000E+00 -0.33575937218E+03  0.33575937218E+03  0.00000000000E+00 0.  1.
          6    1    1    2  502    0  0.44140864357E+03 -0.29772374042E+03  0.14252857127E+03  0.57739017126E+03  0.17200000000E+03 0.  1.
         -6    1    1    2    0  501 -0.44140864357E+03  0.29772374042E+03  0.54310300441E+03  0.77976014878E+03  0.17200000000E+03 0.  1.
</event>
<event>
 4    1  0.3115421E-002  0.4131194E+03  0.7818608E-02  0.1039329E+00
          1   -1    0    0  502    0  0.00000000000E+00  0.00000000000E+00  0.44644009933E+03  0.44644009933E+03  0.00000000000E+00 0. -1.
         -1   -1    0    0    0  501 -0.00000000000E+00 -0.00000000000E+00 -0.38741218667E+03  0.38741218667E+03  0.00000000000E+00 0.  1.
          6    1    1    2  502    0 -0.26156628712E+03 -0.26956761832E+03  0.77474758169E+02  0.42032125994E+03  0.17200000000E+03 0. -1.
         -6    1    1    2    0  501  0.26156628712E+03  0.26956761832E+03 -0.18446845513E+02  0.41353102606E+03  0.17200000000E+03 0.  1.
</event>
<event>
 4    1  0.3115421E-002  0.3240311E+03  0.7818608E-02  0.1073809E+00
         -2   -1    0    0    0  501 -0.00000000000E+00  0.00000000000E+00  0.10085480130E+03  0.10085480130E+03  0.00000000000E+00 0.  1.
          2   -1    0    0  502    0  0.00000000000E+00 -0.00000000000E+00 -0.17806045732E+04  0.17806045732E+04  0.00000000000E+00 0. -1.
          6    1    1    2  502    0  0.10673590646E+03 -0.25302100702E+03 -0.14461398303E+04  0.14819975008E+04  0.17200000000E+03 0. -1.
         -6    1    1    2    0  501 -0.10673590646E+03  0.25302100702E+03 -0.23360994169E+03  0.39946187375E+03  0.17200000000E+03 0.  1.
</event>
<event>
 4    1  0.3115421E-002  0.5793303E+03  0.7818608E-02  0.9949242E-01
         -2   -1    0    0    0  501 -0.00000000000E+00  0.00000000000E+00  0.22862438117E+03  0.22862438117E+03  0.00000000000E+00 0.  1.
          2   -1    0    0  502    0  0.00000000000E+00 -0.00000000000E+00 -0.17869845736E+04  0.17869845736E+04  0.00000000000E+00 0. -1.
          6    1    1    2  502    0  0.19805658764E+03 -0.51653966313E+03 -0.12049663716E+04  0.13369994735E+04  0.17200000000E+03 0. -1.
         -6    1    1    2    0  501 -0.19805658764E+03  0.51653966313E+03 -0.35339382091E+03  0.67860948133E+03  0.17200000000E+03 0.  1.
</event>
<event>
 4    1  0.3115421E-002  0.2104358E+03  0.7818608E-02  0.1141221E+00
          2   -1    0    0  502    0  0.00000000000E+00  0.00000000000E+00  0.25966185255E+04  0.25966185255E+04  0.00000000000E+00 0. -1.
         -2   -1    0    0    0  501 -0.00000000000E+00 -0.00000000000E+00 -0.17234864251E+02  0.17234864251E+02  0.00000000000E+00 0.  1.
          6    1    1    2  502    0 -0.10964926553E+03 -0.51732821961E+02  0.14235010040E+04  0.14389712835E+04  0.17200000000E+03 0. -1.
         -6    1    1    2    0  501  0.10964926553E+03  0.51732821961E+02  0.11558826573E+04  0.11748821063E+04  0.17200000000E+03 0. -1.
</event>
<event>
 4    1  0.3115421E-002  0.2212732E+03  0.7818608E-02  0.1132937E+00
          2   -1    0    0  502    0  0.00000000000E+00  0.00000000000E+00  0.74708829442E+03  0.74708829442E+03  0.00000000000E+00 0. -1.
         -2   -1    0    0    0  501 -0.00000000000E+00 -0.00000000000E+00 -0.93917541585E+02  0.93917541585E+02  0.00000000000E+00 0.  1.
          6    1    1    2  502    0  0.12840227444E+03 -0.53765027870E+02  0.55774237817E+03  0.60003198474E+03  0.17200000000E+03 0. -1.
         -6    1    1    2    0  501 -0.12840227444E+03  0.53765027870E+02  0.95428374665E+02  0.24097385127E+03  0.17200000000E+03 0.  1.
</event>
<event>
 4    1  0.3115421E-002  0.3477907E+03  0.7818608E-02  0.1063525E+00
         -2   -1    0    0    0  501 -0.00000000000E+00  0.00000000000E+00  0.61353237654E+03  0.61353237654E+03  0.00000000000E+00 0.  1.
          2   -1    0    0  502    0  0.00000000000E+00 -0.00000000000E+00 -0.48915416151E+03  0.48915416151E+03  0.00000000000E+00 0. -1.
          6    1    1    2  502    0 -0.85559795117E+02 -0.28992049260E+03 -0.36379476805E+03  0.50329415239E+03  0.17200000000E+03 0. -1.
         -6    1    1    2    0  501  0.85559795117E+02  0.28992049260E+03  0.48817298308E+03  0.59939238566E+03  0.17200000000E+03 0.  1.
</event>
<event>
 4    1  0.3115421E-002  0.5661386E+03  0.7818608E-02  0.9978260E-01
          1   -1    0    0  502    0  0.00000000000E+00  0.00000000000E+00  0.13849689502E+04  0.13849689502E+04  0.00000000000E+00 0. -1.
         -1   -1    0    0    0  501 -0.00000000000E+00 -0.00000000000E+00 -0.17119759302E+04  0.17119759302E+04  0.00000000000E+00 0.  1.
          6    1    1    2  502    0 -0.13323778698E+03 -0.52266297754E+03  0.12765104755E+04  0.13964211005E+04  0.17200000000E+03 0. -1.
         -6    1    1    2    0  501  0.13323778698E+03  0.52266297754E+03 -0.16035174555E+04  0.17005237799E+04  0.17200000000E+03 0.  1.
</event>
<event>
 4    1  0.3115421E-002  0.2105716E+03  0.7818608E-02  0.1141114E+00
         -1   -1    0    0    0  501 -0.00000000000E+00  0.00000000000E+00  0.14868262653E+04  0.14868262653E+04  0.00000000000E+00 0.  1.
          1   -1    0    0  502    0  0.00000000000E+00 -0.00000000000E+00 -0.35811484652E+02  0.35811484652E+02  0.00000000000E+00 0. -1.
          6    1    1    2  502    0  0.15736931869E+02  0.12045222945E+03  0.41416096922E+03  0.46461779887E+03  0.17200000000E+03 0. -1.
         -6    1    1    2    0  501 -0.15736931869E+02 -0.12045222945E+03  0.10368538114E+04  0.10580199511E+04  0.17200000000E+03 0.  1.
</event>
<event>
 4    1  0.3115421E-002  0.1764271E+03  0.7818608E-02  0.1171306E+00
          2   -1    0    0  502    0  0.00000000000E+00  0.00000000000E+00  0.14854444873E+04  0.14854444873E+04  0.00000000000E+00 0. -1.
         -2   -1    0    0    0  501 -0.00000000000E+00 -0.00000000000E+00 -0.27345986589E+02  0.27345986589E+02  0.00000000000E+00 0.  1.
          6    1    1    2  502    0  0.31883249806E+02  0.22934092359E+02  0.10947351721E+04  0.11088605013E+04  0.17200000000E+03 0. -1.
         -6    1    1    2    0  501 -0.31883249806E+02 -0.22934092359E+02  0.36336332859E+03  0.40392997261E+03  0.17200000000E+03 0.  1.
</event>
<event>
 4    1  0.3115421E-002  0.2854036E+03  0.7818608E-02  0.1092774E+00
          2   -1    0    0  502    0  0.00000000000E+00  0.00000000000E+00  0.90009209070E+03  0.90009209070E+03  0.00000000000E+00 0. -1.
         -2   -1    0    0    0  501 -0.00000000000E+00 -0.00000000000E+00 -0.94010700611E+02  0.94010700611E+02  0.00000000000E+00 0.  1.
          6    1    1    2  502    0  0.22745194188E+03  0.11698411196E+02  0.30694096544E+03  0.41912765950E+03  0.17200000000E+03 0. -1.
         -6    1    1    2    0  501 -0.22745194188E+03 -0.11698411196E+02  0.49914042465E+03  0.57497513182E+03  0.17200000000E+03 0. -1.
</event>
<event>
 4    1  0.3115421E-002  0.2028642E+03  0.7818608E-02  0.1147345E+00
         -2   -1    0    0    0  501 -0.00000000000E+00  0.00000000000E+00  0.33618021476E+02  0.33618021476E+02  0.00000000000E+00 0.  1.
          2   -1    0    0  502    0  0.00000000000E+00 -0.00000000000E+00 -0.12529199335E+04  0.12529199335E+04  0.00000000000E+00 0. -1.
          6    1    1    2  502    0  0.76301133245E+02 -0.75815687431E+02 -0.51219352616E+03  0.55090479181E+03  0.17200000000E+03 0. -1.
         -6    1    1    2    0  501 -0.76301133245E+02  0.75815687431E+02 -0.70710838586E+03  0.73563316316E+03  0.17200000000E+03 0. -1.
</event>
<event>
 4    1  0.3115421E-002  0.3293172E+03  0.7818608E-02  0.1071439E+00
          2   -1    0    0  502    0  0.00000000000E+00  0.00000000000E+00  0.11185190157E+04  0.11185190157E+04  0.00000000000E+00 0. -1.
         -2   -1    0    0    0  501 -0.00000000000E+00 -0.00000000000E+00 -0.98471974083E+02  0.98471974083E+02  0.00000000000E+00 0.  1.
          6    1    1    2  502    0  0.19747205943E+03 -0.19967622447E+03  0.58546384765E+03  0.67172741926E+03  0.17200000000E+03 0.  1.
         -6    1    1    2    0  501 -0.19747205943E+03  0.19967622447E+03  0.43458319400E+03  0.54526357056E+03  0.17200000000E+03 0. -1.
</event>
<event>
 4    1  0.3115421E-002  0.3333600E+03  0.7818608E-02  0.1069660E+00
          2   -1    0    0  502    0  0.00000000000E+00  0.00000000000E+00  0.15771800727E+04  0.15771800727E+04  0.00000000000E+00 0. -1.
         -2   -1    0    0    0  501 -0.00000000000E+00 -0.00000000000E+00 -0.70637179654E+02  0.70637179654E+02  0.00000000000E+00 0.  1.
          6    1    1    2  502    0  0.24044266377E+03  0.15405273273E+03  0.71206756719E+03  0.78623733011E+03  0.17200000000E+03 0.  1.
         -6    1    1    2    0  501 -0.24044266377E+03 -0.15405273273E+03  0.79447532590E+03  0.86157992228E+03  0.17200000000E+03 0.  1.
</event>
<event>
 4    1  0.3115421E-002  0.2037574E+03  0.7818608E-02  0.1146607E+00
          2   -1    0    0  502    0  0.00000000000E+00  0.00000000000E+00  0.99919913962E+03  0.99919913962E+03  0.00000000000E+00 0. -1.
         -2   -1    0    0    0  501 -0.00000000000E+00 -0.00000000000E+00 -0.43131771462E+02  0.43131771462E+02  0.00000000000E+00 0.  1.
          6    1    1    2  502    0 -0.48253448087E+02 -0.98003461624E+02  0.57782685432E+03  0.61269972035E+03  0.17200000000E+03 0.  1.
         -6    1    1    2    0  501  0.48253448087E+02  0.98003461624E+02  0.37824051384E+03  0.42963119073E+03  0.17200000000E+03 0.  1.
</event>
<event>
 4    1  0.3115421E-002  0.2236259E+03  0.7818608E-02  0.1131208E+00
          1   -1    0    0  502    0  0.00000000000E+00  0.00000000000E+00  0.80252803507E+03  0.80252803507E+03  0.00000000000E+00 0. -1.
         -1   -1    0    0    0  501 -0.00000000000E+00 -0.00000000000E+00 -0.66585789571E+02  0.66585789571E+02  0.00000000000E+00 0.  1.
          6    1    1    2  502    0  0.12163651348E+03  0.75027459407E+02  0.25790044621E+03  0.34135201952E+03  0.17200000000E+03 0. -1.
         -6    1    1    2    0  501 -0.12163651348E+03 -0.75027459407E+02  0.47804179929E+03  0.52776180512E+03  0.17200000000E+03 0. -1.
</event>
<event>
 4    1  0.3115421E-002  0.5183923E+03  0.7818608E-02  0.1009087E+00
          1   -1    0    0  502    0  0.00000000000E+00  0.00000000000E+00  0.82630117100E+03  0.82630117100E+03  0.00000000000E+00 0. -1.
         -1   -1    0    0    0  501 -0.00000000000E+00 -0.00000000000E+00 -0.33048917432E+03  0.33048917432E+03  0.00000000000E+00 0.  1.
          6    1    1    2  502    0 -0.44462387430E+03  0.20360785628E+03  0.32093129593E+03  0.60969455094E+03  0.17200000000E+03 0. -1.
         -6    1    1    2    0  501  0.44462387430E+03 -0.20360785628E+03  0.17488070075E+03  0.54709579438E+03  0.17200000000E+03 0.  1.
</event>
<event>
 4    1  0.3115421E-002  0.1815149E+03  0.7818608E-02  0.1166345E+00
          2   -1    0    0  502    0  0.00000000000E+00  0.00000000000E+00  0.27164301846E+03  0.27164301846E+03  0.00000000000E+00 0. -1.
         -2   -1    0    0    0  501 -0.00000000000E+00 -0.00000000000E+00 -0.13507964164E+03  0.13507964164E+03  0.00000000000E+00 0.  1.
          6    1    1    2  502    0 -0.54712021011E+02 -0.19241863628E+02  0.13325659900E+03  0.22517765372E+03  0.17200000000E+03 0. -1.
         -6    1    1    2    0  501  0.54712021011E+02  0.19241863628E+02  0.33067778159E+01  0.18154500637E+03  0.17200000000E+03 0.  1.
</event>
<event>
 4    1  0.3115421E-002  0.4312574E+03  0.7818608E-02  0.1033463E+00
          1   -1    0    0  502    0  0.00000000000E+00  0.00000000000E+00  0.93543972639E+03  0.93543972639E+03  0.00000000000E+00 0. -1.
         -1   -1    0    0    0  501 -0.00000000000E+00 -0.00000000000E+00 -0.36516453197E+03  0.36516453197E+03  0.00000000000E+00 0.  1.
          6    1    1    2  502    0 -0.38024886872E+03 -0.10867269593E+03 -0.15377371921E+03  0.45785293897E+03  0.17200000000E+03 0. -1.
         -6    1    1    2    0  501  0.38024886872E+03  0.10867269593E+03  0.72404891363E+03  0.84275131939E+03  0.17200000000E+03 0. -1.
</event>
<event>
 4    1  0.3115421E-002  0.1746145E+03  0.7818608E-02  0.1173119E+00
          1   -1    0    0  502    0  0.00000000000E+00  0.00000000000E+00  0.43594787694E+03  0.43594787694E+03  0.00000000000E+00 0. -1.
         -1   -1    0    0    0  501 -0.00000000000E+00 -0.00000000000E+00 -0.11257115884E+03  0.11257115884E+03  0.00000000000E+00 0.  1.
          6    1    1    2  502    0  0.95950256277E+01  0.28533200262E+02  0.33046469367E+03  0.37376078151E+03  0.17200000000E+03 0. -1.
         -6    1    1    2    0  501 -0.95950256277E+01 -0.28533200262E+02 -0.70879755707E+01  0.17475825426E+03  0.17200000000E+03 0.  1.
</event>
<event>
 4    1  0.3115421E-002  0.2054179E+03  0.7818608E-02  0.1145247E+00
          2   -1    0    0  502    0  0.00000000000E+00  0.00000000000E+00  0.95977168859E+02  0.95977168859E+02  0.00000000000E+00 0. -1.
         -2   -1    0    0    0  501 -0.00000000000E+00 -0.00000000000E+00 -0.46272884886E+03  0.46272884886E+03  0.00000000000E+00 0.  1.
          6    1    1    2  502    0 -0.79385958117E+02 -0.79438046409E+02 -0.12099081614E+03  0.23840157540E+03  0.17200000000E+03 0. -1.
         -6    1    1    2    0  501  0.79385958117E+02  0.79438046409E+02 -0.24576086386E+03  0.32030444232E+03  0.17200000000E+03 0. -1.
</event>
<event>
 4    1  0.3115421E-002  0.1725953E+03  0.7818608E-02  0.1175168E+00
          2   -1    0    0  502    0  0.00000000000E+00  0.00000000000E+00  0.68693165957E+03  0.68693165957E+03  0.00000000000E+00 0. -1.
         -2   -1    0    0    0  501 -0.00000000000E+00 -0.00000000000E+00 -0.50668773134E+02  0.50668773134E+02  0.00000000000E+00 0.  1.
          6    1    1    2  502    0  0.13832340007E+02  0.37175201066E+01  0.45814785212E+03  0.48958003226E+03  0.17200000000E+03 0. -1.
         -6    1    1    2    0  501 -0.13832340007E+02 -0.37175201066E+01  0.17811503431E+03  0.24802040044E+03  0.17200000000E+03 0.  1.
</event>
<event>
 4    1  0.3115421E-002  0.3692915E+03  0.7818608E-02  0.1054964E+00
         -1   -1    0    0    0  501 -0.00000000000E+00  0.00000000000E+00  0.14207809316E+03  0.14207809316E+03  0.00000000000E+00 0.  1.
          1   -1    0    0  502    0  0.00000000000E+00 -0.00000000000E+00 -0.15584007382E+04  0.15584007382E+04  0.00000000000E+00 0. -1.
          6    1    1    2  502    0  0.11203609673E+03 -0.30698551812E+03 -0.12350825166E+04  0.12891101652E+04  0.17200000000E+03 0. -1.
         -6    1    1    2    0  501 -0.11203609673E+03  0.30698551812E+03 -0.18124012842E+03  0.41136866611E+03  0.17200000000E+03 0.  1.
</event>
<event>
 4    1  0.3115421E-002  0.2777189E+03  0.7818608E-02  0.1096941E+00
         -2   -1    0    0    0  501 -0.00000000000E+00  0.00000000000E+00  0.93745838552E+02  0.93745838552E+02  0.00000000000E+00 0.  1.
          2   -1    0    0  502    0  0.00000000000E+00 -0.00000000000E+00 -0.82273345021E+03  0.82273345021E+03  0.00000000000E+00 0. -1.
          6    1    1    2  502    0  0.21707687975E+03  0.20528891639E+02 -0.36420762626E+03  0.45801201091E+03  0.17200000000E+03 0.  1.
         -6    1    1    2    0  501 -0.21707687975E+03 -0.20528891639E+02 -0.36477998540E+03  0.45846727785E+03  0.17200000000E+03 0.  1.
</event>
<event>
 4    1  0.3115421E-002  0.2217384E+03  0.7818608E-02  0.1132594E+00
         -2   -1    0    0    0  501 -0.00000000000E+00  0.00000000000E+00  0.21283113987E+03  0.21283113987E+03  0.00000000000E+00 0.  1.
          2   -1    0    0  502    0  0.00000000000E+00 -0.00000000000E+00 -0.23104874124E+03  0.23104874124E+03  0.00000000000E+00 0. -1.
          6    1    1    2  502    0  0.12757796558E+03  0.57513369961E+02 -0.65685630247E+01  0.22183568479E+03  0.17200000000E+03 0. -1.
         -6    1    1    2    0  501 -0.12757796558E+03 -0.57513369961E+02 -0.11649038344E+02  0.22204419632E+03  0.17200000000E+03 0. -1.
</event>
<event>
 4    1  0.3115421E-002  0.3227152E+03  0.7818608E-02  0.1074406E+00
          2   -1    0    0  502    0  0.00000000000E+00  0.00000000000E+00  0.10593144729E+04  0.10593144729E+04  0.00000000000E+00 0. -1.
         -2   -1    0    0    0  501 -0.00000000000E+00 -0.00000000000E+00 -0.12394211445E+03  0.12394211445E+03  0.00000000000E+00 0.  1.
          6    1    1    2  502    0 -0.27305126791E+03 -0.20201737613E+01  0.73671620189E+03  0.80429835144E+03  0.17200000000E+03 0. -1.
         -6    1    1    2    0  501  0.27305126791E+03  0.20201737613E+01  0.19865615653E+03  0.37895823587E+03  0.17200000000E+03 0.  1.
</event>
<event>
 4    1  0.3115421E-002  0.2853274E+03  0.7818608E-02  0.1092814E+00
          1   -1    0    0  502    0  0.00000000000E+00  0.00000000000E+00  0.68412524498E+03  0.68412524498E+03  0.00000000000E+00 0. -1.
         -1   -1    0    0    0  501 -0.00000000000E+00 -0.00000000000E+00 -0.25681411816E+03  0.25681411816E+03  0.00000000000E+00 0.  1.
          6    1    1    2  502    0  0.22462932600E+03 -0.37005188829E+02  0.55829674813E+03  0.62698243761E+03  0.17200000000E+03 0. -1.
         -6    1    1    2    0  501 -0.22462932600E+03  0.37005188829E+02 -0.13098562131E+03  0.31395692553E+03  0.17200000000E+03 0.  1.
</event>
<event>
 4    1  0.3115421E-002  0.1885875E+03  0.7818608E-02  0.1159741E+00
          1   -1    0    0  502    0  0.00000000000E+00  0.00000000000E+00  0.85976144967E+03  0.85976144967E+03  0.00000000000E+00 0. -1.
         -1   -1    0    0    0  501 -0.00000000000E+00 -0.00000000000E+00 -0.43674952471E+02  0.43674952471E+02  0.00000000000E+00 0.  1.
          6    1    1    2  502    0 -0.42346601146E+02  0.64714979149E+02  0.51189606458E+03  0.54552987461E+03  0.17200000000E+03 0. -1.
         -6    1    1    2    0  501  0.42346601146E+02 -0.64714979149E+02  0.30419043261E+03  0.35790652753E+03  0.17200000000E+03 0. -1.
</event>
<event>
 4    1  0.3115421E-002  0.1756494E+03  0.7818608E-02  0.1172081E+00
          1   -1    0    0  502    0  0.00000000000E+00  0.00000000000E+00  0.17609402068E+03  0.17609402068E+03  0.00000000000E+00 0. -1.
         -1   -1    0    0    0  501 -0.00000000000E+00 -0.00000000000E+00 -0.19152094857E+03  0.19152094857E+03  0.00000000000E+00 0.  1.
          6    1    1    2  502    0  0.24764032878E+02 -0.25601558839E+02 -0.61361065628E+02  0.18605880123E+03  0.17200000000E+03 0.  1.
         -6    1    1    2    0  501 -0.24764032878E+02  0.25601558839E+02  0.45934137739E+02  0.18155616803E+03  0.17200000000E+03 0. -1.
</event>
<event>
 4    1  0.3115421E-002  0.1909659E+03  0.7818608E-02  0.1157593E+00
         -2   -1    0    0    0  501 -0.00000000000E+00  0.00000000000E+00  0.20897541486E+04  0.20897541486E+04  0.00000000000E+00 0.  1.
          2   -1    0    0  502    0  0.00000000000E+00 -0.00000000000E+00 -0.17458967866E+02  0.17458967866E+02  0.00000000000E+00 0. -1.
          6    1    1    2  502    0 -0.76424318455E+02  0.32300035141E+02  0.10134168527E+04  0.10312524842E+04  0.17200000000E+03 0.  1.
         -6    1    1    2    0  501  0.76424318455E+02 -0.32300035141E+02  0.10588783280E+04  0.10759606323E+04  0.17200000000E+03 0. -1.
</event>
<event>
 4    1  0.3115421E-002  0.1722197E+03  0.7818608E-02  0.1175553E+00
         -2   -1    0    0    0  501 -0.00000000000E+00  0.00000000000E+00  0.14574885693E+03  0.14574885693E+03  0.00000000000E+00 0.  1.
          2   -1    0    0  502    0  0.00000000000E+00 -0.00000000000E+00 -0.36466193804E+03  0.36466193804E+03  0.00000000000E+00 0. -1.
          6    1    1    2  502    0  0.86533161512E+01 -0.85975944169E+00  0.60203046171E+02  0.18243910172E+03  0.17200000000E+03 0.  1.
         -6    1    1    2    0  501 -0.86533161512E+01  0.85975944169E+00 -0.27911612728E+03  0.32797169325E+03  0.17200000000E+03 0. -1.
</event>
<event>
 4    1  0.3115421E-002  0.1793552E+03  0.7818608E-02  0.1168429E+00
          2   -1    0    0  502    0  0.00000000000E+00  0.00000000000E+00  0.96466339619E+03  0.96466339619E+03  0.00000000000E+00 0. -1.
         -2   -1    0    0    0  501 -0.00000000000E+00 -0.00000000000E+00 -0.33666391435E+02  0.33666391435E+02  0.00000000000E+00 0.  1.
          6    1    1    2  502    0  0.12426509141E+02 -0.49293751783E+02  0.51414432971E+03  0.54452978235E+03  0.17200000000E+03 0. -1.
         -6    1    1    2    0  501 -0.12426509141E+02  0.49293751783E+02  0.41685267505E+03  0.45380000527E+03  0.17200000000E+03 0.  1.
</event>
<event>
 4    1  0.3115421E-002  0.6043046E+03  0.7818608E-02  0.9896515E-01
          2   -1    0    0  502    0  0.00000000000E+00  0.00000000000E+00  0.40238596089E+04  0.40238596089E+04  0.00000000000E+00 0. -1.
         -2   -1    0    0    0  501 -0.00000000000E+00 -0.00000000000E+00 -0.11738297105E+03  0.11738297105E+03  0.00000000000E+00 0.  1.
          6    1    1    2  502    0  0.35958606929E+03  0.45420027290E+03  0.29394494491E+04  0.30009243731E+04  0.17200000000E+03 0. -1.
         -6    1    1    2    0  501 -0.35958606929E+03 -0.45420027290E+03  0.96702718878E+03  0.11403182069E+04  0.17200000000E+03 0.  1.
</event>
<event>
 4    1  0.3115421E-002  0.1737185E+03  0.7818608E-02  0.1174025E+00
          1   -1    0    0  502    0  0.00000000000E+00  0.00000000000E+00  0.17392852908E+03  0.17392852908E+03  0.00000000000E+00 0. -1.
         -1   -1    0    0    0  501 -0.00000000000E+00 -0.00000000000E+00 -0.24438423930E+03  0.24438423930E+03  0.00000000000E+00 0.  1.
          6    1    1    2  502    0  0.23164961809E+02  0.75832118960E+01  0.77409536006E+02  0.19018505941E+03  0.17200000000E+03 0. -1.
         -6    1    1    2    0  501 -0.23164961809E+02 -0.75832118960E+01 -0.14786524622E+03  0.22812770897E+03  0.17200000000E+03 0.  1.
</event>
<event>
 4    1  0.3115421E-002  0.4133789E+03  0.7818608E-02  0.1039243E+00
          2   -1    0    0  502    0  0.00000000000E+00  0.00000000000E+00  0.14482309896E+04  0.14482309896E+04  0.00000000000E+00 0. -1.
         -2   -1    0    0    0  501 -0.00000000000E+00 -0.00000000000E+00 -0.20961226671E+03  0.20961226671E+03  0.00000000000E+00 0.  1.
          6    1    1    2  502    0  0.24680644261E+03  0.28352192425E+03  0.71288713257E+02  0.41948084853E+03  0.17200000000E+03 0. -1.
         -6    1    1    2    0  501 -0.24680644261E+03 -0.28352192425E+03  0.11673300096E+04  0.12383624078E+04  0.17200000000E+03 0.  1.
</event>
<event>
 4    1  0.3115421E-002  0.2897153E+03  0.7818608E-02  0.1090498E+00
         -1   -1    0    0    0  501 -0.00000000000E+00  0.00000000000E+00  0.13277909865E+03  0.13277909865E+03  0.00000000000E+00 0.  1.
          1   -1    0    0  502    0  0.00000000000E+00 -0.00000000000E+00 -0.68270877486E+03  0.68270877486E+03  0.00000000000E+00 0. -1.
          6    1    1    2  502    0 -0.21572015704E+03  0.88406880134E+02 -0.38593635662E+03  0.48257831901E+03  0.17200000000E+03 0. -1.
         -6    1    1    2    0  501  0.21572015704E+03 -0.88406880134E+02 -0.16399331959E+03  0.33290955451E+03  0.17200000000E+03 0.  1.
</event>
<event>
 4    1  0.3115421E-002  0.5310667E+03  0.7818608E-02  0.1005974E+00
         -1   -1    0    0    0  501 -0.00000000000E+00  0.00000000000E+00  0.64446695513E+03  0.64446695513E+03  0.00000000000E+00 0.  1.
          1   -1    0    0  502    0  0.00000000000E+00 -0.00000000000E+00 -0.64503627045E+03  0.64503627045E+03  0.00000000000E+00 0. -1.
          6    1    1    2  502    0 -0.22771358287E+03  0.44787761288E+03 -0.36589750655E+03  0.64491303076E+03  0.17200000000E+03 0. -1.
         -6    1    1    2    0  501  0.22771358287E+03 -0.44787761288E+03  0.36532819124E+03  0.64459019482E+03  0.17200000000E+03 0.  1.
</event>
<event>
 4    1  0.3115421E-002  0.1858720E+03  0.7818608E-02  0.1162238E+00
          2   -1    0    0  502    0  0.00000000000E+00  0.00000000000E+00  0.24714329076E+03  0.24714329076E+03  0.00000000000E+00 0. -1.
         -2   -1    0    0    0  501 -0.00000000000E+00 -0.00000000000E+00 -0.15062303687E+03  0.15062303687E+03  0.00000000000E+00 0.  1.
          6    1    1    2  502    0  0.68013694958E+02 -0.18399036068E+02  0.10159472791E+03  0.21182510703E+03  0.17200000000E+03 0. -1.
         -6    1    1    2    0  501 -0.68013694958E+02  0.18399036068E+02 -0.50744740186E+01  0.18594122060E+03  0.17200000000E+03 0.  1.
</event>
<event>
 4    1  0.3115421E-002  0.2468187E+03  0.7818608E-02  0.1115332E+00
          1   -1    0    0  502    0  0.00000000000E+00  0.00000000000E+00  0.67124295899E+03  0.67124295899E+03  0.00000000000E+00 0. -1.
         -1   -1    0    0    0  501 -0.00000000000E+00 -0.00000000000E+00 -0.13757691155E+03  0.13757691155E+03  0.00000000000E+00 0.  1.
          6    1    1    2  502    0 -0.95635130793E+02 -0.14896112511E+03  0.50275467697E+03  0.56007299547E+03  0.17200000000E+03 0. -1.
         -6    1    1    2    0  501  0.95635130793E+02  0.14896112511E+03  0.30911370463E+02  0.24874687507E+03  0.17200000000E+03 0.  1.
</event>
<event>
 4    1  0.3115421E-002  0.2462123E+03  0.7818608E-02  0.1115722E+00
         -1   -1    0    0    0  501 -0.00000000000E+00  0.00000000000E+00  0.95925819032E+02  0.95925819032E+02  0.00000000000E+00 0.  1.
          1   -1    0    0  502    0  0.00000000000E+00 -0.00000000000E+00 -0.65929375650E+03  0.65929375650E+03  0.00000000000E+00 0. -1.
          6    1    1    2  502    0  0.15879918342E+03  0.76284483512E+02 -0.35858245730E+03  0.43497342651E+03  0.17200000000E+03 0. -1.
         -6    1    1    2    0  501 -0.15879918342E+03 -0.76284483512E+02 -0.20478548016E+03  0.32024614902E+03  0.17200000000E+03 0.  1.
</event>
<event>
 4    1  0.3115421E-002  0.2399417E+03  0.7818608E-02  0.1119832E+00
          2   -1    0    0  502    0  0.00000000000E+00  0.00000000000E+00  0.30863097779E+04  0.30863097779E+04  0.00000000000E+00 0. -1.
         -2   -1    0    0    0  501 -0.00000000000E+00 -0.00000000000E+00 -0.19648098144E+02  0.19648098144E+02  0.00000000000E+00 0.  1.
          6    1    1    2  502    0  0.86623392310E+01  0.16707184288E+03  0.18826472049E+04  0.18978757955E+04  0.17200000000E+03 0. -1.
         -6    1    1    2    0  501 -0.86623392310E+01 -0.16707184288E+03  0.11840144749E+04  0.12080820806E+04  0.17200000000E+03 0.  1.
</event>
<event>
 4    1  0.3115421E-002  0.2231541E+03  0.7818608E-02  0.1131553E+00
         -1   -1    0    0    0  501 -0.00000000000E+00  0.00000000000E+00  0.91709476488E+02  0.91709476488E+02  0.00000000000E+00 0.  1.
          1   -1    0    0  502    0  0.00000000000E+00 -0.00000000000E+00 -0.66140979736E+03  0.66140979736E+03  0.00000000000E+00 0. -1.
          6    1    1    2  502    0  0.21558493489E+02 -0.14053110402E+03 -0.44418178694E+03  0.49708673256E+03  0.17200000000E+03 0. -1.
         -6    1    1    2    0  501 -0.21558493489E+02  0.14053110402E+03 -0.12551853393E+03  0.25603254129E+03  0.17200000000E+03 0.  1.
</event>
<event>
 4    1  0.3115421E-002  0.2287817E+03  0.7818608E-02  0.1127500E+00
         -2   -1    0    0    0  501 -0.00000000000E+00  0.00000000000E+00  0.18460103755E+03  0.18460103755E+03  0.00000000000E+00 0.  1.
          2   -1    0    0  502    0  0.00000000000E+00 -0.00000000000E+00 -0.47270481602E+03  0.47270481602E+03  0.00000000000E+00 0. -1.
          6    1    1    2  502    0 -0.48866391471E+02 -0.14272044976E+03 -0.35195797105E+03  0.41978025725E+03  0.17200000000E+03 0. -1.
         -6    1    1    2    0  501  0.48866391471E+02  0.14272044976E+03  0.63854192578E+02  0.23752559631E+03  0.17200000000E+03 0.  1.
</event>
<event>
 4    1  0.3115421E-002  0.3636575E+03  0.7818608E-02  0.1057145E+00
         -2   -1    0    0    0  501 -0.00000000000E+00  0.00000000000E+00  0.83330893616E+02  0.83330893616E+02  0.00000000000E+00 0.  1.
          2   -1    0    0  502    0  0.00000000000E+00 -0.00000000000E+00 -0.21946448655E+04  0.21946448655E+04  0.00000000000E+00 0. -1.
          6    1    1    2  502    0  0.22805286124E+03  0.22506590601E+03 -0.16549774976E+04  0.16944607659E+04  0.17200000000E+03 0. -1.
         -6    1    1    2    0  501 -0.22805286124E+03 -0.22506590601E+03 -0.45633647430E+03  0.58351499324E+03  0.17200000000E+03 0.  1.
</event>
<event>
 4    1  0.3115421E-002  0.1722036E+03  0.7818608E-02  0.1175569E+00
          2   -1    0    0  502    0  0.00000000000E+00  0.00000000000E+00  0.33867753555E+04  0.33867753555E+04  0.00000000000E+00 0. -1.
         -2   -1    0    0    0  501 -0.00000000000E+00 -0.00000000000E+00 -0.87768093158E+01  0.87768093158E+01  0.00000000000E+00 0.  1.
          6    1    1    2  502    0 -0.38919996198E+01 -0.74122998886E+01  0.16060290056E+04  0.16152347373E+04  0.17200000000E+03 0.  1.
         -6    1    1    2    0  501  0.38919996198E+01  0.74122998886E+01  0.17719695407E+04  0.17803174276E+04  0.17200000000E+03 0. -1.
</event>
<event>
 4    1  0.3115421E-002  0.2693140E+03  0.7818608E-02  0.1101673E+00
         -2   -1    0    0    0  501 -0.00000000000E+00  0.00000000000E+00  0.35769961111E+02  0.35769961111E+02  0.00000000000E+00 0.  1.
          2   -1    0    0  502    0  0.00000000000E+00 -0.00000000000E+00 -0.28749484028E+04  0.28749484028E+04  0.00000000000E+00 0. -1.
          6    1    1    2  502    0 -0.20010294983E+03 -0.53896799975E+02 -0.22096591253E+04  0.22260106706E+04  0.17200000000E+03 0. -1.
         -6    1    1    2    0  501  0.20010294983E+03  0.53896799975E+02 -0.62951931638E+03  0.68470769331E+03  0.17200000000E+03 0.  1.
</event>
<event>
 4    1  0.3115421E-002  0.4892800E+03  0.7818608E-02  0.1016615E+00
          2   -1    0    0  502    0  0.00000000000E+00  0.00000000000E+00  0.22438913320E+04  0.22438913320E+04  0.00000000000E+00 0. -1.
         -2   -1    0    0    0  501 -0.00000000000E+00 -0.00000000000E+00 -0.18397472304E+03  0.18397472304E+03  0.00000000000E+00 0.  1.
          6    1    1    2  502    0  0.44268982350E+03  0.11762910187E+03  0.18167682475E+04  0.18814998673E+04  0.17200000000E+03 0. -1.
         -6    1    1    2    0  501 -0.44268982350E+03 -0.11762910187E+03  0.24314836145E+03  0.54636618774E+03  0.17200000000E+03 0.  1.
</event>
<event>
 4    1  0.3115421E-002  0.2667999E+03  0.7818608E-02  0.1103125E+00
         -1   -1    0    0    0  501 -0.00000000000E+00  0.00000000000E+00  0.69121207394E+03  0.69121207394E+03  0.00000000000E+00 0.  1.
          1   -1    0    0  502    0  0.00000000000E+00 -0.00000000000E+00 -0.18767218043E+03  0.18767218043E+03  0.00000000000E+00 0. -1.
          6    1    1    2  502    0  0.18600355218E+03  0.83671136726E+02 -0.43431912314E+02  0.27031187831E+03  0.17200000000E+03 0. -1.
         -6    1    1    2    0  501 -0.18600355218E+03 -0.83671136726E+02  0.54697180583E+03  0.60857237607E+03  0.17200000000E+03 0.  1.
</event>
<event>
 4    1  0.3115421E-002  0.2716981E+03  0.7818608E-02  0.1100312E+00
          1   -1    0    0  502    0  0.00000000000E+00  0.00000000000E+00  0.10412901331E+04  0.10412901331E+04  0.00000000000E+00 0. -1.
         -1   -1    0    0    0  501 -0.00000000000E+00 -0.00000000000E+00 -0.71150843276E+02  0.71150843276E+02  0.00000000000E+00 0.  1.
          6    1    1    2  502    0  0.19419321701E+03  0.80776636182E+02  0.51857283654E+03  0.58543800465E+03  0.17200000000E+03 0.  1.
         -6    1    1    2    0  501 -0.19419321701E+03 -0.80776636182E+02  0.45156645329E+03  0.52700297174E+03  0.17200000000E+03 0.  1.
</event>
<event>
 4    1  0.3115421E-002  0.1733714E+03  0.7818608E-02  0.1174377E+00
         -2   -1    0    0    0  501 -0.00000000000E+00  0.00000000000E+00  0.53085597466E+02  0.53085597466E+02  0.00000000000E+00 0.  1.
          2   -1    0    0  502    0  0.00000000000E+00 -0.00000000000E+00 -0.13024577111E+04  0.13024577111E+04  0.00000000000E+00 0. -1.
          6    1    1    2  502    0  0.11742486599E+02 -0.18323225348E+02 -0.11342672554E+04  0.11474405576E+04  0.17200000000E+03 0. -1.
         -6    1    1    2    0  501 -0.11742486599E+02  0.18323225348E+02 -0.11510485830E+03  0.20810275102E+03  0.17200000000E+03 0.  1.
</event>
<event>
 4    1  0.3115421E-002  0.2234492E+03  0.7818608E-02  0.1131337E+00
          1   -1    0    0  502    0  0.00000000000E+00  0.00000000000E+00  0.43859695177E+03  0.43859695177E+03  0.00000000000E+00 0. -1.
         -1   -1    0    0    0  501 -0.00000000000E+00 -0.00000000000E+00 -0.12125016533E+03  0.12125016533E+03  0.00000000000E+00 0.  1.
          6    1    1    2  502    0  0.12342437550E+03  0.71497881154E+02  0.22787813422E+03  0.31915195054E+03  0.17200000000E+03 0. -1.
         -6    1    1    2    0  501 -0.12342437550E+03 -0.71497881154E+02  0.89468652219E+02  0.24069516656E+03  0.17200000000E+03 0.  1.
</event>
<event>
 4    1  0.3115421E-002  0.2745541E+03  0.7818608E-02  0.1098701E+00
         -2   -1    0    0    0  501 -0.00000000000E+00  0.00000000000E+00  0.37317445716E+03  0.37317445716E+03  0.00000000000E+00 0.  1.
          2   -1    0    0  502    0  0.00000000000E+00 -0.00000000000E+00 -0.91270214861E+03  0.91270214861E+03  0.00000000000E+00 0. -1.
          6    1    1    2  502    0 -0.16117227742E+02 -0.21339216279E+03 -0.83711195128E+03  0.88098603800E+03  0.17200000000E+03 0. -1.
         -6    1    1    2    0  501  0.16117227742E+02  0.21339216279E+03  0.29758425983E+03  0.40489056777E+03  0.17200000000E+03 0.  1.
</event>
<event>
 4    1  0.3115421E-002  0.1725985E+03  0.7818608E-02  0.1175165E+00
         -1   -1    0    0    0  501 -0.00000000000E+00  0.00000000000E+00  0.15317316183E+03  0.15317316183E+03  0.00000000000E+00 0.  1.
          1   -1    0    0  502    0  0.00000000000E+00 -0.00000000000E+00 -0.21811568901E+03  0.21811568901E+03  0.00000000000E+00 0. -1.
          6    1    1    2  502    0 -0.14347767107E+02  0.61710435874E+00  0.28630710588E+02  0.17495701423E+03  0.17200000000E+03 0.  1.
         -6    1    1    2    0  501  0.14347767107E+02 -0.61710435874E+00 -0.93573237766E+02  0.19633183661E+03  0.17200000000E+03 0. -1.
</event>
<event>
 4    1  0.3115421E-002  0.2317134E+03  0.7818608E-02  0.1125440E+00
          4   -1    0    0  502    0  0.00000000000E+00  0.00000000000E+00  0.35748292016E+03  0.35748292016E+03  0.00000000000E+00 0. -1.
         -4   -1    0    0    0  501 -0.00000000000E+00 -0.00000000000E+00 -0.23735166295E+03  0.23735166295E+03  0.00000000000E+00 0.  1.
          6    1    1    2  502    0 -0.13443418276E+03  0.77682453722E+02  0.24029583441E+03  0.33381611877E+03  0.17200000000E+03 0. -1.
         -6    1    1    2    0  501  0.13443418276E+03 -0.77682453722E+02 -0.12016457721E+03  0.26101846434E+03  0.17200000000E+03 0.  1.
</event>
<event>
 4    1  0.3115421E-002  0.1861642E+03  0.7818608E-02  0.1161967E+00
         -1   -1    0    0    0  501 -0.00000000000E+00  0.00000000000E+00  0.11097137433E+04  0.11097137433E+04  0.00000000000E+00 0.  1.
          1   -1    0    0  502    0  0.00000000000E+00 -0.00000000000E+00 -0.64487605621E+03  0.64487605621E+03  0.00000000000E+00 0. -1.
          6    1    1    2  502    0 -0.68944794953E+02  0.17881056992E+02 -0.62336919275E+03  0.65057379859E+03  0.17200000000E+03 0. -1.
         -6    1    1    2    0  501  0.68944794953E+02 -0.17881056992E+02  0.10882068799E+04  0.11040160009E+04  0.17200000000E+03 0.  1.
</event>
<event>
 4    1  0.3115421E-002  0.2273934E+03  0.7818608E-02  0.1128488E+00
         -2   -1    0    0    0  501 -0.00000000000E+00  0.00000000000E+00  0.12749320246E+03  0.12749320246E+03  0.00000000000E+00 0.  1.
          2   -1    0    0  502    0  0.00000000000E+00 -0.00000000000E+00 -0.40921021669E+03  0.40921021669E+03  0.00000000000E+00 0. -1.
          6    1    1    2  502    0 -0.13221132745E+03  0.68146323883E+02 -0.16615942868E+03  0.28163222881E+03  0.17200000000E+03 0. -1.
         -6    1    1    2    0  501  0.13221132745E+03 -0.68146323883E+02 -0.11555758555E+03  0.25507119034E+03  0.17200000000E+03 0.  1.
</event>
<event>
 4    1  0.3115421E-002  0.3027513E+03  0.7818608E-02  0.1083873E+00
         -1   -1    0    0    0  501 -0.00000000000E+00  0.00000000000E+00  0.78426193281E+02  0.78426193281E+02  0.00000000000E+00 0.  1.
          1   -1    0    0  502    0  0.00000000000E+00 -0.00000000000E+00 -0.14176248354E+04  0.14176248354E+04  0.00000000000E+00 0. -1.
          6    1    1    2  502    0 -0.13333267352E+03 -0.21046796085E+03 -0.98303704676E+03  0.10286010887E+04  0.17200000000E+03 0. -1.
         -6    1    1    2    0  501  0.13333267352E+03  0.21046796085E+03 -0.35616159532E+03  0.46744993994E+03  0.17200000000E+03 0.  1.
</event>
<event>
 4    1  0.3115421E-002  0.4117999E+03  0.7818608E-02  0.1039769E+00
          2   -1    0    0  502    0  0.00000000000E+00  0.00000000000E+00  0.13898012421E+03  0.13898012421E+03  0.00000000000E+00 0. -1.
         -2   -1    0    0    0  501 -0.00000000000E+00 -0.00000000000E+00 -0.15376361017E+04  0.15376361017E+04  0.00000000000E+00 0.  1.
          6    1    1    2  502    0  0.24204899848E+03  0.28531995203E+03 -0.31841438952E+03  0.52054482626E+03  0.17200000000E+03 0. -1.
         -6    1    1    2    0  501 -0.24204899848E+03 -0.28531995203E+03 -0.10802415879E+04  0.11560713996E+04  0.17200000000E+03 0.  1.
</event>
<event>
 4    1  0.3115421E-002  0.3119802E+03  0.7818608E-02  0.1079401E+00
          1   -1    0    0  502    0  0.00000000000E+00  0.00000000000E+00  0.15810688951E+04  0.15810688951E+04  0.00000000000E+00 0. -1.
         -1   -1    0    0    0  501 -0.00000000000E+00 -0.00000000000E+00 -0.13292085424E+03  0.13292085424E+03  0.00000000000E+00 0.  1.
          6    1    1    2  502    0 -0.13806021711E+03  0.22065137662E+03  0.13520017433E+04  0.13875303122E+04  0.17200000000E+03 0. -1.
         -6    1    1    2    0  501  0.13806021711E+03 -0.22065137662E+03  0.96146297635E+02  0.32645943715E+03  0.17200000000E+03 0.  1.
</event>
<event>
 4    1  0.3115421E-002  0.1765841E+03  0.7818608E-02  0.1171151E+00
         -1   -1    0    0    0  501 -0.00000000000E+00  0.00000000000E+00  0.27638897741E+02  0.27638897741E+02  0.00000000000E+00 0.  1.
          1   -1    0    0  502    0  0.00000000000E+00 -0.00000000000E+00 -0.16049604926E+04  0.16049604926E+04  0.00000000000E+00 0. -1.
          6    1    1    2  502    0  0.21860565177E+02  0.33467123040E+02 -0.34375089710E+03  0.38645389362E+03  0.17200000000E+03 0.  1.
         -6    1    1    2    0  501 -0.21860565177E+02 -0.33467123040E+02 -0.12335706977E+04  0.12461454967E+04  0.17200000000E+03 0. -1.
</event>
<event>
 4    1  0.3115421E-002  0.2367701E+03  0.7818608E-02  0.1121963E+00
          2   -1    0    0  502    0  0.00000000000E+00  0.00000000000E+00  0.19705272564E+02  0.19705272564E+02  0.00000000000E+00 0. -1.
         -2   -1    0    0    0  501 -0.00000000000E+00 -0.00000000000E+00 -0.28540972306E+04  0.28540972306E+04  0.00000000000E+00 0.  1.
          6    1    1    2  502    0 -0.95362625390E+02  0.13184093235E+03 -0.14986444444E+04  0.15172327549E+04  0.17200000000E+03 0. -1.
         -6    1    1    2    0  501  0.95362625390E+02 -0.13184093235E+03 -0.13357475136E+04  0.13565697483E+04  0.17200000000E+03 0.  1.
</event>
<event>
 4    1  0.3115421E-002  0.3073420E+03  0.7818608E-02  0.1081627E+00
          4   -1    0    0  502    0  0.00000000000E+00  0.00000000000E+00  0.59784648616E+03  0.59784648616E+03  0.00000000000E+00 0. -1.
         -4   -1    0    0    0  501 -0.00000000000E+00 -0.00000000000E+00 -0.16151404871E+03  0.16151404871E+03  0.00000000000E+00 0.  1.
          6    1    1    2  502    0  0.16608953630E+03 -0.19310463117E+03  0.27417808304E+03  0.41186497043E+03  0.17200000000E+03 0. -1.
         -6    1    1    2    0  501 -0.16608953630E+03  0.19310463117E+03  0.16215435442E+03  0.34749556444E+03  0.17200000000E+03 0.  1.
</event>
<event>
 4    1  0.3115421E-002  0.4529336E+03  0.7818608E-02  0.1026851E+00
          2   -1    0    0  502    0  0.00000000000E+00  0.00000000000E+00  0.14272743976E+04  0.14272743976E+04  0.00000000000E+00 0. -1.
         -2   -1    0    0    0  501 -0.00000000000E+00 -0.00000000000E+00 -0.14401213764E+03  0.14401213764E+03  0.00000000000E+00 0.  1.
          6    1    1    2  502    0 -0.12427909721E+03 -0.40014936907E+03  0.67611640062E+03  0.81380722457E+03  0.17200000000E+03 0. -1.
         -6    1    1    2    0  501  0.12427909721E+03  0.40014936907E+03  0.60714585930E+03  0.75747931063E+03  0.17200000000E+03 0.  1.
</event>
<event>
 4    1  0.3115421E-002  0.2118373E+03  0.7818608E-02  0.1140119E+00
          2   -1    0    0  502    0  0.00000000000E+00  0.00000000000E+00  0.93047966852E+03  0.93047966852E+03  0.00000000000E+00 0. -1.
         -2   -1    0    0    0  501 -0.00000000000E+00 -0.00000000000E+00 -0.11211551719E+03  0.11211551719E+03  0.00000000000E+00 0.  1.
          6    1    1    2  502    0 -0.38013875482E+02  0.11766895001E+03  0.80269714031E+03  0.83017933941E+03  0.17200000000E+03 0. -1.
         -6    1    1    2    0  501  0.38013875482E+02 -0.11766895001E+03  0.15667011024E+02  0.21241584630E+03  0.17200000000E+03 0.  1.
</event>
<event>
 4    1  0.3115421E-002  0.1725572E+03  0.7818608E-02  0.1175207E+00
         -1   -1    0    0    0  501 -0.00000000000E+00  0.00000000000E+00  0.33289713388E+02  0.33289713388E+02  0.00000000000E+00 0.  1.
          1   -1    0    0  502    0  0.00000000000E+00 -0.00000000000E+00 -0.91408411122E+03  0.91408411122E+03  0.00000000000E+00 0. -1.
          6    1    1    2  502    0  0.13039529740E+02 -0.46847092134E+01 -0.50982072812E+03  0.53823150285E+03  0.17200000000E+03 0. -1.
         -6    1    1    2    0  501 -0.13039529740E+02  0.46847092134E+01 -0.37097366972E+03  0.40914232177E+03  0.17200000000E+03 0.  1.
</event>
<event>
 4    1  0.3115421E-002  0.3179410E+03  0.7818608E-02  0.1076601E+00
         -1   -1    0    0    0  501 -0.00000000000E+00  0.00000000000E+00  0.73516871607E+02  0.73516871607E+02  0.00000000000E+00 0.  1.
          1   -1    0    0  502    0  0.00000000000E+00 -0.00000000000E+00 -0.15422655971E+04  0.15422655971E+04  0.00000000000E+00 0. -1.
          6    1    1    2  502    0  0.92012695559E+02  0.25106994264E+03 -0.46832433297E+03  0.56605135200E+03  0.17200000000E+03 0. -1.
         -6    1    1    2    0  501 -0.92012695559E+02 -0.25106994264E+03 -0.10004243925E+04  0.10497311167E+04  0.17200000000E+03 0.  1.
</event>
<event>
 4    1  0.3115421E-002  0.1893089E+03  0.7818608E-02  0.1159086E+00
         -1   -1    0    0    0  501 -0.00000000000E+00  0.00000000000E+00  0.82746688457E+02  0.82746688457E+02  0.00000000000E+00 0.  1.
          1   -1    0    0  502    0  0.00000000000E+00 -0.00000000000E+00 -0.48984916672E+03  0.48984916672E+03  0.00000000000E+00 0. -1.
          6    1    1    2  502    0 -0.52731014045E+02 -0.58934621724E+02 -0.30099517072E+03  0.35557832087E+03  0.17200000000E+03 0. -1.
         -6    1    1    2    0  501  0.52731014045E+02  0.58934621724E+02 -0.10610730754E+03  0.21701753430E+03  0.17200000000E+03 0.  1.
</event>
<event>
 4    1  0.3115421E-002  0.2439500E+03  0.7818608E-02  0.1117189E+00
          3   -1    0    0  502    0  0.00000000000E+00  0.00000000000E+00  0.17912357569E+03  0.17912357569E+03  0.00000000000E+00 0. -1.
         -3   -1    0    0    0  501 -0.00000000000E+00 -0.00000000000E+00 -0.36025456580E+03  0.36025456580E+03  0.00000000000E+00 0.  1.
          6    1    1    2  502    0 -0.16684725893E+03 -0.45712025620E+02 -0.15356686569E+02  0.24443286383E+03  0.17200000000E+03 0. -1.
         -6    1    1    2    0  501  0.16684725893E+03  0.45712025620E+02 -0.16577430354E+03  0.29494527766E+03  0.17200000000E+03 0. -1.
</event>
<event>
 4    1  0.3115421E-002  0.1961185E+03  0.7818608E-02  0.1153056E+00
          1   -1    0    0  502    0  0.00000000000E+00  0.00000000000E+00  0.12904253394E+03  0.12904253394E+03  0.00000000000E+00 0. -1.
         -1   -1    0    0    0  501 -0.00000000000E+00 -0.00000000000E+00 -0.33767091114E+03  0.33767091114E+03  0.00000000000E+00 0.  1.
          6    1    1    2  502    0  0.70558592619E+02  0.62449734853E+02 -0.24390029817E+02  0.19762934481E+03  0.17200000000E+03 0. -1.
         -6    1    1    2    0  501 -0.70558592619E+02 -0.62449734853E+02 -0.18423834738E+03  0.26908410027E+03  0.17200000000E+03 0. -1.
</event>
<event>
 4    1  0.3115421E-002  0.2006413E+03  0.7818608E-02  0.1149199E+00
          2   -1    0    0  502    0  0.00000000000E+00  0.00000000000E+00  0.53200757684E+03  0.53200757684E+03  0.00000000000E+00 0. -1.
         -2   -1    0    0    0  501 -0.00000000000E+00 -0.00000000000E+00 -0.75706197270E+02  0.75706197270E+02  0.00000000000E+00 0.  1.
          6    1    1    2  502    0 -0.27065343070E+02  0.99701504985E+02  0.22149092659E+03  0.29885640942E+03  0.17200000000E+03 0. -1.
         -6    1    1    2    0  501  0.27065343070E+02 -0.99701504985E+02  0.23481045298E+03  0.30885736469E+03  0.17200000000E+03 0.  1.
</event>
<event>
 4    1  0.3115421E-002  0.2031283E+03  0.7818608E-02  0.1147126E+00
         -1   -1    0    0    0  501 -0.00000000000E+00  0.00000000000E+00  0.35379193156E+02  0.35379193156E+02  0.00000000000E+00 0.  1.
          1   -1    0    0  502    0  0.00000000000E+00 -0.00000000000E+00 -0.15392724620E+04  0.15392724620E+04  0.00000000000E+00 0. -1.
          6    1    1    2  502    0 -0.87910688350E+02  0.62839608864E+02 -0.11395274217E+04  0.11574903240E+04  0.17200000000E+03 0. -1.
         -6    1    1    2    0  501  0.87910688350E+02 -0.62839608864E+02 -0.36436584716E+03  0.41716133108E+03  0.17200000000E+03 0.  1.
</event>
<event>
 4    1  0.3115421E-002  0.2436145E+03  0.7818608E-02  0.1117408E+00
         -2   -1    0    0    0  501 -0.00000000000E+00  0.00000000000E+00  0.29236600303E+02  0.29236600303E+02  0.00000000000E+00 0.  1.
          2   -1    0    0  502    0  0.00000000000E+00 -0.00000000000E+00 -0.20441153092E+04  0.20441153092E+04  0.00000000000E+00 0. -1.
          6    1    1    2  502    0  0.11660124244E+03 -0.12715418825E+03 -0.10938211311E+04  0.11206215704E+04  0.17200000000E+03 0. -1.
         -6    1    1    2    0  501 -0.11660124244E+03  0.12715418825E+03 -0.92105757785E+03  0.95273033910E+03  0.17200000000E+03 0.  1.
</event>
<event>
 4    1  0.3115421E-002  0.3708514E+03  0.7818608E-02  0.1054368E+00
         -1   -1    0    0    0  501 -0.00000000000E+00  0.00000000000E+00  0.20047298168E+04  0.20047298168E+04  0.00000000000E+00 0.  1.
          1   -1    0    0  502    0  0.00000000000E+00 -0.00000000000E+00 -0.57612284874E+03  0.57612284874E+03  0.00000000000E+00 0. -1.
          6    1    1    2  502    0 -0.21588519729E+03 -0.24766975282E+03 -0.49685822090E+03  0.61999904561E+03  0.17200000000E+03 0. -1.
         -6    1    1    2    0  501  0.21588519729E+03  0.24766975282E+03  0.19254651890E+04  0.19608536199E+04  0.17200000000E+03 0.  1.
</event>
<event>
 4    1  0.3115421E-002  0.2124524E+03  0.7818608E-02  0.1139639E+00
          2   -1    0    0  502    0  0.00000000000E+00  0.00000000000E+00  0.38951175965E+04  0.38951175965E+04  0.00000000000E+00 0. -1.
         -2   -1    0    0    0  501 -0.00000000000E+00 -0.00000000000E+00 -0.11618007637E+02  0.11618007637E+02  0.00000000000E+00 0.  1.
          6    1    1    2  502    0 -0.10458501206E+03  0.67926343133E+02  0.18422174644E+04  0.18544274586E+04  0.17200000000E+03 0. -1.
         -6    1    1    2    0  501  0.10458501206E+03 -0.67926343133E+02  0.20412821245E+04  0.20523081456E+04  0.17200000000E+03 0.  1.
</event>
<event>
 4    1  0.3115421E-002  0.1929262E+03  0.7818608E-02  0.1155848E+00
         -1   -1    0    0    0  501 -0.00000000000E+00  0.00000000000E+00  0.91011864840E+02  0.91011864840E+02  0.00000000000E+00 0.  1.
          1   -1    0    0  502    0  0.00000000000E+00 -0.00000000000E+00 -0.43734021257E+03  0.43734021257E+03  0.00000000000E+00 0. -1.
          6    1    1    2  502    0 -0.87260895917E+02  0.46974502101E+01 -0.24045638905E+03  0.30828526567E+03  0.17200000000E+03 0. -1.
         -6    1    1    2    0  501  0.87260895917E+02 -0.46974502101E+01 -0.10587195868E+03  0.22006681174E+03  0.17200000000E+03 0.  1.
</event>
<event>
 4    1  0.3115421E-002  0.6273614E+03  0.7818608E-02  0.9850211E-01
         -2   -1    0    0    0  501 -0.00000000000E+00  0.00000000000E+00  0.58924847242E+03  0.58924847242E+03  0.00000000000E+00 0.  1.
          2   -1    0    0  502    0  0.00000000000E+00 -0.00000000000E+00 -0.89789976709E+03  0.89789976709E+03  0.00000000000E+00 0. -1.
          6    1    1    2  502    0 -0.24041076715E+02 -0.60284354676E+03 -0.53062785146E+03  0.82167404242E+03  0.17200000000E+03 0. -1.
         -6    1    1    2    0  501  0.24041076715E+02  0.60284354676E+03  0.22197655679E+03  0.66547419710E+03  0.17200000000E+03 0.  1.
</event>
<event>
 4    1  0.3115421E-002  0.3932261E+03  0.7818608E-02  0.1046151E+00
         -1   -1    0    0    0  501 -0.00000000000E+00  0.00000000000E+00  0.25530587306E+04  0.25530587306E+04  0.00000000000E+00 0.  1.
          1   -1    0    0  502    0  0.00000000000E+00 -0.00000000000E+00 -0.60619741871E+02  0.60619741871E+02  0.00000000000E+00 0. -1.
          6    1    1    2  502    0  0.30040697488E+03  0.18654336418E+03  0.12070572972E+04  0.12694936377E+04  0.17200000000E+03 0. -1.
         -6    1    1    2    0  501 -0.30040697488E+03 -0.18654336418E+03  0.12853816914E+04  0.13441848348E+04  0.17200000000E+03 0.  1.
</event>
<event>
 4    1  0.3115421E-002  0.2007039E+03  0.7818608E-02  0.1149146E+00
          2   -1    0    0  502    0  0.00000000000E+00  0.00000000000E+00  0.14470634878E+03  0.14470634878E+03  0.00000000000E+00 0. -1.
         -2   -1    0    0    0  501 -0.00000000000E+00 -0.00000000000E+00 -0.28927261175E+03  0.28927261175E+03  0.00000000000E+00 0.  1.
          6    1    1    2  502    0 -0.15752185820E+02  0.10222491948E+03 -0.30159250209E+02  0.20295725140E+03  0.17200000000E+03 0. -1.
         -6    1    1    2    0  501  0.15752185820E+02 -0.10222491948E+03 -0.11440701276E+03  0.23102170913E+03  0.17200000000E+03 0.  1.
</event>
<event>
 4    1  0.3115421E-002  0.2596819E+03  0.7818608E-02  0.1107335E+00
         -2   -1    0    0    0  501 -0.00000000000E+00  0.00000000000E+00  0.15539991393E+03  0.15539991393E+03  0.00000000000E+00 0.  1.
          2   -1    0    0  502    0  0.00000000000E+00 -0.00000000000E+00 -0.43409866594E+03  0.43409866594E+03  0.00000000000E+00 0. -1.
          6    1    1    2  502    0  0.17326246839E+03 -0.88491808386E+02 -0.14493344077E+03  0.29738928252E+03  0.17200000000E+03 0. -1.
         -6    1    1    2    0  501 -0.17326246839E+03  0.88491808386E+02 -0.13376531124E+03  0.29210929734E+03  0.17200000000E+03 0. -1.
</event>
<event>
 4    1  0.3115421E-002  0.1742706E+03  0.7818608E-02  0.1173466E+00
          2   -1    0    0  502    0  0.00000000000E+00  0.00000000000E+00  0.50701402356E+03  0.50701402356E+03  0.00000000000E+00 0. -1.
         -2   -1    0    0    0  501 -0.00000000000E+00 -0.00000000000E+00 -0.11984017801E+03  0.11984017801E+03  0.00000000000E+00 0.  1.
          6    1    1    2  502    0 -0.22483383894E+02 -0.16755000816E+02  0.41525016195E+03  0.45033646266E+03  0.17200000000E+03 0. -1.
         -6    1    1    2    0  501  0.22483383894E+02  0.16755000816E+02 -0.28076316402E+02  0.17651773890E+03  0.17200000000E+03 0.  1.
</event>
<event>
 4    1  0.3115421E-002  0.1772379E+03  0.7818608E-02  0.1170503E+00
         -2   -1    0    0    0  501 -0.00000000000E+00  0.00000000000E+00  0.11262085907E+02  0.11262085907E+02  0.00000000000E+00 0.  1.
          2   -1    0    0  502    0  0.00000000000E+00 -0.00000000000E+00 -0.27896749618E+04  0.27896749618E+04  0.00000000000E+00 0. -1.
          6    1    1    2  502    0 -0.41870052656E+02  0.87279399710E+01 -0.13728589493E+04  0.13842524961E+04  0.17200000000E+03 0. -1.
         -6    1    1    2    0  501  0.41870052656E+02 -0.87279399710E+01 -0.14055539266E+04  0.14166845516E+04  0.17200000000E+03 0.  1.
</event>
<event>
 4    1  0.3115421E-002  0.3025712E+03  0.7818608E-02  0.1083962E+00
          2   -1    0    0  502    0  0.00000000000E+00  0.00000000000E+00  0.87340971443E+03  0.87340971443E+03  0.00000000000E+00 0. -1.
         -2   -1    0    0    0  501 -0.00000000000E+00 -0.00000000000E+00 -0.10987633259E+03  0.10987633259E+03  0.00000000000E+00 0.  1.
          6    1    1    2  502    0 -0.99675694591E+02 -0.22810109796E+03  0.27628259927E+03  0.40973336408E+03  0.17200000000E+03 0.  1.
         -6    1    1    2    0  501  0.99675694591E+02  0.22810109796E+03  0.48725078257E+03  0.57355268293E+03  0.17200000000E+03 0. -1.
</event>
<event>
 4    1  0.3115421E-002  0.1923204E+03  0.7818608E-02  0.1156385E+00
         -2   -1    0    0    0  501 -0.00000000000E+00  0.00000000000E+00  0.14154741072E+03  0.14154741072E+03  0.00000000000E+00 0.  1.
          2   -1    0    0  502    0  0.00000000000E+00 -0.00000000000E+00 -0.26134565836E+03  0.26134565836E+03  0.00000000000E+00 0. -1.
          6    1    1    2  502    0 -0.35567999467E+02  0.78345727186E+02 -0.57406093486E+02  0.20070524439E+03  0.17200000000E+03 0. -1.
         -6    1    1    2    0  501  0.35567999467E+02 -0.78345727186E+02 -0.62392154161E+02  0.20218782470E+03  0.17200000000E+03 0.  1.
</event>
<event>
 4    1  0.3115421E-002  0.2275976E+03  0.7818608E-02  0.1128342E+00
         -2   -1    0    0    0  501 -0.00000000000E+00  0.00000000000E+00  0.90551550759E+02  0.90551550759E+02  0.00000000000E+00 0.  1.
          2   -1    0    0  502    0  0.00000000000E+00 -0.00000000000E+00 -0.62975937384E+03  0.62975937384E+03  0.00000000000E+00 0. -1.
          6    1    1    2  502    0 -0.13441080872E+03 -0.64423547167E+02 -0.16058569046E+03  0.27854698511E+03  0.17200000000E+03 0.  1.
         -6    1    1    2    0  501  0.13441080872E+03  0.64423547167E+02 -0.37862213262E+03  0.44176393949E+03  0.17200000000E+03 0.  1.
</event>
<event>
 4    1  0.3115421E-002  0.2596771E+03  0.7818608E-02  0.1107337E+00
          2   -1    0    0  502    0  0.00000000000E+00  0.00000000000E+00  0.65579073517E+02  0.65579073517E+02  0.00000000000E+00 0. -1.
         -2   -1    0    0    0  501 -0.00000000000E+00 -0.00000000000E+00 -0.11343070345E+04  0.11343070345E+04  0.00000000000E+00 0.  1.
          6    1    1    2  502    0 -0.14616249284E+03 -0.12839279002E+03 -0.71780600297E+03  0.76333324358E+03  0.17200000000E+03 0. -1.
         -6    1    1    2    0  501  0.14616249284E+03  0.12839279002E+03 -0.35092195802E+03  0.43655286445E+03  0.17200000000E+03 0. -1.
</event>
<event>
 4    1  0.3115421E-002  0.2385798E+03  0.7818608E-02  0.1120743E+00
         -1   -1    0    0    0  501 -0.00000000000E+00  0.00000000000E+00  0.12612103212E+03  0.12612103212E+03  0.00000000000E+00 0.  1.
          1   -1    0    0  502    0  0.00000000000E+00 -0.00000000000E+00 -0.52882577118E+03  0.52882577118E+03  0.00000000000E+00 0. -1.
          6    1    1    2  502    0  0.16507780508E+03 -0.92547838670E+01 -0.32672430459E+03  0.40456038358E+03  0.17200000000E+03 0. -1.
         -6    1    1    2    0  501 -0.16507780508E+03  0.92547838670E+01 -0.75980434475E+02  0.25038641971E+03  0.17200000000E+03 0.  1.
</event>
<event>
 4    1  0.3115421E-002  0.1821898E+03  0.7818608E-02  0.1165700E+00
         -1   -1    0    0    0  501 -0.00000000000E+00  0.00000000000E+00  0.69903296042E+02  0.69903296042E+02  0.00000000000E+00 0.  1.
          1   -1    0    0  502    0  0.00000000000E+00 -0.00000000000E+00 -0.58876592050E+03  0.58876592050E+03  0.00000000000E+00 0. -1.
          6    1    1    2  502    0  0.59979581416E+02  0.34032151127E+01 -0.11456397778E+03  0.21521625651E+03  0.17200000000E+03 0. -1.
         -6    1    1    2    0  501 -0.59979581416E+02 -0.34032151127E+01 -0.40429864668E+03  0.44345296004E+03  0.17200000000E+03 0. -1.
</event>
<event>
 4    1  0.3115421E-002  0.1933491E+03  0.7818608E-02  0.1155475E+00
         -1   -1    0    0    0  501 -0.00000000000E+00  0.00000000000E+00  0.55548805596E+02  0.55548805596E+02  0.00000000000E+00 0.  1.
          1   -1    0    0  502    0  0.00000000000E+00 -0.00000000000E+00 -0.17383587976E+04  0.17383587976E+04  0.00000000000E+00 0. -1.
          6    1    1    2  502    0  0.68585814406E+02 -0.55640453040E+02 -0.15435875676E+04  0.15556498490E+04  0.17200000000E+03 0. -1.
         -6    1    1    2    0  501 -0.68585814406E+02  0.55640453040E+02 -0.13922242436E+03  0.23825775412E+03  0.17200000000E+03 0.  1.
</event>
<event>
 4    1  0.3115421E-002  0.3642137E+03  0.7818608E-02  0.1056928E+00
          2   -1    0    0  502    0  0.00000000000E+00  0.00000000000E+00  0.14230912834E+04  0.14230912834E+04  0.00000000000E+00 0. -1.
         -2   -1    0    0    0  501 -0.00000000000E+00 -0.00000000000E+00 -0.94465891619E+02  0.94465891619E+02  0.00000000000E+00 0.  1.
          6    1    1    2  502    0 -0.32087980859E+03  0.10187363556E+02  0.75167202619E+03  0.83526191634E+03  0.17200000000E+03 0. -1.
         -6    1    1    2    0  501  0.32087980859E+03 -0.10187363556E+02  0.57695336556E+03  0.68229525864E+03  0.17200000000E+03 0.  1.
</event>
<event>
 4    1  0.3115421E-002  0.2393415E+03  0.7818608E-02  0.1120232E+00
         -1   -1    0    0    0  501 -0.00000000000E+00  0.00000000000E+00  0.10439302588E+03  0.10439302588E+03  0.00000000000E+00 0.  1.
          1   -1    0    0  502    0  0.00000000000E+00 -0.00000000000E+00 -0.56175038569E+03  0.56175038569E+03  0.00000000000E+00 0. -1.
          6    1    1    2  502    0 -0.15697410412E+03 -0.55312614177E+02 -0.27937249770E+03  0.36787680971E+03  0.17200000000E+03 0. -1.
         -6    1    1    2    0  501  0.15697410412E+03  0.55312614177E+02 -0.17798486211E+03  0.29826660187E+03  0.17200000000E+03 0. -1.
</event>
<event>
 4    1  0.3115421E-002  0.4095006E+03  0.7818608E-02  0.1040539E+00
         -1   -1    0    0    0  501 -0.00000000000E+00  0.00000000000E+00  0.15802018880E+03  0.15802018880E+03  0.00000000000E+00 0.  1.
          1   -1    0    0  502    0  0.00000000000E+00 -0.00000000000E+00 -0.12816499037E+04  0.12816499037E+04  0.00000000000E+00 0. -1.
          6    1    1    2  502    0  0.23607788758E+03 -0.28700871892E+03 -0.26327329502E+03  0.48683015684E+03  0.17200000000E+03 0.  1.
         -6    1    1    2    0  501 -0.23607788758E+03  0.28700871892E+03 -0.86035641985E+03  0.95283993562E+03  0.17200000000E+03 0.  1.
</event>
<event>
 4    1  0.3115421E-002  0.1891038E+03  0.7818608E-02  0.1159272E+00
          2   -1    0    0  502    0  0.00000000000E+00  0.00000000000E+00  0.23414945259E+04  0.23414945259E+04  0.00000000000E+00 0. -1.
         -2   -1    0    0    0  501 -0.00000000000E+00 -0.00000000000E+00 -0.24555137734E+02  0.24555137734E+02  0.00000000000E+00 0.  1.
          6    1    1    2  502    0  0.12007642558E+02  0.77666324474E+02  0.18858486115E+04  0.18953061038E+04  0.17200000000E+03 0. -1.
         -6    1    1    2    0  501 -0.12007642558E+02 -0.77666324474E+02  0.43109077661E+03  0.47074355983E+03  0.17200000000E+03 0.  1.
</event>
<event>
 4    1  0.3115421E-002  0.3567378E+03  0.7818608E-02  0.1059883E+00
          2   -1    0    0  502    0  0.00000000000E+00  0.00000000000E+00  0.33385444138E+04  0.33385444138E+04  0.00000000000E+00 0. -1.
         -2   -1    0    0    0  501 -0.00000000000E+00 -0.00000000000E+00 -0.38555742569E+02  0.38555742569E+02  0.00000000000E+00 0.  1.
          6    1    1    2  502    0  0.25512626027E+03  0.18052272968E+03  0.18297152162E+04  0.18641672771E+04  0.17200000000E+03 0.  1.
         -6    1    1    2    0  501 -0.25512626027E+03 -0.18052272968E+03  0.14702734550E+04  0.15129328793E+04  0.17200000000E+03 0. -1.
</event>
<event>
 4    1  0.3115421E-002  0.3241799E+03  0.7818608E-02  0.1073742E+00
         -1   -1    0    0    0  501 -0.00000000000E+00  0.00000000000E+00  0.89427212034E+02  0.89427212034E+02  0.00000000000E+00 0.  1.
          1   -1    0    0  502    0  0.00000000000E+00 -0.00000000000E+00 -0.11765760884E+04  0.11765760884E+04  0.00000000000E+00 0. -1.
          6    1    1    2  502    0  0.64048366796E+02  0.26721975274E+03 -0.52172767339E+03  0.61424128380E+03  0.17200000000E+03 0.  1.
         -6    1    1    2    0  501 -0.64048366796E+02 -0.26721975274E+03 -0.56542120294E+03  0.65176201660E+03  0.17200000000E+03 0.  1.
</event>
<event>
 4    1  0.3115421E-002  0.2126713E+03  0.7818608E-02  0.1139468E+00
          1   -1    0    0  502    0  0.00000000000E+00  0.00000000000E+00  0.36557677649E+03  0.36557677649E+03  0.00000000000E+00 0. -1.
         -1   -1    0    0    0  501 -0.00000000000E+00 -0.00000000000E+00 -0.14583312618E+03  0.14583312618E+03  0.00000000000E+00 0.  1.
          6    1    1    2  502    0 -0.37872651718E+02  0.11920877659E+03  0.20944411560E+03  0.29848937623E+03  0.17200000000E+03 0. -1.
         -6    1    1    2    0  501  0.37872651718E+02 -0.11920877659E+03  0.10299534704E+02  0.21292052644E+03  0.17200000000E+03 0.  1.
</event>
<event>
 4    1  0.3115421E-002  0.1853915E+03  0.7818608E-02  0.1162685E+00
          3   -1    0    0  502    0  0.00000000000E+00  0.00000000000E+00  0.49347283469E+03  0.49347283469E+03  0.00000000000E+00 0. -1.
         -3   -1    0    0    0  501 -0.00000000000E+00 -0.00000000000E+00 -0.72849622266E+02  0.72849622266E+02  0.00000000000E+00 0.  1.
          6    1    1    2  502    0  0.67673757445E+02  0.14362112074E+02  0.26966165620E+03  0.32724213747E+03  0.17200000000E+03 0. -1.
         -6    1    1    2    0  501 -0.67673757445E+02 -0.14362112074E+02  0.15096155623E+03  0.23908031949E+03  0.17200000000E+03 0.  1.
</event>
<event>
 4    1  0.3115421E-002  0.1774766E+03  0.7818608E-02  0.1170268E+00
          2   -1    0    0  502    0  0.00000000000E+00  0.00000000000E+00  0.18084540718E+04  0.18084540718E+04  0.00000000000E+00 0. -1.
         -2   -1    0    0    0  501 -0.00000000000E+00 -0.00000000000E+00 -0.26382178310E+02  0.26382178310E+02  0.00000000000E+00 0.  1.
          6    1    1    2  502    0  0.19650613470E+02 -0.39086830234E+02  0.35623723369E+03  0.39799861002E+03  0.17200000000E+03 0.  1.
         -6    1    1    2    0  501 -0.19650613470E+02  0.39086830234E+02  0.14258346598E+04  0.14368376401E+04  0.17200000000E+03 0. -1.
</event>
<event>
 4    1  0.3115421E-002  0.2865234E+03  0.7818608E-02  0.1092178E+00
          3   -1    0    0  502    0  0.00000000000E+00  0.00000000000E+00  0.35539869322E+03  0.35539869322E+03  0.00000000000E+00 0. -1.
         -3   -1    0    0    0  501 -0.00000000000E+00 -0.00000000000E+00 -0.23126064289E+03  0.23126064289E+03  0.00000000000E+00 0.  1.
          6    1    1    2  502    0 -0.22142568519E+03 -0.59011244455E+02  0.71992665937E+02  0.29542952625E+03  0.17200000000E+03 0. -1.
         -6    1    1    2    0  501  0.22142568519E+03  0.59011244455E+02  0.52145384402E+02  0.29122980986E+03  0.17200000000E+03 0. -1.
</event>
<event>
 4    1  0.3115421E-002  0.3014947E+03  0.7818608E-02  0.1084496E+00
          3   -1    0    0  502    0  0.00000000000E+00  0.00000000000E+00  0.73277222069E+02  0.73277222069E+02  0.00000000000E+00 0. -1.
         -3   -1    0    0    0  501 -0.00000000000E+00 -0.00000000000E+00 -0.15500775318E+04  0.15500775318E+04  0.00000000000E+00 0.  1.
          6    1    1    2  502    0 -0.71593387200E+02  0.23704309644E+03 -0.11011476167E+04  0.11416764500E+04  0.17200000000E+03 0.  1.
         -6    1    1    2    0  501  0.71593387200E+02 -0.23704309644E+03 -0.37565269302E+03  0.48167830388E+03  0.17200000000E+03 0. -1.
</event>
<event>
 4    1  0.3115421E-002  0.1866066E+03  0.7818608E-02  0.1161558E+00
          2   -1    0    0  502    0  0.00000000000E+00  0.00000000000E+00  0.53200331005E+03  0.53200331005E+03  0.00000000000E+00 0. -1.
         -2   -1    0    0    0  501 -0.00000000000E+00 -0.00000000000E+00 -0.65569244096E+02  0.65569244096E+02  0.00000000000E+00 0.  1.
          6    1    1    2  502    0  0.72302234314E+02 -0.32256881859E+01  0.22071878676E+03  0.28903079590E+03  0.17200000000E+03 0. -1.
         -6    1    1    2    0  501 -0.72302234314E+02  0.32256881859E+01  0.24571527920E+03  0.30854175825E+03  0.17200000000E+03 0. -1.
</event>
<event>
 4    1  0.3115421E-002  0.2530574E+03  0.7818608E-02  0.1111388E+00
          1   -1    0    0  502    0  0.00000000000E+00  0.00000000000E+00  0.13773043732E+04  0.13773043732E+04  0.00000000000E+00 0. -1.
         -1   -1    0    0    0  501 -0.00000000000E+00 -0.00000000000E+00 -0.58931285370E+02  0.58931285370E+02  0.00000000000E+00 0.  1.
          6    1    1    2  502    0 -0.10072745135E+03  0.15591028349E+03  0.98907314805E+03  0.10209327736E+04  0.17200000000E+03 0. -1.
         -6    1    1    2    0  501  0.10072745135E+03 -0.15591028349E+03  0.32929993979E+03  0.41530288501E+03  0.17200000000E+03 0.  1.
</event>
<event>
 4    1  0.3115421E-002  0.2248820E+03  0.7818608E-02  0.1130295E+00
         -1   -1    0    0    0  501 -0.00000000000E+00  0.00000000000E+00  0.87513789223E+02  0.87513789223E+02  0.00000000000E+00 0.  1.
          1   -1    0    0  502    0  0.00000000000E+00 -0.00000000000E+00 -0.81215017882E+03  0.81215017882E+03  0.00000000000E+00 0. -1.
          6    1    1    2  502    0  0.12863680621E+03  0.66636872871E+02 -0.60391805434E+03  0.64442914048E+03  0.17200000000E+03 0. -1.
         -6    1    1    2    0  501 -0.12863680621E+03 -0.66636872871E+02 -0.12071833526E+03  0.25523482757E+03  0.17200000000E+03 0.  1.
</event>
<event>
 4    1  0.3115421E-002  0.5120026E+03  0.7818608E-02  0.1010693E+00
          2   -1    0    0  502    0  0.00000000000E+00  0.00000000000E+00  0.49566662576E+03  0.49566662576E+03  0.00000000000E+00 0. -1.
         -2   -1    0    0    0  501 -0.00000000000E+00 -0.00000000000E+00 -0.60523266116E+03  0.60523266116E+03  0.00000000000E+00 0.  1.
          6    1    1    2  502    0 -0.33750547508E+03 -0.34446000859E+03  0.14073070150E+03  0.53099131214E+03  0.17200000000E+03 0. -1.
         -6    1    1    2    0  501  0.33750547508E+03  0.34446000859E+03 -0.25029673689E+03  0.56990797479E+03  0.17200000000E+03 0.  1.
</event>
<event>
 4    1  0.3115421E-002  0.3550107E+03  0.7818608E-02  0.1060577E+00
         -2   -1    0    0    0  501 -0.00000000000E+00  0.00000000000E+00  0.20119116531E+03  0.20119116531E+03  0.00000000000E+00 0.  1.
          2   -1    0    0  502    0  0.00000000000E+00 -0.00000000000E+00 -0.62990644956E+03  0.62990644956E+03  0.00000000000E+00 0. -1.
          6    1    1    2  502    0  0.18964045682E+03  0.24593713529E+03 -0.24521999948E+03  0.43146891606E+03  0.17200000000E+03 0. -1.
         -6    1    1    2    0  501 -0.18964045682E+03 -0.24593713529E+03 -0.18349528477E+03  0.39962869881E+03  0.17200000000E+03 0.  1.
</event>
<event>
 4    1  0.3115421E-002  0.2989919E+03  0.7818608E-02  0.1085746E+00
         -3   -1    0    0    0  501 -0.00000000000E+00  0.00000000000E+00  0.49937582014E+03  0.49937582014E+03  0.00000000000E+00 0.  1.
          3   -1    0    0  502    0  0.00000000000E+00 -0.00000000000E+00 -0.18230932666E+03  0.18230932666E+03  0.00000000000E+00 0. -1.
          6    1    1    2  502    0 -0.24236597766E+03  0.32724560143E+02  0.20434529578E+03  0.36215074744E+03  0.17200000000E+03 0. -1.
         -6    1    1    2    0  501  0.24236597766E+03 -0.32724560143E+02  0.11272119770E+03  0.31953439936E+03  0.17200000000E+03 0. -1.
</event>
<event>
 4    1  0.3115421E-002  0.1768353E+03  0.7818608E-02  0.1170901E+00
         -2   -1    0    0    0  501 -0.00000000000E+00  0.00000000000E+00  0.41953858790E+02  0.41953858790E+02  0.00000000000E+00 0.  1.
          2   -1    0    0  502    0  0.00000000000E+00 -0.00000000000E+00 -0.82529925565E+03  0.82529925565E+03  0.00000000000E+00 0. -1.
          6    1    1    2  502    0  0.23886523244E+02  0.33408878615E+02 -0.52662825796E+03  0.55552501406E+03  0.17200000000E+03 0. -1.
         -6    1    1    2    0  501 -0.23886523244E+02 -0.33408878615E+02 -0.25671713890E+03  0.31172810038E+03  0.17200000000E+03 0.  1.
</event>
<event>
 4    1  0.3115421E-002  0.3823561E+03  0.7818608E-02  0.1050066E+00
          2   -1    0    0  502    0  0.00000000000E+00  0.00000000000E+00  0.85707764037E+03  0.85707764037E+03  0.00000000000E+00 0. -1.
         -2   -1    0    0    0  501 -0.00000000000E+00 -0.00000000000E+00 -0.29453760130E+03  0.29453760130E+03  0.00000000000E+00 0.  1.
          6    1    1    2  502    0  0.24196725733E+03  0.24096482549E+03  0.65482282618E+03  0.75828037982E+03  0.17200000000E+03 0. -1.
         -6    1    1    2    0  501 -0.24196725733E+03 -0.24096482549E+03 -0.92282787114E+02  0.39333486184E+03  0.17200000000E+03 0.  1.
</event>
<event>
 4    1  0.3115421E-002  0.1807729E+03  0.7818608E-02  0.1167057E+00
          1   -1    0    0  502    0  0.00000000000E+00  0.00000000000E+00  0.14563006898E+03  0.14563006898E+03  0.00000000000E+00 0. -1.
         -1   -1    0    0    0  501 -0.00000000000E+00 -0.00000000000E+00 -0.22975491227E+03  0.22975491227E+03  0.00000000000E+00 0.  1.
          6    1    1    2  502    0 -0.31904792988E+02 -0.45573426928E+02 -0.70726595880E+02  0.19411621370E+03  0.17200000000E+03 0. -1.
         -6    1    1    2    0  501  0.31904792988E+02  0.45573426928E+02 -0.13398247410E+02  0.18126876756E+03  0.17200000000E+03 0. -1.
</event>
<event>
 4    1  0.3115421E-002  0.1762717E+03  0.7818608E-02  0.1171461E+00
          2   -1    0    0  502    0  0.00000000000E+00  0.00000000000E+00  0.13109951308E+04  0.13109951308E+04  0.00000000000E+00 0. -1.
         -2   -1    0    0    0  501 -0.00000000000E+00 -0.00000000000E+00 -0.25138647301E+02  0.25138647301E+02  0.00000000000E+00 0.  1.
          6    1    1    2  502    0  0.28688224759E+02  0.25781426630E+02  0.48315717175E+03  0.51430783468E+03  0.17200000000E+03 0.  1.
         -6    1    1    2    0  501 -0.28688224759E+02 -0.25781426630E+02  0.80269931172E+03  0.82182594339E+03  0.17200000000E+03 0.  1.
</event>
<event>
 4    1  0.3115421E-002  0.1914926E+03  0.7818608E-02  0.1157122E+00
          2   -1    0    0  502    0  0.00000000000E+00  0.00000000000E+00  0.89602940415E+03  0.89602940415E+03  0.00000000000E+00 0. -1.
         -2   -1    0    0    0  501 -0.00000000000E+00 -0.00000000000E+00 -0.10331521480E+03  0.10331521480E+03  0.00000000000E+00 0.  1.
          6    1    1    2  502    0  0.75507748360E+02 -0.37202108015E+02  0.78465375886E+03  0.80768244886E+03  0.17200000000E+03 0. -1.
         -6    1    1    2    0  501 -0.75507748360E+02  0.37202108015E+02  0.80604304909E+01  0.19166217009E+03  0.17200000000E+03 0.  1.
</event>
<event>
 4    1  0.3115421E-002  0.2005459E+03  0.7818608E-02  0.1149279E+00
         -2   -1    0    0    0  501 -0.00000000000E+00  0.00000000000E+00  0.48291778011E+02  0.48291778011E+02  0.00000000000E+00 0.  1.
          2   -1    0    0  502    0  0.00000000000E+00 -0.00000000000E+00 -0.11707080093E+04  0.11707080093E+04  0.00000000000E+00 0. -1.
          6    1    1    2  502    0  0.47206941697E+02  0.91685196526E+02 -0.88864799895E+03  0.91099612329E+03  0.17200000000E+03 0. -1.
         -6    1    1    2    0  501 -0.47206941697E+02 -0.91685196526E+02 -0.23376823237E+03  0.30800366406E+03  0.17200000000E+03 0.  1.
</event>
<event>
 4    1  0.3115421E-002  0.4987032E+03  0.7818608E-02  0.1014118E+00
         -2   -1    0    0    0  501 -0.00000000000E+00  0.00000000000E+00  0.46729747171E+03  0.46729747171E+03  0.00000000000E+00 0.  1.
          2   -1    0    0  502    0  0.00000000000E+00 -0.00000000000E+00 -0.89065792714E+03  0.89065792714E+03  0.00000000000E+00 0. -1.
          6    1    1    2  502    0  0.30091329016E+03 -0.35856943602E+03 -0.64241238347E+03  0.81326411397E+03  0.17200000000E+03 0. -1.
         -6    1    1    2    0  501 -0.30091329016E+03  0.35856943602E+03  0.21905192804E+03  0.54469128488E+03  0.17200000000E+03 0.  1.
</event>
<event>
 4    1  0.3115421E-002  0.1818310E+03  0.7818608E-02  0.1166043E+00
         -2   -1    0    0    0  501 -0.00000000000E+00  0.00000000000E+00  0.92183324749E+02  0.92183324749E+02  0.00000000000E+00 0.  1.
          2   -1    0    0  502    0  0.00000000000E+00 -0.00000000000E+00 -0.38169936611E+03  0.38169936611E+03  0.00000000000E+00 0. -1.
          6    1    1    2  502    0  0.42123245575E+01 -0.58828351137E+02 -0.86546284079E+02  0.20137720294E+03  0.17200000000E+03 0.  1.
         -6    1    1    2    0  501 -0.42123245575E+01  0.58828351137E+02 -0.20296975728E+03  0.27250548792E+03  0.17200000000E+03 0. -1.
</event>
<event>
 4    1  0.3115421E-002  0.2023697E+03  0.7818608E-02  0.1147755E+00
         -2   -1    0    0    0  501 -0.00000000000E+00  0.00000000000E+00  0.14939385847E+03  0.14939385847E+03  0.00000000000E+00 0.  1.
          2   -1    0    0  502    0  0.00000000000E+00 -0.00000000000E+00 -0.45685074166E+03  0.45685074166E+03  0.00000000000E+00 0. -1.
          6    1    1    2  502    0  0.24537733298E+02 -0.10376597152E+03 -0.34542907208E+03  0.40034325402E+03  0.17200000000E+03 0. -1.
         -6    1    1    2    0  501 -0.24537733298E+02  0.10376597152E+03  0.37972188881E+02  0.20590134611E+03  0.17200000000E+03 0.  1.
</event>
<event>
 4    1  0.3115421E-002  0.2109216E+03  0.7818608E-02  0.1140838E+00
          2   -1    0    0  502    0  0.00000000000E+00  0.00000000000E+00  0.18998622088E+04  0.18998622088E+04  0.00000000000E+00 0. -1.
         -2   -1    0    0    0  501 -0.00000000000E+00 -0.00000000000E+00 -0.34526718663E+02  0.34526718663E+02  0.00000000000E+00 0.  1.
          6    1    1    2  502    0 -0.17494365711E+02  0.12082160938E+03  0.14813230784E+04  0.14962640063E+04  0.17200000000E+03 0. -1.
         -6    1    1    2    0  501  0.17494365711E+02 -0.12082160938E+03  0.38401241173E+03  0.43812492110E+03  0.17200000000E+03 0.  1.
</event>
<event>
 4    1  0.3115421E-002  0.1792394E+03  0.7818608E-02  0.1168541E+00
         -2   -1    0    0    0  501 -0.00000000000E+00  0.00000000000E+00  0.90426368422E+02  0.90426368422E+02  0.00000000000E+00 0.  1.
          2   -1    0    0  502    0  0.00000000000E+00 -0.00000000000E+00 -0.75673985088E+03  0.75673985088E+03  0.00000000000E+00 0. -1.
          6    1    1    2  502    0  0.49627539630E+02 -0.89373841790E+01 -0.24634941021E+02  0.18092443131E+03  0.17200000000E+03 0.  1.
         -6    1    1    2    0  501 -0.49627539630E+02  0.89373841790E+01 -0.64167854144E+03  0.66624178799E+03  0.17200000000E+03 0. -1.
</event>
<event>
 4    1  0.3115421E-002  0.1774335E+03  0.7818608E-02  0.1170310E+00
          2   -1    0    0  502    0  0.00000000000E+00  0.00000000000E+00  0.39572434592E+03  0.39572434592E+03  0.00000000000E+00 0. -1.
         -2   -1    0    0    0  501 -0.00000000000E+00 -0.00000000000E+00 -0.10883930991E+03  0.10883930991E+03  0.00000000000E+00 0.  1.
          6    1    1    2  502    0 -0.37695673729E+02 -0.21855696188E+02  0.27429918902E+03  0.32668437424E+03  0.17200000000E+03 0. -1.
         -6    1    1    2    0  501  0.37695673729E+02  0.21855696188E+02  0.12585846988E+02  0.17787928159E+03  0.17200000000E+03 0.  1.
</event>
<event>
 4    1  0.3115421E-002  0.1804129E+03  0.7818608E-02  0.1167404E+00
          1   -1    0    0  502    0  0.00000000000E+00  0.00000000000E+00  0.47998005028E+03  0.47998005028E+03  0.00000000000E+00 0. -1.
         -1   -1    0    0    0  501 -0.00000000000E+00 -0.00000000000E+00 -0.81681273746E+02  0.81681273746E+02  0.00000000000E+00 0.  1.
          6    1    1    2  502    0  0.40203544172E+02  0.36721659907E+02  0.83432393355E+02  0.19877064555E+03  0.17200000000E+03 0.  1.
         -6    1    1    2    0  501 -0.40203544172E+02 -0.36721659907E+02  0.31486638318E+03  0.36289067848E+03  0.17200000000E+03 0.  1.
</event>
<event>
 4    1  0.3115421E-002  0.2090676E+03  0.7818608E-02  0.1142306E+00
         -2   -1    0    0    0  501 -0.00000000000E+00  0.00000000000E+00  0.15118071453E+04  0.15118071453E+04  0.00000000000E+00 0.  1.
          2   -1    0    0  502    0  0.00000000000E+00 -0.00000000000E+00 -0.32461114144E+02  0.32461114144E+02  0.00000000000E+00 0. -1.
          6    1    1    2  502    0 -0.99810129009E+02 -0.64522790533E+02  0.48435838057E+03  0.52755311883E+03  0.17200000000E+03 0. -1.
         -6    1    1    2    0  501  0.99810129009E+02  0.64522790533E+02  0.99498765061E+03  0.10167151406E+04  0.17200000000E+03 0.  1.
</event>
<event>
 4    1  0.3115421E-002  0.1874369E+03  0.7818608E-02  0.1160794E+00
         -1   -1    0    0    0  501 -0.00000000000E+00  0.00000000000E+00  0.30872532898E+03  0.30872532898E+03  0.00000000000E+00 0.  1.
          1   -1    0    0  502    0  0.00000000000E+00 -0.00000000000E+00 -0.37789694105E+03  0.37789694105E+03  0.00000000000E+00 0. -1.
          6    1    1    2  502    0  0.74209561968E+02  0.64451802627E+01 -0.32158706406E+03  0.37222417869E+03  0.17200000000E+03 0. -1.
         -6    1    1    2    0  501 -0.74209561968E+02 -0.64451802627E+01  0.25241545199E+03  0.31439809134E+03  0.17200000000E+03 0.  1.
</event>
<event>
 4    1  0.3115421E-002  0.2524309E+03  0.7818608E-02  0.1111778E+00
          1   -1    0    0  502    0  0.00000000000E+00  0.00000000000E+00  0.44002608510E+03  0.44002608510E+03  0.00000000000E+00 0. -1.
         -1   -1    0    0    0  501 -0.00000000000E+00 -0.00000000000E+00 -0.21495838158E+03  0.21495838158E+03  0.00000000000E+00 0.  1.
          6    1    1    2  502    0 -0.33114063991E+02  0.18177136310E+03 -0.74544809372E+02  0.26320770939E+03  0.17200000000E+03 0.  1.
         -6    1    1    2    0  501  0.33114063991E+02 -0.18177136310E+03  0.29961251289E+03  0.39177675729E+03  0.17200000000E+03 0.  1.
</event>
<event>
 4    1  0.3115421E-002  0.2876233E+03  0.7818608E-02  0.1091597E+00
         -2   -1    0    0    0  501 -0.00000000000E+00  0.00000000000E+00  0.80249543656E+02  0.80249543656E+02  0.00000000000E+00 0.  1.
          2   -1    0    0  502    0  0.00000000000E+00 -0.00000000000E+00 -0.11579920254E+04  0.11579920254E+04  0.00000000000E+00 0. -1.
          6    1    1    2  502    0 -0.41531873922E+02  0.22675596241E+03 -0.74399986906E+03  0.79766093561E+03  0.17200000000E+03 0. -1.
         -6    1    1    2    0  501  0.41531873922E+02 -0.22675596241E+03 -0.33374261266E+03  0.44058063342E+03  0.17200000000E+03 0.  1.
</event>
<event>
 4    1  0.3115421E-002  0.2311811E+03  0.7818608E-02  0.1125811E+00
         -1   -1    0    0    0  501 -0.00000000000E+00  0.00000000000E+00  0.12180444336E+03  0.12180444336E+03  0.00000000000E+00 0.  1.
          1   -1    0    0  502    0  0.00000000000E+00 -0.00000000000E+00 -0.70971496978E+03  0.70971496978E+03  0.00000000000E+00 0. -1.
          6    1    1    2  502    0  0.20709036393E+02  0.15307464990E+03 -0.55083932762E+03  0.59738486546E+03  0.17200000000E+03 0. -1.
         -6    1    1    2    0  501 -0.20709036393E+02 -0.15307464990E+03 -0.37071198802E+02  0.23413454767E+03  0.17200000000E+03 0.  1.
</event>
<event>
 4    1  0.3115421E-002  0.6801258E+03  0.7818608E-02  0.9751837E-01
          2   -1    0    0  502    0  0.00000000000E+00  0.00000000000E+00  0.18204006539E+04  0.18204006539E+04  0.00000000000E+00 0. -1.
         -2   -1    0    0    0  501 -0.00000000000E+00 -0.00000000000E+00 -0.25875683689E+03  0.25875683689E+03  0.00000000000E+00 0.  1.
          6    1    1    2  502    0  0.42447021549E+03 -0.50280421398E+03  0.92022473399E+03  0.11442834450E+04  0.17200000000E+03 0. -1.
         -6    1    1    2    0  501 -0.42447021549E+03  0.50280421398E+03  0.64141908299E+03  0.93487404577E+03  0.17200000000E+03 0.  1.
</event>
<event>
 4    1  0.3115421E-002  0.2122885E+03  0.7818608E-02  0.1139766E+00
         -2   -1    0    0    0  501 -0.00000000000E+00  0.00000000000E+00  0.32159594344E+03  0.32159594344E+03  0.00000000000E+00 0.  1.
          2   -1    0    0  502    0  0.00000000000E+00 -0.00000000000E+00 -0.15053690401E+03  0.15053690401E+03  0.00000000000E+00 0. -1.
          6    1    1    2  502    0  0.36746715675E+02 -0.11887846092E+03  0.23471547798E+02  0.21358212270E+03  0.17200000000E+03 0. -1.
         -6    1    1    2    0  501 -0.36746715675E+02  0.11887846092E+03  0.14758749163E+03  0.25855072475E+03  0.17200000000E+03 0.  1.
</event>
<event>
 4    1  0.3115421E-002  0.1739489E+03  0.7818608E-02  0.1173791E+00
         -1   -1    0    0    0  501 -0.00000000000E+00  0.00000000000E+00  0.10491456646E+03  0.10491456646E+03  0.00000000000E+00 0.  1.
          1   -1    0    0  502    0  0.00000000000E+00 -0.00000000000E+00 -0.18033932570E+04  0.18033932570E+04  0.00000000000E+00 0. -1.
          6    1    1    2  502    0  0.21948622847E+02 -0.13873271592E+02 -0.17237747673E+04  0.17325292661E+04  0.17200000000E+03 0. -1.
         -6    1    1    2    0  501 -0.21948622847E+02  0.13873271592E+02  0.25296076750E+02  0.17577855731E+03  0.17200000000E+03 0.  1.
</event>
<event>
 4    1  0.3115421E-002  0.2005974E+03  0.7818608E-02  0.1149236E+00
         -1   -1    0    0    0  501 -0.00000000000E+00  0.00000000000E+00  0.42033762760E+02  0.42033762760E+02  0.00000000000E+00 0.  1.
          1   -1    0    0  502    0  0.00000000000E+00 -0.00000000000E+00 -0.13764917534E+04  0.13764917534E+04  0.00000000000E+00 0. -1.
          6    1    1    2  502    0  0.44689042214E+02  0.93049551011E+02 -0.10586297713E+04  0.10774675504E+04  0.17200000000E+03 0. -1.
         -6    1    1    2    0  501 -0.44689042214E+02 -0.93049551011E+02 -0.27582821934E+03  0.34105796578E+03  0.17200000000E+03 0.  1.
</event>
<event>
 4    1  0.3115421E-002  0.6354891E+03  0.7818608E-02  0.9834395E-01
         -1   -1    0    0    0  501 -0.00000000000E+00  0.00000000000E+00  0.88652421752E+03  0.88652421752E+03  0.00000000000E+00 0.  1.
          1   -1    0    0  502    0  0.00000000000E+00 -0.00000000000E+00 -0.61444220422E+03  0.61444220422E+03  0.00000000000E+00 0. -1.
          6    1    1    2  502    0 -0.55854387903E+03  0.24958198730E+03 -0.24561022604E+03  0.68130082659E+03  0.17200000000E+03 0. -1.
         -6    1    1    2    0  501  0.55854387903E+03 -0.24958198730E+03  0.51769223934E+03  0.81966559514E+03  0.17200000000E+03 0.  1.
</event>
<event>
 4    1  0.3115421E-002  0.3876328E+03  0.7818608E-02  0.1048148E+00
         -2   -1    0    0    0  501 -0.00000000000E+00  0.00000000000E+00  0.52358039678E+02  0.52358039678E+02  0.00000000000E+00 0.  1.
          2   -1    0    0  502    0  0.00000000000E+00 -0.00000000000E+00 -0.32165427287E+04  0.32165427287E+04  0.00000000000E+00 0. -1.
          6    1    1    2  502    0 -0.37398652152E+02  0.34536429018E+03 -0.21186992300E+04  0.21538675863E+04  0.17200000000E+03 0. -1.
         -6    1    1    2    0  501  0.37398652152E+02 -0.34536429018E+03 -0.10454854590E+04  0.11150331821E+04  0.17200000000E+03 0.  1.
</event>
<event>
 4    1  0.3115421E-002  0.1883314E+03  0.7818608E-02  0.1159975E+00
         -2   -1    0    0    0  501 -0.00000000000E+00  0.00000000000E+00  0.18518886127E+03  0.18518886127E+03  0.00000000000E+00 0.  1.
          2   -1    0    0  502    0  0.00000000000E+00 -0.00000000000E+00 -0.61708293908E+03  0.61708293908E+03  0.00000000000E+00 0. -1.
          6    1    1    2  502    0 -0.52992526203E+02  0.55466289708E+02 -0.54906492489E+03  0.58046619959E+03  0.17200000000E+03 0. -1.
         -6    1    1    2    0  501  0.52992526203E+02 -0.55466289708E+02  0.11717084707E+03  0.22180560077E+03  0.17200000000E+03 0.  1.
</event>
<event>
 4    1  0.3115421E-002  0.1773182E+03  0.7818608E-02  0.1170424E+00
          2   -1    0    0  502    0  0.00000000000E+00  0.00000000000E+00  0.52742665496E+03  0.52742665496E+03  0.00000000000E+00 0. -1.
         -2   -1    0    0    0  501 -0.00000000000E+00 -0.00000000000E+00 -0.10457615503E+03  0.10457615503E+03  0.00000000000E+00 0.  1.
          6    1    1    2  502    0 -0.17135510423E+02 -0.39549018219E+02  0.41862948967E+03  0.45463435878E+03  0.17200000000E+03 0. -1.
         -6    1    1    2    0  501  0.17135510423E+02  0.39549018219E+02  0.42210102585E+01  0.17736845122E+03  0.17200000000E+03 0.  1.
</event>
<event>
 4    1  0.3115421E-002  0.2076206E+03  0.7818608E-02  0.1143464E+00
         -2   -1    0    0    0  501 -0.00000000000E+00  0.00000000000E+00  0.60128556038E+02  0.60128556038E+02  0.00000000000E+00 0.  1.
          2   -1    0    0  502    0  0.00000000000E+00 -0.00000000000E+00 -0.13254760273E+04  0.13254760273E+04  0.00000000000E+00 0. -1.
          6    1    1    2  502    0  0.12765748173E+02 -0.11558271673E+03 -0.16323404406E+03  0.26410543704E+03  0.17200000000E+03 0.  1.
         -6    1    1    2    0  501 -0.12765748173E+02  0.11558271673E+03 -0.11021134272E+04  0.11214991463E+04  0.17200000000E+03 0. -1.
</event>
<event>
 4    1  0.3115421E-002  0.2114816E+03  0.7818608E-02  0.1140398E+00
         -2   -1    0    0    0  501 -0.00000000000E+00  0.00000000000E+00  0.47803635852E+02  0.47803635852E+02  0.00000000000E+00 0.  1.
          2   -1    0    0  502    0  0.00000000000E+00 -0.00000000000E+00 -0.23248474070E+04  0.23248474070E+04  0.00000000000E+00 0. -1.
          6    1    1    2  502    0 -0.54334542329E+02 -0.11040023291E+03 -0.20555834612E+04  0.20664335992E+04  0.17200000000E+03 0. -1.
         -6    1    1    2    0  501  0.54334542329E+02  0.11040023291E+03 -0.22146030994E+03  0.30621744365E+03  0.17200000000E+03 0.  1.
</event>
<event>
 4    1  0.3115421E-002  0.1725377E+03  0.7818608E-02  0.1175227E+00
         -2   -1    0    0    0  501 -0.00000000000E+00  0.00000000000E+00  0.14701231421E+03  0.14701231421E+03  0.00000000000E+00 0.  1.
          2   -1    0    0  502    0  0.00000000000E+00 -0.00000000000E+00 -0.21144292305E+03  0.21144292305E+03  0.00000000000E+00 0. -1.
          6    1    1    2  502    0  0.70510389735E+00  0.13592822946E+02 -0.69084945501E+02  0.18585475970E+03  0.17200000000E+03 0. -1.
         -6    1    1    2    0  501 -0.70510389735E+00 -0.13592822946E+02  0.46543366620E+01  0.17260047757E+03  0.17200000000E+03 0.  1.
</event>
<event>
 4    1  0.3115421E-002  0.1963038E+03  0.7818608E-02  0.1152895E+00
          3   -1    0    0  502    0  0.00000000000E+00  0.00000000000E+00  0.56856798181E+03  0.56856798181E+03  0.00000000000E+00 0. -1.
         -3   -1    0    0    0  501 -0.00000000000E+00 -0.00000000000E+00 -0.12802767534E+03  0.12802767534E+03  0.00000000000E+00 0.  1.
          6    1    1    2  502    0  0.31187455369E+02  0.89322632700E+02  0.45920740611E+03  0.49940627941E+03  0.17200000000E+03 0. -1.
         -6    1    1    2    0  501 -0.31187455369E+02 -0.89322632700E+02 -0.18667099638E+02  0.19718937774E+03  0.17200000000E+03 0.  1.
</event>
<event>
 4    1  0.3115421E-002  0.3422014E+03  0.7818608E-02  0.1065862E+00
         -2   -1    0    0    0  501 -0.00000000000E+00  0.00000000000E+00  0.17168203917E+03  0.17168203917E+03  0.00000000000E+00 0.  1.
          2   -1    0    0  502    0  0.00000000000E+00 -0.00000000000E+00 -0.81135248089E+03  0.81135248089E+03  0.00000000000E+00 0. -1.
          6    1    1    2  502    0 -0.24639556688E+03  0.16372848872E+03 -0.12364464350E+03  0.36385407963E+03  0.17200000000E+03 0.  1.
         -6    1    1    2    0  501  0.24639556688E+03 -0.16372848872E+03 -0.51602579822E+03  0.61918044044E+03  0.17200000000E+03 0.  1.
</event>
<event>
 4    1  0.3115421E-002  0.2380728E+03  0.7818608E-02  0.1121083E+00
          2   -1    0    0  502    0  0.00000000000E+00  0.00000000000E+00  0.16807041407E+04  0.16807041407E+04  0.00000000000E+00 0. -1.
         -2   -1    0    0    0  501 -0.00000000000E+00 -0.00000000000E+00 -0.66913757323E+02  0.66913757323E+02  0.00000000000E+00 0.  1.
          6    1    1    2  502    0  0.15787323028E+03  0.46590968851E+02  0.19148280419E+03  0.30552305890E+03  0.17200000000E+03 0.  1.
         -6    1    1    2    0  501 -0.15787323028E+03 -0.46590968851E+02  0.14223075792E+04  0.14420948392E+04  0.17200000000E+03 0. -1.
</event>
<event>
 4    1  0.3115421E-002  0.1792554E+03  0.7818608E-02  0.1168526E+00
          2   -1    0    0  502    0  0.00000000000E+00  0.00000000000E+00  0.13002483539E+04  0.13002483539E+04  0.00000000000E+00 0. -1.
         -2   -1    0    0    0  501 -0.00000000000E+00 -0.00000000000E+00 -0.27744102268E+02  0.27744102268E+02  0.00000000000E+00 0.  1.
          6    1    1    2  502    0  0.27770530506E+02 -0.42157880236E+02  0.85574012445E+03  0.87431324468E+03  0.17200000000E+03 0. -1.
         -6    1    1    2    0  501 -0.27770530506E+02  0.42157880236E+02  0.41676412719E+03  0.45367921149E+03  0.17200000000E+03 0.  1.
</event>
<event>
 4    1  0.3115421E-002  0.3590672E+03  0.7818608E-02  0.1058954E+00
          1   -1    0    0  502    0  0.00000000000E+00  0.00000000000E+00  0.24481631319E+04  0.24481631319E+04  0.00000000000E+00 0. -1.
         -1   -1    0    0    0  501 -0.00000000000E+00 -0.00000000000E+00 -0.52664980339E+02  0.52664980339E+02  0.00000000000E+00 0.  1.
          6    1    1    2  502    0 -0.20313450176E+03 -0.24100134711E+03  0.11915312533E+04  0.12444581161E+04  0.17200000000E+03 0. -1.
         -6    1    1    2    0  501  0.20313450176E+03  0.24100134711E+03  0.12039668982E+04  0.12563699961E+04  0.17200000000E+03 0.  1.
</event>
<event>
 4    1  0.3115421E-002  0.5214530E+03  0.7818608E-02  0.1008326E+00
         -2   -1    0    0    0  501 -0.00000000000E+00  0.00000000000E+00  0.91095525436E+03  0.91095525436E+03  0.00000000000E+00 0.  1.
          2   -1    0    0  502    0  0.00000000000E+00 -0.00000000000E+00 -0.30838038898E+03  0.30838038898E+03  0.00000000000E+00 0. -1.
          6    1    1    2  502    0  0.48792635242E+03  0.65246771094E+02  0.41045729607E+03  0.66361770502E+03  0.17200000000E+03 0. -1.
         -6    1    1    2    0  501 -0.48792635242E+03 -0.65246771094E+02  0.19211756932E+03  0.55571793832E+03  0.17200000000E+03 0. -1.
</event>
<event>
 4    1  0.3115421E-002  0.2619364E+03  0.7818608E-02  0.1105985E+00
          1   -1    0    0  502    0  0.00000000000E+00  0.00000000000E+00  0.60010094348E+03  0.60010094348E+03  0.00000000000E+00 0. -1.
         -1   -1    0    0    0  501 -0.00000000000E+00 -0.00000000000E+00 -0.14071934138E+03  0.14071934138E+03  0.00000000000E+00 0.  1.
          6    1    1    2  502    0 -0.17426435962E+03  0.93051644283E+02  0.39009092127E+03  0.46987402822E+03  0.17200000000E+03 0.  1.
         -6    1    1    2    0  501  0.17426435962E+03 -0.93051644283E+02  0.69290680826E+02  0.27094625664E+03  0.17200000000E+03 0.  1.
</event>
<event>
 4    1  0.3115421E-002  0.3299448E+03  0.7818608E-02  0.1071161E+00
         -2   -1    0    0    0  501 -0.00000000000E+00  0.00000000000E+00  0.14288206973E+03  0.14288206973E+03  0.00000000000E+00 0.  1.
          2   -1    0    0  502    0  0.00000000000E+00 -0.00000000000E+00 -0.14881997873E+04  0.14881997873E+04  0.00000000000E+00 0. -1.
          6    1    1    2  502    0  0.13117453343E+03  0.24914414154E+03 -0.12423894212E+04  0.12854551861E+04  0.17200000000E+03 0. -1.
         -6    1    1    2    0  501 -0.13117453343E+03 -0.24914414154E+03 -0.10292829637E+03  0.34562667096E+03  0.17200000000E+03 0.  1.
</event>
<event>
 4    1  0.3115421E-002  0.2187613E+03  0.7818608E-02  0.1134810E+00
         -2   -1    0    0    0  501 -0.00000000000E+00  0.00000000000E+00  0.27784047322E+03  0.27784047322E+03  0.00000000000E+00 0.  1.
          2   -1    0    0  502    0  0.00000000000E+00 -0.00000000000E+00 -0.21267659225E+03  0.21267659225E+03  0.00000000000E+00 0. -1.
          6    1    1    2  502    0  0.48781526474E+02 -0.12606687292E+03  0.13951878863E+03  0.25946480716E+03  0.17200000000E+03 0. -1.
         -6    1    1    2    0  501 -0.48781526474E+02  0.12606687292E+03 -0.74354907668E+02  0.23105225830E+03  0.17200000000E+03 0.  1.
</event>
<event>
 4    1  0.3115421E-002  0.2035995E+03  0.7818608E-02  0.1146737E+00
         -1   -1    0    0    0  501 -0.00000000000E+00  0.00000000000E+00  0.73241161063E+02  0.73241161063E+02  0.00000000000E+00 0.  1.
          1   -1    0    0  502    0  0.00000000000E+00 -0.00000000000E+00 -0.99135865985E+03  0.99135865985E+03  0.00000000000E+00 0. -1.
          6    1    1    2  502    0  0.14751977905E+02  0.10794044087E+03 -0.11037577592E+03  0.23159354813E+03  0.17200000000E+03 0.  1.
         -6    1    1    2    0  501 -0.14751977905E+02 -0.10794044087E+03 -0.80774172286E+03  0.83300627278E+03  0.17200000000E+03 0. -1.
</event>
<event>
 4    1  0.3115421E-002  0.1733690E+03  0.7818608E-02  0.1174379E+00
          2   -1    0    0  502    0  0.00000000000E+00  0.00000000000E+00  0.20224963269E+04  0.20224963269E+04  0.00000000000E+00 0. -1.
         -2   -1    0    0    0  501 -0.00000000000E+00 -0.00000000000E+00 -0.17359348890E+02  0.17359348890E+02  0.00000000000E+00 0.  1.
          6    1    1    2  502    0 -0.21385991723E+02 -0.39304012037E+01  0.13894769088E+04  0.14002510092E+04  0.17200000000E+03 0. -1.
         -6    1    1    2    0  501  0.21385991723E+02  0.39304012037E+01  0.61566006919E+03  0.63960466656E+03  0.17200000000E+03 0.  1.
</event>
<event>
 4    1  0.3115421E-002  0.2112769E+03  0.7818608E-02  0.1140559E+00
         -1   -1    0    0    0  501 -0.00000000000E+00  0.00000000000E+00  0.63355644610E+03  0.63355644610E+03  0.00000000000E+00 0.  1.
          1   -1    0    0  502    0  0.00000000000E+00 -0.00000000000E+00 -0.72723130004E+02  0.72723130004E+02  0.00000000000E+00 0. -1.
          6    1    1    2  502    0 -0.10289460687E+03  0.66832767746E+02  0.34276696630E+03  0.40265011133E+03  0.17200000000E+03 0. -1.
         -6    1    1    2    0  501  0.10289460687E+03 -0.66832767746E+02  0.21806634980E+03  0.30362946478E+03  0.17200000000E+03 0.  1.
</event>
<event>
 4    1  0.3115421E-002  0.3244849E+03  0.7818608E-02  0.1073604E+00
         -4   -1    0    0    0  501 -0.00000000000E+00  0.00000000000E+00  0.53508669416E+03  0.53508669416E+03  0.00000000000E+00 0.  1.
          4   -1    0    0  502    0  0.00000000000E+00 -0.00000000000E+00 -0.20670857919E+03  0.20670857919E+03  0.00000000000E+00 0. -1.
          6    1    1    2  502    0 -0.14669561710E+03 -0.23278070347E+03  0.24550537504E+03  0.40689476423E+03  0.17200000000E+03 0. -1.
         -6    1    1    2    0  501  0.14669561710E+03  0.23278070347E+03  0.82872739933E+02  0.33490050912E+03  0.17200000000E+03 0.  1.
</event>
<event>
 4    1  0.3115421E-002  0.2208509E+03  0.7818608E-02  0.1133250E+00
         -1   -1    0    0    0  501 -0.00000000000E+00  0.00000000000E+00  0.47084513128E+02  0.47084513128E+02  0.00000000000E+00 0.  1.
          1   -1    0    0  502    0  0.00000000000E+00 -0.00000000000E+00 -0.16440510564E+04  0.16440510564E+04  0.00000000000E+00 0. -1.
          6    1    1    2  502    0  0.13030926901E+03 -0.47017198041E+02 -0.13127570993E+04  0.13312048393E+04  0.17200000000E+03 0. -1.
         -6    1    1    2    0  501 -0.13030926901E+03  0.47017198041E+02 -0.28420944400E+03  0.35993073023E+03  0.17200000000E+03 0.  1.
</event>
<event>
 4    1  0.3115421E-002  0.2624620E+03  0.7818608E-02  0.1105673E+00
          3   -1    0    0  502    0  0.00000000000E+00  0.00000000000E+00  0.30749063160E+03  0.30749063160E+03  0.00000000000E+00 0. -1.
         -3   -1    0    0    0  501 -0.00000000000E+00 -0.00000000000E+00 -0.26058678100E+03  0.26058678100E+03  0.00000000000E+00 0.  1.
          6    1    1    2  502    0 -0.18479753829E+03  0.71778482467E+02  0.12984212919E+03  0.29282291443E+03  0.17200000000E+03 0. -1.
         -6    1    1    2    0  501  0.18479753829E+03 -0.71778482467E+02 -0.82938278592E+02  0.27525449817E+03  0.17200000000E+03 0.  1.
</event>
<event>
 4    1  0.3115421E-002  0.1767838E+03  0.7818608E-02  0.1170952E+00
          1   -1    0    0  502    0  0.00000000000E+00  0.00000000000E+00  0.12578147611E+03  0.12578147611E+03  0.00000000000E+00 0. -1.
         -1   -1    0    0    0  501 -0.00000000000E+00 -0.00000000000E+00 -0.25368004945E+03  0.25368004945E+03  0.00000000000E+00 0.  1.
          6    1    1    2  502    0  0.10344007193E+02 -0.39516103548E+02 -0.36750543851E+02  0.18056335010E+03  0.17200000000E+03 0.  1.
         -6    1    1    2    0  501 -0.10344007193E+02  0.39516103548E+02 -0.91148029490E+02  0.19889817547E+03  0.17200000000E+03 0.  1.
</event>
<event>
 4    1  0.3115421E-002  0.2331209E+03  0.7818608E-02  0.1124462E+00
          2   -1    0    0  502    0  0.00000000000E+00  0.00000000000E+00  0.58607606950E+03  0.58607606950E+03  0.00000000000E+00 0. -1.
         -2   -1    0    0    0  501 -0.00000000000E+00 -0.00000000000E+00 -0.92832490945E+02  0.92832490945E+02  0.00000000000E+00 0.  1.
          6    1    1    2  502    0 -0.11256694561E+03 -0.10995473774E+03  0.25803827401E+03  0.34774863400E+03  0.17200000000E+03 0. -1.
         -6    1    1    2    0  501  0.11256694561E+03  0.10995473774E+03  0.23520530455E+03  0.33115992645E+03  0.17200000000E+03 0.  1.
</event>
<event>
 4    1  0.3115421E-002  0.3360053E+03  0.7818608E-02  0.1068510E+00
          2   -1    0    0  502    0  0.00000000000E+00  0.00000000000E+00  0.42372918234E+02  0.42372918234E+02  0.00000000000E+00 0. -1.
         -2   -1    0    0    0  501 -0.00000000000E+00 -0.00000000000E+00 -0.38564755928E+04  0.38564755928E+04  0.00000000000E+00 0.  1.
          6    1    1    2  502    0 -0.27379320560E+03 -0.91393973086E+02 -0.29908732346E+04  0.30096880707E+04  0.17200000000E+03 0.  1.
         -6    1    1    2    0  501  0.27379320560E+03  0.91393973086E+02 -0.82322944003E+03  0.88916044035E+03  0.17200000000E+03 0. -1.
</event>
<event>
 4    1  0.3115421E-002  0.1732648E+03  0.7818608E-02  0.1174485E+00
          1   -1    0    0  502    0  0.00000000000E+00  0.00000000000E+00  0.14355513047E+02  0.14355513047E+02  0.00000000000E+00 0. -1.
         -1   -1    0    0    0  501 -0.00000000000E+00 -0.00000000000E+00 -0.27939120552E+04  0.27939120552E+04  0.00000000000E+00 0.  1.
          6    1    1    2  502    0  0.13241076296E+02 -0.16166344963E+02 -0.20939549103E+04  0.21011110972E+04  0.17200000000E+03 0.  1.
         -6    1    1    2    0  501 -0.13241076296E+02  0.16166344963E+02 -0.68560163194E+03  0.70715647104E+03  0.17200000000E+03 0. -1.
</event>
<event>
 4    1  0.3115421E-002  0.2010986E+03  0.7818608E-02  0.1148815E+00
          2   -1    0    0  502    0  0.00000000000E+00  0.00000000000E+00  0.35702461797E+02  0.35702461797E+02  0.00000000000E+00 0. -1.
         -2   -1    0    0    0  501 -0.00000000000E+00 -0.00000000000E+00 -0.17398067722E+04  0.17398067722E+04  0.00000000000E+00 0.  1.
          6    1    1    2  502    0 -0.56533184416E+02 -0.87525217896E+02 -0.32764320098E+03  0.38443560170E+03  0.17200000000E+03 0. -1.
         -6    1    1    2    0  501  0.56533184416E+02  0.87525217896E+02 -0.13764611094E+04  0.13910736323E+04  0.17200000000E+03 0.  1.
</event>
<event>
 4    1  0.3115421E-002  0.4247195E+03  0.7818608E-02  0.1035541E+00
          2   -1    0    0  502    0  0.00000000000E+00  0.00000000000E+00  0.24159699737E+03  0.24159699737E+03  0.00000000000E+00 0. -1.
         -2   -1    0    0    0  501 -0.00000000000E+00 -0.00000000000E+00 -0.74877332630E+03  0.74877332630E+03  0.00000000000E+00 0.  1.
          6    1    1    2  502    0 -0.38768923562E+03 -0.22354919661E+02 -0.22717475937E+03  0.48165865210E+03  0.17200000000E+03 0.  1.
         -6    1    1    2    0  501  0.38768923562E+03  0.22354919661E+02 -0.28000156955E+03  0.50871167158E+03  0.17200000000E+03 0.  1.
</event>
<event>
 4    1  0.3115421E-002  0.1943319E+03  0.7818608E-02  0.1154611E+00
         -1   -1    0    0    0  501 -0.00000000000E+00  0.00000000000E+00  0.14268563863E+03  0.14268563863E+03  0.00000000000E+00 0.  1.
          1   -1    0    0  502    0  0.00000000000E+00 -0.00000000000E+00 -0.37501867353E+03  0.37501867353E+03  0.00000000000E+00 0. -1.
          6    1    1    2  502    0 -0.45726211121E+01 -0.90332696623E+02 -0.25657870417E+03  0.32186571172E+03  0.17200000000E+03 0. -1.
         -6    1    1    2    0  501  0.45726211121E+01  0.90332696623E+02  0.24245669276E+02  0.19583860044E+03  0.17200000000E+03 0.  1.
</event>
<event>
 4    1  0.3115421E-002  0.1736066E+03  0.7818608E-02  0.1174138E+00
         -2   -1    0    0    0  501 -0.00000000000E+00  0.00000000000E+00  0.44438865714E+02  0.44438865714E+02  0.00000000000E+00 0.  1.
          2   -1    0    0  502    0  0.00000000000E+00 -0.00000000000E+00 -0.16465729426E+04  0.16465729426E+04  0.00000000000E+00 0. -1.
          6    1    1    2  502    0 -0.23263184608E+02 -0.37531474389E+01 -0.14494675171E+04  0.14598271627E+04  0.17200000000E+03 0. -1.
         -6    1    1    2    0  501  0.23263184608E+02  0.37531474389E+01 -0.15266655972E+03  0.23118464553E+03  0.17200000000E+03 0.  1.
</event>
<event>
 4    1  0.3115421E-002  0.4908500E+03  0.7818608E-02  0.1016195E+00
         -2   -1    0    0    0  501 -0.00000000000E+00  0.00000000000E+00  0.78143589224E+02  0.78143589224E+02  0.00000000000E+00 0.  1.
          2   -1    0    0  502    0  0.00000000000E+00 -0.00000000000E+00 -0.32970592468E+04  0.32970592468E+04  0.00000000000E+00 0. -1.
          6    1    1    2  502    0 -0.42330072498E+03  0.17934935357E+03 -0.20392441500E+04  0.20974866860E+04  0.17200000000E+03 0. -1.
         -6    1    1    2    0  501  0.42330072498E+03 -0.17934935357E+03 -0.11796715075E+04  0.12777161501E+04  0.17200000000E+03 0.  1.
</event>
<event>
 4    1  0.3115421E-002  0.1741054E+03  0.7818608E-02  0.1173633E+00
         -1   -1    0    0    0  501 -0.00000000000E+00  0.00000000000E+00  0.28386224523E+03  0.28386224523E+03  0.00000000000E+00 0.  1.
          1   -1    0    0  502    0  0.00000000000E+00 -0.00000000000E+00 -0.11235799312E+03  0.11235799312E+03  0.00000000000E+00 0. -1.
          6    1    1    2  502    0  0.25630684423E+02 -0.84717324932E+01  0.12986690177E+03  0.21720523569E+03  0.17200000000E+03 0.  1.
         -6    1    1    2    0  501 -0.25630684423E+02  0.84717324932E+01  0.41637350340E+02  0.17901500266E+03  0.17200000000E+03 0. -1.
</event>
<event>
 4    1  0.3115421E-002  0.1891184E+03  0.7818608E-02  0.1159259E+00
          2   -1    0    0  502    0  0.00000000000E+00  0.00000000000E+00  0.40117400187E+02  0.40117400187E+02  0.00000000000E+00 0. -1.
         -2   -1    0    0    0  501 -0.00000000000E+00 -0.00000000000E+00 -0.95510415147E+03  0.95510415147E+03  0.00000000000E+00 0.  1.
          6    1    1    2  502    0  0.38354837888E+02 -0.68634480135E+02 -0.58587756287E+03  0.61564462487E+03  0.17200000000E+03 0.  1.
         -6    1    1    2    0  501 -0.38354837888E+02  0.68634480135E+02 -0.32910918841E+03  0.37957692679E+03  0.17200000000E+03 0. -1.
</event>
<event>
 4    1  0.3115421E-002  0.2512694E+03  0.7818608E-02  0.1112505E+00
          2   -1    0    0  502    0  0.00000000000E+00  0.00000000000E+00  0.13004996049E+04  0.13004996049E+04  0.00000000000E+00 0. -1.
         -2   -1    0    0    0  501 -0.00000000000E+00 -0.00000000000E+00 -0.57574400631E+02  0.57574400631E+02  0.00000000000E+00 0.  1.
          6    1    1    2  502    0  0.11993418067E+03  0.13844888754E+03  0.89033273046E+03  0.92511008701E+03  0.17200000000E+03 0. -1.
         -6    1    1    2    0  501 -0.11993418067E+03 -0.13844888754E+03  0.35259247379E+03  0.43296391850E+03  0.17200000000E+03 0.  1.
</event>
<event>
 4    1  0.3115421E-002  0.2677198E+03  0.7818608E-02  0.1102592E+00
         -2   -1    0    0    0  501 -0.00000000000E+00  0.00000000000E+00  0.14289422584E+03  0.14289422584E+03  0.00000000000E+00 0.  1.
          2   -1    0    0  502    0  0.00000000000E+00 -0.00000000000E+00 -0.56601998126E+03  0.56601998126E+03  0.00000000000E+00 0. -1.
          6    1    1    2  502    0 -0.11114628872E+03 -0.17244249301E+03 -0.33115465782E+03  0.42583719693E+03  0.17200000000E+03 0.  1.
         -6    1    1    2    0  501  0.11114628872E+03  0.17244249301E+03 -0.91971097598E+02  0.28307701017E+03  0.17200000000E+03 0.  1.
</event>
<event>
 4    1  0.3115421E-002  0.2970227E+03  0.7818608E-02  0.1086738E+00
         -1   -1    0    0    0  501 -0.00000000000E+00  0.00000000000E+00  0.22905353982E+03  0.22905353982E+03  0.00000000000E+00 0.  1.
          1   -1    0    0  502    0  0.00000000000E+00 -0.00000000000E+00 -0.55978921284E+03  0.55978921284E+03  0.00000000000E+00 0. -1.
          6    1    1    2  502    0  0.94329702444E+02 -0.22302555271E+03 -0.38566321643E+03  0.48678394225E+03  0.17200000000E+03 0. -1.
         -6    1    1    2    0  501 -0.94329702444E+02  0.22302555271E+03  0.54927543404E+02  0.30205881041E+03  0.17200000000E+03 0.  1.
</event>
<event>
 4    1  0.3115421E-002  0.1976096E+03  0.7818608E-02  0.1151772E+00
         -2   -1    0    0    0  501 -0.00000000000E+00  0.00000000000E+00  0.76104861732E+03  0.76104861732E+03  0.00000000000E+00 0.  1.
          2   -1    0    0  502    0  0.00000000000E+00 -0.00000000000E+00 -0.53782454864E+02  0.53782454864E+02  0.00000000000E+00 0. -1.
          6    1    1    2  502    0 -0.27153817280E+02 -0.93424892251E+02  0.44098366209E+03  0.48323506755E+03  0.17200000000E+03 0. -1.
         -6    1    1    2    0  501  0.27153817280E+02  0.93424892251E+02  0.26628250037E+03  0.33159600463E+03  0.17200000000E+03 0.  1.
</event>
<event>
 4    1  0.3115421E-002  0.1795913E+03  0.7818608E-02  0.1168199E+00
         -2   -1    0    0    0  501 -0.00000000000E+00  0.00000000000E+00  0.30379503409E+02  0.30379503409E+02  0.00000000000E+00 0.  1.
          2   -1    0    0  502    0  0.00000000000E+00 -0.00000000000E+00 -0.12374844709E+04  0.12374844709E+04  0.00000000000E+00 0. -1.
          6    1    1    2  502    0  0.36863966168E+02  0.36195035555E+02 -0.84249810214E+03  0.86142677269E+03  0.17200000000E+03 0. -1.
         -6    1    1    2    0  501 -0.36863966168E+02 -0.36195035555E+02 -0.36460686540E+03  0.40643720166E+03  0.17200000000E+03 0.  1.
</event>
<event>
 4    1  0.3115421E-002  0.3900970E+03  0.7818608E-02  0.1047264E+00
         -1   -1    0    0    0  501 -0.00000000000E+00  0.00000000000E+00  0.23307595162E+03  0.23307595162E+03  0.00000000000E+00 0.  1.
          1   -1    0    0  502    0  0.00000000000E+00 -0.00000000000E+00 -0.68514290006E+03  0.68514290006E+03  0.00000000000E+00 0. -1.
          6    1    1    2  502    0 -0.33562815478E+03  0.99726602481E+02 -0.32562723643E+03  0.50814245112E+03  0.17200000000E+03 0. -1.
         -6    1    1    2    0  501  0.33562815478E+03 -0.99726602481E+02 -0.12643971201E+03  0.41007640056E+03  0.17200000000E+03 0.  1.
</event>
<event>
 4    1  0.3115421E-002  0.2390291E+03  0.7818608E-02  0.1120441E+00
         -2   -1    0    0    0  501 -0.00000000000E+00  0.00000000000E+00  0.24490637407E+02  0.24490637407E+02  0.00000000000E+00 0.  1.
          2   -1    0    0  502    0  0.00000000000E+00 -0.00000000000E+00 -0.23956833049E+04  0.23956833049E+04  0.00000000000E+00 0. -1.
          6    1    1    2  502    0  0.13317332738E+03 -0.99074543841E+02 -0.13814475031E+04  0.14019743593E+04  0.17200000000E+03 0. -1.
         -6    1    1    2    0  501 -0.13317332738E+03  0.99074543841E+02 -0.98974516441E+03  0.10181995830E+04  0.17200000000E+03 0.  1.
</event>
<event>
 4    1  0.3115421E-002  0.1861197E+03  0.7818608E-02  0.1162008E+00
         -1   -1    0    0    0  501 -0.00000000000E+00  0.00000000000E+00  0.99886014255E+02  0.99886014255E+02  0.00000000000E+00 0.  1.
          1   -1    0    0  502    0  0.00000000000E+00 -0.00000000000E+00 -0.35862866516E+03  0.35862866516E+03  0.00000000000E+00 0. -1.
          6    1    1    2  502    0 -0.65824501565E+02 -0.26901153543E+02 -0.87736548331E+02  0.20576257916E+03  0.17200000000E+03 0. -1.
         -6    1    1    2    0  501  0.65824501565E+02  0.26901153543E+02 -0.17100610258E+03  0.25275210026E+03  0.17200000000E+03 0. -1.
</event>
<event>
 4    1  0.3115421E-002  0.1732793E+03  0.7818608E-02  0.1174471E+00
         -1   -1    0    0    0  501 -0.00000000000E+00  0.00000000000E+00  0.11884098376E+03  0.11884098376E+03  0.00000000000E+00 0.  1.
          1   -1    0    0  502    0  0.00000000000E+00 -0.00000000000E+00 -0.28706282029E+03  0.28706282029E+03  0.00000000000E+00 0. -1.
          6    1    1    2  502    0  0.18854250911E+02  0.92857184600E+01 -0.13846331930E+02  0.17383160890E+03  0.17200000000E+03 0.  1.
         -6    1    1    2    0  501 -0.18854250911E+02 -0.92857184600E+01 -0.15437550460E+03  0.23207219516E+03  0.17200000000E+03 0. -1.
</event>
<event>
 4    1  0.3115421E-002  0.1735557E+03  0.7818608E-02  0.1174190E+00
         -1   -1    0    0    0  501 -0.00000000000E+00  0.00000000000E+00  0.69980061496E+02  0.69980061496E+02  0.00000000000E+00 0.  1.
          1   -1    0    0  502    0  0.00000000000E+00 -0.00000000000E+00 -0.87214846978E+03  0.87214846978E+03  0.00000000000E+00 0. -1.
          6    1    1    2  502    0  0.16459706300E+02 -0.16329830347E+02 -0.73632530240E+03  0.75650283294E+03  0.17200000000E+03 0. -1.
         -6    1    1    2    0  501 -0.16459706300E+02  0.16329830347E+02 -0.65843105885E+02  0.18562569834E+03  0.17200000000E+03 0.  1.
</event>
<event>
 4    1  0.3115421E-002  0.2426158E+03  0.7818608E-02  0.1118062E+00
         -2   -1    0    0    0  501 -0.00000000000E+00  0.00000000000E+00  0.20258842501E+03  0.20258842501E+03  0.00000000000E+00 0.  1.
          2   -1    0    0  502    0  0.00000000000E+00 -0.00000000000E+00 -0.56564441021E+03  0.56564441021E+03  0.00000000000E+00 0. -1.
          6    1    1    2  502    0  0.17002038035E+03 -0.19274144720E+02 -0.44940202649E+03  0.51070990181E+03  0.17200000000E+03 0. -1.
         -6    1    1    2    0  501 -0.17002038035E+03  0.19274144720E+02  0.86346041289E+02  0.25752293342E+03  0.17200000000E+03 0.  1.
</event>
<event>
 4    1  0.3115421E-002  0.4648181E+03  0.7818608E-02  0.1023393E+00
          2   -1    0    0  502    0  0.00000000000E+00  0.00000000000E+00  0.15430033516E+04  0.15430033516E+04  0.00000000000E+00 0. -1.
         -2   -1    0    0    0  501 -0.00000000000E+00 -0.00000000000E+00 -0.14757262417E+03  0.14757262417E+03  0.00000000000E+00 0.  1.
          6    1    1    2  502    0  0.34638106654E+03  0.25786048623E+03  0.88890574638E+03  0.10030998453E+04  0.17200000000E+03 0. -1.
         -6    1    1    2    0  501 -0.34638106654E+03 -0.25786048623E+03  0.50652498108E+03  0.68747613055E+03  0.17200000000E+03 0.  1.
</event>
<event>
 4    1  0.3115421E-002  0.2153499E+03  0.7818608E-02  0.1137398E+00
         -2   -1    0    0    0  501 -0.00000000000E+00  0.00000000000E+00  0.73704480857E+02  0.73704480857E+02  0.00000000000E+00 0.  1.
          2   -1    0    0  502    0  0.00000000000E+00 -0.00000000000E+00 -0.71472234953E+03  0.71472234953E+03  0.00000000000E+00 0. -1.
          6    1    1    2  502    0  0.12629672308E+02 -0.12896543894E+03 -0.18415199248E+03  0.28335057685E+03  0.17200000000E+03 0. -1.
         -6    1    1    2    0  501 -0.12629672308E+02  0.12896543894E+03 -0.45686587618E+03  0.50507625354E+03  0.17200000000E+03 0.  1.
</event>
<event>
 4    1  0.3115421E-002  0.2945408E+03  0.7818608E-02  0.1088002E+00
         -2   -1    0    0    0  501 -0.00000000000E+00  0.00000000000E+00  0.27538100453E+03  0.27538100453E+03  0.00000000000E+00 0.  1.
          2   -1    0    0  502    0  0.00000000000E+00 -0.00000000000E+00 -0.31518285212E+03  0.31518285212E+03  0.00000000000E+00 0. -1.
          6    1    1    2  502    0  0.23721524875E+03  0.29987275519E+02 -0.13478552878E+02  0.29484908398E+03  0.17200000000E+03 0.  1.
         -6    1    1    2    0  501 -0.23721524875E+03 -0.29987275519E+02 -0.26323294710E+02  0.29571477268E+03  0.17200000000E+03 0.  1.
</event>
<event>
 4    1  0.3115421E-002  0.2095817E+03  0.7818608E-02  0.1141898E+00
         -2   -1    0    0    0  501 -0.00000000000E+00  0.00000000000E+00  0.80383157872E+02  0.80383157872E+02  0.00000000000E+00 0.  1.
          2   -1    0    0  502    0  0.00000000000E+00 -0.00000000000E+00 -0.89857103853E+03  0.89857103853E+03  0.00000000000E+00 0. -1.
          6    1    1    2  502    0 -0.10830574515E+03 -0.51091491785E+02 -0.71550827069E+03  0.74557129800E+03  0.17200000000E+03 0. -1.
         -6    1    1    2    0  501  0.10830574515E+03  0.51091491785E+02 -0.10267960996E+03  0.23338289840E+03  0.17200000000E+03 0.  1.
</event>
<event>
 4    1  0.3115421E-002  0.1826501E+03  0.7818608E-02  0.1165263E+00
          4   -1    0    0  502    0  0.00000000000E+00  0.00000000000E+00  0.40301529749E+03  0.40301529749E+03  0.00000000000E+00 0. -1.
         -4   -1    0    0    0  501 -0.00000000000E+00 -0.00000000000E+00 -0.84839099407E+02  0.84839099407E+02  0.00000000000E+00 0.  1.
          6    1    1    2  502    0  0.60429053162E+02  0.11197204737E+02  0.19710239442E+03  0.26871993180E+03  0.17200000000E+03 0.  1.
         -6    1    1    2    0  501 -0.60429053162E+02 -0.11197204737E+02  0.12107380366E+03  0.21913446510E+03  0.17200000000E+03 0.  1.
</event>
<event>
 4    1  0.3115421E-002  0.4239685E+03  0.7818608E-02  0.1035782E+00
          2   -1    0    0  502    0  0.00000000000E+00  0.00000000000E+00  0.12555077994E+04  0.12555077994E+04  0.00000000000E+00 0. -1.
         -2   -1    0    0    0  501 -0.00000000000E+00 -0.00000000000E+00 -0.25221698310E+03  0.25221698310E+03  0.00000000000E+00 0.  1.
          6    1    1    2  502    0  0.23400338275E+03 -0.30888141351E+03  0.99734036793E+03  0.10837145013E+04  0.17200000000E+03 0. -1.
         -6    1    1    2    0  501 -0.23400338275E+03  0.30888141351E+03  0.59504483611E+01  0.42401028123E+03  0.17200000000E+03 0.  1.
</event>
<event>
 4    1  0.3115421E-002  0.2543249E+03  0.7818608E-02  0.1110602E+00
         -2   -1    0    0    0  501 -0.00000000000E+00  0.00000000000E+00  0.22345708434E+02  0.22345708434E+02  0.00000000000E+00 0.  1.
          2   -1    0    0  502    0  0.00000000000E+00 -0.00000000000E+00 -0.35151391700E+04  0.35151391700E+04  0.00000000000E+00 0. -1.
          6    1    1    2  502    0 -0.77524061365E+02 -0.17054955136E+03 -0.24895695299E+04  0.25025262384E+04  0.17200000000E+03 0. -1.
         -6    1    1    2    0  501  0.77524061365E+02  0.17054955136E+03 -0.10032239317E+04  0.10349586401E+04  0.17200000000E+03 0.  1.
</event>
<event>
 4    1  0.3115421E-002  0.2097318E+03  0.7818608E-02  0.1141779E+00
          1   -1    0    0  502    0  0.00000000000E+00  0.00000000000E+00  0.52940423490E+03  0.52940423490E+03  0.00000000000E+00 0. -1.
         -1   -1    0    0    0  501 -0.00000000000E+00 -0.00000000000E+00 -0.83463301102E+02  0.83463301102E+02  0.00000000000E+00 0.  1.
          6    1    1    2  502    0 -0.10338461960E+03  0.60951277070E+02  0.20243748199E+03  0.29149334788E+03  0.17200000000E+03 0.  1.
         -6    1    1    2    0  501  0.10338461960E+03 -0.60951277070E+02  0.24350345181E+03  0.32137418812E+03  0.17200000000E+03 0. -1.
</event>
<event>
 4    1  0.3115421E-002  0.1975169E+03  0.7818608E-02  0.1151851E+00
          2   -1    0    0  502    0  0.00000000000E+00  0.00000000000E+00  0.32886366752E+04  0.32886366752E+04  0.00000000000E+00 0. -1.
         -2   -1    0    0    0  501 -0.00000000000E+00 -0.00000000000E+00 -0.11997252911E+02  0.11997252911E+02  0.00000000000E+00 0.  1.
          6    1    1    2  502    0 -0.58846738042E+02  0.77239711967E+02  0.14637055836E+04  0.14769722228E+04  0.17200000000E+03 0. -1.
         -6    1    1    2    0  501  0.58846738042E+02 -0.77239711967E+02  0.18129338388E+04  0.18236617053E+04  0.17200000000E+03 0. -1.
</event>
<event>
 4    1  0.3115421E-002  0.2235007E+03  0.7818608E-02  0.1131300E+00
          2   -1    0    0  502    0  0.00000000000E+00  0.00000000000E+00  0.96403433199E+03  0.96403433199E+03  0.00000000000E+00 0. -1.
         -2   -1    0    0    0  501 -0.00000000000E+00 -0.00000000000E+00 -0.54268605172E+02  0.54268605172E+02  0.00000000000E+00 0.  1.
          6    1    1    2  502    0 -0.14159141586E+03 -0.17900552436E+02  0.56311897322E+03  0.60585108470E+03  0.17200000000E+03 0.  1.
         -6    1    1    2    0  501  0.14159141586E+03  0.17900552436E+02  0.34664675359E+03  0.41245185246E+03  0.17200000000E+03 0.  1.
</event>
<event>
 4    1  0.3115421E-002  0.2819526E+03  0.7818608E-02  0.1094627E+00
          1   -1    0    0  502    0  0.00000000000E+00  0.00000000000E+00  0.16057886852E+03  0.16057886852E+03  0.00000000000E+00 0. -1.
         -1   -1    0    0    0  501 -0.00000000000E+00 -0.00000000000E+00 -0.10303736386E+04  0.10303736386E+04  0.00000000000E+00 0.  1.
          6    1    1    2  502    0  0.58353743200E+02 -0.21565733906E+03 -0.56886790785E+01  0.28200994363E+03  0.17200000000E+03 0. -1.
         -6    1    1    2    0  501 -0.58353743200E+02  0.21565733906E+03 -0.86410609104E+03  0.90894256353E+03  0.17200000000E+03 0.  1.
</event>
<event>
 4    1  0.3115421E-002  0.6833152E+03  0.7818608E-02  0.9746199E-01
          2   -1    0    0  502    0  0.00000000000E+00  0.00000000000E+00  0.18126061036E+04  0.18126061036E+04  0.00000000000E+00 0. -1.
         -2   -1    0    0    0  501 -0.00000000000E+00 -0.00000000000E+00 -0.31461817494E+03  0.31461817494E+03  0.00000000000E+00 0.  1.
          6    1    1    2  502    0 -0.21483354376E+03  0.62544565658E+03  0.12018018998E+04  0.13824787619E+04  0.17200000000E+03 0. -1.
         -6    1    1    2    0  501  0.21483354376E+03 -0.62544565658E+03  0.29618602894E+03  0.74474551667E+03  0.17200000000E+03 0.  1.
</event>
<event>
 4    1  0.3115421E-002  0.2333120E+03  0.7818608E-02  0.1124330E+00
          2   -1    0    0  502    0  0.00000000000E+00  0.00000000000E+00  0.96424282425E+03  0.96424282425E+03  0.00000000000E+00 0. -1.
         -2   -1    0    0    0  501 -0.00000000000E+00 -0.00000000000E+00 -0.88156945241E+02  0.88156945241E+02  0.00000000000E+00 0.  1.
          6    1    1    2  502    0  0.94220752011E+02  0.12638406713E+03  0.75360047217E+03  0.78889045766E+03  0.17200000000E+03 0. -1.
         -6    1    1    2    0  501 -0.94220752011E+02 -0.12638406713E+03  0.12248540684E+03  0.26350931183E+03  0.17200000000E+03 0.  1.
</event>
<event>
 4    1  0.3115421E-002  0.2632970E+03  0.7818608E-02  0.1105178E+00
          2   -1    0    0  502    0  0.00000000000E+00  0.00000000000E+00  0.15491466574E+04  0.15491466574E+04  0.00000000000E+00 0. -1.
         -2   -1    0    0    0  501 -0.00000000000E+00 -0.00000000000E+00 -0.57467874482E+02  0.57467874482E+02  0.00000000000E+00 0.  1.
          6    1    1    2  502    0 -0.50327994787E+02 -0.19289473564E+03  0.36794915707E+03  0.45245095678E+03  0.17200000000E+03 0. -1.
         -6    1    1    2    0  501  0.50327994787E+02  0.19289473564E+03  0.11237296259E+04  0.11541635751E+04  0.17200000000E+03 0. -1.
</event>
<event>
 4    1  0.3115421E-002  0.5817572E+03  0.7818608E-02  0.9943994E-01
          1   -1    0    0  502    0  0.00000000000E+00  0.00000000000E+00  0.11333039882E+04  0.11333039882E+04  0.00000000000E+00 0. -1.
         -1   -1    0    0    0  501 -0.00000000000E+00 -0.00000000000E+00 -0.30456137106E+03  0.30456137106E+03  0.00000000000E+00 0.  1.
          6    1    1    2  502    0  0.55419321842E+03 -0.41560308706E+02  0.31406286636E+03  0.66111789163E+03  0.17200000000E+03 0. -1.
         -6    1    1    2    0  501 -0.55419321842E+03  0.41560308706E+02  0.51467975078E+03  0.77674746763E+03  0.17200000000E+03 0.  1.
</event>
<event>
 4    1  0.3115421E-002  0.1833481E+03  0.7818608E-02  0.1164602E+00
          4   -1    0    0  502    0  0.00000000000E+00  0.00000000000E+00  0.69214821675E+02  0.69214821675E+02  0.00000000000E+00 0. -1.
         -4   -1    0    0    0  501 -0.00000000000E+00 -0.00000000000E+00 -0.70324497924E+03  0.70324497924E+03  0.00000000000E+00 0.  1.
          6    1    1    2  502    0  0.46972706228E+02 -0.42732593575E+02 -0.10219078716E+03  0.20990346987E+03  0.17200000000E+03 0. -1.
         -6    1    1    2    0  501 -0.46972706228E+02  0.42732593575E+02 -0.53183937040E+03  0.56255633104E+03  0.17200000000E+03 0.  1.
</event>
<event>
 4    1  0.3115421E-002  0.2665312E+03  0.7818608E-02  0.1103281E+00
         -2   -1    0    0    0  501 -0.00000000000E+00  0.00000000000E+00  0.86609161552E+02  0.86609161552E+02  0.00000000000E+00 0.  1.
          2   -1    0    0  502    0  0.00000000000E+00 -0.00000000000E+00 -0.17834170524E+04  0.17834170524E+04  0.00000000000E+00 0. -1.
          6    1    1    2  502    0  0.14125808048E+03  0.14663231288E+03 -0.15355483217E+04  0.15585081100E+04  0.17200000000E+03 0. -1.
         -6    1    1    2    0  501 -0.14125808048E+03 -0.14663231288E+03 -0.16125956914E+03  0.31151810400E+03  0.17200000000E+03 0.  1.
</event>
<event>
 4    1  0.3115421E-002  0.4496276E+03  0.7818608E-02  0.1027833E+00
         -2   -1    0    0    0  501 -0.00000000000E+00  0.00000000000E+00  0.84058643945E+03  0.84058643945E+03  0.00000000000E+00 0.  1.
          2   -1    0    0  502    0  0.00000000000E+00 -0.00000000000E+00 -0.35832799696E+03  0.35832799696E+03  0.00000000000E+00 0. -1.
          6    1    1    2  502    0  0.37797735512E+03  0.17237765940E+03 -0.10261350766E+03  0.46118810739E+03  0.17200000000E+03 0. -1.
         -6    1    1    2    0  501 -0.37797735512E+03 -0.17237765940E+03  0.58487195015E+03  0.73772632901E+03  0.17200000000E+03 0.  1.
</event>
<event>
 4    1  0.3115421E-002  0.2264844E+03  0.7818608E-02  0.1129139E+00
          1   -1    0    0  502    0  0.00000000000E+00  0.00000000000E+00  0.20233085870E+04  0.20233085870E+04  0.00000000000E+00 0. -1.
         -1   -1    0    0    0  501 -0.00000000000E+00 -0.00000000000E+00 -0.43331460880E+02  0.43331460880E+02  0.00000000000E+00 0.  1.
          6    1    1    2  502    0  0.11792840023E+03 -0.88340583203E+02  0.16555988700E+04  0.16710184872E+04  0.17200000000E+03 0. -1.
         -6    1    1    2    0  501 -0.11792840023E+03  0.88340583203E+02  0.32437825606E+03  0.39562156062E+03  0.17200000000E+03 0.  1.
</event>
<event>
 4    1  0.3115421E-002  0.1993156E+03  0.7818608E-02  0.1150318E+00
          2   -1    0    0  502    0  0.00000000000E+00  0.00000000000E+00  0.18305054393E+03  0.18305054393E+03  0.00000000000E+00 0. -1.
         -2   -1    0    0    0  501 -0.00000000000E+00 -0.00000000000E+00 -0.32883078554E+03  0.32883078554E+03  0.00000000000E+00 0.  1.
          6    1    1    2  502    0 -0.39364135610E+02 -0.92699341608E+02  0.76349285344E+02  0.21343832008E+03  0.17200000000E+03 0. -1.
         -6    1    1    2    0  501  0.39364135610E+02  0.92699341608E+02 -0.22212952695E+03  0.29844300938E+03  0.17200000000E+03 0.  1.
</event>
<event>
 4    1  0.3115421E-002  0.3892646E+03  0.7818608E-02  0.1047562E+00
         -2   -1    0    0    0  501 -0.00000000000E+00  0.00000000000E+00  0.64557597361E+02  0.64557597361E+02  0.00000000000E+00 0.  1.
          2   -1    0    0  502    0  0.00000000000E+00 -0.00000000000E+00 -0.37566992122E+04  0.37566992122E+04  0.00000000000E+00 0. -1.
          6    1    1    2  502    0 -0.23831452201E+03 -0.25524332327E+03 -0.30164098839E+04  0.30414232775E+04  0.17200000000E+03 0. -1.
         -6    1    1    2    0  501  0.23831452201E+03  0.25524332327E+03 -0.67573173097E+03  0.77983353205E+03  0.17200000000E+03 0.  1.
</event>
<event>
 4    1  0.3115421E-002  0.2456277E+03  0.7818608E-02  0.1116100E+00
          2   -1    0    0  502    0  0.00000000000E+00  0.00000000000E+00  0.29744669830E+04  0.29744669830E+04  0.00000000000E+00 0. -1.
         -2   -1    0    0    0  501 -0.00000000000E+00 -0.00000000000E+00 -0.23044135209E+02  0.23044135209E+02  0.00000000000E+00 0.  1.
          6    1    1    2  502    0  0.86383467764E+02 -0.15260026542E+03  0.95697585471E+03  0.98799581527E+03  0.17200000000E+03 0.  1.
         -6    1    1    2    0  501 -0.86383467764E+02  0.15260026542E+03  0.19944469931E+04  0.20095153029E+04  0.17200000000E+03 0.  1.
</event>
<event>
 4    1  0.3115421E-002  0.2540371E+03  0.7818608E-02  0.1110780E+00
          1   -1    0    0  502    0  0.00000000000E+00  0.00000000000E+00  0.10407991420E+04  0.10407991420E+04  0.00000000000E+00 0. -1.
         -1   -1    0    0    0  501 -0.00000000000E+00 -0.00000000000E+00 -0.65711254040E+02  0.65711254040E+02  0.00000000000E+00 0.  1.
          6    1    1    2  502    0 -0.10474463515E+03 -0.15485279601E+03  0.35615194310E+03  0.43746889443E+03  0.17200000000E+03 0. -1.
         -6    1    1    2    0  501  0.10474463515E+03  0.15485279601E+03  0.61893594485E+03  0.66904150159E+03  0.17200000000E+03 0.  1.
</event>
<event>
 4    1  0.3115421E-002  0.3529156E+03  0.7818608E-02  0.1061425E+00
         -1   -1    0    0    0  501 -0.00000000000E+00  0.00000000000E+00  0.27592857663E+03  0.27592857663E+03  0.00000000000E+00 0.  1.
          1   -1    0    0  502    0  0.00000000000E+00 -0.00000000000E+00 -0.71128699754E+03  0.71128699754E+03  0.00000000000E+00 0. -1.
          6    1    1    2  502    0  0.88770804895E+02 -0.29510190060E+03 -0.51605686309E+03  0.62519122953E+03  0.17200000000E+03 0. -1.
         -6    1    1    2    0  501 -0.88770804895E+02  0.29510190060E+03  0.80698442182E+02  0.36202434464E+03  0.17200000000E+03 0.  1.
</event>
<event>
 4    1  0.3115421E-002  0.2741717E+03  0.7818608E-02  0.1098915E+00
          2   -1    0    0  502    0  0.00000000000E+00  0.00000000000E+00  0.16561364784E+04  0.16561364784E+04  0.00000000000E+00 0. -1.
         -2   -1    0    0    0  501 -0.00000000000E+00 -0.00000000000E+00 -0.55911018312E+02  0.55911018312E+02  0.00000000000E+00 0.  1.
          6    1    1    2  502    0  0.21753136397E+02  0.21239802952E+03  0.11714682109E+04  0.12031242209E+04  0.17200000000E+03 0. -1.
         -6    1    1    2    0  501 -0.21753136397E+02 -0.21239802952E+03  0.42875724922E+03  0.50892327580E+03  0.17200000000E+03 0.  1.
</event>
<event>
 4    1  0.3115421E-002  0.3098924E+03  0.7818608E-02  0.1080397E+00
         -2   -1    0    0    0  501 -0.00000000000E+00  0.00000000000E+00  0.15249279761E+03  0.15249279761E+03  0.00000000000E+00 0.  1.
          2   -1    0    0  502    0  0.00000000000E+00 -0.00000000000E+00 -0.62991018459E+03  0.62991018459E+03  0.00000000000E+00 0. -1.
          6    1    1    2  502    0 -0.14927965800E+03  0.21015449913E+03 -0.23259810761E+03  0.38747284997E+03  0.17200000000E+03 0. -1.
         -6    1    1    2    0  501  0.14927965800E+03 -0.21015449913E+03 -0.24481927936E+03  0.39493013223E+03  0.17200000000E+03 0.  1.
</event>
<event>
 4    1  0.3115421E-002  0.1734115E+03  0.7818608E-02  0.1174336E+00
          2   -1    0    0  502    0  0.00000000000E+00  0.00000000000E+00  0.15198866038E+02  0.15198866038E+02  0.00000000000E+00 0. -1.
         -2   -1    0    0    0  501 -0.00000000000E+00 -0.00000000000E+00 -0.20100694408E+04  0.20100694408E+04  0.00000000000E+00 0.  1.
          6    1    1    2  502    0  0.21996112538E+02  0.19255933158E+01 -0.11242640197E+04  0.11375592832E+04  0.17200000000E+03 0.  1.
         -6    1    1    2    0  501 -0.21996112538E+02 -0.19255933158E+01 -0.87060655514E+03  0.88770902368E+03  0.17200000000E+03 0. -1.
</event>
<event>
 4    1  0.3115421E-002  0.2121458E+03  0.7818608E-02  0.1139878E+00
         -1   -1    0    0    0  501 -0.00000000000E+00  0.00000000000E+00  0.14603109947E+02  0.14603109947E+02  0.00000000000E+00 0.  1.
          1   -1    0    0  502    0  0.00000000000E+00 -0.00000000000E+00 -0.31468065866E+04  0.31468065866E+04  0.00000000000E+00 0. -1.
          6    1    1    2  502    0 -0.11708354619E+03 -0.41391601705E+02 -0.13391433343E+04  0.13558431662E+04  0.17200000000E+03 0. -1.
         -6    1    1    2    0  501  0.11708354619E+03  0.41391601705E+02 -0.17930601424E+04  0.18055665304E+04  0.17200000000E+03 0. -1.
</event>
<event>
 4    1  0.3115421E-002  0.2882264E+03  0.7818608E-02  0.1091279E+00
          1   -1    0    0  502    0  0.00000000000E+00  0.00000000000E+00  0.71820930573E+03  0.71820930573E+03  0.00000000000E+00 0. -1.
         -1   -1    0    0    0  501 -0.00000000000E+00 -0.00000000000E+00 -0.17055348296E+03  0.17055348296E+03  0.00000000000E+00 0.  1.
          6    1    1    2  502    0 -0.11933315951E+03 -0.19811619518E+03  0.52591525045E+03  0.59971766724E+03  0.17200000000E+03 0. -1.
         -6    1    1    2    0  501  0.11933315951E+03  0.19811619518E+03  0.21740572320E+02  0.28904512145E+03  0.17200000000E+03 0.  1.
</event>
<event>
 4    1  0.3115421E-002  0.3964981E+03  0.7818608E-02  0.1044999E+00
         -1   -1    0    0    0  501 -0.00000000000E+00  0.00000000000E+00  0.15297619024E+03  0.15297619024E+03  0.00000000000E+00 0.  1.
          1   -1    0    0  502    0  0.00000000000E+00 -0.00000000000E+00 -0.10281154062E+04  0.10281154062E+04  0.00000000000E+00 0. -1.
          6    1    1    2  502    0 -0.22247533598E+03 -0.27952003005E+03 -0.44970871399E+03  0.59954036541E+03  0.17200000000E+03 0. -1.
         -6    1    1    2    0  501  0.22247533598E+03  0.27952003005E+03 -0.42543050200E+03  0.58155123106E+03  0.17200000000E+03 0.  1.
</event>
<event>
 4    1  0.3115421E-002  0.4251314E+03  0.7818608E-02  0.1035409E+00
          1   -1    0    0  502    0  0.00000000000E+00  0.00000000000E+00  0.30680635763E+04  0.30680635763E+04  0.00000000000E+00 0. -1.
         -1   -1    0    0    0  501 -0.00000000000E+00 -0.00000000000E+00 -0.14554883305E+03  0.14554883305E+03  0.00000000000E+00 0.  1.
          6    1    1    2  502    0  0.35802220801E+03 -0.15156769962E+03  0.27009609313E+04  0.27342140775E+04  0.17200000000E+03 0. -1.
         -6    1    1    2    0  501 -0.35802220801E+03  0.15156769962E+03  0.22155381188E+03  0.47939833182E+03  0.17200000000E+03 0.  1.
</event>
<event>
 4    1  0.3115421E-002  0.2802768E+03  0.7818608E-02  0.1095538E+00
          2   -1    0    0  502    0  0.00000000000E+00  0.00000000000E+00  0.30070195406E+03  0.30070195406E+03  0.00000000000E+00 0. -1.
         -2   -1    0    0    0  501 -0.00000000000E+00 -0.00000000000E+00 -0.62824012304E+03  0.62824012304E+03  0.00000000000E+00 0.  1.
          6    1    1    2  502    0 -0.19780390848E+03  0.99220440577E+02  0.19123184717E+03  0.33930031154E+03  0.17200000000E+03 0. -1.
         -6    1    1    2    0  501  0.19780390848E+03 -0.99220440577E+02 -0.51877001616E+03  0.58964176557E+03  0.17200000000E+03 0.  1.
</event>
<event>
 4    1  0.3115421E-002  0.1925341E+03  0.7818608E-02  0.1156195E+00
         -2   -1    0    0    0  501 -0.00000000000E+00  0.00000000000E+00  0.77805054875E+03  0.77805054875E+03  0.00000000000E+00 0.  1.
          2   -1    0    0  502    0  0.00000000000E+00 -0.00000000000E+00 -0.12228981988E+03  0.12228981988E+03  0.00000000000E+00 0. -1.
          6    1    1    2  502    0  0.86045891081E+02  0.90275112423E+01 -0.23829463616E+02  0.19400318211E+03  0.17200000000E+03 0. -1.
         -6    1    1    2    0  501 -0.86045891081E+02 -0.90275112423E+01  0.67959019249E+03  0.70633718652E+03  0.17200000000E+03 0.  1.
</event>
<event>
 4    1  0.3115421E-002  0.1973005E+03  0.7818608E-02  0.1152037E+00
          1   -1    0    0  502    0  0.00000000000E+00  0.00000000000E+00  0.25160502927E+03  0.25160502927E+03  0.00000000000E+00 0. -1.
         -1   -1    0    0    0  501 -0.00000000000E+00 -0.00000000000E+00 -0.15534846518E+03  0.15534846518E+03  0.00000000000E+00 0.  1.
          6    1    1    2  502    0 -0.96343784586E+02  0.78343425214E+01  0.35152410921E+02  0.20040756908E+03  0.17200000000E+03 0. -1.
         -6    1    1    2    0  501  0.96343784586E+02 -0.78343425214E+01  0.61104153176E+02  0.20654592537E+03  0.17200000000E+03 0. -1.
</event>
<event>
 4    1  0.3115421E-002  0.2252223E+03  0.7818608E-02  0.1130048E+00
         -1   -1    0    0    0  501 -0.00000000000E+00  0.00000000000E+00  0.60561957375E+02  0.60561957375E+02  0.00000000000E+00 0.  1.
          1   -1    0    0  502    0  0.00000000000E+00 -0.00000000000E+00 -0.89961884185E+03  0.89961884185E+03  0.00000000000E+00 0. -1.
          6    1    1    2  502    0 -0.40320046543E+02 -0.13969741570E+03 -0.54560934053E+03  0.59026657247E+03  0.17200000000E+03 0. -1.
         -6    1    1    2    0  501  0.40320046543E+02  0.13969741570E+03 -0.29344754394E+03  0.36991422675E+03  0.17200000000E+03 0.  1.
</event>
<event>
 4    1  0.3115421E-002  0.2439683E+03  0.7818608E-02  0.1117177E+00
         -1   -1    0    0    0  501 -0.00000000000E+00  0.00000000000E+00  0.94024162543E+03  0.94024162543E+03  0.00000000000E+00 0.  1.
          1   -1    0    0  502    0  0.00000000000E+00 -0.00000000000E+00 -0.89173995305E+02  0.89173995305E+02  0.00000000000E+00 0. -1.
          6    1    1    2  502    0  0.16961295897E+03 -0.34175788643E+02  0.70276649464E+03  0.74390946114E+03  0.17200000000E+03 0.  1.
         -6    1    1    2    0  501 -0.16961295897E+03  0.34175788643E+02  0.14830113548E+03  0.28550615960E+03  0.17200000000E+03 0. -1.
</event>
<event>
 4    1  0.3115421E-002  0.1977343E+03  0.7818608E-02  0.1151665E+00
          1   -1    0    0  502    0  0.00000000000E+00  0.00000000000E+00  0.62098654510E+02  0.62098654510E+02  0.00000000000E+00 0. -1.
         -1   -1    0    0    0  501 -0.00000000000E+00 -0.00000000000E+00 -0.70990862186E+03  0.70990862186E+03  0.00000000000E+00 0.  1.
          6    1    1    2  502    0  0.92951938529E+02 -0.29576839664E+02 -0.45371380853E+03  0.49492936099E+03  0.17200000000E+03 0.  1.
         -6    1    1    2    0  501 -0.92951938529E+02  0.29576839664E+02 -0.19409615882E+03  0.27707791537E+03  0.17200000000E+03 0. -1.
</event>
<event>
 4    1  0.3115421E-002  0.3588170E+03  0.7818608E-02  0.1059053E+00
         -1   -1    0    0    0  501 -0.00000000000E+00  0.00000000000E+00  0.16165472421E+03  0.16165472421E+03  0.00000000000E+00 0.  1.
          1   -1    0    0  502    0  0.00000000000E+00 -0.00000000000E+00 -0.83893359283E+03  0.83893359283E+03  0.00000000000E+00 0. -1.
          6    1    1    2  502    0  0.17120011173E+03  0.26430311791E+03 -0.45122465587E+03  0.57650091626E+03  0.17200000000E+03 0. -1.
         -6    1    1    2    0  501 -0.17120011173E+03 -0.26430311791E+03 -0.22605421275E+03  0.42408740077E+03  0.17200000000E+03 0.  1.
</event>
<event>
 4    1  0.3115421E-002  0.4185386E+03  0.7818608E-02  0.1037543E+00
         -1   -1    0    0    0  501 -0.00000000000E+00  0.00000000000E+00  0.26251427352E+03  0.26251427352E+03  0.00000000000E+00 0.  1.
          1   -1    0    0  502    0  0.00000000000E+00 -0.00000000000E+00 -0.92326641358E+03  0.92326641358E+03  0.00000000000E+00 0. -1.
          6    1    1    2  502    0  0.29983699105E+03  0.23598378284E+03 -0.64255691597E+03  0.76684676255E+03  0.17200000000E+03 0. -1.
         -6    1    1    2    0  501 -0.29983699105E+03 -0.23598378284E+03 -0.18195224093E+02  0.41893392456E+03  0.17200000000E+03 0.  1.
</event>
<event>
 4    1  0.3115421E-002  0.1941450E+03  0.7818608E-02  0.1154775E+00
          1   -1    0    0  502    0  0.00000000000E+00  0.00000000000E+00  0.40068779831E+03  0.40068779831E+03  0.00000000000E+00 0. -1.
         -1   -1    0    0    0  501 -0.00000000000E+00 -0.00000000000E+00 -0.95140835828E+02  0.95140835828E+02  0.00000000000E+00 0.  1.
          6    1    1    2  502    0  0.28099654875E+02  0.85549292972E+02  0.12645889146E+03  0.23169834562E+03  0.17200000000E+03 0.  1.
         -6    1    1    2    0  501 -0.28099654875E+02 -0.85549292972E+02  0.17908807102E+03  0.26413028852E+03  0.17200000000E+03 0.  1.
</event>
<event>
 4    1  0.3115421E-002  0.1796168E+03  0.7818608E-02  0.1168174E+00
         -1   -1    0    0    0  501 -0.00000000000E+00  0.00000000000E+00  0.42571791593E+02  0.42571791593E+02  0.00000000000E+00 0.  1.
          1   -1    0    0  502    0  0.00000000000E+00 -0.00000000000E+00 -0.93140763059E+03  0.93140763059E+03  0.00000000000E+00 0. -1.
          6    1    1    2  502    0  0.48976301865E+02 -0.16718552404E+02 -0.23418701790E+03  0.29513682842E+03  0.17200000000E+03 0.  1.
         -6    1    1    2    0  501 -0.48976301865E+02  0.16718552404E+02 -0.65464882110E+03  0.67884259377E+03  0.17200000000E+03 0. -1.
</event>
<event>
 4    1  0.3115421E-002  0.2447659E+03  0.7818608E-02  0.1116658E+00
         -1   -1    0    0    0  501 -0.00000000000E+00  0.00000000000E+00  0.19428081250E+03  0.19428081250E+03  0.00000000000E+00 0.  1.
          1   -1    0    0  502    0  0.00000000000E+00 -0.00000000000E+00 -0.55085920478E+03  0.55085920478E+03  0.00000000000E+00 0. -1.
          6    1    1    2  502    0  0.51178128578E+02  0.16645463537E+03 -0.42548091571E+03  0.49086083171E+03  0.17200000000E+03 0. -1.
         -6    1    1    2    0  501 -0.51178128578E+02 -0.16645463537E+03  0.68902523426E+02  0.25427918557E+03  0.17200000000E+03 0.  1.
</event>
<event>
 4    1  0.3115421E-002  0.1916085E+03  0.7818608E-02  0.1157019E+00
         -1   -1    0    0    0  501 -0.00000000000E+00  0.00000000000E+00  0.25471560961E+03  0.25471560961E+03  0.00000000000E+00 0.  1.
          1   -1    0    0  502    0  0.00000000000E+00 -0.00000000000E+00 -0.14699485715E+03  0.14699485715E+03  0.00000000000E+00 0. -1.
          6    1    1    2  502    0 -0.84231654525E+02  0.59031412776E+01  0.81868863977E+02  0.20836585514E+03  0.17200000000E+03 0.  1.
         -6    1    1    2    0  501  0.84231654525E+02 -0.59031412776E+01  0.25851888483E+02  0.19334461161E+03  0.17200000000E+03 0.  1.
</event>
<event>
 4    1  0.3115421E-002  0.1956986E+03  0.7818608E-02  0.1153420E+00
          2   -1    0    0  502    0  0.00000000000E+00  0.00000000000E+00  0.17058879065E+03  0.17058879065E+03  0.00000000000E+00 0. -1.
         -2   -1    0    0    0  501 -0.00000000000E+00 -0.00000000000E+00 -0.28899582163E+03  0.28899582163E+03  0.00000000000E+00 0.  1.
          6    1    1    2  502    0  0.86942276540E+02  0.33985138050E+02  0.49349122437E+02  0.20182488683E+03  0.17200000000E+03 0. -1.
         -6    1    1    2    0  501 -0.86942276540E+02 -0.33985138050E+02 -0.16775615341E+03  0.25775972546E+03  0.17200000000E+03 0.  1.
</event>
<event>
 4    1  0.3115421E-002  0.1804950E+03  0.7818608E-02  0.1167325E+00
         -1   -1    0    0    0  501 -0.00000000000E+00  0.00000000000E+00  0.13656000525E+03  0.13656000525E+03  0.00000000000E+00 0.  1.
          1   -1    0    0  502    0  0.00000000000E+00 -0.00000000000E+00 -0.24587264548E+03  0.24587264548E+03  0.00000000000E+00 0. -1.
          6    1    1    2  502    0 -0.27696607287E+02  0.47194740731E+02 -0.87621607378E+02  0.20063895855E+03  0.17200000000E+03 0. -1.
         -6    1    1    2    0  501  0.27696607287E+02 -0.47194740731E+02 -0.21691032853E+02  0.18179369217E+03  0.17200000000E+03 0. -1.
</event>
<event>
 4    1  0.3115421E-002  0.4220261E+03  0.7818608E-02  0.1036409E+00
          2   -1    0    0  502    0  0.00000000000E+00  0.00000000000E+00  0.58348997988E+03  0.58348997988E+03  0.00000000000E+00 0. -1.
         -2   -1    0    0    0  501 -0.00000000000E+00 -0.00000000000E+00 -0.48901647849E+03  0.48901647849E+03  0.00000000000E+00 0.  1.
          6    1    1    2  502    0  0.18104989664E+03  0.34021020919E+03  0.37597478710E+03  0.56521066165E+03  0.17200000000E+03 0. -1.
         -6    1    1    2    0  501 -0.18104989664E+03 -0.34021020919E+03 -0.28150128571E+03  0.50729579671E+03  0.17200000000E+03 0.  1.
</event>
<event>
 4    1  0.3115421E-002  0.3144892E+03  0.7818608E-02  0.1078214E+00
          1   -1    0    0  502    0  0.00000000000E+00  0.00000000000E+00  0.11475816416E+04  0.11475816416E+04  0.00000000000E+00 0. -1.
         -1   -1    0    0    0  501 -0.00000000000E+00 -0.00000000000E+00 -0.89635526584E+02  0.89635526584E+02  0.00000000000E+00 0.  1.
          6    1    1    2  502    0  0.15011842239E+03  0.21629592316E+03  0.65035819576E+03  0.72240518402E+03  0.17200000000E+03 0. -1.
         -6    1    1    2    0  501 -0.15011842239E+03 -0.21629592316E+03  0.40758791927E+03  0.51481198418E+03  0.17200000000E+03 0.  1.
</event>
<event>
 4    1  0.3115421E-002  0.2549670E+03  0.7818608E-02  0.1110205E+00
          2   -1    0    0  502    0  0.00000000000E+00  0.00000000000E+00  0.10420006307E+04  0.10420006307E+04  0.00000000000E+00 0. -1.
         -2   -1    0    0    0  501 -0.00000000000E+00 -0.00000000000E+00 -0.64028874258E+02  0.64028874258E+02  0.00000000000E+00 0.  1.
          6    1    1    2  502    0 -0.12990643340E+03 -0.13619287578E+03  0.40045270004E+03  0.47473207794E+03  0.17200000000E+03 0. -1.
         -6    1    1    2    0  501  0.12990643340E+03  0.13619287578E+03  0.57751905637E+03  0.63129742699E+03  0.17200000000E+03 0.  1.
</event>
<event>
 4    1  0.3115421E-002  0.1804813E+03  0.7818608E-02  0.1167338E+00
         -1   -1    0    0    0  501 -0.00000000000E+00  0.00000000000E+00  0.52266551313E+03  0.52266551313E+03  0.00000000000E+00 0.  1.
          1   -1    0    0  502    0  0.00000000000E+00 -0.00000000000E+00 -0.20317217800E+03  0.20317217800E+03  0.00000000000E+00 0. -1.
          6    1    1    2  502    0  0.30119621401E+02  0.45632425550E+02 -0.14242674615E+03  0.22991060844E+03  0.17200000000E+03 0. -1.
         -6    1    1    2    0  501 -0.30119621401E+02 -0.45632425550E+02  0.46192008128E+03  0.49592708269E+03  0.17200000000E+03 0.  1.
</event>
<event>
 4    1  0.3115421E-002  0.2349758E+03  0.7818608E-02  0.1123186E+00
          1   -1    0    0  502    0  0.00000000000E+00  0.00000000000E+00  0.54600429220E+03  0.54600429220E+03  0.00000000000E+00 0. -1.
         -1   -1    0    0    0  501 -0.00000000000E+00 -0.00000000000E+00 -0.46107185003E+03  0.46107185003E+03  0.00000000000E+00 0.  1.
          6    1    1    2  502    0 -0.17365953868E+02 -0.15914781804E+03  0.48737235109E+03  0.54105952811E+03  0.17200000000E+03 0. -1.
         -6    1    1    2    0  501  0.17365953868E+02  0.15914781804E+03 -0.40243990893E+03  0.46601661412E+03  0.17200000000E+03 0.  1.
</event>
<event>
 4    1  0.3115421E-002  0.1921718E+03  0.7818608E-02  0.1156517E+00
         -2   -1    0    0    0  501 -0.00000000000E+00  0.00000000000E+00  0.33083623113E+03  0.33083623113E+03  0.00000000000E+00 0.  1.
          2   -1    0    0  502    0  0.00000000000E+00 -0.00000000000E+00 -0.12240397483E+03  0.12240397483E+03  0.00000000000E+00 0. -1.
          6    1    1    2  502    0 -0.18917755597E+02  0.83594915152E+02  0.17146193739E+03  0.25754453457E+03  0.17200000000E+03 0.  1.
         -6    1    1    2    0  501  0.18917755597E+02 -0.83594915152E+02  0.36970318915E+02  0.19569567138E+03  0.17200000000E+03 0. -1.
</event>
<event>
 4    1  0.3115421E-002  0.1721198E+03  0.7818608E-02  0.1175655E+00
         -1   -1    0    0    0  501 -0.00000000000E+00  0.00000000000E+00  0.58275736679E+02  0.58275736679E+02  0.00000000000E+00 0.  1.
          1   -1    0    0  502    0  0.00000000000E+00 -0.00000000000E+00 -0.88166808832E+03  0.88166808832E+03  0.00000000000E+00 0. -1.
          6    1    1    2  502    0 -0.29976518935E+01 -0.56794984893E+01 -0.10588654773E+03  0.20208217044E+03  0.17200000000E+03 0.  1.
         -6    1    1    2    0  501  0.29976518935E+01  0.56794984893E+01 -0.71750580391E+03  0.73786165456E+03  0.17200000000E+03 0. -1.
</event>
<event>
 4    1  0.3115421E-002  0.2244158E+03  0.7818608E-02  0.1130633E+00
          2   -1    0    0  502    0  0.00000000000E+00  0.00000000000E+00  0.12531697557E+04  0.12531697557E+04  0.00000000000E+00 0. -1.
         -2   -1    0    0    0  501 -0.00000000000E+00 -0.00000000000E+00 -0.67357663557E+02  0.67357663557E+02  0.00000000000E+00 0.  1.
          6    1    1    2  502    0 -0.13204140288E+03 -0.57823040054E+02  0.10122455070E+04  0.10368237084E+04  0.17200000000E+03 0. -1.
         -6    1    1    2    0  501  0.13204140288E+03  0.57823040054E+02  0.17356658519E+03  0.28370371082E+03  0.17200000000E+03 0.  1.
</event>
<event>
 4    1  0.3115421E-002  0.1766854E+03  0.7818608E-02  0.1171050E+00
         -2   -1    0    0    0  501 -0.00000000000E+00  0.00000000000E+00  0.34441636204E+02  0.34441636204E+02  0.00000000000E+00 0.  1.
          2   -1    0    0  502    0  0.00000000000E+00 -0.00000000000E+00 -0.14190781016E+04  0.14190781016E+04  0.00000000000E+00 0. -1.
          6    1    1    2  502    0 -0.40050318139E+02 -0.54494798098E+01 -0.11291480906E+04  0.11428880677E+04  0.17200000000E+03 0. -1.
         -6    1    1    2    0  501  0.40050318139E+02  0.54494798098E+01 -0.25548837484E+03  0.31063167014E+03  0.17200000000E+03 0.  1.
</event>
<event>
 4    1  0.3115421E-002  0.2160889E+03  0.7818608E-02  0.1136833E+00
          1   -1    0    0  502    0  0.00000000000E+00  0.00000000000E+00  0.92565366373E+02  0.92565366373E+02  0.00000000000E+00 0. -1.
         -1   -1    0    0    0  501 -0.00000000000E+00 -0.00000000000E+00 -0.52245182019E+03  0.52245182019E+03  0.00000000000E+00 0.  1.
          6    1    1    2  502    0  0.50111185571E+02  0.12082752934E+03 -0.15785910615E+03  0.26760777298E+03  0.17200000000E+03 0. -1.
         -6    1    1    2    0  501 -0.50111185571E+02 -0.12082752934E+03 -0.27202734767E+03  0.34740941358E+03  0.17200000000E+03 0.  1.
</event>
<event>
 4    1  0.3115421E-002  0.2992672E+03  0.7818608E-02  0.1085608E+00
         -2   -1    0    0    0  501 -0.00000000000E+00  0.00000000000E+00  0.15218554306E+03  0.15218554306E+03  0.00000000000E+00 0.  1.
          2   -1    0    0  502    0  0.00000000000E+00 -0.00000000000E+00 -0.74016856443E+03  0.74016856443E+03  0.00000000000E+00 0. -1.
          6    1    1    2  502    0 -0.16252850246E+03  0.18319750999E+03 -0.49596436214E+03  0.57925943263E+03  0.17200000000E+03 0. -1.
         -6    1    1    2    0  501  0.16252850246E+03 -0.18319750999E+03 -0.92018659225E+02  0.31309467486E+03  0.17200000000E+03 0.  1.
</event>
<event>
 4    1  0.3115421E-002  0.2202551E+03  0.7818608E-02  0.1133693E+00
          2   -1    0    0  502    0  0.00000000000E+00  0.00000000000E+00  0.16159198762E+04  0.16159198762E+04  0.00000000000E+00 0. -1.
         -2   -1    0    0    0  501 -0.00000000000E+00 -0.00000000000E+00 -0.49949540178E+02  0.49949540178E+02  0.00000000000E+00 0.  1.
          6    1    1    2  502    0 -0.18814476900E+02  0.13628769524E+03  0.13090964677E+04  0.13274960949E+04  0.17200000000E+03 0. -1.
         -6    1    1    2    0  501  0.18814476900E+02 -0.13628769524E+03  0.25687386833E+03  0.33837332142E+03  0.17200000000E+03 0.  1.
</event>
<event>
 4    1  0.3115421E-002  0.4505688E+03  0.7818608E-02  0.1027553E+00
          2   -1    0    0  502    0  0.00000000000E+00  0.00000000000E+00  0.13182323706E+04  0.13182323706E+04  0.00000000000E+00 0. -1.
         -2   -1    0    0    0  501 -0.00000000000E+00 -0.00000000000E+00 -0.15560051856E+03  0.15560051856E+03  0.00000000000E+00 0.  1.
          6    1    1    2  502    0 -0.36671730286E+03  0.19734912286E+03  0.50665688717E+03  0.67802172371E+03  0.17200000000E+03 0. -1.
         -6    1    1    2    0  501  0.36671730286E+03 -0.19734912286E+03  0.65597496486E+03  0.79581116544E+03  0.17200000000E+03 0.  1.
</event>
<event>
 4    1  0.3115421E-002  0.1743187E+03  0.7818608E-02  0.1173417E+00
         -1   -1    0    0    0  501 -0.00000000000E+00  0.00000000000E+00  0.42852993029E+02  0.42852993029E+02  0.00000000000E+00 0.  1.
          1   -1    0    0  502    0  0.00000000000E+00 -0.00000000000E+00 -0.74605630127E+03  0.74605630127E+03  0.00000000000E+00 0. -1.
          6    1    1    2  502    0  0.28116615047E+02 -0.35330428546E+01 -0.26380867934E+03  0.31619937655E+03  0.17200000000E+03 0.  1.
         -6    1    1    2    0  501 -0.28116615047E+02  0.35330428546E+01 -0.43939462890E+03  0.47270991775E+03  0.17200000000E+03 0. -1.
</event>
<event>
 4    1  0.3115421E-002  0.2177490E+03  0.7818608E-02  0.1135572E+00
          1   -1    0    0  502    0  0.00000000000E+00  0.00000000000E+00  0.27139067534E+03  0.27139067534E+03  0.00000000000E+00 0. -1.
         -1   -1    0    0    0  501 -0.00000000000E+00 -0.00000000000E+00 -0.18486675609E+03  0.18486675609E+03  0.00000000000E+00 0.  1.
          6    1    1    2  502    0  0.22370677546E+02 -0.13164409128E+03  0.96734653907E+02  0.23826919073E+03  0.17200000000E+03 0. -1.
         -6    1    1    2    0  501 -0.22370677546E+02  0.13164409128E+03 -0.10210734649E+02  0.21798824070E+03  0.17200000000E+03 0.  1.
</event>
<event>
 4    1  0.3115421E-002  0.2513907E+03  0.7818608E-02  0.1112429E+00
         -3   -1    0    0    0  501 -0.00000000000E+00  0.00000000000E+00  0.62751044537E+02  0.62751044537E+02  0.00000000000E+00 0.  1.
          3   -1    0    0  502    0  0.00000000000E+00 -0.00000000000E+00 -0.15726837039E+04  0.15726837039E+04  0.00000000000E+00 0. -1.
          6    1    1    2  502    0 -0.11927113097E+03  0.13923970571E+03 -0.12453393436E+04  0.12704595149E+04  0.17200000000E+03 0.  1.
         -6    1    1    2    0  501  0.11927113097E+03 -0.13923970571E+03 -0.26459331573E+03  0.36497523349E+03  0.17200000000E+03 0.  1.
</event>
<event>
 4    1  0.3115421E-002  0.3378181E+03  0.7818608E-02  0.1067729E+00
         -2   -1    0    0    0  501 -0.00000000000E+00  0.00000000000E+00  0.10240357224E+03  0.10240357224E+03  0.00000000000E+00 0.  1.
          2   -1    0    0  502    0  0.00000000000E+00 -0.00000000000E+00 -0.11403871912E+04  0.11403871912E+04  0.00000000000E+00 0. -1.
          6    1    1    2  502    0  0.13229981252E+03 -0.25890892566E+03 -0.42523239613E+03  0.54308715957E+03  0.17200000000E+03 0. -1.
         -6    1    1    2    0  501 -0.13229981252E+03  0.25890892566E+03 -0.61275122288E+03  0.69970360391E+03  0.17200000000E+03 0.  1.
</event>
<event>
 4    1  0.3115421E-002  0.2922519E+03  0.7818608E-02  0.1089179E+00
         -2   -1    0    0    0  501 -0.00000000000E+00  0.00000000000E+00  0.30081248494E+03  0.30081248494E+03  0.00000000000E+00 0.  1.
          2   -1    0    0  502    0  0.00000000000E+00 -0.00000000000E+00 -0.30138925189E+03  0.30138925189E+03  0.00000000000E+00 0. -1.
          6    1    1    2  502    0 -0.15517049161E+03  0.17818337187E+03 -0.72748435446E+02  0.30117026802E+03  0.17200000000E+03 0. -1.
         -6    1    1    2    0  501  0.15517049161E+03 -0.17818337187E+03  0.72171668498E+02  0.30103146881E+03  0.17200000000E+03 0.  1.
</event>
<event>
 4    1  0.3115421E-002  0.2210725E+03  0.7818608E-02  0.1133086E+00
          1   -1    0    0  502    0  0.00000000000E+00  0.00000000000E+00  0.46216101514E+03  0.46216101514E+03  0.00000000000E+00 0. -1.
         -1   -1    0    0    0  501 -0.00000000000E+00 -0.00000000000E+00 -0.10965485404E+03  0.10965485404E+03  0.00000000000E+00 0.  1.
          6    1    1    2  502    0 -0.98189390357E+02 -0.98223799302E+02  0.12229337539E+03  0.25264350534E+03  0.17200000000E+03 0. -1.
         -6    1    1    2    0  501  0.98189390357E+02  0.98223799302E+02  0.23021278571E+03  0.31917236383E+03  0.17200000000E+03 0.  1.
</event>
<event>
 4    1  0.3115421E-002  0.3120983E+03  0.7818608E-02  0.1079344E+00
          2   -1    0    0  502    0  0.00000000000E+00  0.00000000000E+00  0.61488232222E+03  0.61488232222E+03  0.00000000000E+00 0. -1.
         -2   -1    0    0    0  501 -0.00000000000E+00 -0.00000000000E+00 -0.17558154281E+03  0.17558154281E+03  0.00000000000E+00 0.  1.
          6    1    1    2  502    0  0.11290802663E+03 -0.23467660073E+03  0.34323938595E+03  0.46391659323E+03  0.17200000000E+03 0. -1.
         -6    1    1    2    0  501 -0.11290802663E+03  0.23467660073E+03  0.96061393470E+02  0.32654727180E+03  0.17200000000E+03 0.  1.
</event>
<event>
 4    1  0.3115421E-002  0.1843260E+03  0.7818608E-02  0.1163681E+00
         -2   -1    0    0    0  501 -0.00000000000E+00  0.00000000000E+00  0.20192916672E+03  0.20192916672E+03  0.00000000000E+00 0.  1.
          2   -1    0    0  502    0  0.00000000000E+00 -0.00000000000E+00 -0.17538118944E+03  0.17538118944E+03  0.00000000000E+00 0. -1.
          6    1    1    2  502    0  0.12255140718E+02  0.65129766323E+02 -0.24747840794E+02  0.18597991977E+03  0.17200000000E+03 0. -1.
         -6    1    1    2    0  501 -0.12255140718E+02 -0.65129766323E+02  0.51295818082E+02  0.19133043639E+03  0.17200000000E+03 0.  1.
</event>
<event>
 4    1  0.3115421E-002  0.1997723E+03  0.7818608E-02  0.1149931E+00
          2   -1    0    0  502    0  0.00000000000E+00  0.00000000000E+00  0.23109497746E+03  0.23109497746E+03  0.00000000000E+00 0. -1.
         -2   -1    0    0    0  501 -0.00000000000E+00 -0.00000000000E+00 -0.23342277133E+03  0.23342277133E+03  0.00000000000E+00 0.  1.
          6    1    1    2  502    0 -0.77143589710E+02 -0.66135025880E+02  0.11730216329E+03  0.23166521663E+03  0.17200000000E+03 0. -1.
         -6    1    1    2    0  501  0.77143589710E+02  0.66135025880E+02 -0.11962995716E+03  0.23285253216E+03  0.17200000000E+03 0.  1.
</event>
<event>
 4    1  0.3115421E-002  0.2894831E+03  0.7818608E-02  0.1090619E+00
         -2   -1    0    0    0  501 -0.00000000000E+00  0.00000000000E+00  0.78548692135E+02  0.78548692135E+02  0.00000000000E+00 0.  1.
          2   -1    0    0  502    0  0.00000000000E+00 -0.00000000000E+00 -0.11375329239E+04  0.11375329239E+04  0.00000000000E+00 0. -1.
          6    1    1    2  502    0 -0.22768162826E+02  0.23172848401E+03 -0.37793497115E+03  0.47606230890E+03  0.17200000000E+03 0. -1.
         -6    1    1    2    0  501  0.22768162826E+02 -0.23172848401E+03 -0.68104926058E+03  0.74001930710E+03  0.17200000000E+03 0. -1.
</event>
<event>
 4    1  0.3115421E-002  0.4879174E+03  0.7818608E-02  0.1016982E+00
          2   -1    0    0  502    0  0.00000000000E+00  0.00000000000E+00  0.14159080676E+04  0.14159080676E+04  0.00000000000E+00 0. -1.
         -2   -1    0    0    0  501 -0.00000000000E+00 -0.00000000000E+00 -0.16830696943E+03  0.16830696943E+03  0.00000000000E+00 0.  1.
          6    1    1    2  502    0  0.36297882009E+03 -0.27699408539E+03  0.59846234903E+03  0.77215317806E+03  0.17200000000E+03 0. -1.
         -6    1    1    2    0  501 -0.36297882009E+03  0.27699408539E+03  0.64913874919E+03  0.81206185901E+03  0.17200000000E+03 0.  1.
</event>
<event>
 4    1  0.3115421E-002  0.1765739E+03  0.7818608E-02  0.1171161E+00
         -2   -1    0    0    0  501 -0.00000000000E+00  0.00000000000E+00  0.69205236823E+02  0.69205236823E+02  0.00000000000E+00 0.  1.
          2   -1    0    0  502    0  0.00000000000E+00 -0.00000000000E+00 -0.47640958375E+03  0.47640958375E+03  0.00000000000E+00 0. -1.
          6    1    1    2  502    0  0.34833142778E+01 -0.39776826408E+02 -0.14000612431E+03  0.22534427936E+03  0.17200000000E+03 0.  1.
         -6    1    1    2    0  501 -0.34833142778E+01  0.39776826408E+02 -0.26719822262E+03  0.32027054121E+03  0.17200000000E+03 0. -1.
</event>
<event>
 4    1  0.3115421E-002  0.4220203E+03  0.7818608E-02  0.1036411E+00
          2   -1    0    0  502    0  0.00000000000E+00  0.00000000000E+00  0.14823826749E+04  0.14823826749E+04  0.00000000000E+00 0. -1.
         -2   -1    0    0    0  501 -0.00000000000E+00 -0.00000000000E+00 -0.18829760376E+03  0.18829760376E+03  0.00000000000E+00 0.  1.
          6    1    1    2  502    0  0.12276713061E+03 -0.36530171171E+03  0.11495952915E+04  0.12246103230E+04  0.17200000000E+03 0. -1.
         -6    1    1    2    0  501 -0.12276713061E+03  0.36530171171E+03  0.14448977965E+03  0.44606995568E+03  0.17200000000E+03 0.  1.
</event>
<event>
 4    1  0.3115421E-002  0.3418522E+03  0.7818608E-02  0.1066010E+00
         -1   -1    0    0    0  501 -0.00000000000E+00  0.00000000000E+00  0.81201946703E+03  0.81201946703E+03  0.00000000000E+00 0.  1.
          1   -1    0    0  502    0  0.00000000000E+00 -0.00000000000E+00 -0.38175214162E+03  0.38175214162E+03  0.00000000000E+00 0. -1.
          6    1    1    2  502    0  0.17402439463E+03 -0.23873510801E+03 -0.25599447532E+03  0.42707857956E+03  0.17200000000E+03 0. -1.
         -6    1    1    2    0  501 -0.17402439463E+03  0.23873510801E+03  0.68626180073E+03  0.76669302910E+03  0.17200000000E+03 0.  1.
</event>
<event>
 4    1  0.3115421E-002  0.1837516E+03  0.7818608E-02  0.1164221E+00
         -1   -1    0    0    0  501 -0.00000000000E+00  0.00000000000E+00  0.18440674021E+03  0.18440674021E+03  0.00000000000E+00 0.  1.
          1   -1    0    0  502    0  0.00000000000E+00 -0.00000000000E+00 -0.21437692113E+03  0.21437692113E+03  0.00000000000E+00 0. -1.
          6    1    1    2  502    0  0.26837219268E+02 -0.58825231989E+02 -0.91147205848E+02  0.20511571707E+03  0.17200000000E+03 0.  1.
         -6    1    1    2    0  501 -0.26837219268E+02  0.58825231989E+02  0.61177024925E+02  0.19366794426E+03  0.17200000000E+03 0.  1.
</event>
<event>
 4    1  0.3115421E-002  0.2354610E+03  0.7818608E-02  0.1122854E+00
         -2   -1    0    0    0  501 -0.00000000000E+00  0.00000000000E+00  0.76725830943E+02  0.76725830943E+02  0.00000000000E+00 0.  1.
          2   -1    0    0  502    0  0.00000000000E+00 -0.00000000000E+00 -0.89193675684E+03  0.89193675684E+03  0.00000000000E+00 0. -1.
          6    1    1    2  502    0  0.15990884719E+03  0.16942387713E+02 -0.61864046219E+03  0.66193497065E+03  0.17200000000E+03 0. -1.
         -6    1    1    2    0  501 -0.15990884719E+03 -0.16942387713E+02 -0.19657046371E+03  0.30672761714E+03  0.17200000000E+03 0.  1.
</event>
<event>
 4    1  0.3115421E-002  0.3535411E+03  0.7818608E-02  0.1061171E+00
         -2   -1    0    0    0  501 -0.00000000000E+00  0.00000000000E+00  0.84112153644E+03  0.84112153644E+03  0.00000000000E+00 0.  1.
          2   -1    0    0  502    0  0.00000000000E+00 -0.00000000000E+00 -0.20340344248E+03  0.20340344248E+03  0.00000000000E+00 0. -1.
          6    1    1    2  502    0 -0.27203856684E+02 -0.30768041316E+03  0.47770821131E+02  0.35675388969E+03  0.17200000000E+03 0. -1.
         -6    1    1    2    0  501  0.27203856684E+02  0.30768041316E+03  0.58994727283E+03  0.68777108923E+03  0.17200000000E+03 0.  1.
</event>
<event>
 4    1  0.3115421E-002  0.1727782E+03  0.7818608E-02  0.1174981E+00
         -2   -1    0    0    0  501 -0.00000000000E+00  0.00000000000E+00  0.86196435686E+03  0.86196435686E+03  0.00000000000E+00 0.  1.
          2   -1    0    0  502    0  0.00000000000E+00 -0.00000000000E+00 -0.37967634026E+02  0.37967634026E+02  0.00000000000E+00 0. -1.
          6    1    1    2  502    0  0.12234095915E+02  0.10891136504E+02  0.27864431338E+03  0.32786421479E+03  0.17200000000E+03 0. -1.
         -6    1    1    2    0  501 -0.12234095915E+02 -0.10891136504E+02  0.54535240945E+03  0.57206777610E+03  0.17200000000E+03 0.  1.
</event>
<event>
 4    1  0.3115421E-002  0.2351536E+03  0.7818608E-02  0.1123064E+00
         -2   -1    0    0    0  501 -0.00000000000E+00  0.00000000000E+00  0.69968194905E+02  0.69968194905E+02  0.00000000000E+00 0.  1.
          2   -1    0    0  502    0  0.00000000000E+00 -0.00000000000E+00 -0.80536153263E+03  0.80536153263E+03  0.00000000000E+00 0. -1.
          6    1    1    2  502    0 -0.10456264607E+02  0.16001210591E+03 -0.42751081407E+03  0.48791669745E+03  0.17200000000E+03 0. -1.
         -6    1    1    2    0  501  0.10456264607E+02 -0.16001210591E+03 -0.30788252366E+03  0.38741303009E+03  0.17200000000E+03 0.  1.
</event>
<event>
 4    1  0.3115421E-002  0.2313988E+03  0.7818608E-02  0.1125659E+00
          2   -1    0    0  502    0  0.00000000000E+00  0.00000000000E+00  0.23731660368E+04  0.23731660368E+04  0.00000000000E+00 0. -1.
         -2   -1    0    0    0  501 -0.00000000000E+00 -0.00000000000E+00 -0.67796670569E+02  0.67796670569E+02  0.00000000000E+00 0.  1.
          6    1    1    2  502    0 -0.14135418735E+03 -0.63090224092E+02  0.21496007935E+04  0.21620196470E+04  0.17200000000E+03 0. -1.
         -6    1    1    2    0  501  0.14135418735E+03  0.63090224092E+02  0.15576857267E+03  0.27894306030E+03  0.17200000000E+03 0.  1.
</event>
<event>
 4    1  0.3115421E-002  0.3328123E+03  0.7818608E-02  0.1069899E+00
         -1   -1    0    0    0  501 -0.00000000000E+00  0.00000000000E+00  0.51246699906E+03  0.51246699906E+03  0.00000000000E+00 0.  1.
          1   -1    0    0  502    0  0.00000000000E+00 -0.00000000000E+00 -0.21921736960E+03  0.21921736960E+03  0.00000000000E+00 0. -1.
          6    1    1    2  502    0 -0.24855015746E+03  0.13929408435E+03  0.18997869445E+03  0.38321785847E+03  0.17200000000E+03 0. -1.
         -6    1    1    2    0  501  0.24855015746E+03 -0.13929408435E+03  0.10327093501E+03  0.34846651019E+03  0.17200000000E+03 0.  1.
</event>
<event>
 4    1  0.3115421E-002  0.3233070E+03  0.7818608E-02  0.1074137E+00
         -1   -1    0    0    0  501 -0.00000000000E+00  0.00000000000E+00  0.45263651228E+03  0.45263651228E+03  0.00000000000E+00 0.  1.
          1   -1    0    0  502    0  0.00000000000E+00 -0.00000000000E+00 -0.23420744348E+03  0.23420744348E+03  0.00000000000E+00 0. -1.
          6    1    1    2  502    0  0.53088321640E+01  0.27370648139E+03  0.14983873459E+03  0.35634122416E+03  0.17200000000E+03 0. -1.
         -6    1    1    2    0  501 -0.53088321640E+01 -0.27370648139E+03  0.68590334211E+02  0.33050273161E+03  0.17200000000E+03 0.  1.
</event>
<event>
 4    1  0.3115421E-002  0.1912529E+03  0.7818608E-02  0.1157336E+00
         -1   -1    0    0    0  501 -0.00000000000E+00  0.00000000000E+00  0.30429746441E+02  0.30429746441E+02  0.00000000000E+00 0.  1.
          1   -1    0    0  502    0  0.00000000000E+00 -0.00000000000E+00 -0.14832001918E+04  0.14832001918E+04  0.00000000000E+00 0. -1.
          6    1    1    2  502    0  0.41561783901E+02  0.72569288553E+02 -0.10558955257E+04  0.10730764393E+04  0.17200000000E+03 0. -1.
         -6    1    1    2    0  501 -0.41561783901E+02 -0.72569288553E+02 -0.39687491969E+03  0.44055349891E+03  0.17200000000E+03 0.  1.
</event>
<event>
 4    1  0.3115421E-002  0.2435300E+03  0.7818608E-02  0.1117463E+00
          1   -1    0    0  502    0  0.00000000000E+00  0.00000000000E+00  0.36014118360E+03  0.36014118360E+03  0.00000000000E+00 0. -1.
         -1   -1    0    0    0  501 -0.00000000000E+00 -0.00000000000E+00 -0.18167170606E+03  0.18167170606E+03  0.00000000000E+00 0.  1.
          6    1    1    2  502    0 -0.26184929812E+01  0.17238324219E+03  0.17209325769E+03  0.29819947692E+03  0.17200000000E+03 0. -1.
         -6    1    1    2    0  501  0.26184929812E+01 -0.17238324219E+03  0.63762198549E+01  0.24361341275E+03  0.17200000000E+03 0.  1.
</event>
<event>
 4    1  0.3115421E-002  0.3973150E+03  0.7818608E-02  0.1044713E+00
          2   -1    0    0  502    0  0.00000000000E+00  0.00000000000E+00  0.82399873493E+03  0.82399873493E+03  0.00000000000E+00 0. -1.
         -2   -1    0    0    0  501 -0.00000000000E+00 -0.00000000000E+00 -0.19908434815E+03  0.19908434815E+03  0.00000000000E+00 0.  1.
          6    1    1    2  502    0 -0.13461061212E+03  0.33189637737E+03  0.21312156442E+03  0.45086585969E+03  0.17200000000E+03 0. -1.
         -6    1    1    2    0  501  0.13461061212E+03 -0.33189637737E+03  0.41179282235E+03  0.57221722339E+03  0.17200000000E+03 0.  1.
</event>
<event>
 4    1  0.3115421E-002  0.2304379E+03  0.7818608E-02  0.1126332E+00
         -1   -1    0    0    0  501 -0.00000000000E+00  0.00000000000E+00  0.10314635982E+03  0.10314635982E+03  0.00000000000E+00 0.  1.
          1   -1    0    0  502    0  0.00000000000E+00 -0.00000000000E+00 -0.51508972471E+03  0.51508972471E+03  0.00000000000E+00 0. -1.
          6    1    1    2  502    0  0.88028139216E+02 -0.12557339002E+03 -0.21306809646E+03  0.31384652826E+03  0.17200000000E+03 0. -1.
         -6    1    1    2    0  501 -0.88028139216E+02  0.12557339002E+03 -0.19887526843E+03  0.30438955627E+03  0.17200000000E+03 0.  1.
</event>
<event>
 4    1  0.3115421E-002  0.4714276E+03  0.7818608E-02  0.1021518E+00
         -2   -1    0    0    0  501 -0.00000000000E+00  0.00000000000E+00  0.14568310618E+03  0.14568310618E+03  0.00000000000E+00 0.  1.
          2   -1    0    0  502    0  0.00000000000E+00 -0.00000000000E+00 -0.17376108393E+04  0.17376108393E+04  0.00000000000E+00 0. -1.
          6    1    1    2  502    0 -0.42474310963E+03 -0.11069431804E+03 -0.46698906992E+03  0.66356818237E+03  0.17200000000E+03 0. -1.
         -6    1    1    2    0  501  0.42474310963E+03  0.11069431804E+03 -0.11249386632E+04  0.12197257631E+04  0.17200000000E+03 0.  1.
</event>
<event>
 4    1  0.3115421E-002  0.2344449E+03  0.7818608E-02  0.1123550E+00
         -2   -1    0    0    0  501 -0.00000000000E+00  0.00000000000E+00  0.84062563631E+02  0.84062563631E+02  0.00000000000E+00 0.  1.
          2   -1    0    0  502    0  0.00000000000E+00 -0.00000000000E+00 -0.67389486907E+03  0.67389486907E+03  0.00000000000E+00 0. -1.
          6    1    1    2  502    0  0.15413666143E+03  0.40277970336E+02 -0.22955719131E+03  0.32811724943E+03  0.17200000000E+03 0.  1.
         -6    1    1    2    0  501 -0.15413666143E+03 -0.40277970336E+02 -0.36027511412E+03  0.42984018327E+03  0.17200000000E+03 0.  1.
</event>
<event>
 4    1  0.3115421E-002  0.3138150E+03  0.7818608E-02  0.1078532E+00
          2   -1    0    0  502    0  0.00000000000E+00  0.00000000000E+00  0.52007823525E+03  0.52007823525E+03  0.00000000000E+00 0. -1.
         -2   -1    0    0    0  501 -0.00000000000E+00 -0.00000000000E+00 -0.24383717576E+03  0.24383717576E+03  0.00000000000E+00 0.  1.
          6    1    1    2  502    0  0.26244115014E+03 -0.45293225398E+01  0.31866701112E+03  0.44724549861E+03  0.17200000000E+03 0. -1.
         -6    1    1    2    0  501 -0.26244115014E+03  0.45293225398E+01 -0.42425951636E+02  0.31666991240E+03  0.17200000000E+03 0.  1.
</event>
<event>
 4    1  0.3115421E-002  0.2342554E+03  0.7818608E-02  0.1123680E+00
         -2   -1    0    0    0  501 -0.00000000000E+00  0.00000000000E+00  0.22987147318E+03  0.22987147318E+03  0.00000000000E+00 0.  1.
          2   -1    0    0  502    0  0.00000000000E+00 -0.00000000000E+00 -0.64494325040E+03  0.64494325040E+03  0.00000000000E+00 0. -1.
          6    1    1    2  502    0  0.11721610900E+03 -0.10748010821E+03 -0.55467709097E+03  0.60211482718E+03  0.17200000000E+03 0. -1.
         -6    1    1    2    0  501 -0.11721610900E+03  0.10748010821E+03  0.13960531375E+03  0.27269989640E+03  0.17200000000E+03 0.  1.
</event>
<event>
 4    1  0.3115421E-002  0.1755033E+03  0.7818608E-02  0.1172227E+00
          3   -1    0    0  502    0  0.00000000000E+00  0.00000000000E+00  0.64405642607E+03  0.64405642607E+03  0.00000000000E+00 0. -1.
         -3   -1    0    0    0  501 -0.00000000000E+00 -0.00000000000E+00 -0.53625284872E+02  0.53625284872E+02  0.00000000000E+00 0.  1.
          6    1    1    2  502    0 -0.25798533111E+01  0.34795750590E+02  0.40995217562E+03  0.44593966654E+03  0.17200000000E+03 0. -1.
         -6    1    1    2    0  501  0.25798533111E+01 -0.34795750590E+02  0.18047896559E+03  0.25174204441E+03  0.17200000000E+03 0.  1.
</event>
<event>
 4    1  0.3115421E-002  0.1769885E+03  0.7818608E-02  0.1170750E+00
         -2   -1    0    0    0  501 -0.00000000000E+00  0.00000000000E+00  0.12504545950E+02  0.12504545950E+02  0.00000000000E+00 0.  1.
          2   -1    0    0  502    0  0.00000000000E+00 -0.00000000000E+00 -0.30017367970E+04  0.30017367970E+04  0.00000000000E+00 0. -1.
          6    1    1    2  502    0  0.13107656780E+02  0.39612261150E+02 -0.88157723292E+03  0.89916814863E+03  0.17200000000E+03 0.  1.
         -6    1    1    2    0  501 -0.13107656780E+02 -0.39612261150E+02 -0.21076550181E+04  0.21150731943E+04  0.17200000000E+03 0. -1.
</event>
<event>
 4    1  0.3115421E-002  0.1811148E+03  0.7818608E-02  0.1166728E+00
         -2   -1    0    0    0  501 -0.00000000000E+00  0.00000000000E+00  0.65652133584E+02  0.65652133584E+02  0.00000000000E+00 0.  1.
          2   -1    0    0  502    0  0.00000000000E+00 -0.00000000000E+00 -0.49975706370E+03  0.49975706370E+03  0.00000000000E+00 0. -1.
          6    1    1    2  502    0 -0.56477271063E+02 -0.53762421023E+01 -0.22133564426E+03  0.28599310052E+03  0.17200000000E+03 0. -1.
         -6    1    1    2    0  501  0.56477271063E+02  0.53762421023E+01 -0.21276928585E+03  0.27941609676E+03  0.17200000000E+03 0. -1.
</event>
<event>
 4    1  0.3115421E-002  0.4570440E+03  0.7818608E-02  0.1025642E+00
          1   -1    0    0  502    0  0.00000000000E+00  0.00000000000E+00  0.13824194476E+04  0.13824194476E+04  0.00000000000E+00 0. -1.
         -1   -1    0    0    0  501 -0.00000000000E+00 -0.00000000000E+00 -0.20052845093E+03  0.20052845093E+03  0.00000000000E+00 0.  1.
          6    1    1    2  502    0 -0.37610241344E+03 -0.19455633273E+03  0.98387920570E+03  0.10848536691E+04  0.17200000000E+03 0. -1.
         -6    1    1    2    0  501  0.37610241344E+03  0.19455633273E+03  0.19801179096E+03  0.49809422940E+03  0.17200000000E+03 0.  1.
</event>
<event>
 4    1  0.3115421E-002  0.2910895E+03  0.7818608E-02  0.1089782E+00
         -2   -1    0    0    0  501 -0.00000000000E+00  0.00000000000E+00  0.42285330215E+02  0.42285330215E+02  0.00000000000E+00 0.  1.
          2   -1    0    0  502    0  0.00000000000E+00 -0.00000000000E+00 -0.20144810909E+04  0.20144810909E+04  0.00000000000E+00 0. -1.
          6    1    1    2  502    0 -0.15482556691E+03  0.17657340863E+03 -0.10608328120E+04  0.11000451717E+04  0.17200000000E+03 0.  1.
         -6    1    1    2    0  501  0.15482556691E+03 -0.17657340863E+03 -0.91136294869E+03  0.95672124940E+03  0.17200000000E+03 0.  1.
</event>
<event>
 4    1  0.3115421E-002  0.1720581E+03  0.7818608E-02  0.1175718E+00
          1   -1    0    0  502    0  0.00000000000E+00  0.00000000000E+00  0.34139662344E+04  0.34139662344E+04  0.00000000000E+00 0. -1.
         -1   -1    0    0    0  501 -0.00000000000E+00 -0.00000000000E+00 -0.87991597442E+01  0.87991597442E+01  0.00000000000E+00 0.  1.
          6    1    1    2  502    0 -0.40766087721E+01 -0.18335745526E+01  0.19087731698E+04  0.19165121953E+04  0.17200000000E+03 0. -1.
         -6    1    1    2    0  501  0.40766087721E+01  0.18335745526E+01  0.14963939048E+04  0.15062531988E+04  0.17200000000E+03 0.  1.
</event>
<event>
 4    1  0.3115421E-002  0.1779791E+03  0.7818608E-02  0.1169773E+00
          1   -1    0    0  502    0  0.00000000000E+00  0.00000000000E+00  0.52683458206E+02  0.52683458206E+02  0.00000000000E+00 0. -1.
         -1   -1    0    0    0  501 -0.00000000000E+00 -0.00000000000E+00 -0.71490944293E+03  0.71490944293E+03  0.00000000000E+00 0.  1.
          6    1    1    2  502    0 -0.39368927023E+02 -0.23294698209E+02 -0.17809042239E+03  0.25177917691E+03  0.17200000000E+03 0. -1.
         -6    1    1    2    0  501  0.39368927023E+02  0.23294698209E+02 -0.48413556233E+03  0.51581372422E+03  0.17200000000E+03 0.  1.
</event>
<event>
 4    1  0.3115421E-002  0.1838674E+03  0.7818608E-02  0.1164112E+00
         -2   -1    0    0    0  501 -0.00000000000E+00  0.00000000000E+00  0.42508213013E+02  0.42508213013E+02  0.00000000000E+00 0.  1.
          2   -1    0    0  502    0  0.00000000000E+00 -0.00000000000E+00 -0.81873530835E+03  0.81873530835E+03  0.00000000000E+00 0. -1.
          6    1    1    2  502    0  0.16517139599E+02 -0.62852242148E+02 -0.46095254499E+03  0.49627056025E+03  0.17200000000E+03 0. -1.
         -6    1    1    2    0  501 -0.16517139599E+02  0.62852242148E+02 -0.31527455035E+03  0.36497296111E+03  0.17200000000E+03 0.  1.
</event>
<event>
 4    1  0.3115421E-002  0.2567497E+03  0.7818608E-02  0.1109112E+00
          2   -1    0    0  502    0  0.00000000000E+00  0.00000000000E+00  0.84023645541E+03  0.84023645541E+03  0.00000000000E+00 0. -1.
         -2   -1    0    0    0  501 -0.00000000000E+00 -0.00000000000E+00 -0.20455395370E+03  0.20455395370E+03  0.00000000000E+00 0.  1.
          6    1    1    2  502    0  0.18757061822E+03 -0.33966030147E+02  0.72799968477E+03  0.77194816474E+03  0.17200000000E+03 0. -1.
         -6    1    1    2    0  501 -0.18757061822E+03  0.33966030147E+02 -0.92317183062E+02  0.27284224437E+03  0.17200000000E+03 0.  1.
</event>
<event>
 4    1  0.3115421E-002  0.2350938E+03  0.7818608E-02  0.1123105E+00
         -3   -1    0    0    0  501 -0.00000000000E+00  0.00000000000E+00  0.33804922525E+02  0.33804922525E+02  0.00000000000E+00 0.  1.
          3   -1    0    0  502    0  0.00000000000E+00 -0.00000000000E+00 -0.17246834329E+04  0.17246834329E+04  0.00000000000E+00 0. -1.
          6    1    1    2  502    0 -0.15305288755E+03  0.47538276761E+02 -0.10460029267E+04  0.10720966360E+04  0.17200000000E+03 0. -1.
         -6    1    1    2    0  501  0.15305288755E+03 -0.47538276761E+02 -0.64487558363E+03  0.68639171943E+03  0.17200000000E+03 0.  1.
</event>
<event>
 4    1  0.3115421E-002  0.2689705E+03  0.7818608E-02  0.1101870E+00
          4   -1    0    0  502    0  0.00000000000E+00  0.00000000000E+00  0.30920760199E+03  0.30920760199E+03  0.00000000000E+00 0. -1.
         -4   -1    0    0    0  501 -0.00000000000E+00 -0.00000000000E+00 -0.23696511937E+03  0.23696511937E+03  0.00000000000E+00 0.  1.
          6    1    1    2  502    0 -0.66504078409E+02  0.19580178889E+03  0.54165565808E+01  0.26902503985E+03  0.17200000000E+03 0. -1.
         -6    1    1    2    0  501  0.66504078409E+02 -0.19580178889E+03  0.66825926033E+02  0.27714768151E+03  0.17200000000E+03 0. -1.
</event>
<event>
 4    1  0.3115421E-002  0.3940555E+03  0.7818608E-02  0.1045858E+00
          2   -1    0    0  502    0  0.00000000000E+00  0.00000000000E+00  0.65641230156E+03  0.65641230156E+03  0.00000000000E+00 0. -1.
         -2   -1    0    0    0  501 -0.00000000000E+00 -0.00000000000E+00 -0.25639677775E+03  0.25639677775E+03  0.00000000000E+00 0.  1.
          6    1    1    2  502    0  0.18937958669E+03 -0.29971834709E+03  0.32696249368E+03  0.51203924431E+03  0.17200000000E+03 0. -1.
         -6    1    1    2    0  501 -0.18937958669E+03  0.29971834709E+03  0.73053030126E+02  0.40076983500E+03  0.17200000000E+03 0.  1.
</event>
<event>
 4    1  0.3115421E-002  0.2513334E+03  0.7818608E-02  0.1112465E+00
          1   -1    0    0  502    0  0.00000000000E+00  0.00000000000E+00  0.40058081604E+03  0.40058081604E+03  0.00000000000E+00 0. -1.
         -1   -1    0    0    0  501 -0.00000000000E+00 -0.00000000000E+00 -0.18188702293E+03  0.18188702293E+03  0.00000000000E+00 0.  1.
          6    1    1    2  502    0 -0.32472390994E+02 -0.18036075723E+03  0.31278072623E+01  0.25135282394E+03  0.17200000000E+03 0. -1.
         -6    1    1    2    0  501  0.32472390994E+02  0.18036075723E+03  0.21556598585E+03  0.33111501503E+03  0.17200000000E+03 0. -1.
</event>
<event>
 4    1  0.3115421E-002  0.1776129E+03  0.7818608E-02  0.1170134E+00
          4   -1    0    0  502    0  0.00000000000E+00  0.00000000000E+00  0.22654480590E+03  0.22654480590E+03  0.00000000000E+00 0. -1.
         -4   -1    0    0    0  501 -0.00000000000E+00 -0.00000000000E+00 -0.17747880679E+03  0.17747880679E+03  0.00000000000E+00 0.  1.
          6    1    1    2  502    0  0.27367700448E+02  0.34832950203E+02  0.11828916690E+03  0.21339787359E+03  0.17200000000E+03 0. -1.
         -6    1    1    2    0  501 -0.27367700448E+02 -0.34832950203E+02 -0.69223167785E+02  0.19062573910E+03  0.17200000000E+03 0.  1.
</event>
<event>
 4    1  0.3115421E-002  0.1858404E+03  0.7818608E-02  0.1162267E+00
          2   -1    0    0  502    0  0.00000000000E+00  0.00000000000E+00  0.14983057588E+03  0.14983057588E+03  0.00000000000E+00 0. -1.
         -2   -1    0    0    0  501 -0.00000000000E+00 -0.00000000000E+00 -0.46207512242E+03  0.46207512242E+03  0.00000000000E+00 0.  1.
          6    1    1    2  502    0 -0.56016721634E+02 -0.42600282620E+02  0.60468384085E+02  0.19543050595E+03  0.17200000000E+03 0. -1.
         -6    1    1    2    0  501  0.56016721634E+02  0.42600282620E+02 -0.37271293063E+03  0.41647519234E+03  0.17200000000E+03 0.  1.
</event>
<event>
 4    1  0.3115421E-002  0.3525238E+03  0.7818608E-02  0.1061584E+00
          2   -1    0    0  502    0  0.00000000000E+00  0.00000000000E+00  0.82384623162E+03  0.82384623162E+03  0.00000000000E+00 0. -1.
         -2   -1    0    0    0  501 -0.00000000000E+00 -0.00000000000E+00 -0.17331712015E+03  0.17331712015E+03  0.00000000000E+00 0.  1.
          6    1    1    2  502    0 -0.30625722683E+03 -0.29925190959E+02  0.50479517504E+03  0.61570380442E+03  0.17200000000E+03 0. -1.
         -6    1    1    2    0  501  0.30625722683E+03  0.29925190959E+02  0.14573393643E+03  0.38145954735E+03  0.17200000000E+03 0.  1.
</event>
<event>
 4    1  0.3115421E-002  0.2231774E+03  0.7818608E-02  0.1131536E+00
          3   -1    0    0  502    0  0.00000000000E+00  0.00000000000E+00  0.75088996125E+02  0.75088996125E+02  0.00000000000E+00 0. -1.
         -3   -1    0    0    0  501 -0.00000000000E+00 -0.00000000000E+00 -0.70627563379E+03  0.70627563379E+03  0.00000000000E+00 0.  1.
          6    1    1    2  502    0 -0.90349715058E+01 -0.14192433143E+03 -0.21924612837E+03  0.31285301879E+03  0.17200000000E+03 0. -1.
         -6    1    1    2    0  501  0.90349715058E+01  0.14192433143E+03 -0.41194050929E+03  0.46851161112E+03  0.17200000000E+03 0.  1.
</event>
<event>
 4    1  0.3115421E-002  0.2029288E+03  0.7818608E-02  0.1147291E+00
          1   -1    0    0  502    0  0.00000000000E+00  0.00000000000E+00  0.13458455448E+04  0.13458455448E+04  0.00000000000E+00 0. -1.
         -1   -1    0    0    0  501 -0.00000000000E+00 -0.00000000000E+00 -0.46331517404E+02  0.46331517404E+02  0.00000000000E+00 0.  1.
          6    1    1    2  502    0  0.89554202196E+02  0.59800707578E+02  0.24411757136E+03  0.31744837124E+03  0.17200000000E+03 0. -1.
         -6    1    1    2    0  501 -0.89554202196E+02 -0.59800707578E+02  0.10553964560E+04  0.10747286909E+04  0.17200000000E+03 0. -1.
</event>
<event>
 4    1  0.3115421E-002  0.1889495E+03  0.7818608E-02  0.1159412E+00
         -2   -1    0    0    0  501 -0.00000000000E+00  0.00000000000E+00  0.15183367380E+04  0.15183367380E+04  0.00000000000E+00 0.  1.
          2   -1    0    0  502    0  0.00000000000E+00 -0.00000000000E+00 -0.30275455935E+02  0.30275455935E+02  0.00000000000E+00 0. -1.
          6    1    1    2  502    0 -0.68402297813E+02 -0.37934603839E+02  0.11099563946E+04  0.11259241122E+04  0.17200000000E+03 0.  1.
         -6    1    1    2    0  501  0.68402297813E+02  0.37934603839E+02  0.37810488743E+03  0.42268808170E+03  0.17200000000E+03 0. -1.
</event>
<event>
 4    1  0.3115421E-002  0.2261673E+03  0.7818608E-02  0.1129367E+00
         -2   -1    0    0    0  501 -0.00000000000E+00  0.00000000000E+00  0.37228022215E+02  0.37228022215E+02  0.00000000000E+00 0.  1.
          2   -1    0    0  502    0  0.00000000000E+00 -0.00000000000E+00 -0.13817369210E+04  0.13817369210E+04  0.00000000000E+00 0. -1.
          6    1    1    2  502    0  0.40198956133E+02 -0.14125046679E+03 -0.72531241742E+03  0.75975637760E+03  0.17200000000E+03 0. -1.
         -6    1    1    2    0  501 -0.40198956133E+02  0.14125046679E+03 -0.61919648132E+03  0.65920856557E+03  0.17200000000E+03 0.  1.
</event>
<event>
 4    1  0.3115421E-002  0.3481844E+03  0.7818608E-02  0.1063363E+00
          2   -1    0    0  502    0  0.00000000000E+00  0.00000000000E+00  0.30845489036E+04  0.30845489036E+04  0.00000000000E+00 0. -1.
         -2   -1    0    0    0  501 -0.00000000000E+00 -0.00000000000E+00 -0.41116916171E+02  0.41116916171E+02  0.00000000000E+00 0.  1.
          6    1    1    2  502    0 -0.23128462013E+03 -0.19533518202E+03  0.18499594003E+04  0.18824404882E+04  0.17200000000E+03 0. -1.
         -6    1    1    2    0  501  0.23128462013E+03  0.19533518202E+03  0.11934725871E+04  0.12432253316E+04  0.17200000000E+03 0.  1.
</event>
<event>
 4    1  0.3115421E-002  0.2613443E+03  0.7818608E-02  0.1106338E+00
          2   -1    0    0  502    0  0.00000000000E+00  0.00000000000E+00  0.25427125083E+04  0.25427125083E+04  0.00000000000E+00 0. -1.
         -2   -1    0    0    0  501 -0.00000000000E+00 -0.00000000000E+00 -0.26861493842E+02  0.26861493842E+02  0.00000000000E+00 0.  1.
          6    1    1    2  502    0 -0.15959755025E+03 -0.11508887439E+03  0.12602797207E+04  0.12870919941E+04  0.17200000000E+03 0.  1.
         -6    1    1    2    0  501  0.15959755025E+03  0.11508887439E+03  0.12555712938E+04  0.12824820080E+04  0.17200000000E+03 0.  1.
</event>
<event>
 4    1  0.3115421E-002  0.2298993E+03  0.7818608E-02  0.1126711E+00
         -2   -1    0    0    0  501 -0.00000000000E+00  0.00000000000E+00  0.28422574128E+02  0.28422574128E+02  0.00000000000E+00 0.  1.
          2   -1    0    0  502    0  0.00000000000E+00 -0.00000000000E+00 -0.26177940679E+04  0.26177940679E+04  0.00000000000E+00 0. -1.
          6    1    1    2  502    0  0.11705526809E+03 -0.97814843503E+02 -0.20067633372E+04  0.20198892967E+04  0.17200000000E+03 0. -1.
         -6    1    1    2    0  501 -0.11705526809E+03  0.97814843503E+02 -0.58260815651E+03  0.62632734526E+03  0.17200000000E+03 0.  1.
</event>
<event>
 4    1  0.3115421E-002  0.1770305E+03  0.7818608E-02  0.1170708E+00
          2   -1    0    0  502    0  0.00000000000E+00  0.00000000000E+00  0.17911806439E+03  0.17911806439E+03  0.00000000000E+00 0. -1.
         -2   -1    0    0    0  501 -0.00000000000E+00 -0.00000000000E+00 -0.18663140642E+03  0.18663140642E+03  0.00000000000E+00 0.  1.
          6    1    1    2  502    0  0.10222470079E+01 -0.41889906057E+02  0.41961258305E+02  0.18193558315E+03  0.17200000000E+03 0. -1.
         -6    1    1    2    0  501 -0.10222470079E+01  0.41889906057E+02 -0.49474600338E+02  0.18381388766E+03  0.17200000000E+03 0.  1.
</event>
<event>
 4    1  0.3115421E-002  0.1984178E+03  0.7818608E-02  0.1151081E+00
         -1   -1    0    0    0  501 -0.00000000000E+00  0.00000000000E+00  0.14639107447E+02  0.14639107447E+02  0.00000000000E+00 0.  1.
          1   -1    0    0  502    0  0.00000000000E+00 -0.00000000000E+00 -0.29106250857E+04  0.29106250857E+04  0.00000000000E+00 0. -1.
          6    1    1    2  502    0 -0.48942120350E+02 -0.85966912647E+02 -0.18512770583E+04  0.18618797995E+04  0.17200000000E+03 0. -1.
         -6    1    1    2    0  501  0.48942120350E+02  0.85966912647E+02 -0.10447089200E+04  0.10633843936E+04  0.17200000000E+03 0.  1.
</event>
<event>
 4    1  0.3115421E-002  0.3692836E+03  0.7818608E-02  0.1054967E+00
         -2   -1    0    0    0  501 -0.00000000000E+00  0.00000000000E+00  0.10641957429E+03  0.10641957429E+03  0.00000000000E+00 0.  1.
          2   -1    0    0  502    0  0.00000000000E+00 -0.00000000000E+00 -0.14870638316E+04  0.14870638316E+04  0.00000000000E+00 0. -1.
          6    1    1    2  502    0 -0.27373612651E+03 -0.17847940660E+03 -0.39405135584E+03  0.54004336546E+03  0.17200000000E+03 0. -1.
         -6    1    1    2    0  501  0.27373612651E+03  0.17847940660E+03 -0.98659290148E+03  0.10534400404E+04  0.17200000000E+03 0.  1.
</event>
<event>
 4    1  0.3115421E-002  0.2530753E+03  0.7818608E-02  0.1111377E+00
         -2   -1    0    0    0  501 -0.00000000000E+00  0.00000000000E+00  0.68926600498E+02  0.68926600498E+02  0.00000000000E+00 0.  1.
          2   -1    0    0  502    0  0.00000000000E+00 -0.00000000000E+00 -0.13146659899E+04  0.13146659899E+04  0.00000000000E+00 0. -1.
          6    1    1    2  502    0  0.10370206719E+03 -0.15397718971E+03 -0.24827683675E+03  0.35452571325E+03  0.17200000000E+03 0. -1.
         -6    1    1    2    0  501 -0.10370206719E+03  0.15397718971E+03 -0.99746255269E+03  0.10290668772E+04  0.17200000000E+03 0.  1.
</event>
<event>
 4    1  0.3115421E-002  0.5037539E+03  0.7818608E-02  0.1012804E+00
         -1   -1    0    0    0  501 -0.00000000000E+00  0.00000000000E+00  0.38056205678E+03  0.38056205678E+03  0.00000000000E+00 0.  1.
          1   -1    0    0  502    0  0.00000000000E+00 -0.00000000000E+00 -0.10175501353E+04  0.10175501353E+04  0.00000000000E+00 0. -1.
          6    1    1    2  502    0  0.17920700537E+03  0.43825656108E+03 -0.72890419667E+03  0.88604136022E+03  0.17200000000E+03 0. -1.
         -6    1    1    2    0  501 -0.17920700537E+03 -0.43825656108E+03  0.91916118125E+02  0.51207083189E+03  0.17200000000E+03 0.  1.
</event>
<event>
 4    1  0.3115421E-002  0.2513686E+03  0.7818608E-02  0.1112443E+00
          2   -1    0    0  502    0  0.00000000000E+00  0.00000000000E+00  0.37462532894E+02  0.37462532894E+02  0.00000000000E+00 0. -1.
         -2   -1    0    0    0  501 -0.00000000000E+00 -0.00000000000E+00 -0.17241314763E+04  0.17241314763E+04  0.00000000000E+00 0.  1.
          6    1    1    2  502    0 -0.18233505552E+03  0.18871062804E+02 -0.71346780676E+03  0.75645389864E+03  0.17200000000E+03 0.  1.
         -6    1    1    2    0  501  0.18233505552E+03 -0.18871062804E+02 -0.97320113667E+03  0.10051401106E+04  0.17200000000E+03 0. -1.
</event>
<event>
 4    1  0.3115421E-002  0.4625465E+03  0.7818608E-02  0.1024045E+00
          1   -1    0    0  502    0  0.00000000000E+00  0.00000000000E+00  0.67009016134E+03  0.67009016134E+03  0.00000000000E+00 0. -1.
         -1   -1    0    0    0  501 -0.00000000000E+00 -0.00000000000E+00 -0.33235497310E+03  0.33235497310E+03  0.00000000000E+00 0.  1.
          6    1    1    2  502    0 -0.33309422498E+03  0.27094920086E+03  0.26826599403E+03  0.53471102075E+03  0.17200000000E+03 0. -1.
         -6    1    1    2    0  501  0.33309422498E+03 -0.27094920086E+03  0.69469194209E+02  0.46773411369E+03  0.17200000000E+03 0.  1.
</event>
<event>
 4    1  0.3115421E-002  0.1988294E+03  0.7818608E-02  0.1150730E+00
         -1   -1    0    0    0  501 -0.00000000000E+00  0.00000000000E+00  0.21442559572E+02  0.21442559572E+02  0.00000000000E+00 0.  1.
          1   -1    0    0  502    0  0.00000000000E+00 -0.00000000000E+00 -0.18796022149E+04  0.18796022149E+04  0.00000000000E+00 0. -1.
          6    1    1    2  502    0  0.12183562176E+02  0.98998527641E+02 -0.10604905561E+04  0.10789686590E+04  0.17200000000E+03 0. -1.
         -6    1    1    2    0  501 -0.12183562176E+02 -0.98998527641E+02 -0.79766909924E+03  0.82207611542E+03  0.17200000000E+03 0. -1.
</event>
<event>
 4    1  0.3115421E-002  0.2504885E+03  0.7818608E-02  0.1112996E+00
          1   -1    0    0  502    0  0.00000000000E+00  0.00000000000E+00  0.17345391662E+04  0.17345391662E+04  0.00000000000E+00 0. -1.
         -1   -1    0    0    0  501 -0.00000000000E+00 -0.00000000000E+00 -0.93854522349E+02  0.93854522349E+02  0.00000000000E+00 0.  1.
          6    1    1    2  502    0 -0.71858811823E+02  0.16732246887E+03  0.15370272578E+04  0.15573044945E+04  0.17200000000E+03 0. -1.
         -6    1    1    2    0  501  0.71858811823E+02 -0.16732246887E+03  0.10365738601E+03  0.27108919399E+03  0.17200000000E+03 0.  1.
</event>
<event>
 4    1  0.3115421E-002  0.5962184E+03  0.7818608E-02  0.9913283E-01
          2   -1    0    0  502    0  0.00000000000E+00  0.00000000000E+00  0.21721646939E+04  0.21721646939E+04  0.00000000000E+00 0. -1.
         -2   -1    0    0    0  501 -0.00000000000E+00 -0.00000000000E+00 -0.16393146290E+03  0.16393146290E+03  0.00000000000E+00 0.  1.
          6    1    1    2  502    0 -0.53646802085E+03  0.19517784465E+03  0.10524536009E+04  0.12096011370E+04  0.17200000000E+03 0. -1.
         -6    1    1    2    0  501  0.53646802085E+03 -0.19517784465E+03  0.95577963004E+03  0.11264950198E+04  0.17200000000E+03 0.  1.
</event>
<event>
 4    1  0.3115421E-002  0.1903862E+03  0.7818608E-02  0.1158113E+00
          1   -1    0    0  502    0  0.00000000000E+00  0.00000000000E+00  0.90570759661E+03  0.90570759661E+03  0.00000000000E+00 0. -1.
         -1   -1    0    0    0  501 -0.00000000000E+00 -0.00000000000E+00 -0.11969023669E+03  0.11969023669E+03  0.00000000000E+00 0.  1.
          6    1    1    2  502    0  0.47237026720E+02 -0.66569975662E+02  0.81130076323E+03  0.83334016270E+03  0.17200000000E+03 0. -1.
         -6    1    1    2    0  501 -0.47237026720E+02  0.66569975662E+02 -0.25283403314E+02  0.19205767060E+03  0.17200000000E+03 0.  1.
</event>
<event>
 4    1  0.3115421E-002  0.6353562E+03  0.7818608E-02  0.9834652E-01
         -1   -1    0    0    0  501 -0.00000000000E+00  0.00000000000E+00  0.64226753265E+03  0.64226753265E+03  0.00000000000E+00 0.  1.
          1   -1    0    0  502    0  0.00000000000E+00 -0.00000000000E+00 -0.98643528201E+03  0.98643528201E+03  0.00000000000E+00 0. -1.
          6    1    1    2  502    0  0.50838504636E+03 -0.34005609848E+03 -0.66261676350E+03  0.91800788708E+03  0.17200000000E+03 0. -1.
         -6    1    1    2    0  501 -0.50838504636E+03  0.34005609848E+03  0.31844901414E+03  0.71069492758E+03  0.17200000000E+03 0.  1.
</event>
<event>
 4    1  0.3115421E-002  0.4307986E+03  0.7818608E-02  0.1033608E+00
         -2   -1    0    0    0  501 -0.00000000000E+00  0.00000000000E+00  0.60904748964E+03  0.60904748964E+03  0.00000000000E+00 0.  1.
          2   -1    0    0  502    0  0.00000000000E+00 -0.00000000000E+00 -0.48794963054E+03  0.48794963054E+03  0.00000000000E+00 0. -1.
          6    1    1    2  502    0  0.31999231278E+03 -0.23153483483E+03 -0.27556673212E+03  0.51139464588E+03  0.17200000000E+03 0. -1.
         -6    1    1    2    0  501 -0.31999231278E+03  0.23153483483E+03  0.39666459122E+03  0.58560247430E+03  0.17200000000E+03 0.  1.
</event>
<event>
 4    1  0.3115421E-002  0.2083758E+03  0.7818608E-02  0.1142859E+00
         -2   -1    0    0    0  501 -0.00000000000E+00  0.00000000000E+00  0.67113663234E+02  0.67113663234E+02  0.00000000000E+00 0.  1.
          2   -1    0    0  502    0  0.00000000000E+00 -0.00000000000E+00 -0.15207527745E+04  0.15207527745E+04  0.00000000000E+00 0. -1.
          6    1    1    2  502    0 -0.76211755330E+02 -0.89600520789E+02 -0.12501349262E+03  0.24299970846E+03  0.17200000000E+03 0.  1.
         -6    1    1    2    0  501  0.76211755330E+02  0.89600520789E+02 -0.13286256187E+04  0.13448667293E+04  0.17200000000E+03 0. -1.
</event>
<event>
 4    1  0.3115421E-002  0.1841779E+03  0.7818608E-02  0.1163820E+00
          2   -1    0    0  502    0  0.00000000000E+00  0.00000000000E+00  0.82844879337E+03  0.82844879337E+03  0.00000000000E+00 0. -1.
         -2   -1    0    0    0  501 -0.00000000000E+00 -0.00000000000E+00 -0.71620951876E+02  0.71620951876E+02  0.00000000000E+00 0.  1.
          6    1    1    2  502    0 -0.65294362299E+02 -0.86108309064E+01  0.83890747363E+02  0.20238368919E+03  0.17200000000E+03 0.  1.
         -6    1    1    2    0  501  0.65294362299E+02  0.86108309064E+01  0.67293709413E+03  0.69768605606E+03  0.17200000000E+03 0.  1.
</event>
<event>
 4    1  0.3115421E-002  0.2354222E+03  0.7818608E-02  0.1122881E+00
          1   -1    0    0  502    0  0.00000000000E+00  0.00000000000E+00  0.10923104493E+03  0.10923104493E+03  0.00000000000E+00 0. -1.
         -1   -1    0    0    0  501 -0.00000000000E+00 -0.00000000000E+00 -0.50803705466E+03  0.50803705466E+03  0.00000000000E+00 0.  1.
          6    1    1    2  502    0 -0.95643185686E+02  0.12919750379E+03 -0.18845677745E+03  0.30156188572E+03  0.17200000000E+03 0. -1.
         -6    1    1    2    0  501  0.95643185686E+02 -0.12919750379E+03 -0.21034923228E+03  0.31570621387E+03  0.17200000000E+03 0.  1.
</event>
<event>
 4    1  0.3115421E-002  0.1786351E+03  0.7818608E-02  0.1169131E+00
         -2   -1    0    0    0  501 -0.00000000000E+00  0.00000000000E+00  0.63425610939E+03  0.63425610939E+03  0.00000000000E+00 0.  1.
          2   -1    0    0  502    0  0.00000000000E+00 -0.00000000000E+00 -0.64944095525E+02  0.64944095525E+02  0.00000000000E+00 0. -1.
          6    1    1    2  502    0  0.45917234425E+02  0.14768678286E+02  0.11871284672E+03  0.21448367363E+03  0.17200000000E+03 0. -1.
         -6    1    1    2    0  501 -0.45917234425E+02 -0.14768678286E+02  0.45059916714E+03  0.48471653129E+03  0.17200000000E+03 0.  1.
</event>
<event>
 4    1  0.3115421E-002  0.4599560E+03  0.7818608E-02  0.1024794E+00
          1   -1    0    0  502    0  0.00000000000E+00  0.00000000000E+00  0.12407218922E+04  0.12407218922E+04  0.00000000000E+00 0. -1.
         -1   -1    0    0    0  501 -0.00000000000E+00 -0.00000000000E+00 -0.20212667942E+03  0.20212667942E+03  0.00000000000E+00 0.  1.
          6    1    1    2  502    0  0.43458693052E+02 -0.42436647034E+03  0.23398921961E+03  0.51605282099E+03  0.17200000000E+03 0. -1.
         -6    1    1    2    0  501 -0.43458693052E+02  0.42436647034E+03  0.80460599313E+03  0.92679575060E+03  0.17200000000E+03 0.  1.
</event>
<event>
 4    1  0.3115421E-002  0.2136604E+03  0.7818608E-02  0.1138700E+00
          2   -1    0    0  502    0  0.00000000000E+00  0.00000000000E+00  0.15622752069E+03  0.15622752069E+03  0.00000000000E+00 0. -1.
         -2   -1    0    0    0  501 -0.00000000000E+00 -0.00000000000E+00 -0.29418651611E+03  0.29418651611E+03  0.00000000000E+00 0.  1.
          6    1    1    2  502    0 -0.58882656513E+02  0.11224794349E+03 -0.87453246474E+02  0.23086541182E+03  0.17200000000E+03 0. -1.
         -6    1    1    2    0  501  0.58882656513E+02 -0.11224794349E+03 -0.50505748944E+02  0.21954862498E+03  0.17200000000E+03 0.  1.
</event>
<event>
 4    1  0.3115421E-002  0.2567707E+03  0.7818608E-02  0.1109099E+00
          2   -1    0    0  502    0  0.00000000000E+00  0.00000000000E+00  0.85379888159E+03  0.85379888159E+03  0.00000000000E+00 0. -1.
         -2   -1    0    0    0  501 -0.00000000000E+00 -0.00000000000E+00 -0.89967126695E+02  0.89967126695E+02  0.00000000000E+00 0.  1.
          6    1    1    2  502    0 -0.48711590110E+02 -0.18432138828E+03  0.55953173225E+03  0.61563540557E+03  0.17200000000E+03 0. -1.
         -6    1    1    2    0  501  0.48711590110E+02  0.18432138828E+03  0.20430002264E+03  0.32813060272E+03  0.17200000000E+03 0.  1.
</event>
<event>
 4    1  0.3115421E-002  0.1884108E+03  0.7818608E-02  0.1159903E+00
         -3   -1    0    0    0  501 -0.00000000000E+00  0.00000000000E+00  0.20719286934E+03  0.20719286934E+03  0.00000000000E+00 0.  1.
          3   -1    0    0  502    0  0.00000000000E+00 -0.00000000000E+00 -0.17654508079E+03  0.17654508079E+03  0.00000000000E+00 0. -1.
          6    1    1    2  502    0  0.42389698562E+02  0.64169565515E+02  0.48296565118E+02  0.19450238529E+03  0.17200000000E+03 0. -1.
         -6    1    1    2    0  501 -0.42389698562E+02 -0.64169565515E+02 -0.17648776570E+02  0.18923556483E+03  0.17200000000E+03 0. -1.
</event>
<event>
 4    1  0.3115421E-002  0.1934257E+03  0.7818608E-02  0.1155407E+00
         -2   -1    0    0    0  501 -0.00000000000E+00  0.00000000000E+00  0.38633749675E+02  0.38633749675E+02  0.00000000000E+00 0.  1.
          2   -1    0    0  502    0  0.00000000000E+00 -0.00000000000E+00 -0.12996129299E+04  0.12996129299E+04  0.00000000000E+00 0. -1.
          6    1    1    2  502    0 -0.12817307350E+02 -0.87551268016E+02 -0.96827655447E+03  0.98740720771E+03  0.17200000000E+03 0. -1.
         -6    1    1    2    0  501  0.12817307350E+02  0.87551268016E+02 -0.29270262579E+03  0.35083947190E+03  0.17200000000E+03 0.  1.
</event>
<event>
 4    1  0.3115421E-002  0.1894100E+03  0.7818608E-02  0.1158995E+00
          1   -1    0    0  502    0  0.00000000000E+00  0.00000000000E+00  0.65948492429E+03  0.65948492429E+03  0.00000000000E+00 0. -1.
         -1   -1    0    0    0  501 -0.00000000000E+00 -0.00000000000E+00 -0.59531537270E+02  0.59531537270E+02  0.00000000000E+00 0.  1.
          6    1    1    2  502    0  0.78999715852E+02 -0.71537709710E+01  0.19442886540E+03  0.27143823467E+03  0.17200000000E+03 0.  1.
         -6    1    1    2    0  501 -0.78999715852E+02  0.71537709710E+01  0.40552452163E+03  0.44757822689E+03  0.17200000000E+03 0. -1.
</event>
<event>
 4    1  0.3115421E-002  0.1954767E+03  0.7818608E-02  0.1153612E+00
          2   -1    0    0  502    0  0.00000000000E+00  0.00000000000E+00  0.22446318150E+04  0.22446318150E+04  0.00000000000E+00 0. -1.
         -2   -1    0    0    0  501 -0.00000000000E+00 -0.00000000000E+00 -0.17051306263E+02  0.17051306263E+02  0.00000000000E+00 0.  1.
          6    1    1    2  502    0 -0.39176302941E+02 -0.84216121793E+02  0.11595849134E+04  0.11759457085E+04  0.17200000000E+03 0. -1.
         -6    1    1    2    0  501  0.39176302941E+02  0.84216121793E+02  0.10679955954E+04  0.10857374128E+04  0.17200000000E+03 0.  1.
</event>
<event>
 4    1  0.3115421E-002  0.3028296E+03  0.7818608E-02  0.1083835E+00
         -1   -1    0    0    0  501 -0.00000000000E+00  0.00000000000E+00  0.17378776873E+03  0.17378776873E+03  0.00000000000E+00 0.  1.
          1   -1    0    0  502    0  0.00000000000E+00 -0.00000000000E+00 -0.58007230828E+03  0.58007230828E+03  0.00000000000E+00 0. -1.
          6    1    1    2  502    0 -0.13547790605E+03 -0.20920678951E+03 -0.31641352770E+03  0.43797632849E+03  0.17200000000E+03 0. -1.
         -6    1    1    2    0  501  0.13547790605E+03  0.20920678951E+03 -0.89871011851E+02  0.31588374852E+03  0.17200000000E+03 0.  1.
</event>
<event>
 4    1  0.3115421E-002  0.2677724E+03  0.7818608E-02  0.1102561E+00
          2   -1    0    0  502    0  0.00000000000E+00  0.00000000000E+00  0.36736212307E+03  0.36736212307E+03  0.00000000000E+00 0. -1.
         -2   -1    0    0    0  501 -0.00000000000E+00 -0.00000000000E+00 -0.24440410298E+03  0.24440410298E+03  0.00000000000E+00 0.  1.
          6    1    1    2  502    0  0.14197994822E+03 -0.14818816956E+03  0.19875246257E+03  0.33347350820E+03  0.17200000000E+03 0. -1.
         -6    1    1    2    0  501 -0.14197994822E+03  0.14818816956E+03 -0.75794442490E+02  0.27829271784E+03  0.17200000000E+03 0.  1.
</event>
<event>
 4    1  0.3115421E-002  0.1864801E+03  0.7818608E-02  0.1161675E+00
         -4   -1    0    0    0  501 -0.00000000000E+00  0.00000000000E+00  0.29165679188E+03  0.29165679188E+03  0.00000000000E+00 0.  1.
          4   -1    0    0  502    0  0.00000000000E+00 -0.00000000000E+00 -0.12320820731E+03  0.12320820731E+03  0.00000000000E+00 0. -1.
          6    1    1    2  502    0  0.15548949017E+02  0.70349603246E+02  0.46960342016E+02  0.19230213263E+03  0.17200000000E+03 0. -1.
         -6    1    1    2    0  501 -0.15548949017E+02 -0.70349603246E+02  0.12148824255E+03  0.22256286656E+03  0.17200000000E+03 0. -1.
</event>
<event>
 4    1  0.3115421E-002  0.2125630E+03  0.7818608E-02  0.1139552E+00
          1   -1    0    0  502    0  0.00000000000E+00  0.00000000000E+00  0.30269338723E+03  0.30269338723E+03  0.00000000000E+00 0. -1.
         -1   -1    0    0    0  501 -0.00000000000E+00 -0.00000000000E+00 -0.26002778000E+03  0.26002778000E+03  0.00000000000E+00 0.  1.
          6    1    1    2  502    0  0.36820086243E+02  0.11934542504E+03  0.20496145972E+03  0.29528333715E+03  0.17200000000E+03 0.  1.
         -6    1    1    2    0  501 -0.36820086243E+02 -0.11934542504E+03 -0.16229585249E+03  0.26743783009E+03  0.17200000000E+03 0.  1.
</event>
<event>
 4    1  0.3115421E-002  0.7550178E+03  0.7818608E-02  0.9627511E-01
         -2   -1    0    0    0  501 -0.00000000000E+00  0.00000000000E+00  0.56500211439E+03  0.56500211439E+03  0.00000000000E+00 0.  1.
          2   -1    0    0  502    0  0.00000000000E+00 -0.00000000000E+00 -0.10927684528E+04  0.10927684528E+04  0.00000000000E+00 0. -1.
          6    1    1    2  502    0  0.20908981990E+03  0.70480441340E+03 -0.34303943327E+02  0.75579664888E+03  0.17200000000E+03 0. -1.
         -6    1    1    2    0  501 -0.20908981990E+03 -0.70480441340E+03 -0.49346239506E+03  0.90197391829E+03  0.17200000000E+03 0.  1.
</event>
<event>
 4    1  0.3115421E-002  0.1970264E+03  0.7818608E-02  0.1152272E+00
         -2   -1    0    0    0  501 -0.00000000000E+00  0.00000000000E+00  0.42905722454E+02  0.42905722454E+02  0.00000000000E+00 0.  1.
          2   -1    0    0  502    0  0.00000000000E+00 -0.00000000000E+00 -0.93289810628E+03  0.93289810628E+03  0.00000000000E+00 0. -1.
          6    1    1    2  502    0  0.83894714037E+02 -0.46873019267E+02 -0.52973043933E+03  0.56518469666E+03  0.17200000000E+03 0. -1.
         -6    1    1    2    0  501 -0.83894714037E+02  0.46873019267E+02 -0.36026194449E+03  0.41061913208E+03  0.17200000000E+03 0.  1.
</event>
<event>
 4    1  0.3115421E-002  0.4541106E+03  0.7818608E-02  0.1026503E+00
         -1   -1    0    0    0  501 -0.00000000000E+00  0.00000000000E+00  0.13942937230E+03  0.13942937230E+03  0.00000000000E+00 0.  1.
          1   -1    0    0  502    0  0.00000000000E+00 -0.00000000000E+00 -0.16773160151E+04  0.16773160151E+04  0.00000000000E+00 0. -1.
          6    1    1    2  502    0  0.41068209094E+03  0.89289716767E+02 -0.10812867989E+04  0.11727734542E+04  0.17200000000E+03 0. -1.
         -6    1    1    2    0  501 -0.41068209094E+03 -0.89289716767E+02 -0.45659984392E+03  0.64397193324E+03  0.17200000000E+03 0.  1.
</event>
<event>
 4    1  0.3115421E-002  0.2103989E+03  0.7818608E-02  0.1141250E+00
         -2   -1    0    0    0  501 -0.00000000000E+00  0.00000000000E+00  0.40645008830E+02  0.40645008830E+02  0.00000000000E+00 0.  1.
          2   -1    0    0  502    0  0.00000000000E+00 -0.00000000000E+00 -0.16275532596E+04  0.16275532596E+04  0.00000000000E+00 0. -1.
          6    1    1    2  502    0 -0.82106217452E+01  0.12089788651E+03 -0.12732006368E+04  0.12904679674E+04  0.17200000000E+03 0. -1.
         -6    1    1    2    0  501  0.82106217452E+01 -0.12089788651E+03 -0.31370761396E+03  0.37773030105E+03  0.17200000000E+03 0.  1.
</event>
<event>
 4    1  0.3115421E-002  0.2135545E+03  0.7818608E-02  0.1138782E+00
         -2   -1    0    0    0  501 -0.00000000000E+00  0.00000000000E+00  0.23468931725E+02  0.23468931725E+02  0.00000000000E+00 0.  1.
          2   -1    0    0  502    0  0.00000000000E+00 -0.00000000000E+00 -0.19522521989E+04  0.19522521989E+04  0.00000000000E+00 0. -1.
          6    1    1    2  502    0 -0.67796201614E+02  0.10688864380E+03 -0.89723180229E+03  0.92229627245E+03  0.17200000000E+03 0.  1.
         -6    1    1    2    0  501  0.67796201614E+02 -0.10688864380E+03 -0.10315514649E+04  0.10534248582E+04  0.17200000000E+03 0.  1.
</event>
<event>
 4    1  0.3115421E-002  0.2914117E+03  0.7818608E-02  0.1089614E+00
          1   -1    0    0  502    0  0.00000000000E+00  0.00000000000E+00  0.15211236848E+03  0.15211236848E+03  0.00000000000E+00 0. -1.
         -1   -1    0    0    0  501 -0.00000000000E+00 -0.00000000000E+00 -0.95989859862E+03  0.95989859862E+03  0.00000000000E+00 0.  1.
          6    1    1    2  502    0 -0.20407504045E+03 -0.11700489261E+03 -0.76353906503E+03  0.81725924336E+03  0.17200000000E+03 0. -1.
         -6    1    1    2    0  501  0.20407504045E+03  0.11700489261E+03 -0.44247165120E+02  0.29475172374E+03  0.17200000000E+03 0.  1.
</event>
<event>
 4    1  0.3115421E-002  0.1874723E+03  0.7818608E-02  0.1160761E+00
          1   -1    0    0  502    0  0.00000000000E+00  0.00000000000E+00  0.19207300183E+04  0.19207300183E+04  0.00000000000E+00 0. -1.
         -1   -1    0    0    0  501 -0.00000000000E+00 -0.00000000000E+00 -0.20089442612E+02  0.20089442612E+02  0.00000000000E+00 0.  1.
          6    1    1    2  502    0  0.57264765275E+02 -0.47776520562E+02  0.12400891631E+04  0.12541798043E+04  0.17200000000E+03 0. -1.
         -6    1    1    2    0  501 -0.57264765275E+02  0.47776520562E+02  0.66055141259E+03  0.68663965654E+03  0.17200000000E+03 0.  1.
</event>
<event>
 4    1  0.3115421E-002  0.3823684E+03  0.7818608E-02  0.1050062E+00
          2   -1    0    0  502    0  0.00000000000E+00  0.00000000000E+00  0.10726507473E+04  0.10726507473E+04  0.00000000000E+00 0. -1.
         -2   -1    0    0    0  501 -0.00000000000E+00 -0.00000000000E+00 -0.15542077665E+03  0.15542077665E+03  0.00000000000E+00 0.  1.
          6    1    1    2  502    0  0.34052541110E+03 -0.25769575387E+02  0.67397081667E+03  0.77488211254E+03  0.17200000000E+03 0. -1.
         -6    1    1    2    0  501 -0.34052541110E+03  0.25769575387E+02  0.24325915398E+03  0.45318941141E+03  0.17200000000E+03 0.  1.
</event>
<event>
 4    1  0.3115421E-002  0.2861098E+03  0.7818608E-02  0.1092398E+00
         -2   -1    0    0    0  501 -0.00000000000E+00  0.00000000000E+00  0.16456027351E+03  0.16456027351E+03  0.00000000000E+00 0.  1.
          2   -1    0    0  502    0  0.00000000000E+00 -0.00000000000E+00 -0.62384202805E+03  0.62384202805E+03  0.00000000000E+00 0. -1.
          6    1    1    2  502    0  0.10031117330E+03 -0.20545674939E+03 -0.40708359032E+03  0.49756995173E+03  0.17200000000E+03 0. -1.
         -6    1    1    2    0  501 -0.10031117330E+03  0.20545674939E+03 -0.52198164223E+02  0.29083234983E+03  0.17200000000E+03 0.  1.
</event>
<event>
 4    1  0.3115421E-002  0.1975709E+03  0.7818608E-02  0.1151805E+00
         -2   -1    0    0    0  501 -0.00000000000E+00  0.00000000000E+00  0.34844626252E+02  0.34844626252E+02  0.00000000000E+00 0.  1.
          2   -1    0    0  502    0  0.00000000000E+00 -0.00000000000E+00 -0.11235267869E+04  0.11235267869E+04  0.00000000000E+00 0. -1.
          6    1    1    2  502    0 -0.37981597745E+02  0.89485605318E+02 -0.57567698802E+03  0.60863640202E+03  0.17200000000E+03 0.  1.
         -6    1    1    2    0  501  0.37981597745E+02 -0.89485605318E+02 -0.51300517267E+03  0.54973501118E+03  0.17200000000E+03 0.  1.
</event>
<event>
 4    1  0.3115421E-002  0.5242702E+03  0.7818608E-02  0.1007631E+00
          2   -1    0    0  502    0  0.00000000000E+00  0.00000000000E+00  0.77678921902E+03  0.77678921902E+03  0.00000000000E+00 0. -1.
         -2   -1    0    0    0  501 -0.00000000000E+00 -0.00000000000E+00 -0.70554818524E+03  0.70554818524E+03  0.00000000000E+00 0.  1.
          6    1    1    2  502    0  0.12090886013E+03 -0.48026690383E+03  0.55891342320E+03  0.76631812324E+03  0.17200000000E+03 0. -1.
         -6    1    1    2    0  501 -0.12090886013E+03  0.48026690383E+03 -0.48767238943E+03  0.71601928101E+03  0.17200000000E+03 0.  1.
</event>
<event>
 4    1  0.3115421E-002  0.1887685E+03  0.7818608E-02  0.1159577E+00
          2   -1    0    0  502    0  0.00000000000E+00  0.00000000000E+00  0.25892169371E+04  0.25892169371E+04  0.00000000000E+00 0. -1.
         -2   -1    0    0    0  501 -0.00000000000E+00 -0.00000000000E+00 -0.25424558463E+02  0.25424558463E+02  0.00000000000E+00 0.  1.
          6    1    1    2  502    0 -0.22005211206E+02  0.74601154164E+02  0.21673112598E+04  0.21755164119E+04  0.17200000000E+03 0. -1.
         -6    1    1    2    0  501  0.22005211206E+02 -0.74601154164E+02  0.39648111886E+03  0.43912508370E+03  0.17200000000E+03 0.  1.
</event>
<event>
 4    1  0.3115421E-002  0.1781595E+03  0.7818608E-02  0.1169596E+00
          1   -1    0    0  502    0  0.00000000000E+00  0.00000000000E+00  0.13863790077E+04  0.13863790077E+04  0.00000000000E+00 0. -1.
         -1   -1    0    0    0  501 -0.00000000000E+00 -0.00000000000E+00 -0.30046209224E+02  0.30046209224E+02  0.00000000000E+00 0.  1.
          6    1    1    2  502    0  0.43303205238E+02 -0.16782290376E+02  0.10236805826E+04  0.10390682114E+04  0.17200000000E+03 0. -1.
         -6    1    1    2    0  501 -0.43303205238E+02  0.16782290376E+02  0.33265221589E+03  0.37735700548E+03  0.17200000000E+03 0.  1.
</event>
<event>
 4    1  0.3115421E-002  0.2273376E+03  0.7818608E-02  0.1128528E+00
         -2   -1    0    0    0  501 -0.00000000000E+00  0.00000000000E+00  0.20149901554E+03  0.20149901554E+03  0.00000000000E+00 0.  1.
          2   -1    0    0  502    0  0.00000000000E+00 -0.00000000000E+00 -0.10351880457E+04  0.10351880457E+04  0.00000000000E+00 0. -1.
          6    1    1    2  502    0  0.68787649615E+02 -0.13178257039E+03 -0.95314090356E+03  0.97987752737E+03  0.17200000000E+03 0. -1.
         -6    1    1    2    0  501 -0.68787649615E+02  0.13178257039E+03  0.11945187345E+03  0.25680953384E+03  0.17200000000E+03 0.  1.
</event>
<event>
 4    1  0.3115421E-002  0.2088890E+03  0.7818608E-02  0.1142449E+00
          1   -1    0    0  502    0  0.00000000000E+00  0.00000000000E+00  0.84149107637E+03  0.84149107637E+03  0.00000000000E+00 0. -1.
         -1   -1    0    0    0  501 -0.00000000000E+00 -0.00000000000E+00 -0.51854461680E+02  0.51854461680E+02  0.00000000000E+00 0.  1.
          6    1    1    2  502    0 -0.92444061562E+02  0.74193714046E+02  0.39337585370E+03  0.44539777053E+03  0.17200000000E+03 0. -1.
         -6    1    1    2    0  501  0.92444061562E+02 -0.74193714046E+02  0.39626076099E+03  0.44794776752E+03  0.17200000000E+03 0.  1.
</event>
<event>
 4    1  0.3115421E-002  0.2615244E+03  0.7818608E-02  0.1106231E+00
          2   -1    0    0  502    0  0.00000000000E+00  0.00000000000E+00  0.35058309040E+04  0.35058309040E+04  0.00000000000E+00 0. -1.
         -2   -1    0    0    0  501 -0.00000000000E+00 -0.00000000000E+00 -0.21951813400E+02  0.21951813400E+02  0.00000000000E+00 0.  1.
          6    1    1    2  502    0  0.75735239442E+02 -0.18186584779E+03  0.23303602079E+04  0.23449890643E+04  0.17200000000E+03 0. -1.
         -6    1    1    2    0  501 -0.75735239442E+02  0.18186584779E+03  0.11535188827E+04  0.11827936531E+04  0.17200000000E+03 0.  1.
</event>
<event>
 4    1  0.3115421E-002  0.1919850E+03  0.7818608E-02  0.1156683E+00
         -2   -1    0    0    0  501 -0.00000000000E+00  0.00000000000E+00  0.18157448901E+02  0.18157448901E+02  0.00000000000E+00 0.  1.
          2   -1    0    0  502    0  0.00000000000E+00 -0.00000000000E+00 -0.20654716832E+04  0.20654716832E+04  0.00000000000E+00 0. -1.
          6    1    1    2  502    0  0.63163351603E+02  0.57311765776E+02 -0.11603306355E+04  0.11761060459E+04  0.17200000000E+03 0. -1.
         -6    1    1    2    0  501 -0.63163351603E+02 -0.57311765776E+02 -0.88698359880E+03  0.90752308622E+03  0.17200000000E+03 0.  1.
</event>
<event>
 4    1  0.3115421E-002  0.2415920E+03  0.7818608E-02  0.1118737E+00
         -4   -1    0    0    0  501 -0.00000000000E+00  0.00000000000E+00  0.36915786277E+04  0.36915786277E+04  0.00000000000E+00 0.  1.
          4   -1    0    0  502    0  0.00000000000E+00 -0.00000000000E+00 -0.15911975946E+02  0.15911975946E+02  0.00000000000E+00 0. -1.
          6    1    1    2  502    0  0.39091899326E+01 -0.16960958522E+03  0.16899921686E+04  0.17071731673E+04  0.17200000000E+03 0. -1.
         -6    1    1    2    0  501 -0.39091899326E+01  0.16960958522E+03  0.19856744832E+04  0.20003174364E+04  0.17200000000E+03 0.  1.
</event>
<event>
 4    1  0.3115421E-002  0.2115929E+03  0.7818608E-02  0.1140311E+00
         -2   -1    0    0    0  501 -0.00000000000E+00  0.00000000000E+00  0.33860773858E+02  0.33860773858E+02  0.00000000000E+00 0.  1.
          2   -1    0    0  502    0  0.00000000000E+00 -0.00000000000E+00 -0.14105110941E+04  0.14105110941E+04  0.00000000000E+00 0. -1.
          6    1    1    2  502    0 -0.45467056015E+02  0.11454382636E+03 -0.86900446207E+03  0.89439381507E+03  0.17200000000E+03 0.  1.
         -6    1    1    2    0  501  0.45467056015E+02 -0.11454382636E+03 -0.50764585818E+03  0.54997805290E+03  0.17200000000E+03 0.  1.
</event>
<event>
 4    1  0.3115421E-002  0.2464182E+03  0.7818608E-02  0.1115590E+00
         -1   -1    0    0    0  501 -0.00000000000E+00  0.00000000000E+00  0.25748831995E+03  0.25748831995E+03  0.00000000000E+00 0.  1.
          1   -1    0    0  502    0  0.00000000000E+00 -0.00000000000E+00 -0.93128221420E+03  0.93128221420E+03  0.00000000000E+00 0. -1.
          6    1    1    2  502    0 -0.17069356113E+03 -0.44739840008E+02 -0.85054172672E+03  0.88551859042E+03  0.17200000000E+03 0. -1.
         -6    1    1    2    0  501  0.17069356113E+03  0.44739840008E+02  0.17674783246E+03  0.30325194373E+03  0.17200000000E+03 0.  1.
</event>
<event>
 4    1  0.3115421E-002  0.1943907E+03  0.7818608E-02  0.1154560E+00
          2   -1    0    0  502    0  0.00000000000E+00  0.00000000000E+00  0.62685983968E+02  0.62685983968E+02  0.00000000000E+00 0. -1.
         -2   -1    0    0    0  501 -0.00000000000E+00 -0.00000000000E+00 -0.62144061535E+03  0.62144061535E+03  0.00000000000E+00 0.  1.
          6    1    1    2  502    0  0.75437597985E+02  0.50129079794E+02 -0.33860393552E+03  0.39043614200E+03  0.17200000000E+03 0. -1.
         -6    1    1    2    0  501 -0.75437597985E+02 -0.50129079794E+02 -0.22015069587E+03  0.29369045732E+03  0.17200000000E+03 0.  1.
</event>
<event>
 4    1  0.3115421E-002  0.2374289E+03  0.7818608E-02  0.1121518E+00
          4   -1    0    0  502    0  0.00000000000E+00  0.00000000000E+00  0.44766416904E+03  0.44766416904E+03  0.00000000000E+00 0. -1.
         -4   -1    0    0    0  501 -0.00000000000E+00 -0.00000000000E+00 -0.37301854554E+03  0.37301854554E+03  0.00000000000E+00 0.  1.
          6    1    1    2  502    0 -0.33104201035E+02 -0.16028912009E+03  0.37129479355E+03  0.44071795274E+03  0.17200000000E+03 0. -1.
         -6    1    1    2    0  501  0.33104201035E+02  0.16028912009E+03 -0.29664917005E+03  0.37996476184E+03  0.17200000000E+03 0.  1.
</event>
<event>
 4    1  0.3115421E-002  0.2069506E+03  0.7818608E-02  0.1144004E+00
         -2   -1    0    0    0  501 -0.00000000000E+00  0.00000000000E+00  0.25417690975E+02  0.25417690975E+02  0.00000000000E+00 0.  1.
          2   -1    0    0  502    0  0.00000000000E+00 -0.00000000000E+00 -0.36448537989E+04  0.36448537989E+04  0.00000000000E+00 0. -1.
          6    1    1    2  502    0 -0.10276499551E+03 -0.51806523164E+02 -0.31553957733E+04  0.31621750499E+04  0.17200000000E+03 0. -1.
         -6    1    1    2    0  501  0.10276499551E+03  0.51806523164E+02 -0.46404033465E+03  0.50809643999E+03  0.17200000000E+03 0.  1.
</event>
<event>
 4    1  0.3115421E-002  0.1872004E+03  0.7818608E-02  0.1161011E+00
         -2   -1    0    0    0  501 -0.00000000000E+00  0.00000000000E+00  0.37266226752E+02  0.37266226752E+02  0.00000000000E+00 0.  1.
          2   -1    0    0  502    0  0.00000000000E+00 -0.00000000000E+00 -0.97799199264E+03  0.97799199264E+03  0.00000000000E+00 0. -1.
          6    1    1    2  502    0  0.20301535479E+02 -0.71048159644E+02 -0.37079775650E+03  0.41537328942E+03  0.17200000000E+03 0.  1.
         -6    1    1    2    0  501 -0.20301535479E+02  0.71048159644E+02 -0.56992800938E+03  0.59988492998E+03  0.17200000000E+03 0. -1.
</event>
<event>
 4    1  0.3115421E-002  0.2168873E+03  0.7818608E-02  0.1136225E+00
         -2   -1    0    0    0  501 -0.00000000000E+00  0.00000000000E+00  0.91068104598E+02  0.91068104598E+02  0.00000000000E+00 0.  1.
          2   -1    0    0  502    0  0.00000000000E+00 -0.00000000000E+00 -0.10980219490E+04  0.10980219490E+04  0.00000000000E+00 0. -1.
          6    1    1    2  502    0 -0.11483632627E+02  0.13162159326E+03 -0.93613835418E+03  0.96093451171E+03  0.17200000000E+03 0. -1.
         -6    1    1    2    0  501  0.11483632627E+02 -0.13162159326E+03 -0.70815490201E+02  0.22815554187E+03  0.17200000000E+03 0.  1.
</event>
<event>
 4    1  0.3115421E-002  0.1746250E+03  0.7818608E-02  0.1173109E+00
          1   -1    0    0  502    0  0.00000000000E+00  0.00000000000E+00  0.54270647655E+03  0.54270647655E+03  0.00000000000E+00 0. -1.
         -1   -1    0    0    0  501 -0.00000000000E+00 -0.00000000000E+00 -0.70965872591E+02  0.70965872591E+02  0.00000000000E+00 0.  1.
          6    1    1    2  502    0  0.27608076441E+02  0.12153043188E+02  0.95853766093E+02  0.19920302914E+03  0.17200000000E+03 0.  1.
         -6    1    1    2    0  501 -0.27608076441E+02 -0.12153043188E+02  0.37588683786E+03  0.41446932000E+03  0.17200000000E+03 0. -1.
</event>
<event>
 4    1  0.3115421E-002  0.3110620E+03  0.7818608E-02  0.1079838E+00
         -2   -1    0    0    0  501 -0.00000000000E+00  0.00000000000E+00  0.23957754292E+03  0.23957754292E+03  0.00000000000E+00 0.  1.
          2   -1    0    0  502    0  0.00000000000E+00 -0.00000000000E+00 -0.40455440376E+03  0.40455440376E+03  0.00000000000E+00 0. -1.
          6    1    1    2  502    0 -0.22236499621E+03  0.13315169285E+03 -0.95679311516E+02  0.32544445839E+03  0.17200000000E+03 0. -1.
         -6    1    1    2    0  501  0.22236499621E+03 -0.13315169285E+03 -0.69297549332E+02  0.31868748829E+03  0.17200000000E+03 0.  1.
</event>
<event>
 4    1  0.3115421E-002  0.3450021E+03  0.7818608E-02  0.1064685E+00
          2   -1    0    0  502    0  0.00000000000E+00  0.00000000000E+00  0.15258764185E+04  0.15258764185E+04  0.00000000000E+00 0. -1.
         -2   -1    0    0    0  501 -0.00000000000E+00 -0.00000000000E+00 -0.12246726538E+03  0.12246726538E+03  0.00000000000E+00 0.  1.
          6    1    1    2  502    0  0.27121981619E+03 -0.12602486534E+03  0.20510989247E+03  0.40136831386E+03  0.17200000000E+03 0.  1.
         -6    1    1    2    0  501 -0.27121981619E+03  0.12602486534E+03  0.11982992606E+04  0.12469753700E+04  0.17200000000E+03 0.  1.
</event>
<event>
 4    1  0.3115421E-002  0.3305384E+03  0.7818608E-02  0.1070899E+00
         -2   -1    0    0    0  501 -0.00000000000E+00  0.00000000000E+00  0.30280798165E+03  0.30280798165E+03  0.00000000000E+00 0.  1.
          2   -1    0    0  502    0  0.00000000000E+00 -0.00000000000E+00 -0.36108139349E+03  0.36108139349E+03  0.00000000000E+00 0. -1.
          6    1    1    2  502    0 -0.14379795919E+03  0.24288633249E+03 -0.38266138812E+02  0.33274603072E+03  0.17200000000E+03 0. -1.
         -6    1    1    2    0  501  0.14379795919E+03 -0.24288633249E+03 -0.20007273023E+02  0.33114334442E+03  0.17200000000E+03 0.  1.
</event>
<event>
 4    1  0.3115421E-002  0.2553598E+03  0.7818608E-02  0.1109964E+00
          2   -1    0    0  502    0  0.00000000000E+00  0.00000000000E+00  0.12115452957E+03  0.12115452957E+03  0.00000000000E+00 0. -1.
         -2   -1    0    0    0  501 -0.00000000000E+00 -0.00000000000E+00 -0.10083773146E+04  0.10083773146E+04  0.00000000000E+00 0.  1.
          6    1    1    2  502    0  0.12599831162E+03  0.14053133331E+03 -0.57977364001E+02  0.26185874992E+03  0.17200000000E+03 0. -1.
         -6    1    1    2    0  501 -0.12599831162E+03 -0.14053133331E+03 -0.82924542099E+03  0.86767309421E+03  0.17200000000E+03 0.  1.
</event>
<event>
 4    1  0.3115421E-002  0.4360461E+03  0.7818608E-02  0.1031967E+00
         -1   -1    0    0    0  501 -0.00000000000E+00  0.00000000000E+00  0.33613111498E+03  0.33613111498E+03  0.00000000000E+00 0.  1.
          1   -1    0    0  502    0  0.00000000000E+00 -0.00000000000E+00 -0.82458853409E+03  0.82458853409E+03  0.00000000000E+00 0. -1.
          6    1    1    2  502    0 -0.30251832864E+03  0.26274488749E+03 -0.56944173470E+03  0.71721691578E+03  0.17200000000E+03 0. -1.
         -6    1    1    2    0  501  0.30251832864E+03 -0.26274488749E+03  0.80984315585E+02  0.44350273329E+03  0.17200000000E+03 0.  1.
</event>
<event>
 4    1  0.3115421E-002  0.4287057E+03  0.7818608E-02  0.1034270E+00
         -3   -1    0    0    0  501 -0.00000000000E+00  0.00000000000E+00  0.87308684879E+03  0.87308684879E+03  0.00000000000E+00 0.  1.
          3   -1    0    0  502    0  0.00000000000E+00 -0.00000000000E+00 -0.25359605997E+03  0.25359605997E+03  0.00000000000E+00 0. -1.
          6    1    1    2  502    0  0.52504131953E+02  0.38916302585E+03  0.77526514455E+02  0.43565916151E+03  0.17200000000E+03 0.  1.
         -6    1    1    2    0  501 -0.52504131953E+02 -0.38916302585E+03  0.54196427437E+03  0.69102374724E+03  0.17200000000E+03 0.  1.
</event>
<event>
 4    1  0.3115421E-002  0.2749648E+03  0.7818608E-02  0.1098471E+00
         -2   -1    0    0    0  501 -0.00000000000E+00  0.00000000000E+00  0.67152856630E+03  0.67152856630E+03  0.00000000000E+00 0.  1.
          2   -1    0    0  502    0  0.00000000000E+00 -0.00000000000E+00 -0.22942068467E+03  0.22942068467E+03  0.00000000000E+00 0. -1.
          6    1    1    2  502    0  0.18845734046E+03 -0.10249627939E+03 -0.10041375495E+03  0.29272611541E+03  0.17200000000E+03 0. -1.
         -6    1    1    2    0  501 -0.18845734046E+03  0.10249627939E+03  0.54252163658E+03  0.60822313555E+03  0.17200000000E+03 0.  1.
</event>
<event>
 4    1  0.3115421E-002  0.4851080E+03  0.7818608E-02  0.1017741E+00
          2   -1    0    0  502    0  0.00000000000E+00  0.00000000000E+00  0.24432496774E+04  0.24432496774E+04  0.00000000000E+00 0. -1.
         -2   -1    0    0    0  501 -0.00000000000E+00 -0.00000000000E+00 -0.11977120895E+03  0.11977120895E+03  0.00000000000E+00 0.  1.
          6    1    1    2  502    0 -0.23542789049E+03 -0.38771058902E+03  0.17288185053E+04  0.17955899356E+04  0.17200000000E+03 0. -1.
         -6    1    1    2    0  501  0.23542789049E+03  0.38771058902E+03  0.59465996315E+03  0.76743095079E+03  0.17200000000E+03 0.  1.
</event>
<event>
 4    1  0.3115421E-002  0.2294141E+03  0.7818608E-02  0.1127053E+00
         -2   -1    0    0    0  501 -0.00000000000E+00  0.00000000000E+00  0.37396780609E+03  0.37396780609E+03  0.00000000000E+00 0.  1.
          2   -1    0    0  502    0  0.00000000000E+00 -0.00000000000E+00 -0.34808905182E+03  0.34808905182E+03  0.00000000000E+00 0. -1.
          6    1    1    2  502    0  0.14982339917E+03 -0.24489992398E+02 -0.26570559965E+03  0.35104170173E+03  0.17200000000E+03 0. -1.
         -6    1    1    2    0  501 -0.14982339917E+03  0.24489992398E+02  0.29158435392E+03  0.37101515618E+03  0.17200000000E+03 0.  1.
</event>
<event>
 4    1  0.3115421E-002  0.1872803E+03  0.7818608E-02  0.1160937E+00
          3   -1    0    0  502    0  0.00000000000E+00  0.00000000000E+00  0.44109521692E+03  0.44109521692E+03  0.00000000000E+00 0. -1.
         -3   -1    0    0    0  501 -0.00000000000E+00 -0.00000000000E+00 -0.83553813018E+02  0.83553813018E+02  0.00000000000E+00 0.  1.
          6    1    1    2  502    0 -0.35130642919E+02 -0.65236137138E+02  0.23644132473E+03  0.30162628483E+03  0.17200000000E+03 0. -1.
         -6    1    1    2    0  501  0.35130642919E+02  0.65236137138E+02  0.12110007917E+03  0.22302274511E+03  0.17200000000E+03 0.  1.
</event>
<event>
 4    1  0.3115421E-002  0.1801790E+03  0.7818608E-02  0.1167630E+00
         -2   -1    0    0    0  501 -0.00000000000E+00  0.00000000000E+00  0.43100737844E+03  0.43100737844E+03  0.00000000000E+00 0.  1.
          2   -1    0    0  502    0  0.00000000000E+00 -0.00000000000E+00 -0.75359107276E+02  0.75359107276E+02  0.00000000000E+00 0. -1.
          6    1    1    2  502    0 -0.10200478990E+02 -0.52691674209E+02  0.17222786050E+03  0.24925267949E+03  0.17200000000E+03 0. -1.
         -6    1    1    2    0  501  0.10200478990E+02  0.52691674209E+02  0.18342041067E+03  0.25711380623E+03  0.17200000000E+03 0.  1.
</event>
<event>
 4    1  0.3115421E-002  0.1908703E+03  0.7818608E-02  0.1157679E+00
          2   -1    0    0  502    0  0.00000000000E+00  0.00000000000E+00  0.60737439245E+03  0.60737439245E+03  0.00000000000E+00 0. -1.
         -2   -1    0    0    0  501 -0.00000000000E+00 -0.00000000000E+00 -0.94922475399E+02  0.94922475399E+02  0.00000000000E+00 0.  1.
          6    1    1    2  502    0  0.65764186917E+02 -0.50225063649E+02  0.46927082736E+03  0.50660299517E+03  0.17200000000E+03 0. -1.
         -6    1    1    2    0  501 -0.65764186917E+02  0.50225063649E+02  0.43181089693E+02  0.19569387269E+03  0.17200000000E+03 0.  1.
</event>
<event>
 4    1  0.3115421E-002  0.4285871E+03  0.7818608E-02  0.1034307E+00
         -2   -1    0    0    0  501 -0.00000000000E+00  0.00000000000E+00  0.57988653272E+03  0.57988653272E+03  0.00000000000E+00 0.  1.
          2   -1    0    0  502    0  0.00000000000E+00 -0.00000000000E+00 -0.36733361832E+03  0.36733361832E+03  0.00000000000E+00 0. -1.
          6    1    1    2  502    0  0.16794460144E+03  0.35482036411E+03 -0.69450195686E+02  0.43417762450E+03  0.17200000000E+03 0. -1.
         -6    1    1    2    0  501 -0.16794460144E+03 -0.35482036411E+03  0.28200311008E+03  0.51304252654E+03  0.17200000000E+03 0.  1.
</event>
<event>
 4    1  0.3115421E-002  0.1797485E+03  0.7818608E-02  0.1168047E+00
         -1   -1    0    0    0  501 -0.00000000000E+00  0.00000000000E+00  0.14016254018E+04  0.14016254018E+04  0.00000000000E+00 0.  1.
          1   -1    0    0  502    0  0.00000000000E+00 -0.00000000000E+00 -0.23099014549E+02  0.23099014549E+02  0.00000000000E+00 0. -1.
          6    1    1    2  502    0 -0.51826201461E+02  0.62916208210E+01  0.72157860595E+03  0.74362976287E+03  0.17200000000E+03 0.  1.
         -6    1    1    2    0  501  0.51826201461E+02 -0.62916208210E+01  0.65694778130E+03  0.68109465348E+03  0.17200000000E+03 0.  1.
</event>
<event>
 4    1  0.3115421E-002  0.1860290E+03  0.7818608E-02  0.1162092E+00
          2   -1    0    0  502    0  0.00000000000E+00  0.00000000000E+00  0.92637230323E+03  0.92637230323E+03  0.00000000000E+00 0. -1.
         -2   -1    0    0    0  501 -0.00000000000E+00 -0.00000000000E+00 -0.49551043989E+02  0.49551043989E+02  0.00000000000E+00 0.  1.
          6    1    1    2  502    0 -0.70364399747E+02 -0.84647959007E+01  0.68047295466E+03  0.70544329576E+03  0.17200000000E+03 0. -1.
         -6    1    1    2    0  501  0.70364399747E+02  0.84647959007E+01  0.19634830459E+03  0.27048005146E+03  0.17200000000E+03 0.  1.
</event>
<event>
 4    1  0.3115421E-002  0.2359868E+03  0.7818608E-02  0.1122496E+00
          1   -1    0    0  502    0  0.00000000000E+00  0.00000000000E+00  0.20590215698E+03  0.20590215698E+03  0.00000000000E+00 0. -1.
         -1   -1    0    0    0  501 -0.00000000000E+00 -0.00000000000E+00 -0.52271629989E+03  0.52271629989E+03  0.00000000000E+00 0.  1.
          6    1    1    2  502    0 -0.11966133061E+03 -0.10856757811E+03 -0.41148372078E+03  0.47435071996E+03  0.17200000000E+03 0. -1.
         -6    1    1    2    0  501  0.11966133061E+03  0.10856757811E+03  0.94669577863E+02  0.25426773691E+03  0.17200000000E+03 0.  1.
</event>
<event>
 4    1  0.3115421E-002  0.1917925E+03  0.7818608E-02  0.1156854E+00
         -2   -1    0    0    0  501 -0.00000000000E+00  0.00000000000E+00  0.58876071131E+02  0.58876071131E+02  0.00000000000E+00 0.  1.
          2   -1    0    0  502    0  0.00000000000E+00 -0.00000000000E+00 -0.74640966230E+03  0.74640966230E+03  0.00000000000E+00 0. -1.
          6    1    1    2  502    0 -0.46753682108E+02 -0.70812938073E+02 -0.50630579586E+03  0.54141475590E+03  0.17200000000E+03 0. -1.
         -6    1    1    2    0  501  0.46753682108E+02  0.70812938073E+02 -0.18122779531E+03  0.26387097753E+03  0.17200000000E+03 0.  1.
</event>
<event>
 4    1  0.3115421E-002  0.2398581E+03  0.7818608E-02  0.1119887E+00
          2   -1    0    0  502    0  0.00000000000E+00  0.00000000000E+00  0.24778244806E+04  0.24778244806E+04  0.00000000000E+00 0. -1.
         -2   -1    0    0    0  501 -0.00000000000E+00 -0.00000000000E+00 -0.28795279720E+02  0.28795279720E+02  0.00000000000E+00 0.  1.
          6    1    1    2  502    0 -0.45694620499E+02 -0.16081016454E+03  0.67296944142E+03  0.71443668470E+03  0.17200000000E+03 0. -1.
         -6    1    1    2    0  501  0.45694620499E+02  0.16081016454E+03  0.17760597595E+04  0.17921830757E+04  0.17200000000E+03 0. -1.
</event>
<event>
 4    1  0.3115421E-002  0.1844064E+03  0.7818608E-02  0.1163605E+00
         -3   -1    0    0    0  501 -0.00000000000E+00  0.00000000000E+00  0.16204994289E+03  0.16204994289E+03  0.00000000000E+00 0.  1.
          3   -1    0    0  502    0  0.00000000000E+00 -0.00000000000E+00 -0.37224658757E+03  0.37224658757E+03  0.00000000000E+00 0. -1.
          6    1    1    2  502    0 -0.53755303102E+02 -0.39141861640E+02 -0.28155140997E+03  0.33656635958E+03  0.17200000000E+03 0. -1.
         -6    1    1    2    0  501  0.53755303102E+02  0.39141861640E+02  0.71354765300E+02  0.19773017088E+03  0.17200000000E+03 0.  1.
</event>
<event>
 4    1  0.3115421E-002  0.1782886E+03  0.7818608E-02  0.1169470E+00
         -1   -1    0    0    0  501 -0.00000000000E+00  0.00000000000E+00  0.20726950286E+02  0.20726950286E+02  0.00000000000E+00 0.  1.
          1   -1    0    0  502    0  0.00000000000E+00 -0.00000000000E+00 -0.18418937794E+04  0.18418937794E+04  0.00000000000E+00 0. -1.
          6    1    1    2  502    0  0.45421324718E+02 -0.11820723177E+02 -0.12916013038E+04  0.13038484399E+04  0.17200000000E+03 0. -1.
         -6    1    1    2    0  501 -0.45421324718E+02  0.11820723177E+02 -0.52956552527E+03  0.55877228974E+03  0.17200000000E+03 0.  1.
</event>
