<event>
 4    1  0.1211980E+000  0.1900634E+03  0.7818608E-02  0.1158404E+00
         21   -1    0    0  501  502  0.00000000000E+00  0.00000000000E+00  0.47980390607E+02  0.47980390607E+02  0.00000000000E+00 0.  1.
         21   -1    0    0  502  503 -0.00000000000E+00 -0.00000000000E+00 -0.10457875474E+04  0.10457875474E+04  0.00000000000E+00 0. -1.
          6    1    1    2  501    0 -0.55251947883E+01  0.80681963555E+02 -0.20948327247E+03  0.28285570255E+03  0.17200000000E+03 0.  1.
         -6    1    1    2    0  503  0.55251947883E+01 -0.80681963555E+02 -0.78832388436E+03  0.81091223549E+03  0.17200000000E+03 0. -1.
</event>
<event>
 4    1  0.1211980E+000  0.1843433E+03  0.7818608E-02  0.1163665E+00
         21   -1    0    0  503  502  0.00000000000E+00  0.00000000000E+00  0.32036486637E+03  0.32036486637E+03  0.00000000000E+00 0.  1.
         21   -1    0    0  501  503 -0.00000000000E+00 -0.00000000000E+00 -0.11759087161E+03  0.11759087161E+03  0.00000000000E+00 0.  1.
          6    1    1    2  501    0  0.66315611421E+02  0.83732341033E+00  0.16991625979E+03  0.25070699386E+03  0.17200000000E+03 0.  1.
         -6    1    1    2    0  502 -0.66315611421E+02 -0.83732341033E+00  0.32857734966E+02  0.18724874412E+03  0.17200000000E+03 0.  1.
</event>
<event>
 4    1  0.1211980E+000  0.2371922E+03  0.7818608E-02  0.1121678E+00
         21   -1    0    0  503  502  0.00000000000E+00  0.00000000000E+00  0.22833320454E+03  0.22833320454E+03  0.00000000000E+00 0.  1.
         21   -1    0    0  501  503 -0.00000000000E+00 -0.00000000000E+00 -0.28849283365E+03  0.28849283365E+03  0.00000000000E+00 0.  1.
          6    1    1    2  501    0  0.30263116215E+02 -0.16050011318E+03 -0.12879344903E+03  0.26990349210E+03  0.17200000000E+03 0.  1.
         -6    1    1    2    0  502 -0.30263116215E+02  0.16050011318E+03  0.68633819916E+02  0.24692254610E+03  0.17200000000E+03 0.  1.
</event>
<event>
 4    1  0.1211980E+000  0.2143715E+03  0.7818608E-02  0.1138150E+00
         21   -1    0    0  503  502  0.00000000000E+00  0.00000000000E+00  0.41407660131E+03  0.41407660131E+03  0.00000000000E+00 0. -1.
         21   -1    0    0  501  503 -0.00000000000E+00 -0.00000000000E+00 -0.12466258191E+03  0.12466258191E+03  0.00000000000E+00 0. -1.
          6    1    1    2  501    0 -0.11681003134E+03  0.52216374781E+02  0.55473170115E+02  0.22143262140E+03  0.17200000000E+03 0. -1.
         -6    1    1    2    0  502  0.11681003134E+03 -0.52216374781E+02  0.23394084928E+03  0.31730656183E+03  0.17200000000E+03 0. -1.
</event>
<event>
 4    1  0.1211980E+000  0.2008246E+03  0.7818608E-02  0.1149045E+00
         21   -1    0    0  501  502  0.00000000000E+00  0.00000000000E+00  0.21785564994E+03  0.21785564994E+03  0.00000000000E+00 0. -1.
         21   -1    0    0  502  503 -0.00000000000E+00 -0.00000000000E+00 -0.33821449745E+03  0.33821449745E+03  0.00000000000E+00 0. -1.
          6    1    1    2  501    0  0.23253596881E+02  0.10102361245E+03  0.12687860384E+03  0.23754721668E+03  0.17200000000E+03 0. -1.
         -6    1    1    2    0  503 -0.23253596881E+02 -0.10102361245E+03 -0.24723745134E+03  0.31852293071E+03  0.17200000000E+03 0. -1.
</event>
<event>
 4    1  0.1211980E+000  0.1856275E+03  0.7818608E-02  0.1162465E+00
         21   -1    0    0  503  502  0.00000000000E+00  0.00000000000E+00  0.28069907137E+03  0.28069907137E+03  0.00000000000E+00 0. -1.
         21   -1    0    0  501  503 -0.00000000000E+00 -0.00000000000E+00 -0.39586850272E+03  0.39586850272E+03  0.00000000000E+00 0. -1.
          6    1    1    2  501    0  0.60027300596E+02 -0.35641250296E+02 -0.33856527523E+03  0.38611400018E+03  0.17200000000E+03 0. -1.
         -6    1    1    2    0  502 -0.60027300596E+02  0.35641250296E+02  0.22339584388E+03  0.29045357392E+03  0.17200000000E+03 0. -1.
</event>
<event>
 4    1  0.1211980E+000  0.2283342E+03  0.7818608E-02  0.1127818E+00
         21   -1    0    0  501  502  0.00000000000E+00  0.00000000000E+00  0.20024876976E+04  0.20024876976E+04  0.00000000000E+00 0.  1.
         21   -1    0    0  502  503 -0.00000000000E+00 -0.00000000000E+00 -0.29835697196E+02  0.29835697196E+02  0.00000000000E+00 0. -1.
          6    1    1    2  501    0 -0.62672991390E+02  0.13647194705E+03  0.62368489869E+03  0.66416816322E+03  0.17200000000E+03 0. -1.
         -6    1    1    2    0  503  0.62672991390E+02 -0.13647194705E+03  0.13489671017E+04  0.13681552316E+04  0.17200000000E+03 0.  1.
</event>
<event>
 4    1  0.1211980E+000  0.3489536E+03  0.7818608E-02  0.1063045E+00
         21   -1    0    0  503  502  0.00000000000E+00  0.00000000000E+00  0.10699970209E+03  0.10699970209E+03  0.00000000000E+00 0.  1.
         21   -1    0    0  501  503 -0.00000000000E+00 -0.00000000000E+00 -0.13840355686E+04  0.13840355686E+04  0.00000000000E+00 0. -1.
          6    1    1    2  501    0 -0.14586144290E+03 -0.26628758032E+03 -0.95282829844E+03  0.10147169075E+04  0.17200000000E+03 0. -1.
         -6    1    1    2    0  502  0.14586144290E+03  0.26628758032E+03 -0.32420756801E+03  0.47631836319E+03  0.17200000000E+03 0.  1.
</event>
<event>
 4    1  0.1211980E+000  0.1943853E+03  0.7818608E-02  0.1154565E+00
         21   -1    0    0  501  502  0.00000000000E+00  0.00000000000E+00  0.70149001692E+02  0.70149001692E+02  0.00000000000E+00 0. -1.
         21   -1    0    0  502  503 -0.00000000000E+00 -0.00000000000E+00 -0.60163741611E+03  0.60163741611E+03  0.00000000000E+00 0. -1.
          6    1    1    2  501    0  0.14767064209E+02 -0.89350821020E+02 -0.15705990719E+03  0.24990688235E+03  0.17200000000E+03 0. -1.
         -6    1    1    2    0  503 -0.14767064209E+02  0.89350821020E+02 -0.37442850724E+03  0.42187953545E+03  0.17200000000E+03 0. -1.
</event>
<event>
 4    1  0.1211980E+000  0.2657537E+03  0.7818608E-02  0.1103735E+00
         21   -1    0    0  501  502  0.00000000000E+00  0.00000000000E+00  0.15782111427E+03  0.15782111427E+03  0.00000000000E+00 0. -1.
         21   -1    0    0  502  503 -0.00000000000E+00 -0.00000000000E+00 -0.12927655946E+04  0.12927655946E+04  0.00000000000E+00 0.  1.
          6    1    1    2  501    0  0.18437251476E+03  0.83951088090E+02  0.19003838402E+02  0.26643227144E+03  0.17200000000E+03 0. -1.
         -6    1    1    2    0  503 -0.18437251476E+03 -0.83951088090E+02 -0.11539483187E+04  0.11841544374E+04  0.17200000000E+03 0.  1.
</event>
<event>
 4    1  0.1211980E+000  0.1741787E+03  0.7818608E-02  0.1173559E+00
         21   -1    0    0  501  502  0.00000000000E+00  0.00000000000E+00  0.16039371299E+03  0.16039371299E+03  0.00000000000E+00 0. -1.
         21   -1    0    0  502  503 -0.00000000000E+00 -0.00000000000E+00 -0.36587395569E+03  0.36587395569E+03  0.00000000000E+00 0. -1.
          6    1    1    2  501    0 -0.23198845172E+02 -0.14697750497E+02  0.80137537809E+02  0.19172958888E+03  0.17200000000E+03 0.  1.
         -6    1    1    2    0  503  0.23198845172E+02  0.14697750497E+02 -0.28561778052E+03  0.33453807980E+03  0.17200000000E+03 0.  1.
</event>
<event>
 4    1  0.1211980E+000  0.1872075E+03  0.7818608E-02  0.1161004E+00
         21   -1    0    0  501  502  0.00000000000E+00  0.00000000000E+00  0.12575404150E+03  0.12575404150E+03  0.00000000000E+00 0. -1.
         21   -1    0    0  502  503 -0.00000000000E+00 -0.00000000000E+00 -0.65599628892E+03  0.65599628892E+03  0.00000000000E+00 0. -1.
          6    1    1    2  501    0  0.71560000440E+02 -0.18488660968E+02  0.31316396079E+02  0.18980880093E+03  0.17200000000E+03 0. -1.
         -6    1    1    2    0  503 -0.71560000440E+02  0.18488660968E+02 -0.56155864349E+03  0.59194152949E+03  0.17200000000E+03 0. -1.
</event>
<event>
 4    1  0.1211980E+000  0.1754491E+03  0.7818608E-02  0.1172281E+00
         21   -1    0    0  501  502  0.00000000000E+00  0.00000000000E+00  0.27669065043E+03  0.27669065043E+03  0.00000000000E+00 0. -1.
         21   -1    0    0  502  503 -0.00000000000E+00 -0.00000000000E+00 -0.12724960744E+03  0.12724960744E+03  0.00000000000E+00 0. -1.
          6    1    1    2  501    0  0.14939498737E+02 -0.31228441845E+02  0.14633249657E+03  0.22846357206E+03  0.17200000000E+03 0. -1.
         -6    1    1    2    0  503 -0.14939498737E+02  0.31228441845E+02  0.31085464136E+01  0.17547668581E+03  0.17200000000E+03 0. -1.
</event>
<event>
 4    1  0.1211980E+000  0.1739433E+03  0.7818608E-02  0.1173797E+00
         21   -1    0    0  501  502  0.00000000000E+00  0.00000000000E+00  0.34424749636E+03  0.34424749636E+03  0.00000000000E+00 0.  1.
         21   -1    0    0  502  503 -0.00000000000E+00 -0.00000000000E+00 -0.34693025975E+03  0.34693025975E+03  0.00000000000E+00 0.  1.
          6    1    1    2  501    0 -0.21451104328E+02 -0.14564657995E+02  0.29728034836E+03  0.34442979642E+03  0.17200000000E+03 0.  1.
         -6    1    1    2    0  503  0.21451104328E+02  0.14564657995E+02 -0.29996311175E+03  0.34674795969E+03  0.17200000000E+03 0.  1.
</event>
<event>
 4    1  0.1211980E+000  0.2303589E+03  0.7818608E-02  0.1126387E+00
         21   -1    0    0  503  502  0.00000000000E+00  0.00000000000E+00  0.14377484805E+03  0.14377484805E+03  0.00000000000E+00 0.  1.
         21   -1    0    0  501  503 -0.00000000000E+00 -0.00000000000E+00 -0.43993232255E+03  0.43993232255E+03  0.00000000000E+00 0.  1.
          6    1    1    2  501    0 -0.14697809180E+03 -0.43343720844E+02 -0.26519891773E+03  0.35127724602E+03  0.17200000000E+03 0.  1.
         -6    1    1    2    0  502  0.14697809180E+03  0.43343720844E+02 -0.30958556761E+02  0.23242992458E+03  0.17200000000E+03 0.  1.
</event>
<event>
 4    1  0.1211980E+000  0.2944006E+03  0.7818608E-02  0.1088074E+00
         21   -1    0    0  501  502  0.00000000000E+00  0.00000000000E+00  0.58475541881E+03  0.58475541881E+03  0.00000000000E+00 0.  1.
         21   -1    0    0  502  503 -0.00000000000E+00 -0.00000000000E+00 -0.14879543939E+03  0.14879543939E+03  0.00000000000E+00 0. -1.
          6    1    1    2  501    0  0.14982497370E+03 -0.18611868199E+03  0.24081473506E+03  0.38034645148E+03  0.17200000000E+03 0.  1.
         -6    1    1    2    0  503 -0.14982497370E+03  0.18611868199E+03  0.19514524436E+03  0.35320440672E+03  0.17200000000E+03 0.  1.
</event>
<event>
 4    1  0.1211980E+000  0.2144256E+03  0.7818608E-02  0.1138109E+00
         21   -1    0    0  501  502  0.00000000000E+00  0.00000000000E+00  0.47379406028E+03  0.47379406028E+03  0.00000000000E+00 0. -1.
         21   -1    0    0  502  503 -0.00000000000E+00 -0.00000000000E+00 -0.98535769309E+02  0.98535769309E+02  0.00000000000E+00 0. -1.
          6    1    1    2  501    0  0.66943517894E+02  0.10914623676E+03  0.22285281769E+03  0.30925994558E+03  0.17200000000E+03 0. -1.
         -6    1    1    2    0  503 -0.66943517894E+02 -0.10914623676E+03  0.15240547328E+03  0.26306988401E+03  0.17200000000E+03 0. -1.
</event>
<event>
 4    1  0.1211980E+000  0.2318269E+03  0.7818608E-02  0.1125361E+00
         21   -1    0    0  501  502  0.00000000000E+00  0.00000000000E+00  0.33097409805E+02  0.33097409805E+02  0.00000000000E+00 0. -1.
         21   -1    0    0  502  503 -0.00000000000E+00 -0.00000000000E+00 -0.19153072447E+04  0.19153072447E+04  0.00000000000E+00 0.  1.
          6    1    1    2  501    0 -0.66861174434E+02 -0.14031848666E+03 -0.56104514357E+03  0.60705464949E+03  0.17200000000E+03 0. -1.
         -6    1    1    2    0  503  0.66861174434E+02  0.14031848666E+03 -0.13211646913E+04  0.13413500050E+04  0.17200000000E+03 0.  1.
</event>
<event>
 4    1  0.1211980E+000  0.1863008E+03  0.7818608E-02  0.1161841E+00
         21   -1    0    0  503  502  0.00000000000E+00  0.00000000000E+00  0.19532710476E+03  0.19532710476E+03  0.00000000000E+00 0. -1.
         21   -1    0    0  501  503 -0.00000000000E+00 -0.00000000000E+00 -0.18473685581E+03  0.18473685581E+03  0.00000000000E+00 0. -1.
          6    1    1    2  501    0  0.68004423376E+02 -0.22346897123E+02 -0.31815508352E+02  0.18899791528E+03  0.17200000000E+03 0. -1.
         -6    1    1    2    0  502 -0.68004423376E+02  0.22346897123E+02  0.42405757305E+02  0.19106604529E+03  0.17200000000E+03 0. -1.
</event>
<event>
 4    1  0.1211980E+000  0.2021505E+03  0.7818608E-02  0.1147937E+00
         21   -1    0    0  501  502  0.00000000000E+00  0.00000000000E+00  0.14683760425E+03  0.14683760425E+03  0.00000000000E+00 0. -1.
         21   -1    0    0  502  503 -0.00000000000E+00 -0.00000000000E+00 -0.51248296468E+03  0.51248296468E+03  0.00000000000E+00 0. -1.
          6    1    1    2  501    0 -0.69857389300E+02  0.80004712247E+02 -0.40566884852E+03  0.45324609593E+03  0.17200000000E+03 0.  1.
         -6    1    1    2    0  503  0.69857389300E+02 -0.80004712247E+02  0.40023488093E+02  0.20607447300E+03  0.17200000000E+03 0.  1.
</event>
<event>
 4    1  0.1211980E+000  0.2258314E+03  0.7818608E-02  0.1129609E+00
         21   -1    0    0  503  502  0.00000000000E+00  0.00000000000E+00  0.25223586011E+03  0.25223586011E+03  0.00000000000E+00 0. -1.
         21   -1    0    0  501  503 -0.00000000000E+00 -0.00000000000E+00 -0.42771885315E+03  0.42771885315E+03  0.00000000000E+00 0. -1.
          6    1    1    2  501    0  0.73333999521E+02  0.12664097473E+03 -0.33461297763E+03  0.40369005037E+03  0.17200000000E+03 0. -1.
         -6    1    1    2    0  502 -0.73333999521E+02 -0.12664097473E+03  0.15912998459E+03  0.27626466289E+03  0.17200000000E+03 0. -1.
</event>
<event>
 4    1  0.1211980E+000  0.3142866E+03  0.7818608E-02  0.1078309E+00
         21   -1    0    0  503  502  0.00000000000E+00  0.00000000000E+00  0.75141679804E+03  0.75141679804E+03  0.00000000000E+00 0.  1.
         21   -1    0    0  501  503 -0.00000000000E+00 -0.00000000000E+00 -0.14084857003E+03  0.14084857003E+03  0.00000000000E+00 0. -1.
          6    1    1    2  501    0 -0.11212401485E+03  0.23795015269E+03  0.42050918987E+03  0.52498004594E+03  0.17200000000E+03 0. -1.
         -6    1    1    2    0  502  0.11212401485E+03 -0.23795015269E+03  0.19005903814E+03  0.36728532213E+03  0.17200000000E+03 0. -1.
</event>
<event>
 4    1  0.1211980E+000  0.1786470E+03  0.7818608E-02  0.1169119E+00
         21   -1    0    0  503  502  0.00000000000E+00  0.00000000000E+00  0.74116487124E+03  0.74116487124E+03  0.00000000000E+00 0.  1.
         21   -1    0    0  501  503 -0.00000000000E+00 -0.00000000000E+00 -0.87946124896E+02  0.87946124896E+02  0.00000000000E+00 0. -1.
          6    1    1    2  501    0  0.96822395547E+00  0.48268273057E+02  0.30447567942E+02  0.18122311672E+03  0.17200000000E+03 0. -1.
         -6    1    1    2    0  502 -0.96822395547E+00 -0.48268273057E+02  0.62277117840E+03  0.64788787941E+03  0.17200000000E+03 0.  1.
</event>
<event>
 4    1  0.1211980E+000  0.2935571E+03  0.7818608E-02  0.1088506E+00
         21   -1    0    0  503  502  0.00000000000E+00  0.00000000000E+00  0.82147631467E+03  0.82147631467E+03  0.00000000000E+00 0. -1.
         21   -1    0    0  501  503 -0.00000000000E+00 -0.00000000000E+00 -0.13629412503E+03  0.13629412503E+03  0.00000000000E+00 0. -1.
          6    1    1    2  501    0  0.23600174655E+03 -0.29916141734E+02  0.11276869923E+03  0.31447190564E+03  0.17200000000E+03 0. -1.
         -6    1    1    2    0  502 -0.23600174655E+03  0.29916141734E+02  0.57241349042E+03  0.64329853406E+03  0.17200000000E+03 0. -1.
</event>
<event>
 4    1  0.1211980E+000  0.1859771E+03  0.7818608E-02  0.1162141E+00
         21   -1    0    0  503  502  0.00000000000E+00  0.00000000000E+00  0.12721645591E+03  0.12721645591E+03  0.00000000000E+00 0. -1.
         21   -1    0    0  501  503 -0.00000000000E+00 -0.00000000000E+00 -0.32219746916E+03  0.32219746916E+03  0.00000000000E+00 0. -1.
          6    1    1    2  501    0  0.32042161889E+02 -0.63061708309E+02 -0.18629180175E+03  0.26323395411E+03  0.17200000000E+03 0. -1.
         -6    1    1    2    0  502 -0.32042161889E+02  0.63061708309E+02 -0.86892114932E+01  0.18617997097E+03  0.17200000000E+03 0. -1.
</event>
<event>
 4    1  0.1211980E+000  0.1770234E+03  0.7818608E-02  0.1170715E+00
         21   -1    0    0  501  502  0.00000000000E+00  0.00000000000E+00  0.72794527744E+03  0.72794527744E+03  0.00000000000E+00 0.  1.
         21   -1    0    0  502  503 -0.00000000000E+00 -0.00000000000E+00 -0.56749733598E+02  0.56749733598E+02  0.00000000000E+00 0. -1.
          6    1    1    2  501    0 -0.15779987276E+02 -0.38784942719E+02  0.14281790011E+03  0.22745160446E+03  0.17200000000E+03 0. -1.
         -6    1    1    2    0  503  0.15779987276E+02  0.38784942719E+02  0.52837764373E+03  0.55724340658E+03  0.17200000000E+03 0.  1.
</event>
<event>
 4    1  0.1211980E+000  0.1968696E+03  0.7818608E-02  0.1152407E+00
         21   -1    0    0  501  502  0.00000000000E+00  0.00000000000E+00  0.29647887171E+03  0.29647887171E+03  0.00000000000E+00 0.  1.
         21   -1    0    0  502  503 -0.00000000000E+00 -0.00000000000E+00 -0.13162668013E+03  0.13162668013E+03  0.00000000000E+00 0. -1.
          6    1    1    2  501    0 -0.19907187693E+02 -0.93687525473E+02  0.10012762975E+03  0.22086917121E+03  0.17200000000E+03 0. -1.
         -6    1    1    2    0  503  0.19907187693E+02  0.93687525473E+02  0.64724561836E+02  0.20723638063E+03  0.17200000000E+03 0. -1.
</event>
<event>
 4    1  0.1211980E+000  0.2404243E+03  0.7818608E-02  0.1119510E+00
         21   -1    0    0  503  502  0.00000000000E+00  0.00000000000E+00  0.64531711523E+03  0.64531711523E+03  0.00000000000E+00 0. -1.
         21   -1    0    0  501  503 -0.00000000000E+00 -0.00000000000E+00 -0.90725772741E+02  0.90725772741E+02  0.00000000000E+00 0. -1.
          6    1    1    2  501    0 -0.16744771367E+03 -0.13458295379E+02  0.31875524025E+03  0.39926027315E+03  0.17200000000E+03 0. -1.
         -6    1    1    2    0  502  0.16744771367E+03  0.13458295379E+02  0.23583610224E+03  0.33678261482E+03  0.17200000000E+03 0. -1.
</event>
<event>
 4    1  0.1211980E+000  0.2085502E+03  0.7818608E-02  0.1142719E+00
         21   -1    0    0  503  502  0.00000000000E+00  0.00000000000E+00  0.24658621819E+03  0.24658621819E+03  0.00000000000E+00 0. -1.
         21   -1    0    0  501  503 -0.00000000000E+00 -0.00000000000E+00 -0.27056471006E+03  0.27056471006E+03  0.00000000000E+00 0.  1.
          6    1    1    2  501    0  0.11786569294E+03 -0.41064013080E+01 -0.16454868045E+03  0.26564911508E+03  0.17200000000E+03 0.  1.
         -6    1    1    2    0  502 -0.11786569294E+03  0.41064013080E+01  0.14057018859E+03  0.25150181316E+03  0.17200000000E+03 0. -1.
</event>
<event>
 4    1  0.1211980E+000  0.2137724E+03  0.7818608E-02  0.1138613E+00
         21   -1    0    0  503  502  0.00000000000E+00  0.00000000000E+00  0.41751101432E+02  0.41751101432E+02  0.00000000000E+00 0. -1.
         21   -1    0    0  501  503 -0.00000000000E+00 -0.00000000000E+00 -0.10982722865E+04  0.10982722865E+04  0.00000000000E+00 0. -1.
          6    1    1    2  501    0 -0.11775014712E+03 -0.47429159591E+02 -0.49507133314E+03  0.53925341652E+03  0.17200000000E+03 0. -1.
         -6    1    1    2    0  502  0.11775014712E+03  0.47429159591E+02 -0.56144985194E+03  0.60076997142E+03  0.17200000000E+03 0. -1.
</event>
<event>
 4    1  0.1211980E+000  0.1863850E+03  0.7818608E-02  0.1161763E+00
         21   -1    0    0  503  502  0.00000000000E+00  0.00000000000E+00  0.21610998872E+02  0.21610998872E+02  0.00000000000E+00 0. -1.
         21   -1    0    0  501  503 -0.00000000000E+00 -0.00000000000E+00 -0.18165677804E+04  0.18165677804E+04  0.00000000000E+00 0. -1.
          6    1    1    2  501    0 -0.66838064140E+02 -0.26230260452E+02 -0.12092892480E+04  0.12235684855E+04  0.17200000000E+03 0. -1.
         -6    1    1    2    0  502  0.66838064140E+02  0.26230260452E+02 -0.58566753353E+03  0.61461029378E+03  0.17200000000E+03 0. -1.
</event>
<event>
 4    1  0.1211980E+000  0.1799265E+03  0.7818608E-02  0.1167874E+00
         21   -1    0    0  503  502  0.00000000000E+00  0.00000000000E+00  0.67781018428E+02  0.67781018428E+02  0.00000000000E+00 0. -1.
         21   -1    0    0  501  503 -0.00000000000E+00 -0.00000000000E+00 -0.48137941176E+03  0.48137941176E+03  0.00000000000E+00 0. -1.
          6    1    1    2  501    0 -0.11694426300E+02 -0.51505361432E+02 -0.18253352117E+03  0.25630460045E+03  0.17200000000E+03 0.  1.
         -6    1    1    2    0  502  0.11694426300E+02  0.51505361432E+02 -0.23106487216E+03  0.29285582974E+03  0.17200000000E+03 0.  1.
</event>
<event>
 4    1  0.1211980E+000  0.2084734E+03  0.7818608E-02  0.1142781E+00
         21   -1    0    0  503  502  0.00000000000E+00  0.00000000000E+00  0.31340790369E+03  0.31340790369E+03  0.00000000000E+00 0. -1.
         21   -1    0    0  501  503 -0.00000000000E+00 -0.00000000000E+00 -0.56431008091E+03  0.56431008091E+03  0.00000000000E+00 0. -1.
          6    1    1    2  501    0  0.66233240367E+01 -0.11761496293E+03 -0.50659232038E+03  0.54781103220E+03  0.17200000000E+03 0. -1.
         -6    1    1    2    0  502 -0.66233240367E+01  0.11761496293E+03  0.25569014316E+03  0.32990695239E+03  0.17200000000E+03 0. -1.
</event>
<event>
 4    1  0.1211980E+000  0.1904474E+03  0.7818608E-02  0.1158058E+00
         21   -1    0    0  503  502  0.00000000000E+00  0.00000000000E+00  0.67443000805E+03  0.67443000805E+03  0.00000000000E+00 0. -1.
         21   -1    0    0  501  503 -0.00000000000E+00 -0.00000000000E+00 -0.57226016728E+02  0.57226016728E+02  0.00000000000E+00 0. -1.
          6    1    1    2  501    0 -0.78756706565E+02 -0.21990835980E+02  0.21881824229E+03  0.29008901884E+03  0.17200000000E+03 0. -1.
         -6    1    1    2    0  502  0.78756706565E+02  0.21990835980E+02  0.39838574903E+03  0.44156700593E+03  0.17200000000E+03 0. -1.
</event>
<event>
 4    1  0.1211980E+000  0.1746737E+03  0.7818608E-02  0.1173060E+00
         21   -1    0    0  501  502  0.00000000000E+00  0.00000000000E+00  0.12836980205E+03  0.12836980205E+03  0.00000000000E+00 0.  1.
         21   -1    0    0  502  503 -0.00000000000E+00 -0.00000000000E+00 -0.27323613770E+03  0.27323613770E+03  0.00000000000E+00 0.  1.
          6    1    1    2  501    0 -0.30432821478E+02 -0.86640680549E+00  0.36977667686E-02  0.17467371668E+03  0.17200000000E+03 0.  1.
         -6    1    1    2    0  503  0.30432821478E+02  0.86640680549E+00 -0.14487003342E+03  0.22693222307E+03  0.17200000000E+03 0.  1.
</event>
<event>
 4    1  0.1211980E+000  0.1723887E+03  0.7818608E-02  0.1175379E+00
         21   -1    0    0  503  502  0.00000000000E+00  0.00000000000E+00  0.42770494800E+03  0.42770494800E+03  0.00000000000E+00 0. -1.
         21   -1    0    0  501  503 -0.00000000000E+00 -0.00000000000E+00 -0.17858919235E+03  0.17858919235E+03  0.00000000000E+00 0. -1.
          6    1    1    2  501    0 -0.11306807802E+02  0.24534160823E+01 -0.11238963946E+03  0.20578944144E+03  0.17200000000E+03 0. -1.
         -6    1    1    2    0  502  0.11306807802E+02 -0.24534160823E+01  0.36150539511E+03  0.40050469891E+03  0.17200000000E+03 0. -1.
</event>
<event>
 4    1  0.1211980E+000  0.1971855E+03  0.7818608E-02  0.1152136E+00
         21   -1    0    0  501  502  0.00000000000E+00  0.00000000000E+00  0.20317685186E+03  0.20317685186E+03  0.00000000000E+00 0.  1.
         21   -1    0    0  502  503 -0.00000000000E+00 -0.00000000000E+00 -0.19886248560E+03  0.19886248560E+03  0.00000000000E+00 0.  1.
          6    1    1    2  501    0 -0.41741484020E+02  0.86924009947E+02  0.41173770480E+02  0.20143836370E+03  0.17200000000E+03 0. -1.
         -6    1    1    2    0  503  0.41741484020E+02 -0.86924009947E+02 -0.36859404223E+02  0.20060097376E+03  0.17200000000E+03 0. -1.
</event>
<event>
 4    1  0.1211980E+000  0.2285697E+03  0.7818608E-02  0.1127651E+00
         21   -1    0    0  501  502  0.00000000000E+00  0.00000000000E+00  0.87180263984E+03  0.87180263984E+03  0.00000000000E+00 0.  1.
         21   -1    0    0  502  503 -0.00000000000E+00 -0.00000000000E+00 -0.60504746478E+02  0.60504746478E+02  0.00000000000E+00 0. -1.
          6    1    1    2  501    0 -0.14160219894E+03  0.51077420049E+02  0.36007791241E+03  0.42649758333E+03  0.17200000000E+03 0.  1.
         -6    1    1    2    0  503  0.14160219894E+03 -0.51077420049E+02  0.45121998095E+03  0.50580980299E+03  0.17200000000E+03 0. -1.
</event>
<event>
 4    1  0.1211980E+000  0.1732838E+03  0.7818608E-02  0.1174466E+00
         21   -1    0    0  503  502  0.00000000000E+00  0.00000000000E+00  0.10572857317E+03  0.10572857317E+03  0.00000000000E+00 0.  1.
         21   -1    0    0  501  503 -0.00000000000E+00 -0.00000000000E+00 -0.29938878464E+03  0.29938878464E+03  0.00000000000E+00 0.  1.
          6    1    1    2  501    0 -0.45169140851E+00 -0.21049087770E+02 -0.50911563658E+02  0.18060801598E+03  0.17200000000E+03 0.  1.
         -6    1    1    2    0  502  0.45169140851E+00  0.21049087770E+02 -0.14274864781E+03  0.22450934184E+03  0.17200000000E+03 0.  1.
</event>
<event>
 4    1  0.1211980E+000  0.1769620E+03  0.7818608E-02  0.1170776E+00
         21   -1    0    0  501  502  0.00000000000E+00  0.00000000000E+00  0.22648201051E+03  0.22648201051E+03  0.00000000000E+00 0.  1.
         21   -1    0    0  502  503 -0.00000000000E+00 -0.00000000000E+00 -0.29685133548E+03  0.29685133548E+03  0.00000000000E+00 0.  1.
          6    1    1    2  501    0 -0.12415002002E+02  0.39716517442E+02  0.15606723469E+03  0.23595024004E+03  0.17200000000E+03 0.  1.
         -6    1    1    2    0  503  0.12415002002E+02 -0.39716517442E+02 -0.22643655966E+03  0.28738310595E+03  0.17200000000E+03 0.  1.
</event>
<event>
 4    1  0.1211980E+000  0.1769960E+03  0.7818608E-02  0.1170742E+00
         21   -1    0    0  501  502  0.00000000000E+00  0.00000000000E+00  0.85445197337E+02  0.85445197337E+02  0.00000000000E+00 0. -1.
         21   -1    0    0  502  503 -0.00000000000E+00 -0.00000000000E+00 -0.36813376742E+03  0.36813376742E+03  0.00000000000E+00 0. -1.
          6    1    1    2  501    0  0.30495047656E+02  0.28524331276E+02 -0.15579311182E+03  0.23579456969E+03  0.17200000000E+03 0. -1.
         -6    1    1    2    0  503 -0.30495047656E+02 -0.28524331276E+02 -0.12689545827E+03  0.21778439507E+03  0.17200000000E+03 0. -1.
</event>
<event>
 4    1  0.1211980E+000  0.2013210E+03  0.7818608E-02  0.1148629E+00
         21   -1    0    0  501  502  0.00000000000E+00  0.00000000000E+00  0.28355229776E+03  0.28355229776E+03  0.00000000000E+00 0. -1.
         21   -1    0    0  502  503 -0.00000000000E+00 -0.00000000000E+00 -0.14505009088E+03  0.14505009088E+03  0.00000000000E+00 0. -1.
          6    1    1    2  501    0 -0.91911907549E+02  0.49983490105E+02  0.95116112044E+02  0.22265943232E+03  0.17200000000E+03 0.  1.
         -6    1    1    2    0  503  0.91911907549E+02 -0.49983490105E+02  0.43386094835E+02  0.20594295632E+03  0.17200000000E+03 0.  1.
</event>
<event>
 4    1  0.1211980E+000  0.2022403E+03  0.7818608E-02  0.1147862E+00
         21   -1    0    0  503  502  0.00000000000E+00  0.00000000000E+00  0.23095901460E+03  0.23095901460E+03  0.00000000000E+00 0.  1.
         21   -1    0    0  501  503 -0.00000000000E+00 -0.00000000000E+00 -0.25093038612E+03  0.25093038612E+03  0.00000000000E+00 0.  1.
          6    1    1    2  501    0 -0.58945621461E+02  0.88558273627E+02 -0.14068695577E+03  0.24636146948E+03  0.17200000000E+03 0. -1.
         -6    1    1    2    0  502  0.58945621461E+02 -0.88558273627E+02  0.12071558425E+03  0.23552793125E+03  0.17200000000E+03 0. -1.
</event>
<event>
 4    1  0.1211980E+000  0.1899634E+03  0.7818608E-02  0.1158494E+00
         21   -1    0    0  503  502  0.00000000000E+00  0.00000000000E+00  0.41568311478E+02  0.41568311478E+02  0.00000000000E+00 0.  1.
         21   -1    0    0  501  503 -0.00000000000E+00 -0.00000000000E+00 -0.88164464771E+03  0.88164464771E+03  0.00000000000E+00 0.  1.
          6    1    1    2  501    0  0.64643841259E+01  0.80376052966E+02 -0.47722016333E+03  0.51363915587E+03  0.17200000000E+03 0.  1.
         -6    1    1    2    0  502 -0.64643841259E+01 -0.80376052966E+02 -0.36285617289E+03  0.40957380331E+03  0.17200000000E+03 0.  1.
</event>
<event>
 4    1  0.1211980E+000  0.2161635E+03  0.7818608E-02  0.1136776E+00
         21   -1    0    0  503  502  0.00000000000E+00  0.00000000000E+00  0.70822557995E+02  0.70822557995E+02  0.00000000000E+00 0.  1.
         21   -1    0    0  501  503 -0.00000000000E+00 -0.00000000000E+00 -0.66016873917E+03  0.66016873917E+03  0.00000000000E+00 0.  1.
          6    1    1    2  501    0  0.11714436094E+03 -0.58479528302E+02 -0.30364649091E+03  0.37273026168E+03  0.17200000000E+03 0. -1.
         -6    1    1    2    0  502 -0.11714436094E+03  0.58479528302E+02 -0.28569969027E+03  0.35826103549E+03  0.17200000000E+03 0. -1.
</event>
<event>
 4    1  0.1211980E+000  0.2251560E+03  0.7818608E-02  0.1130096E+00
         21   -1    0    0  501  502  0.00000000000E+00  0.00000000000E+00  0.11773242529E+03  0.11773242529E+03  0.00000000000E+00 0.  1.
         21   -1    0    0  502  503 -0.00000000000E+00 -0.00000000000E+00 -0.43146991916E+03  0.43146991916E+03  0.00000000000E+00 0. -1.
          6    1    1    2  501    0 -0.85006453771E+02  0.11783507830E+03 -0.14451582650E+03  0.26754443924E+03  0.17200000000E+03 0. -1.
         -6    1    1    2    0  503  0.85006453771E+02 -0.11783507830E+03 -0.16922166737E+03  0.28165790521E+03  0.17200000000E+03 0. -1.
</event>
<event>
 4    1  0.1211980E+000  0.1880201E+03  0.7818608E-02  0.1160259E+00
         21   -1    0    0  501  502  0.00000000000E+00  0.00000000000E+00  0.81237707929E+03  0.81237707929E+03  0.00000000000E+00 0.  1.
         21   -1    0    0  502  503 -0.00000000000E+00 -0.00000000000E+00 -0.56673329368E+02  0.56673329368E+02  0.00000000000E+00 0.  1.
          6    1    1    2  501    0 -0.74989381237E+02 -0.12005560315E+02  0.58721810952E+03  0.61658466485E+03  0.17200000000E+03 0.  1.
         -6    1    1    2    0  503  0.74989381237E+02  0.12005560315E+02  0.16848564041E+03  0.25246574381E+03  0.17200000000E+03 0.  1.
</event>
<event>
 4    1  0.1211980E+000  0.2092978E+03  0.7818608E-02  0.1142123E+00
         21   -1    0    0  501  502  0.00000000000E+00  0.00000000000E+00  0.13264794196E+03  0.13264794196E+03  0.00000000000E+00 0.  1.
         21   -1    0    0  502  503 -0.00000000000E+00 -0.00000000000E+00 -0.36387540181E+03  0.36387540181E+03  0.00000000000E+00 0.  1.
          6    1    1    2  501    0  0.18327260608E+02  0.11783744310E+03 -0.40132887073E+02  0.21311076956E+03  0.17200000000E+03 0.  1.
         -6    1    1    2    0  503 -0.18327260608E+02 -0.11783744310E+03 -0.19109457278E+03  0.28341257421E+03  0.17200000000E+03 0.  1.
</event>
<event>
 4    1  0.1211980E+000  0.1784734E+03  0.7818608E-02  0.1169289E+00
         21   -1    0    0  503  502  0.00000000000E+00  0.00000000000E+00  0.20555779327E+03  0.20555779327E+03  0.00000000000E+00 0.  1.
         21   -1    0    0  501  503 -0.00000000000E+00 -0.00000000000E+00 -0.44580970392E+03  0.44580970392E+03  0.00000000000E+00 0.  1.
          6    1    1    2  501    0  0.23014781221E+02  0.41702200672E+02 -0.38318751629E+03  0.42271198982E+03  0.17200000000E+03 0.  1.
         -6    1    1    2    0  502 -0.23014781221E+02 -0.41702200672E+02  0.14293560564E+03  0.22865550738E+03  0.17200000000E+03 0.  1.
</event>
<event>
 4    1  0.1211980E+000  0.1825590E+03  0.7818608E-02  0.1165349E+00
         21   -1    0    0  503  502  0.00000000000E+00  0.00000000000E+00  0.24076297524E+03  0.24076297524E+03  0.00000000000E+00 0. -1.
         21   -1    0    0  501  503 -0.00000000000E+00 -0.00000000000E+00 -0.26530701892E+03  0.26530701892E+03  0.00000000000E+00 0. -1.
          6    1    1    2  501    0  0.60511850815E+02  0.90603398732E+01 -0.18725875865E+03  0.26152173244E+03  0.17200000000E+03 0. -1.
         -6    1    1    2    0  502 -0.60511850815E+02 -0.90603398732E+01  0.16271471496E+03  0.24454826172E+03  0.17200000000E+03 0. -1.
</event>
<event>
 4    1  0.1211980E+000  0.1783241E+03  0.7818608E-02  0.1169435E+00
         21   -1    0    0  501  502  0.00000000000E+00  0.00000000000E+00  0.78116766988E+02  0.78116766988E+02  0.00000000000E+00 0.  1.
         21   -1    0    0  502  503 -0.00000000000E+00 -0.00000000000E+00 -0.65235906924E+03  0.65235906924E+03  0.00000000000E+00 0.  1.
          6    1    1    2  501    0  0.54339746864E+01 -0.46754101861E+02 -0.63163376178E+02  0.18918003650E+03  0.17200000000E+03 0.  1.
         -6    1    1    2    0  503 -0.54339746864E+01  0.46754101861E+02 -0.51107892608E+03  0.54129579973E+03  0.17200000000E+03 0.  1.
</event>
<event>
 4    1  0.1211980E+000  0.3333887E+03  0.7818608E-02  0.1069647E+00
         21   -1    0    0  501  502  0.00000000000E+00  0.00000000000E+00  0.29369854621E+03  0.29369854621E+03  0.00000000000E+00 0.  1.
         21   -1    0    0  502  503 -0.00000000000E+00 -0.00000000000E+00 -0.39554197706E+03  0.39554197706E+03  0.00000000000E+00 0. -1.
          6    1    1    2  501    0  0.21018535619E+03  0.19335501637E+03 -0.12257472755E+03  0.35520784077E+03  0.17200000000E+03 0. -1.
         -6    1    1    2    0  503 -0.21018535619E+03 -0.19335501637E+03  0.20731296706E+02  0.33403268250E+03  0.17200000000E+03 0.  1.
</event>
<event>
 4    1  0.1211980E+000  0.1944530E+03  0.7818608E-02  0.1154505E+00
         21   -1    0    0  503  502  0.00000000000E+00  0.00000000000E+00  0.37785405116E+03  0.37785405116E+03  0.00000000000E+00 0.  1.
         21   -1    0    0  501  503 -0.00000000000E+00 -0.00000000000E+00 -0.10778894271E+03  0.10778894271E+03  0.00000000000E+00 0.  1.
          6    1    1    2  501    0  0.61224870699E+02 -0.66928907202E+02  0.70053878527E+02  0.20668698389E+03  0.17200000000E+03 0. -1.
         -6    1    1    2    0  502 -0.61224870699E+02  0.66928907202E+02  0.20001122992E+03  0.27895600998E+03  0.17200000000E+03 0. -1.
</event>
<event>
 4    1  0.1211980E+000  0.3206167E+03  0.7818608E-02  0.1075366E+00
         21   -1    0    0  503  502  0.00000000000E+00  0.00000000000E+00  0.40317767956E+03  0.40317767956E+03  0.00000000000E+00 0. -1.
         21   -1    0    0  501  503 -0.00000000000E+00 -0.00000000000E+00 -0.25858008959E+03  0.25858008959E+03  0.00000000000E+00 0. -1.
          6    1    1    2  501    0  0.23443509121E+01  0.27056534210E+03  0.33161177922E+02  0.32232710722E+03  0.17200000000E+03 0. -1.
         -6    1    1    2    0  502 -0.23443509121E+01 -0.27056534210E+03  0.11143641204E+03  0.33943066193E+03  0.17200000000E+03 0. -1.
</event>
<event>
 4    1  0.1211980E+000  0.1972563E+03  0.7818608E-02  0.1152075E+00
         21   -1    0    0  503  502  0.00000000000E+00  0.00000000000E+00  0.32926274786E+03  0.32926274786E+03  0.00000000000E+00 0. -1.
         21   -1    0    0  501  503 -0.00000000000E+00 -0.00000000000E+00 -0.20386198436E+03  0.20386198436E+03  0.00000000000E+00 0. -1.
          6    1    1    2  501    0  0.67466832617E+02 -0.69096092920E+02 -0.11011906768E+03  0.22591204622E+03  0.17200000000E+03 0. -1.
         -6    1    1    2    0  502 -0.67466832617E+02  0.69096092920E+02  0.23551983118E+03  0.30721268600E+03  0.17200000000E+03 0. -1.
</event>
<event>
 4    1  0.1211980E+000  0.2119804E+03  0.7818608E-02  0.1140007E+00
         21   -1    0    0  503  502  0.00000000000E+00  0.00000000000E+00  0.61088596609E+03  0.61088596609E+03  0.00000000000E+00 0. -1.
         21   -1    0    0  501  503 -0.00000000000E+00 -0.00000000000E+00 -0.76312143937E+02  0.76312143937E+02  0.00000000000E+00 0.  1.
          6    1    1    2  501    0 -0.42141864405E+02 -0.11651508547E+03  0.20201462354E+03  0.29282351340E+03  0.17200000000E+03 0.  1.
         -6    1    1    2    0  502  0.42141864405E+02  0.11651508547E+03  0.33255919862E+03  0.39437459663E+03  0.17200000000E+03 0. -1.
</event>
<event>
 4    1  0.1211980E+000  0.2167003E+03  0.7818608E-02  0.1136367E+00
         21   -1    0    0  501  502  0.00000000000E+00  0.00000000000E+00  0.31826459867E+03  0.31826459867E+03  0.00000000000E+00 0.  1.
         21   -1    0    0  502  503 -0.00000000000E+00 -0.00000000000E+00 -0.16458851341E+03  0.16458851341E+03  0.00000000000E+00 0.  1.
          6    1    1    2  501    0 -0.11613991978E+03  0.62341996084E+02  0.15452330010E+03  0.26615118958E+03  0.17200000000E+03 0. -1.
         -6    1    1    2    0  503  0.11613991978E+03 -0.62341996084E+02 -0.84721483564E+00  0.21670192250E+03  0.17200000000E+03 0. -1.
</event>
<event>
 4    1  0.1211980E+000  0.2200110E+03  0.7818608E-02  0.1133875E+00
         21   -1    0    0  503  502  0.00000000000E+00  0.00000000000E+00  0.43072028386E+03  0.43072028386E+03  0.00000000000E+00 0. -1.
         21   -1    0    0  501  503 -0.00000000000E+00 -0.00000000000E+00 -0.14861973757E+03  0.14861973757E+03  0.00000000000E+00 0.  1.
          6    1    1    2  501    0 -0.11514750044E+03  0.74578111017E+02 -0.19875566156E+01  0.22001998064E+03  0.17200000000E+03 0.  1.
         -6    1    1    2    0  502  0.11514750044E+03 -0.74578111017E+02  0.28408810291E+03  0.35932004079E+03  0.17200000000E+03 0. -1.
</event>
<event>
 4    1  0.1211980E+000  0.2411712E+03  0.7818608E-02  0.1119015E+00
         21   -1    0    0  503  502  0.00000000000E+00  0.00000000000E+00  0.19371323257E+03  0.19371323257E+03  0.00000000000E+00 0.  1.
         21   -1    0    0  501  503 -0.00000000000E+00 -0.00000000000E+00 -0.33792112279E+03  0.33792112279E+03  0.00000000000E+00 0. -1.
          6    1    1    2  501    0 -0.16525714437E+03 -0.35631660226E+02  0.16641424590E+02  0.24174465038E+03  0.17200000000E+03 0. -1.
         -6    1    1    2    0  502  0.16525714437E+03  0.35631660226E+02 -0.16084931481E+03  0.28988970498E+03  0.17200000000E+03 0. -1.
</event>
<event>
 4    1  0.1211980E+000  0.2098834E+03  0.7818608E-02  0.1141658E+00
         21   -1    0    0  503  502  0.00000000000E+00  0.00000000000E+00  0.13592069231E+03  0.13592069231E+03  0.00000000000E+00 0. -1.
         21   -1    0    0  501  503 -0.00000000000E+00 -0.00000000000E+00 -0.44915148293E+03  0.44915148293E+03  0.00000000000E+00 0. -1.
          6    1    1    2  501    0  0.15663752081E+02 -0.11925477311E+03 -0.31097661946E+03  0.37517664092E+03  0.17200000000E+03 0. -1.
         -6    1    1    2    0  502 -0.15663752081E+02  0.11925477311E+03 -0.22541711535E+01  0.20989553432E+03  0.17200000000E+03 0. -1.
</event>
<event>
 4    1  0.1211980E+000  0.2565828E+03  0.7818608E-02  0.1109214E+00
         21   -1    0    0  503  502  0.00000000000E+00  0.00000000000E+00  0.35040712549E+02  0.35040712549E+02  0.00000000000E+00 0. -1.
         21   -1    0    0  501  503 -0.00000000000E+00 -0.00000000000E+00 -0.20275897087E+04  0.20275897087E+04  0.00000000000E+00 0. -1.
          6    1    1    2  501    0 -0.18324399606E+03 -0.51694804574E+02 -0.12756436786E+04  0.13011923415E+04  0.17200000000E+03 0. -1.
         -6    1    1    2    0  502  0.18324399606E+03  0.51694804574E+02 -0.71690531756E+03  0.76143807973E+03  0.17200000000E+03 0. -1.
</event>
<event>
 4    1  0.1211980E+000  0.1780975E+03  0.7818608E-02  0.1169657E+00
         21   -1    0    0  501  502  0.00000000000E+00  0.00000000000E+00  0.27879984991E+02  0.27879984991E+02  0.00000000000E+00 0. -1.
         21   -1    0    0  502  503 -0.00000000000E+00 -0.00000000000E+00 -0.12135346537E+04  0.12135346537E+04  0.00000000000E+00 0. -1.
          6    1    1    2  501    0  0.39961316297E+02 -0.23190836776E+02 -0.43764965234E+03  0.47249967185E+03  0.17200000000E+03 0.  1.
         -6    1    1    2    0  503 -0.39961316297E+02  0.23190836776E+02 -0.74800501640E+03  0.76891496687E+03  0.17200000000E+03 0.  1.
</event>
<event>
 4    1  0.1211980E+000  0.1802277E+03  0.7818608E-02  0.1167583E+00
         21   -1    0    0  501  502  0.00000000000E+00  0.00000000000E+00  0.69092585208E+02  0.69092585208E+02  0.00000000000E+00 0.  1.
         21   -1    0    0  502  503 -0.00000000000E+00 -0.00000000000E+00 -0.56328685999E+03  0.56328685999E+03  0.00000000000E+00 0.  1.
          6    1    1    2  501    0 -0.46107415535E+02  0.27787141462E+02 -0.11850734690E+03  0.21569888796E+03  0.17200000000E+03 0.  1.
         -6    1    1    2    0  503  0.46107415535E+02 -0.27787141462E+02 -0.37568692788E+03  0.41668055724E+03  0.17200000000E+03 0.  1.
</event>
<event>
 4    1  0.1211980E+000  0.2224881E+03  0.7818608E-02  0.1132042E+00
         21   -1    0    0  501  502  0.00000000000E+00  0.00000000000E+00  0.39504252248E+03  0.39504252248E+03  0.00000000000E+00 0.  1.
         21   -1    0    0  502  503 -0.00000000000E+00 -0.00000000000E+00 -0.21572620706E+03  0.21572620706E+03  0.00000000000E+00 0.  1.
          6    1    1    2  501    0  0.11519598785E+02 -0.14065652272E+03  0.28736857398E+03  0.36343040029E+03  0.17200000000E+03 0.  1.
         -6    1    1    2    0  503 -0.11519598785E+02  0.14065652272E+03 -0.10805225857E+03  0.24733832926E+03  0.17200000000E+03 0.  1.
</event>
<event>
 4    1  0.1211980E+000  0.1791858E+03  0.7818608E-02  0.1168593E+00
         21   -1    0    0  503  502  0.00000000000E+00  0.00000000000E+00  0.15630257161E+03  0.15630257161E+03  0.00000000000E+00 0. -1.
         21   -1    0    0  501  503 -0.00000000000E+00 -0.00000000000E+00 -0.24764461936E+03  0.24764461936E+03  0.00000000000E+00 0. -1.
          6    1    1    2  501    0  0.35985249468E+02  0.35051529110E+02 -0.12907124048E+03  0.22083236400E+03  0.17200000000E+03 0. -1.
         -6    1    1    2    0  502 -0.35985249468E+02 -0.35051529110E+02  0.37729192719E+02  0.18311482697E+03  0.17200000000E+03 0. -1.
</event>
<event>
 4    1  0.1211980E+000  0.3165671E+03  0.7818608E-02  0.1077240E+00
         21   -1    0    0  503  502  0.00000000000E+00  0.00000000000E+00  0.14257269485E+03  0.14257269485E+03  0.00000000000E+00 0. -1.
         21   -1    0    0  501  503 -0.00000000000E+00 -0.00000000000E+00 -0.70555853953E+03  0.70555853953E+03  0.00000000000E+00 0.  1.
          6    1    1    2  501    0  0.23385731867E+03  0.12625947902E+03 -0.30751158724E+03  0.44133669441E+03  0.17200000000E+03 0. -1.
         -6    1    1    2    0  502 -0.23385731867E+03 -0.12625947902E+03 -0.25547425743E+03  0.40679453997E+03  0.17200000000E+03 0.  1.
</event>
<event>
 4    1  0.1211980E+000  0.2326430E+03  0.7818608E-02  0.1124793E+00
         21   -1    0    0  503  502  0.00000000000E+00  0.00000000000E+00  0.48860312798E+02  0.48860312798E+02  0.00000000000E+00 0. -1.
         21   -1    0    0  501  503 -0.00000000000E+00 -0.00000000000E+00 -0.11243893568E+04  0.11243893568E+04  0.00000000000E+00 0. -1.
          6    1    1    2  501    0  0.55012457116E+02  0.14667107261E+03 -0.60922520347E+03  0.65213351587E+03  0.17200000000E+03 0. -1.
         -6    1    1    2    0  502 -0.55012457116E+02 -0.14667107261E+03 -0.46630384050E+03  0.52111615369E+03  0.17200000000E+03 0. -1.
</event>
<event>
 4    1  0.1211980E+000  0.1923058E+03  0.7818608E-02  0.1156398E+00
         21   -1    0    0  501  502  0.00000000000E+00  0.00000000000E+00  0.11365527744E+03  0.11365527744E+03  0.00000000000E+00 0. -1.
         21   -1    0    0  502  503 -0.00000000000E+00 -0.00000000000E+00 -0.52975749119E+03  0.52975749119E+03  0.00000000000E+00 0.  1.
          6    1    1    2  501    0  0.82841102865E+02  0.23127067531E+02 -0.82332320401E+01  0.19248193600E+03  0.17200000000E+03 0. -1.
         -6    1    1    2    0  503 -0.82841102865E+02 -0.23127067531E+02 -0.40786898171E+03  0.45093083263E+03  0.17200000000E+03 0.  1.
</event>
<event>
 4    1  0.1211980E+000  0.2115521E+03  0.7818608E-02  0.1140343E+00
         21   -1    0    0  501  502  0.00000000000E+00  0.00000000000E+00  0.33065982922E+03  0.33065982922E+03  0.00000000000E+00 0. -1.
         21   -1    0    0  502  503 -0.00000000000E+00 -0.00000000000E+00 -0.19939740441E+03  0.19939740441E+03  0.00000000000E+00 0. -1.
          6    1    1    2  501    0 -0.24380233709E+01  0.12314354316E+03 -0.84575464630E+02  0.22783170411E+03  0.17200000000E+03 0.  1.
         -6    1    1    2    0  503  0.24380233709E+01 -0.12314354316E+03  0.21583788943E+03  0.30222552952E+03  0.17200000000E+03 0.  1.
</event>
<event>
 4    1  0.1211980E+000  0.2078121E+03  0.7818608E-02  0.1143310E+00
         21   -1    0    0  503  502  0.00000000000E+00  0.00000000000E+00  0.10430841985E+04  0.10430841985E+04  0.00000000000E+00 0. -1.
         21   -1    0    0  501  503 -0.00000000000E+00 -0.00000000000E+00 -0.41997579215E+02  0.41997579215E+02  0.00000000000E+00 0. -1.
          6    1    1    2  501    0  0.11459142681E+03  0.21694704417E+02  0.43593907445E+03  0.48293760666E+03  0.17200000000E+03 0. -1.
         -6    1    1    2    0  502 -0.11459142681E+03 -0.21694704417E+02  0.56514754484E+03  0.60214417106E+03  0.17200000000E+03 0. -1.
</event>
<event>
 4    1  0.1211980E+000  0.2131798E+03  0.7818608E-02  0.1139072E+00
         21   -1    0    0  503  502  0.00000000000E+00  0.00000000000E+00  0.12858269439E+03  0.12858269439E+03  0.00000000000E+00 0. -1.
         21   -1    0    0  501  503 -0.00000000000E+00 -0.00000000000E+00 -0.56237075902E+03  0.56237075902E+03  0.00000000000E+00 0. -1.
          6    1    1    2  501    0  0.42568332148E+02  0.11853084393E+03 -0.42747243353E+03  0.47768012864E+03  0.17200000000E+03 0. -1.
         -6    1    1    2    0  502 -0.42568332148E+02 -0.11853084393E+03 -0.63156310924E+01  0.21327332478E+03  0.17200000000E+03 0. -1.
</event>
<event>
 4    1  0.1211980E+000  0.1825898E+03  0.7818608E-02  0.1165320E+00
         21   -1    0    0  501  502  0.00000000000E+00  0.00000000000E+00  0.14689512092E+03  0.14689512092E+03  0.00000000000E+00 0.  1.
         21   -1    0    0  502  503 -0.00000000000E+00 -0.00000000000E+00 -0.24923866953E+03  0.24923866953E+03  0.00000000000E+00 0.  1.
          6    1    1    2  501    0 -0.42172985204E+02  0.44457672832E+02  0.80480081171E+01  0.18276710806E+03  0.17200000000E+03 0.  1.
         -6    1    1    2    0  503  0.42172985204E+02 -0.44457672832E+02 -0.11039155673E+03  0.21336668239E+03  0.17200000000E+03 0.  1.
</event>
<event>
 4    1  0.1211980E+000  0.1822157E+03  0.7818608E-02  0.1165676E+00
         21   -1    0    0  501  502  0.00000000000E+00  0.00000000000E+00  0.59217811884E+02  0.59217811884E+02  0.00000000000E+00 0.  1.
         21   -1    0    0  502  503 -0.00000000000E+00 -0.00000000000E+00 -0.56327745897E+03  0.56327745897E+03  0.00000000000E+00 0.  1.
          6    1    1    2  501    0  0.39547796614E+02 -0.45326815062E+02 -0.23091500525E+03  0.29415011139E+03  0.17200000000E+03 0.  1.
         -6    1    1    2    0  503 -0.39547796614E+02  0.45326815062E+02 -0.27314464183E+03  0.32834515946E+03  0.17200000000E+03 0.  1.
</event>
<event>
 4    1  0.1211980E+000  0.1998305E+03  0.7818608E-02  0.1149882E+00
         21   -1    0    0  503  502  0.00000000000E+00  0.00000000000E+00  0.10411190609E+03  0.10411190609E+03  0.00000000000E+00 0. -1.
         21   -1    0    0  501  503 -0.00000000000E+00 -0.00000000000E+00 -0.40851619609E+03  0.40851619609E+03  0.00000000000E+00 0. -1.
          6    1    1    2  501    0  0.87895406142E+02  0.51211536755E+02 -0.21556509876E+03  0.29393968041E+03  0.17200000000E+03 0. -1.
         -6    1    1    2    0  502 -0.87895406142E+02 -0.51211536755E+02 -0.88839191240E+02  0.21868842177E+03  0.17200000000E+03 0. -1.
</event>
<event>
 4    1  0.1211980E+000  0.2307204E+03  0.7818608E-02  0.1126134E+00
         21   -1    0    0  501  502  0.00000000000E+00  0.00000000000E+00  0.70100495200E+03  0.70100495200E+03  0.00000000000E+00 0.  1.
         21   -1    0    0  502  503 -0.00000000000E+00 -0.00000000000E+00 -0.98840586785E+02  0.98840586785E+02  0.00000000000E+00 0. -1.
          6    1    1    2  501    0  0.15023976889E+03  0.32800986464E+02  0.10856719144E+03  0.25498770152E+03  0.17200000000E+03 0. -1.
         -6    1    1    2    0  503 -0.15023976889E+03 -0.32800986464E+02  0.49359717377E+03  0.54485783726E+03  0.17200000000E+03 0.  1.
</event>
<event>
 4    1  0.1211980E+000  0.1797938E+03  0.7818608E-02  0.1168003E+00
         21   -1    0    0  501  502  0.00000000000E+00  0.00000000000E+00  0.36691649610E+03  0.36691649610E+03  0.00000000000E+00 0. -1.
         21   -1    0    0  502  503 -0.00000000000E+00 -0.00000000000E+00 -0.18992152689E+03  0.18992152689E+03  0.00000000000E+00 0. -1.
          6    1    1    2  501    0  0.16983824531E+02  0.49531504094E+02  0.29235598325E+03  0.34321690101E+03  0.17200000000E+03 0. -1.
         -6    1    1    2    0  503 -0.16983824531E+02 -0.49531504094E+02 -0.11536101405E+03  0.21362112198E+03  0.17200000000E+03 0. -1.
</event>
<event>
 4    1  0.1211980E+000  0.1931326E+03  0.7818608E-02  0.1155666E+00
         21   -1    0    0  503  502  0.00000000000E+00  0.00000000000E+00  0.12888060408E+03  0.12888060408E+03  0.00000000000E+00 0.  1.
         21   -1    0    0  501  503 -0.00000000000E+00 -0.00000000000E+00 -0.28951713950E+03  0.28951713950E+03  0.00000000000E+00 0.  1.
          6    1    1    2  501    0 -0.73399254263E+02  0.48256942766E+02 -0.76419351060E+02  0.20770195056E+03  0.17200000000E+03 0.  1.
         -6    1    1    2    0  502  0.73399254263E+02 -0.48256942766E+02 -0.84217184366E+02  0.21069579301E+03  0.17200000000E+03 0.  1.
</event>
<event>
 4    1  0.1211980E+000  0.2008813E+03  0.7818608E-02  0.1148998E+00
         21   -1    0    0  501  502  0.00000000000E+00  0.00000000000E+00  0.54760170233E+02  0.54760170233E+02  0.00000000000E+00 0.  1.
         21   -1    0    0  502  503 -0.00000000000E+00 -0.00000000000E+00 -0.79661452538E+03  0.79661452538E+03  0.00000000000E+00 0. -1.
          6    1    1    2  501    0 -0.10366719567E+03 -0.47335168059E+01 -0.25438803684E+03  0.32413973365E+03  0.17200000000E+03 0. -1.
         -6    1    1    2    0  503  0.10366719567E+03  0.47335168059E+01 -0.48746631831E+03  0.52723496197E+03  0.17200000000E+03 0. -1.
</event>
<event>
 4    1  0.1211980E+000  0.2379115E+03  0.7818608E-02  0.1121192E+00
         21   -1    0    0  501  502  0.00000000000E+00  0.00000000000E+00  0.48806855041E+02  0.48806855041E+02  0.00000000000E+00 0. -1.
         21   -1    0    0  502  503 -0.00000000000E+00 -0.00000000000E+00 -0.11599879938E+04  0.11599879938E+04  0.00000000000E+00 0. -1.
          6    1    1    2  501    0 -0.14781495379E+03 -0.71893013662E+02 -0.54625758621E+03  0.59581810687E+03  0.17200000000E+03 0. -1.
         -6    1    1    2    0  503  0.14781495379E+03  0.71893013662E+02 -0.56492355258E+03  0.61297674200E+03  0.17200000000E+03 0. -1.
</event>
<event>
 4    1  0.1211980E+000  0.2861543E+03  0.7818608E-02  0.1092374E+00
         21   -1    0    0  501  502  0.00000000000E+00  0.00000000000E+00  0.59654030074E+03  0.59654030074E+03  0.00000000000E+00 0. -1.
         21   -1    0    0  502  503 -0.00000000000E+00 -0.00000000000E+00 -0.18038139629E+03  0.18038139629E+03  0.00000000000E+00 0.  1.
          6    1    1    2  501    0 -0.22708506819E+03 -0.27067344219E+02  0.39799967772E+03  0.49019181223E+03  0.17200000000E+03 0.  1.
         -6    1    1    2    0  503  0.22708506819E+03  0.27067344219E+02  0.18159226730E+02  0.28672988479E+03  0.17200000000E+03 0.  1.
</event>
<event>
 4    1  0.1211980E+000  0.2515068E+03  0.7818608E-02  0.1112356E+00
         21   -1    0    0  501  502  0.00000000000E+00  0.00000000000E+00  0.47504697643E+03  0.47504697643E+03  0.00000000000E+00 0.  1.
         21   -1    0    0  502  503 -0.00000000000E+00 -0.00000000000E+00 -0.14579727975E+03  0.14579727975E+03  0.00000000000E+00 0. -1.
          6    1    1    2  501    0 -0.17385300846E+03 -0.58709391062E+02  0.25602826269E+03  0.35889571249E+03  0.17200000000E+03 0. -1.
         -6    1    1    2    0  503  0.17385300846E+03  0.58709391062E+02  0.73221433994E+02  0.26194854370E+03  0.17200000000E+03 0.  1.
</event>
<event>
 4    1  0.1211980E+000  0.1917953E+03  0.7818608E-02  0.1156852E+00
         21   -1    0    0  501  502  0.00000000000E+00  0.00000000000E+00  0.19363114970E+03  0.19363114970E+03  0.00000000000E+00 0.  1.
         21   -1    0    0  502  503 -0.00000000000E+00 -0.00000000000E+00 -0.32086602501E+03  0.32086602501E+03  0.00000000000E+00 0.  1.
          6    1    1    2  501    0 -0.78159062578E+02  0.33054248866E+02  0.10068466143E+03  0.21661676638E+03  0.17200000000E+03 0.  1.
         -6    1    1    2    0  503  0.78159062578E+02 -0.33054248866E+02 -0.22791953675E+03  0.29788040832E+03  0.17200000000E+03 0.  1.
</event>
<event>
 4    1  0.1211980E+000  0.3551062E+03  0.7818608E-02  0.1060539E+00
         21   -1    0    0  503  502  0.00000000000E+00  0.00000000000E+00  0.19291352327E+03  0.19291352327E+03  0.00000000000E+00 0. -1.
         21   -1    0    0  501  503 -0.00000000000E+00 -0.00000000000E+00 -0.81511989001E+03  0.81511989001E+03  0.00000000000E+00 0.  1.
          6    1    1    2  501    0 -0.23229716230E+02  0.30980126903E+03 -0.53542028414E+03  0.64247593470E+03  0.17200000000E+03 0.  1.
         -6    1    1    2    0  502  0.23229716230E+02 -0.30980126903E+03 -0.86786082603E+02  0.36555747857E+03  0.17200000000E+03 0. -1.
</event>
<event>
 4    1  0.1211980E+000  0.1818353E+03  0.7818608E-02  0.1166039E+00
         21   -1    0    0  501  502  0.00000000000E+00  0.00000000000E+00  0.24040147193E+02  0.24040147193E+02  0.00000000000E+00 0.  1.
         21   -1    0    0  502  503 -0.00000000000E+00 -0.00000000000E+00 -0.13766261429E+04  0.13766261429E+04  0.00000000000E+00 0.  1.
          6    1    1    2  501    0  0.21212112445E+02  0.55046579028E+02 -0.69745433988E+03  0.72076808739E+03  0.17200000000E+03 0. -1.
         -6    1    1    2    0  503 -0.21212112445E+02 -0.55046579028E+02 -0.65513165583E+03  0.67989820271E+03  0.17200000000E+03 0. -1.
</event>
<event>
 4    1  0.1211980E+000  0.1740486E+03  0.7818608E-02  0.1173690E+00
         21   -1    0    0  503  502  0.00000000000E+00  0.00000000000E+00  0.37423004326E+03  0.37423004326E+03  0.00000000000E+00 0. -1.
         21   -1    0    0  501  503 -0.00000000000E+00 -0.00000000000E+00 -0.23919043770E+03  0.23919043770E+03  0.00000000000E+00 0. -1.
          6    1    1    2  501    0  0.26474618762E+02  0.28272713072E+01  0.31699010839E+03  0.36162913007E+03  0.17200000000E+03 0. -1.
         -6    1    1    2    0  502 -0.26474618762E+02 -0.28272713072E+01 -0.18195050283E+03  0.25179135089E+03  0.17200000000E+03 0. -1.
</event>
<event>
 4    1  0.1211980E+000  0.2234174E+03  0.7818608E-02  0.1131361E+00
         21   -1    0    0  503  502  0.00000000000E+00  0.00000000000E+00  0.21453060399E+03  0.21453060399E+03  0.00000000000E+00 0. -1.
         21   -1    0    0  501  503 -0.00000000000E+00 -0.00000000000E+00 -0.33473042189E+03  0.33473042189E+03  0.00000000000E+00 0. -1.
          6    1    1    2  501    0  0.13018258696E+03 -0.58170512338E+02 -0.21174387224E+03  0.30781614949E+03  0.17200000000E+03 0. -1.
         -6    1    1    2    0  502 -0.13018258696E+03  0.58170512338E+02  0.91544054331E+02  0.24144487639E+03  0.17200000000E+03 0. -1.
</event>
<event>
 4    1  0.1211980E+000  0.1903640E+03  0.7818608E-02  0.1158133E+00
         21   -1    0    0  503  502  0.00000000000E+00  0.00000000000E+00  0.60962842305E+02  0.60962842305E+02  0.00000000000E+00 0.  1.
         21   -1    0    0  501  503 -0.00000000000E+00 -0.00000000000E+00 -0.12490764867E+04  0.12490764867E+04  0.00000000000E+00 0.  1.
          6    1    1    2  501    0  0.56203392282E+02 -0.59123882752E+02 -0.10682568142E+04  0.10850857459E+04  0.17200000000E+03 0.  1.
         -6    1    1    2    0  502 -0.56203392282E+02  0.59123882752E+02 -0.11985683018E+03  0.22495358311E+03  0.17200000000E+03 0.  1.
</event>
<event>
 4    1  0.1211980E+000  0.1770356E+03  0.7818608E-02  0.1170703E+00
         21   -1    0    0  503  502  0.00000000000E+00  0.00000000000E+00  0.24053596692E+03  0.24053596692E+03  0.00000000000E+00 0.  1.
         21   -1    0    0  501  503 -0.00000000000E+00 -0.00000000000E+00 -0.21004623650E+03  0.21004623650E+03  0.00000000000E+00 0.  1.
          6    1    1    2  501    0  0.10423626959E+02 -0.40607158738E+02 -0.12357270462E+03  0.21589767638E+03  0.17200000000E+03 0.  1.
         -6    1    1    2    0  502 -0.10423626959E+02  0.40607158738E+02  0.15406243504E+03  0.23468452704E+03  0.17200000000E+03 0.  1.
</event>
<event>
 4    1  0.1211980E+000  0.2216763E+03  0.7818608E-02  0.1132639E+00
         21   -1    0    0  503  502  0.00000000000E+00  0.00000000000E+00  0.70001786295E+02  0.70001786295E+02  0.00000000000E+00 0.  1.
         21   -1    0    0  501  503 -0.00000000000E+00 -0.00000000000E+00 -0.10275587756E+04  0.10275587756E+04  0.00000000000E+00 0.  1.
          6    1    1    2  501    0  0.12994381257E+03 -0.51681423546E+02 -0.78767880516E+03  0.81827762041E+03  0.17200000000E+03 0.  1.
         -6    1    1    2    0  502 -0.12994381257E+03  0.51681423546E+02 -0.16987818419E+03  0.27928294153E+03  0.17200000000E+03 0.  1.
</event>
<event>
 4    1  0.1211980E+000  0.2025282E+03  0.7818608E-02  0.1147623E+00
         21   -1    0    0  503  502  0.00000000000E+00  0.00000000000E+00  0.13444165432E+03  0.13444165432E+03  0.00000000000E+00 0.  1.
         21   -1    0    0  501  503 -0.00000000000E+00 -0.00000000000E+00 -0.36705827583E+03  0.36705827583E+03  0.00000000000E+00 0.  1.
          6    1    1    2  501    0  0.10468036024E+03 -0.21810408264E+02 -0.13285008245E+02  0.20296345280E+03  0.17200000000E+03 0.  1.
         -6    1    1    2    0  502 -0.10468036024E+03  0.21810408264E+02 -0.21933161327E+03  0.29853647735E+03  0.17200000000E+03 0.  1.
</event>
<event>
 4    1  0.1211980E+000  0.2097024E+03  0.7818608E-02  0.1141802E+00
         21   -1    0    0  503  502  0.00000000000E+00  0.00000000000E+00  0.77333780798E+03  0.77333780798E+03  0.00000000000E+00 0.  1.
         21   -1    0    0  501  503 -0.00000000000E+00 -0.00000000000E+00 -0.60098187262E+02  0.60098187262E+02  0.00000000000E+00 0.  1.
          6    1    1    2  501    0  0.66736112289E+02 -0.99686369203E+02  0.25994926427E+03  0.33398907300E+03  0.17200000000E+03 0.  1.
         -6    1    1    2    0  502 -0.66736112289E+02  0.99686369203E+02  0.45329035646E+03  0.49944692225E+03  0.17200000000E+03 0.  1.
</event>
<event>
 4    1  0.1211980E+000  0.2154142E+03  0.7818608E-02  0.1137349E+00
         21   -1    0    0  501  502  0.00000000000E+00  0.00000000000E+00  0.33586807599E+03  0.33586807599E+03  0.00000000000E+00 0.  1.
         21   -1    0    0  502  503 -0.00000000000E+00 -0.00000000000E+00 -0.15081278003E+03  0.15081278003E+03  0.00000000000E+00 0.  1.
          6    1    1    2  501    0 -0.56265235898E+02 -0.11684818752E+03  0.16301340040E+03  0.27014189681E+03  0.17200000000E+03 0.  1.
         -6    1    1    2    0  503  0.56265235898E+02  0.11684818752E+03  0.22041895553E+02  0.21653895921E+03  0.17200000000E+03 0.  1.
</event>
<event>
 4    1  0.1211980E+000  0.1946689E+03  0.7818608E-02  0.1154316E+00
         21   -1    0    0  501  502  0.00000000000E+00  0.00000000000E+00  0.10056803159E+03  0.10056803159E+03  0.00000000000E+00 0.  1.
         21   -1    0    0  502  503 -0.00000000000E+00 -0.00000000000E+00 -0.37696733062E+03  0.37696733062E+03  0.00000000000E+00 0.  1.
          6    1    1    2  501    0  0.89156556695E+02 -0.19055165472E+02 -0.13347063278E+03  0.23603050809E+03  0.17200000000E+03 0.  1.
         -6    1    1    2    0  503 -0.89156556695E+02  0.19055165472E+02 -0.14292866625E+03  0.24150485413E+03  0.17200000000E+03 0.  1.
</event>
<event>
 4    1  0.1211980E+000  0.2318687E+03  0.7818608E-02  0.1125331E+00
         21   -1    0    0  501  502  0.00000000000E+00  0.00000000000E+00  0.22328849589E+03  0.22328849589E+03  0.00000000000E+00 0. -1.
         21   -1    0    0  502  503 -0.00000000000E+00 -0.00000000000E+00 -0.24083061162E+03  0.24083061162E+03  0.00000000000E+00 0.  1.
          6    1    1    2  501    0  0.14693513167E+03  0.50883926312E+02 -0.53630161810E+01  0.23193074143E+03  0.17200000000E+03 0.  1.
         -6    1    1    2    0  503 -0.14693513167E+03 -0.50883926312E+02 -0.12179099541E+02  0.23218836608E+03  0.17200000000E+03 0.  1.
</event>
<event>
 4    1  0.1211980E+000  0.1749824E+03  0.7818608E-02  0.1172749E+00
         21   -1    0    0  501  502  0.00000000000E+00  0.00000000000E+00  0.23966364651E+02  0.23966364651E+02  0.00000000000E+00 0.  1.
         21   -1    0    0  502  503 -0.00000000000E+00 -0.00000000000E+00 -0.13890804258E+04  0.13890804258E+04  0.00000000000E+00 0.  1.
          6    1    1    2  501    0 -0.32088372809E+02 -0.22719811768E+01 -0.48238145991E+03  0.51313808905E+03  0.17200000000E+03 0.  1.
         -6    1    1    2    0  503  0.32088372809E+02  0.22719811768E+01 -0.88273260119E+03  0.89990870135E+03  0.17200000000E+03 0.  1.
</event>
<event>
 4    1  0.1211980E+000  0.2334758E+03  0.7818608E-02  0.1124217E+00
         21   -1    0    0  501  502  0.00000000000E+00  0.00000000000E+00  0.55753243803E+03  0.55753243803E+03  0.00000000000E+00 0. -1.
         21   -1    0    0  502  503 -0.00000000000E+00 -0.00000000000E+00 -0.97804218819E+02  0.97804218819E+02  0.00000000000E+00 0. -1.
          6    1    1    2  501    0 -0.72264888911E+02 -0.14037351246E+03  0.23583183249E+03  0.33185477303E+03  0.17200000000E+03 0. -1.
         -6    1    1    2    0  503  0.72264888911E+02  0.14037351246E+03  0.22389638672E+03  0.32348188382E+03  0.17200000000E+03 0. -1.
</event>
<event>
 4    1  0.1211980E+000  0.2090545E+03  0.7818608E-02  0.1142317E+00
         21   -1    0    0  501  502  0.00000000000E+00  0.00000000000E+00  0.26079197197E+03  0.26079197197E+03  0.00000000000E+00 0. -1.
         21   -1    0    0  502  503 -0.00000000000E+00 -0.00000000000E+00 -0.20612259458E+03  0.20612259458E+03  0.00000000000E+00 0. -1.
          6    1    1    2  501    0  0.66806220683E+02 -0.98268592820E+02 -0.73616001754E+02  0.22163732351E+03  0.17200000000E+03 0. -1.
         -6    1    1    2    0  503 -0.66806220683E+02  0.98268592820E+02  0.12828537914E+03  0.24527724305E+03  0.17200000000E+03 0. -1.
</event>
<event>
 4    1  0.1211980E+000  0.1741510E+03  0.7818608E-02  0.1173587E+00
         21   -1    0    0  503  502  0.00000000000E+00  0.00000000000E+00  0.19245726052E+03  0.19245726052E+03  0.00000000000E+00 0.  1.
         21   -1    0    0  501  503 -0.00000000000E+00 -0.00000000000E+00 -0.27882209838E+03  0.27882209838E+03  0.00000000000E+00 0.  1.
          6    1    1    2  501    0 -0.25542035128E+02 -0.96010201662E+01 -0.19856443572E+03  0.26411438863E+03  0.17200000000E+03 0.  1.
         -6    1    1    2    0  502  0.25542035128E+02  0.96010201662E+01  0.11219959786E+03  0.20716497027E+03  0.17200000000E+03 0.  1.
</event>
<event>
 4    1  0.1211980E+000  0.2475660E+03  0.7818608E-02  0.1114853E+00
         21   -1    0    0  501  502  0.00000000000E+00  0.00000000000E+00  0.40169201527E+03  0.40169201527E+03  0.00000000000E+00 0. -1.
         21   -1    0    0  502  503 -0.00000000000E+00 -0.00000000000E+00 -0.16273475160E+03  0.16273475160E+03  0.00000000000E+00 0. -1.
          6    1    1    2  501    0  0.54518149022E+02  0.16950727315E+03  0.48970821781E+02  0.25236300364E+03  0.17200000000E+03 0. -1.
         -6    1    1    2    0  503 -0.54518149022E+02 -0.16950727315E+03  0.18998644188E+03  0.31206376323E+03  0.17200000000E+03 0. -1.
</event>
<event>
 4    1  0.1211980E+000  0.1923206E+03  0.7818608E-02  0.1156385E+00
         21   -1    0    0  501  502  0.00000000000E+00  0.00000000000E+00  0.91757536798E+03  0.91757536798E+03  0.00000000000E+00 0.  1.
         21   -1    0    0  502  503 -0.00000000000E+00 -0.00000000000E+00 -0.65228025792E+02  0.65228025792E+02  0.00000000000E+00 0.  1.
          6    1    1    2  501    0  0.57083426789E+02 -0.64379308465E+02  0.12244994053E+03  0.22799386156E+03  0.17200000000E+03 0.  1.
         -6    1    1    2    0  503 -0.57083426789E+02  0.64379308465E+02  0.72989740166E+03  0.75480953222E+03  0.17200000000E+03 0.  1.
</event>
<event>
 4    1  0.1211980E+000  0.1927797E+03  0.7818608E-02  0.1155978E+00
         21   -1    0    0  503  502  0.00000000000E+00  0.00000000000E+00  0.34780752562E+03  0.34780752562E+03  0.00000000000E+00 0. -1.
         21   -1    0    0  501  503 -0.00000000000E+00 -0.00000000000E+00 -0.10769905841E+03  0.10769905841E+03  0.00000000000E+00 0. -1.
          6    1    1    2  501    0  0.16021628657E+02 -0.85576501104E+02  0.14024911830E+03  0.23839850107E+03  0.17200000000E+03 0. -1.
         -6    1    1    2    0  502 -0.16021628657E+02  0.85576501104E+02  0.99859348901E+02  0.21710808297E+03  0.17200000000E+03 0. -1.
</event>
<event>
 4    1  0.1211980E+000  0.1749561E+03  0.7818608E-02  0.1172776E+00
         21   -1    0    0  501  502  0.00000000000E+00  0.00000000000E+00  0.12207239502E+03  0.12207239502E+03  0.00000000000E+00 0.  1.
         21   -1    0    0  502  503 -0.00000000000E+00 -0.00000000000E+00 -0.86131720945E+03  0.86131720945E+03  0.00000000000E+00 0. -1.
          6    1    1    2  501    0 -0.25387832396E+02 -0.19521399462E+02  0.44359031088E+02  0.18049196855E+03  0.17200000000E+03 0.  1.
         -6    1    1    2    0  503  0.25387832396E+02  0.19521399462E+02 -0.78360384552E+03  0.80289763593E+03  0.17200000000E+03 0. -1.
</event>
<event>
 4    1  0.1211980E+000  0.1977451E+03  0.7818608E-02  0.1151656E+00
         21   -1    0    0  503  502  0.00000000000E+00  0.00000000000E+00  0.27285522782E+02  0.27285522782E+02  0.00000000000E+00 0. -1.
         21   -1    0    0  501  503 -0.00000000000E+00 -0.00000000000E+00 -0.14421908911E+04  0.14421908911E+04  0.00000000000E+00 0.  1.
          6    1    1    2  501    0  0.41731572752E+02 -0.88190731235E+02 -0.64914731574E+03  0.67859808928E+03  0.17200000000E+03 0. -1.
         -6    1    1    2    0  502 -0.41731572752E+02  0.88190731235E+02 -0.76575805261E+03  0.79087832463E+03  0.17200000000E+03 0. -1.
</event>
<event>
 4    1  0.1211980E+000  0.1826323E+03  0.7818608E-02  0.1165280E+00
         21   -1    0    0  503  502  0.00000000000E+00  0.00000000000E+00  0.51706453905E+02  0.51706453905E+02  0.00000000000E+00 0.  1.
         21   -1    0    0  501  503 -0.00000000000E+00 -0.00000000000E+00 -0.12074016825E+04  0.12074016825E+04  0.00000000000E+00 0.  1.
          6    1    1    2  501    0 -0.45739156868E+02 -0.40969514582E+02 -0.10074842050E+04  0.10239038016E+04  0.17200000000E+03 0.  1.
         -6    1    1    2    0  502  0.45739156868E+02  0.40969514582E+02 -0.14821102358E+03  0.23520433479E+03  0.17200000000E+03 0.  1.
</event>
<event>
 4    1  0.1211980E+000  0.2033713E+03  0.7818608E-02  0.1146925E+00
         21   -1    0    0  503  502  0.00000000000E+00  0.00000000000E+00  0.29880567539E+03  0.29880567539E+03  0.00000000000E+00 0.  1.
         21   -1    0    0  501  503 -0.00000000000E+00 -0.00000000000E+00 -0.13906241568E+03  0.13906241568E+03  0.00000000000E+00 0.  1.
          6    1    1    2  501    0  0.92473495766E+02  0.56785082231E+02  0.64960630648E+02  0.21349420722E+03  0.17200000000E+03 0.  1.
         -6    1    1    2    0  502 -0.92473495766E+02 -0.56785082231E+02  0.94782629056E+02  0.22437388385E+03  0.17200000000E+03 0.  1.
</event>
<event>
 4    1  0.1211980E+000  0.1993924E+03  0.7818608E-02  0.1150253E+00
         21   -1    0    0  501  502  0.00000000000E+00  0.00000000000E+00  0.10126469645E+03  0.10126469645E+03  0.00000000000E+00 0.  1.
         21   -1    0    0  502  503 -0.00000000000E+00 -0.00000000000E+00 -0.65392633744E+03  0.65392633744E+03  0.00000000000E+00 0. -1.
          6    1    1    2  501    0  0.83124257859E+02 -0.57128699299E+02 -0.37633604763E+02  0.20291283532E+03  0.17200000000E+03 0.  1.
         -6    1    1    2    0  503 -0.83124257859E+02  0.57128699299E+02 -0.51502803623E+03  0.55227819858E+03  0.17200000000E+03 0. -1.
</event>
<event>
 4    1  0.1211980E+000  0.2320217E+03  0.7818608E-02  0.1125225E+00
         21   -1    0    0  503  502  0.00000000000E+00  0.00000000000E+00  0.48218316137E+03  0.48218316137E+03  0.00000000000E+00 0.  1.
         21   -1    0    0  501  503 -0.00000000000E+00 -0.00000000000E+00 -0.14509531377E+03  0.14509531377E+03  0.00000000000E+00 0.  1.
          6    1    1    2  501    0  0.47127800877E+02 -0.14842184981E+03  0.17954703565E+02  0.23271537658E+03  0.17200000000E+03 0.  1.
         -6    1    1    2    0  502 -0.47127800877E+02  0.14842184981E+03  0.31913314403E+03  0.39456309855E+03  0.17200000000E+03 0.  1.
</event>
<event>
 4    1  0.1211980E+000  0.1835683E+03  0.7818608E-02  0.1164394E+00
         21   -1    0    0  501  502  0.00000000000E+00  0.00000000000E+00  0.15881436637E+04  0.15881436637E+04  0.00000000000E+00 0. -1.
         21   -1    0    0  502  503 -0.00000000000E+00 -0.00000000000E+00 -0.31663983303E+02  0.31663983303E+02  0.00000000000E+00 0. -1.
          6    1    1    2  501    0  0.61746837051E+02 -0.17338940263E+02  0.31305632973E+03  0.36290711803E+03  0.17200000000E+03 0. -1.
         -6    1    1    2    0  503 -0.61746837051E+02  0.17338940263E+02  0.12434233506E+04  0.12569005289E+04  0.17200000000E+03 0. -1.
</event>
<event>
 4    1  0.1211980E+000  0.2433481E+03  0.7818608E-02  0.1117582E+00
         21   -1    0    0  503  502  0.00000000000E+00  0.00000000000E+00  0.29692187816E+03  0.29692187816E+03  0.00000000000E+00 0.  1.
         21   -1    0    0  501  503 -0.00000000000E+00 -0.00000000000E+00 -0.25514808453E+03  0.25514808453E+03  0.00000000000E+00 0. -1.
          6    1    1    2  501    0  0.14805488164E+03 -0.87829630171E+02 -0.10809375046E+03  0.26627532894E+03  0.17200000000E+03 0.  1.
         -6    1    1    2    0  502 -0.14805488164E+03  0.87829630171E+02  0.14986754409E+03  0.28579463376E+03  0.17200000000E+03 0.  1.
</event>
<event>
 4    1  0.1211980E+000  0.1821863E+03  0.7818608E-02  0.1165704E+00
         21   -1    0    0  501  502  0.00000000000E+00  0.00000000000E+00  0.50329467493E+02  0.50329467493E+02  0.00000000000E+00 0.  1.
         21   -1    0    0  502  503 -0.00000000000E+00 -0.00000000000E+00 -0.86566858015E+03  0.86566858015E+03  0.00000000000E+00 0.  1.
          6    1    1    2  501    0  0.35470234977E+02  0.48473687465E+02 -0.18415318552E+03  0.25904484493E+03  0.17200000000E+03 0.  1.
         -6    1    1    2    0  503 -0.35470234977E+02 -0.48473687465E+02 -0.63118592714E+03  0.65695320272E+03  0.17200000000E+03 0.  1.
</event>
<event>
 4    1  0.1211980E+000  0.1826822E+03  0.7818608E-02  0.1165232E+00
         21   -1    0    0  501  502  0.00000000000E+00  0.00000000000E+00  0.23125573176E+03  0.23125573176E+03  0.00000000000E+00 0.  1.
         21   -1    0    0  502  503 -0.00000000000E+00 -0.00000000000E+00 -0.16198356425E+03  0.16198356425E+03  0.00000000000E+00 0.  1.
          6    1    1    2  501    0  0.12375729269E+02  0.60296265297E+02  0.99579995006E+02  0.20806002425E+03  0.17200000000E+03 0.  1.
         -6    1    1    2    0  503 -0.12375729269E+02 -0.60296265297E+02 -0.30307827487E+02  0.18517927176E+03  0.17200000000E+03 0.  1.
</event>
<event>
 4    1  0.1211980E+000  0.1973357E+03  0.7818608E-02  0.1152007E+00
         21   -1    0    0  501  502  0.00000000000E+00  0.00000000000E+00  0.28372431982E+03  0.28372431982E+03  0.00000000000E+00 0.  1.
         21   -1    0    0  502  503 -0.00000000000E+00 -0.00000000000E+00 -0.19582814532E+03  0.19582814532E+03  0.00000000000E+00 0. -1.
          6    1    1    2  501    0  0.96653136201E+02 -0.39430251935E+01  0.17508760993E+03  0.26381252309E+03  0.17200000000E+03 0. -1.
         -6    1    1    2    0  503 -0.96653136201E+02  0.39430251935E+01 -0.87191435436E+02  0.21573994206E+03  0.17200000000E+03 0. -1.
</event>
<event>
 4    1  0.1211980E+000  0.1728330E+03  0.7818608E-02  0.1174925E+00
         21   -1    0    0  503  502  0.00000000000E+00  0.00000000000E+00  0.12875487106E+04  0.12875487106E+04  0.00000000000E+00 0. -1.
         21   -1    0    0  501  503 -0.00000000000E+00 -0.00000000000E+00 -0.35829922105E+02  0.35829922105E+02  0.00000000000E+00 0. -1.
          6    1    1    2  501    0 -0.16632793777E+02  0.32546115147E+01  0.23300643597E+03  0.29010901663E+03  0.17200000000E+03 0. -1.
         -6    1    1    2    0  502  0.16632793777E+02 -0.32546115147E+01  0.10187123526E+04  0.10332696161E+04  0.17200000000E+03 0. -1.
</event>
<event>
 4    1  0.1211980E+000  0.1768723E+03  0.7818608E-02  0.1170865E+00
         21   -1    0    0  501  502  0.00000000000E+00  0.00000000000E+00  0.29043220411E+03  0.29043220411E+03  0.00000000000E+00 0.  1.
         21   -1    0    0  502  503 -0.00000000000E+00 -0.00000000000E+00 -0.17558448098E+03  0.17558448098E+03  0.00000000000E+00 0.  1.
          6    1    1    2  501    0 -0.88291993321E+01  0.40272280730E+02 -0.87442215825E+02  0.19730674713E+03  0.17200000000E+03 0. -1.
         -6    1    1    2    0  503  0.88291993321E+01 -0.40272280730E+02  0.20228993895E+03  0.26870993796E+03  0.17200000000E+03 0. -1.
</event>
<event>
 4    1  0.1211980E+000  0.2651597E+03  0.7818608E-02  0.1104082E+00
         21   -1    0    0  503  502  0.00000000000E+00  0.00000000000E+00  0.50687254438E+03  0.50687254438E+03  0.00000000000E+00 0. -1.
         21   -1    0    0  501  503 -0.00000000000E+00 -0.00000000000E+00 -0.21844665139E+03  0.21844665139E+03  0.00000000000E+00 0.  1.
          6    1    1    2  501    0 -0.12510790056E+03 -0.15834670645E+03 -0.74889933164E+02  0.27553251771E+03  0.17200000000E+03 0.  1.
         -6    1    1    2    0  502  0.12510790056E+03  0.15834670645E+03  0.36331582616E+03  0.44978667806E+03  0.17200000000E+03 0. -1.
</event>
<event>
 4    1  0.1211980E+000  0.1780407E+03  0.7818608E-02  0.1169713E+00
         21   -1    0    0  503  502  0.00000000000E+00  0.00000000000E+00  0.54255329990E+02  0.54255329990E+02  0.00000000000E+00 0. -1.
         21   -1    0    0  501  503 -0.00000000000E+00 -0.00000000000E+00 -0.76922875463E+03  0.76922875463E+03  0.00000000000E+00 0. -1.
          6    1    1    2  501    0  0.30265053130E+01 -0.45883914584E+02 -0.55939881362E+03  0.58704814627E+03  0.17200000000E+03 0. -1.
         -6    1    1    2    0  502 -0.30265053130E+01  0.45883914584E+02 -0.15557461102E+03  0.23643593835E+03  0.17200000000E+03 0. -1.
</event>
<event>
 4    1  0.1211980E+000  0.2279172E+03  0.7818608E-02  0.1128114E+00
         21   -1    0    0  503  502  0.00000000000E+00  0.00000000000E+00  0.27295731293E+03  0.27295731293E+03  0.00000000000E+00 0.  1.
         21   -1    0    0  501  503 -0.00000000000E+00 -0.00000000000E+00 -0.31539209050E+03  0.31539209050E+03  0.00000000000E+00 0.  1.
          6    1    1    2  501    0 -0.13356247003E+03  0.67255663523E+02 -0.20647628373E+03  0.30753652371E+03  0.17200000000E+03 0.  1.
         -6    1    1    2    0  502  0.13356247003E+03 -0.67255663523E+02  0.16404150615E+03  0.28081287972E+03  0.17200000000E+03 0.  1.
</event>
<event>
 4    1  0.1211980E+000  0.1834091E+03  0.7818608E-02  0.1164544E+00
         21   -1    0    0  501  502  0.00000000000E+00  0.00000000000E+00  0.14162232931E+03  0.14162232931E+03  0.00000000000E+00 0. -1.
         21   -1    0    0  502  503 -0.00000000000E+00 -0.00000000000E+00 -0.17547987912E+04  0.17547987912E+04  0.00000000000E+00 0. -1.
          6    1    1    2  501    0  0.19144636851E+01 -0.63649211142E+02  0.75116271573E+02  0.19819521060E+03  0.17200000000E+03 0. -1.
         -6    1    1    2    0  503 -0.19144636851E+01  0.63649211142E+02 -0.16882927335E+04  0.16982259099E+04  0.17200000000E+03 0. -1.
</event>
<event>
 4    1  0.1211980E+000  0.2204466E+03  0.7818608E-02  0.1133551E+00
         21   -1    0    0  501  502  0.00000000000E+00  0.00000000000E+00  0.79720508731E+02  0.79720508731E+02  0.00000000000E+00 0.  1.
         21   -1    0    0  502  503 -0.00000000000E+00 -0.00000000000E+00 -0.16549844450E+04  0.16549844450E+04  0.00000000000E+00 0.  1.
          6    1    1    2  501    0 -0.13572583057E+03 -0.24314276081E+02 -0.98283010548E+02  0.24136328484E+03  0.17200000000E+03 0.  1.
         -6    1    1    2    0  503  0.13572583057E+03  0.24314276081E+02 -0.14769809257E+04  0.14933416689E+04  0.17200000000E+03 0.  1.
</event>
<event>
 4    1  0.1211980E+000  0.3306188E+03  0.7818608E-02  0.1070863E+00
         21   -1    0    0  501  502  0.00000000000E+00  0.00000000000E+00  0.13574455171E+03  0.13574455171E+03  0.00000000000E+00 0. -1.
         21   -1    0    0  502  503 -0.00000000000E+00 -0.00000000000E+00 -0.84248833883E+03  0.84248833883E+03  0.00000000000E+00 0.  1.
          6    1    1    2  501    0  0.28153578126E+03  0.21504109907E+02 -0.45619791077E+03  0.56340514433E+03  0.17200000000E+03 0.  1.
         -6    1    1    2    0  503 -0.28153578126E+03 -0.21504109907E+02 -0.25054587636E+03  0.41482774622E+03  0.17200000000E+03 0. -1.
</event>
<event>
 4    1  0.1211980E+000  0.2632542E+03  0.7818608E-02  0.1105204E+00
         21   -1    0    0  503  502  0.00000000000E+00  0.00000000000E+00  0.45048733200E+03  0.45048733200E+03  0.00000000000E+00 0.  1.
         21   -1    0    0  501  503 -0.00000000000E+00 -0.00000000000E+00 -0.15435208088E+03  0.15435208088E+03  0.00000000000E+00 0.  1.
          6    1    1    2  501    0 -0.18820430666E+03 -0.65558408263E+02  0.16549436786E+03  0.31095200873E+03  0.17200000000E+03 0.  1.
         -6    1    1    2    0  502  0.18820430666E+03  0.65558408263E+02  0.13064088327E+03  0.29388740416E+03  0.17200000000E+03 0.  1.
</event>
<event>
 4    1  0.1211980E+000  0.2437763E+03  0.7818608E-02  0.1117302E+00
         21   -1    0    0  503  502  0.00000000000E+00  0.00000000000E+00  0.91878755362E+03  0.91878755362E+03  0.00000000000E+00 0.  1.
         21   -1    0    0  501  503 -0.00000000000E+00 -0.00000000000E+00 -0.13067495444E+03  0.13067495444E+03  0.00000000000E+00 0.  1.
          6    1    1    2  501    0 -0.11694778329E+03  0.12714596265E+03  0.21152170988E+02  0.24469224379E+03  0.17200000000E+03 0.  1.
         -6    1    1    2    0  502  0.11694778329E+03 -0.12714596265E+03  0.76696042819E+03  0.80477026427E+03  0.17200000000E+03 0.  1.
</event>
<event>
 4    1  0.1211980E+000  0.1816281E+03  0.7818608E-02  0.1166237E+00
         21   -1    0    0  501  502  0.00000000000E+00  0.00000000000E+00  0.44863014283E+02  0.44863014283E+02  0.00000000000E+00 0. -1.
         21   -1    0    0  502  503 -0.00000000000E+00 -0.00000000000E+00 -0.13515651671E+04  0.13515651671E+04  0.00000000000E+00 0. -1.
          6    1    1    2  501    0 -0.36983337855E+02 -0.45132999984E+02 -0.18188958825E+03  0.25704586610E+03  0.17200000000E+03 0. -1.
         -6    1    1    2    0  503  0.36983337855E+02  0.45132999984E+02 -0.11248125646E+04  0.11393823153E+04  0.17200000000E+03 0. -1.
</event>
<event>
 4    1  0.1211980E+000  0.2603900E+03  0.7818608E-02  0.1106909E+00
         21   -1    0    0  503  502  0.00000000000E+00  0.00000000000E+00  0.39384993094E+02  0.39384993094E+02  0.00000000000E+00 0. -1.
         21   -1    0    0  501  503 -0.00000000000E+00 -0.00000000000E+00 -0.18237830499E+04  0.18237830499E+04  0.00000000000E+00 0.  1.
          6    1    1    2  501    0  0.24511548380E+02  0.19395395377E+03 -0.11127689792E+04  0.11428288381E+04  0.17200000000E+03 0. -1.
         -6    1    1    2    0  502 -0.24511548380E+02 -0.19395395377E+03 -0.67162907765E+03  0.72033920491E+03  0.17200000000E+03 0. -1.
</event>
<event>
 4    1  0.1211980E+000  0.2614328E+03  0.7818608E-02  0.1106285E+00
         21   -1    0    0  501  502  0.00000000000E+00  0.00000000000E+00  0.13843099505E+03  0.13843099505E+03  0.00000000000E+00 0.  1.
         21   -1    0    0  502  503 -0.00000000000E+00 -0.00000000000E+00 -0.49747318351E+03  0.49747318351E+03  0.00000000000E+00 0. -1.
          6    1    1    2  501    0 -0.66750590945E+02 -0.18522274938E+03 -0.20711265275E+03  0.33353074702E+03  0.17200000000E+03 0.  1.
         -6    1    1    2    0  503  0.66750590945E+02  0.18522274938E+03 -0.15192953571E+03  0.30237343154E+03  0.17200000000E+03 0. -1.
</event>
<event>
 4    1  0.1211980E+000  0.1744460E+03  0.7818608E-02  0.1173289E+00
         21   -1    0    0  501  502  0.00000000000E+00  0.00000000000E+00  0.40245372299E+03  0.40245372299E+03  0.00000000000E+00 0. -1.
         21   -1    0    0  502  503 -0.00000000000E+00 -0.00000000000E+00 -0.13171974507E+03  0.13171974507E+03  0.00000000000E+00 0. -1.
          6    1    1    2  501    0  0.26722126453E+02 -0.11546949985E+02  0.30967926103E+03  0.35543304406E+03  0.17200000000E+03 0. -1.
         -6    1    1    2    0  503 -0.26722126453E+02  0.11546949985E+02 -0.38945283116E+02  0.17874042400E+03  0.17200000000E+03 0. -1.
</event>
<event>
 4    1  0.1211980E+000  0.1935519E+03  0.7818608E-02  0.1155296E+00
         21   -1    0    0  503  502  0.00000000000E+00  0.00000000000E+00  0.53176458152E+03  0.53176458152E+03  0.00000000000E+00 0. -1.
         21   -1    0    0  501  503 -0.00000000000E+00 -0.00000000000E+00 -0.70492713423E+02  0.70492713423E+02  0.00000000000E+00 0. -1.
          6    1    1    2  501    0  0.86260780934E+02 -0.20914112918E+02  0.22314357471E+03  0.29539021206E+03  0.17200000000E+03 0. -1.
         -6    1    1    2    0  502 -0.86260780934E+02  0.20914112918E+02  0.23812829339E+03  0.30686708288E+03  0.17200000000E+03 0. -1.
</event>
<event>
 4    1  0.1211980E+000  0.1824230E+03  0.7818608E-02  0.1165478E+00
         21   -1    0    0  501  502  0.00000000000E+00  0.00000000000E+00  0.22493939128E+03  0.22493939128E+03  0.00000000000E+00 0. -1.
         21   -1    0    0  502  503 -0.00000000000E+00 -0.00000000000E+00 -0.15599571046E+03  0.15599571046E+03  0.00000000000E+00 0.  1.
          6    1    1    2  501    0  0.56466163066E+02 -0.22488129245E+02 -0.88037980148E+01  0.18263529338E+03  0.17200000000E+03 0.  1.
         -6    1    1    2    0  503 -0.56466163066E+02  0.22488129245E+02  0.77747478835E+02  0.19829980835E+03  0.17200000000E+03 0. -1.
</event>
<event>
 4    1  0.1211980E+000  0.1845745E+03  0.7818608E-02  0.1163448E+00
         21   -1    0    0  503  502  0.00000000000E+00  0.00000000000E+00  0.79364233362E+02  0.79364233362E+02  0.00000000000E+00 0.  1.
         21   -1    0    0  501  503 -0.00000000000E+00 -0.00000000000E+00 -0.47444138266E+03  0.47444138266E+03  0.00000000000E+00 0.  1.
          6    1    1    2  501    0 -0.47248127585E+02 -0.47448484020E+02 -0.28299106337E+03  0.33786341345E+03  0.17200000000E+03 0. -1.
         -6    1    1    2    0  502  0.47248127585E+02  0.47448484020E+02 -0.11208608593E+03  0.21594220258E+03  0.17200000000E+03 0. -1.
</event>
<event>
 4    1  0.1211980E+000  0.2126153E+03  0.7818608E-02  0.1139512E+00
         21   -1    0    0  501  502  0.00000000000E+00  0.00000000000E+00  0.27766061690E+03  0.27766061690E+03  0.00000000000E+00 0.  1.
         21   -1    0    0  502  503 -0.00000000000E+00 -0.00000000000E+00 -0.17758892896E+03  0.17758892896E+03  0.00000000000E+00 0.  1.
          6    1    1    2  501    0 -0.76163219459E+02  0.99098049016E+02 -0.15634348257E+02  0.21318933407E+03  0.17200000000E+03 0.  1.
         -6    1    1    2    0  503  0.76163219459E+02 -0.99098049016E+02  0.11570603620E+03  0.24206021178E+03  0.17200000000E+03 0.  1.
</event>
<event>
 4    1  0.1211980E+000  0.2057717E+03  0.7818608E-02  0.1144959E+00
         21   -1    0    0  501  502  0.00000000000E+00  0.00000000000E+00  0.81457629530E+02  0.81457629530E+02  0.00000000000E+00 0.  1.
         21   -1    0    0  502  503 -0.00000000000E+00 -0.00000000000E+00 -0.53345420342E+03  0.53345420342E+03  0.00000000000E+00 0.  1.
          6    1    1    2  501    0 -0.10367113154E+03 -0.44836351872E+02 -0.17681655865E+03  0.27130443671E+03  0.17200000000E+03 0.  1.
         -6    1    1    2    0  503  0.10367113154E+03  0.44836351872E+02 -0.27518001524E+03  0.34360739624E+03  0.17200000000E+03 0.  1.
</event>
<event>
 4    1  0.1211980E+000  0.1936815E+03  0.7818608E-02  0.1155182E+00
         21   -1    0    0  501  502  0.00000000000E+00  0.00000000000E+00  0.55538200639E+03  0.55538200639E+03  0.00000000000E+00 0.  1.
         21   -1    0    0  502  503 -0.00000000000E+00 -0.00000000000E+00 -0.67904431563E+02  0.67904431563E+02  0.00000000000E+00 0. -1.
          6    1    1    2  501    0 -0.70001875304E+02 -0.55029708348E+02  0.26645453360E+03  0.32940939547E+03  0.17200000000E+03 0.  1.
         -6    1    1    2    0  503  0.70001875304E+02  0.55029708348E+02  0.22102304123E+03  0.29387704249E+03  0.17200000000E+03 0.  1.
</event>
<event>
 4    1  0.1211980E+000  0.1763461E+03  0.7818608E-02  0.1171387E+00
         21   -1    0    0  501  502  0.00000000000E+00  0.00000000000E+00  0.29374014660E+03  0.29374014660E+03  0.00000000000E+00 0.  1.
         21   -1    0    0  502  503 -0.00000000000E+00 -0.00000000000E+00 -0.12942838379E+03  0.12942838379E+03  0.00000000000E+00 0.  1.
          6    1    1    2  501    0  0.38787825079E+02 -0.30717811045E+01  0.17242765167E+03  0.24663581709E+03  0.17200000000E+03 0.  1.
         -6    1    1    2    0  503 -0.38787825079E+02  0.30717811045E+01 -0.81158888586E+01  0.17653271330E+03  0.17200000000E+03 0.  1.
</event>
<event>
 4    1  0.1211980E+000  0.2051395E+03  0.7818608E-02  0.1145474E+00
         21   -1    0    0  501  502  0.00000000000E+00  0.00000000000E+00  0.10087305674E+04  0.10087305674E+04  0.00000000000E+00 0. -1.
         21   -1    0    0  502  503 -0.00000000000E+00 -0.00000000000E+00 -0.55168139817E+02  0.55168139817E+02  0.00000000000E+00 0.  1.
          6    1    1    2  501    0  0.66683827773E+02  0.89730109311E+02  0.73943850271E+03  0.76736661687E+03  0.17200000000E+03 0. -1.
         -6    1    1    2    0  503 -0.66683827773E+02 -0.89730109311E+02  0.21412392490E+03  0.29653209037E+03  0.17200000000E+03 0.  1.
</event>
<event>
 4    1  0.1211980E+000  0.2353934E+03  0.7818608E-02  0.1122900E+00
         21   -1    0    0  501  502  0.00000000000E+00  0.00000000000E+00  0.29229372326E+02  0.29229372326E+02  0.00000000000E+00 0. -1.
         21   -1    0    0  502  503 -0.00000000000E+00 -0.00000000000E+00 -0.19061197145E+04  0.19061197145E+04  0.00000000000E+00 0.  1.
          6    1    1    2  501    0 -0.10325644195E+03 -0.12314289655E+03 -0.86689320129E+03  0.89828385726E+03  0.17200000000E+03 0. -1.
         -6    1    1    2    0  503  0.10325644195E+03  0.12314289655E+03 -0.10099971408E+04  0.10370652295E+04  0.17200000000E+03 0. -1.
</event>
<event>
 4    1  0.1211980E+000  0.2701532E+03  0.7818608E-02  0.1101192E+00
         21   -1    0    0  501  502  0.00000000000E+00  0.00000000000E+00  0.66840679438E+03  0.66840679438E+03  0.00000000000E+00 0.  1.
         21   -1    0    0  502  503 -0.00000000000E+00 -0.00000000000E+00 -0.17064806917E+03  0.17064806917E+03  0.00000000000E+00 0. -1.
          6    1    1    2  501    0 -0.12264555066E+03  0.16839485800E+03  0.50064832406E+03  0.56888619572E+03  0.17200000000E+03 0.  1.
         -6    1    1    2    0  503  0.12264555066E+03 -0.16839485800E+03 -0.28895988440E+01  0.27016866783E+03  0.17200000000E+03 0. -1.
</event>
<event>
 4    1  0.1211980E+000  0.1797728E+03  0.7818608E-02  0.1168023E+00
         21   -1    0    0  503  502  0.00000000000E+00  0.00000000000E+00  0.76984796360E+02  0.76984796360E+02  0.00000000000E+00 0.  1.
         21   -1    0    0  501  503 -0.00000000000E+00 -0.00000000000E+00 -0.83314825188E+03  0.83314825188E+03  0.00000000000E+00 0.  1.
          6    1    1    2  501    0  0.50596856536E+02 -0.13198609220E+02 -0.69861388689E+03  0.72137341795E+03  0.17200000000E+03 0.  1.
         -6    1    1    2    0  502 -0.50596856536E+02  0.13198609220E+02 -0.57549568634E+02  0.18875963029E+03  0.17200000000E+03 0.  1.
</event>
<event>
 4    1  0.1211980E+000  0.2600928E+03  0.7818608E-02  0.1107088E+00
         21   -1    0    0  501  502  0.00000000000E+00  0.00000000000E+00  0.40513662093E+03  0.40513662093E+03  0.00000000000E+00 0.  1.
         21   -1    0    0  502  503 -0.00000000000E+00 -0.00000000000E+00 -0.54513525626E+03  0.54513525626E+03  0.00000000000E+00 0. -1.
          6    1    1    2  501    0 -0.18293762900E+03  0.67809113926E+02 -0.46573288232E+03  0.53343731564E+03  0.17200000000E+03 0. -1.
         -6    1    1    2    0  503  0.18293762900E+03 -0.67809113926E+02  0.32573424700E+03  0.41683456155E+03  0.17200000000E+03 0.  1.
</event>
<event>
 4    1  0.1211980E+000  0.3194936E+03  0.7818608E-02  0.1075883E+00
         21   -1    0    0  503  502  0.00000000000E+00  0.00000000000E+00  0.26407433649E+03  0.26407433649E+03  0.00000000000E+00 0.  1.
         21   -1    0    0  501  503 -0.00000000000E+00 -0.00000000000E+00 -0.75426920319E+03  0.75426920319E+03  0.00000000000E+00 0. -1.
          6    1    1    2  501    0  0.14033077511E+03 -0.22978125863E+03 -0.60061680361E+03  0.68030632662E+03  0.17200000000E+03 0. -1.
         -6    1    1    2    0  502 -0.14033077511E+03  0.22978125863E+03  0.11042193691E+03  0.33803721306E+03  0.17200000000E+03 0.  1.
</event>
<event>
 4    1  0.1211980E+000  0.2023221E+03  0.7818608E-02  0.1147794E+00
         21   -1    0    0  503  502  0.00000000000E+00  0.00000000000E+00  0.16506378795E+03  0.16506378795E+03  0.00000000000E+00 0. -1.
         21   -1    0    0  501  503 -0.00000000000E+00 -0.00000000000E+00 -0.40574719381E+03  0.40574719381E+03  0.00000000000E+00 0. -1.
          6    1    1    2  501    0  0.83734710586E+02 -0.65869127062E+02 -0.29830421337E+03  0.36044368127E+03  0.17200000000E+03 0. -1.
         -6    1    1    2    0  502 -0.83734710586E+02  0.65869127062E+02  0.57620807499E+02  0.21036730049E+03  0.17200000000E+03 0. -1.
</event>
<event>
 4    1  0.1211980E+000  0.1807734E+03  0.7818608E-02  0.1167057E+00
         21   -1    0    0  503  502  0.00000000000E+00  0.00000000000E+00  0.18125609482E+03  0.18125609482E+03  0.00000000000E+00 0. -1.
         21   -1    0    0  501  503 -0.00000000000E+00 -0.00000000000E+00 -0.20371519838E+03  0.20371519838E+03  0.00000000000E+00 0. -1.
          6    1    1    2  501    0 -0.29618816832E+02  0.47092807242E+02  0.54039996145E+02  0.18867784180E+03  0.17200000000E+03 0. -1.
         -6    1    1    2    0  502  0.29618816832E+02 -0.47092807242E+02 -0.76499099710E+02  0.19629345140E+03  0.17200000000E+03 0. -1.
</event>
<event>
 4    1  0.1211980E+000  0.1838489E+03  0.7818608E-02  0.1164129E+00
         21   -1    0    0  503  502  0.00000000000E+00  0.00000000000E+00  0.75419097718E+03  0.75419097718E+03  0.00000000000E+00 0. -1.
         21   -1    0    0  501  503 -0.00000000000E+00 -0.00000000000E+00 -0.11497153127E+03  0.11497153127E+03  0.00000000000E+00 0. -1.
          6    1    1    2  501    0  0.63415956708E+02 -0.13958586300E+02 -0.19862555963E+02  0.18491875737E+03  0.17200000000E+03 0.  1.
         -6    1    1    2    0  502 -0.63415956708E+02  0.13958586300E+02  0.65908200187E+03  0.68424375108E+03  0.17200000000E+03 0.  1.
</event>
<event>
 4    1  0.1211980E+000  0.2120052E+03  0.7818608E-02  0.1139988E+00
         21   -1    0    0  501  502  0.00000000000E+00  0.00000000000E+00  0.24425353213E+04  0.24425353213E+04  0.00000000000E+00 0.  1.
         21   -1    0    0  502  503 -0.00000000000E+00 -0.00000000000E+00 -0.41641831418E+02  0.41641831418E+02  0.00000000000E+00 0.  1.
          6    1    1    2  501    0 -0.94716156683E+02 -0.79944075602E+02  0.21283639535E+04  0.21388967540E+04  0.17200000000E+03 0.  1.
         -6    1    1    2    0  503  0.94716156683E+02  0.79944075602E+02  0.27252953637E+03  0.34528039874E+03  0.17200000000E+03 0.  1.
</event>
<event>
 4    1  0.1211980E+000  0.2056732E+03  0.7818608E-02  0.1145039E+00
         21   -1    0    0  503  502  0.00000000000E+00  0.00000000000E+00  0.13830991619E+04  0.13830991619E+04  0.00000000000E+00 0. -1.
         21   -1    0    0  501  503 -0.00000000000E+00 -0.00000000000E+00 -0.55265956687E+02  0.55265956687E+02  0.00000000000E+00 0. -1.
          6    1    1    2  501    0 -0.82628139185E+02 -0.76746734827E+02  0.18330392592E+03  0.27550281296E+03  0.17200000000E+03 0. -1.
         -6    1    1    2    0  502  0.82628139185E+02  0.76746734827E+02  0.11445292793E+04  0.11628623056E+04  0.17200000000E+03 0. -1.
</event>
<event>
 4    1  0.1211980E+000  0.2619449E+03  0.7818608E-02  0.1105980E+00
         21   -1    0    0  503  502  0.00000000000E+00  0.00000000000E+00  0.73094934411E+03  0.73094934411E+03  0.00000000000E+00 0.  1.
         21   -1    0    0  501  503 -0.00000000000E+00 -0.00000000000E+00 -0.97486426478E+02  0.97486426478E+02  0.00000000000E+00 0. -1.
          6    1    1    2  501    0  0.16155440400E+03  0.11371600775E+03  0.23696518897E+03  0.35322465466E+03  0.17200000000E+03 0.  1.
         -6    1    1    2    0  502 -0.16155440400E+03 -0.11371600775E+03  0.39649772866E+03  0.47521111593E+03  0.17200000000E+03 0.  1.
</event>
<event>
 4    1  0.1211980E+000  0.2070059E+03  0.7818608E-02  0.1143959E+00
         21   -1    0    0  503  502  0.00000000000E+00  0.00000000000E+00  0.13521765781E+03  0.13521765781E+03  0.00000000000E+00 0.  1.
         21   -1    0    0  501  503 -0.00000000000E+00 -0.00000000000E+00 -0.46303464885E+03  0.46303464885E+03  0.00000000000E+00 0. -1.
          6    1    1    2  501    0 -0.10575304391E+03  0.45648115514E+02  0.41318092199E+01  0.20704716514E+03  0.17200000000E+03 0.  1.
         -6    1    1    2    0  502  0.10575304391E+03 -0.45648115514E+02 -0.33194880026E+03  0.39120514151E+03  0.17200000000E+03 0.  1.
</event>
<event>
 4    1  0.1211980E+000  0.2878614E+03  0.7818608E-02  0.1091471E+00
         21   -1    0    0  501  502  0.00000000000E+00  0.00000000000E+00  0.58734251729E+03  0.58734251729E+03  0.00000000000E+00 0. -1.
         21   -1    0    0  502  503 -0.00000000000E+00 -0.00000000000E+00 -0.20698713534E+03  0.20698713534E+03  0.00000000000E+00 0.  1.
          6    1    1    2  501    0  0.56445164152E+02  0.22381717939E+03 -0.33928905142E+02  0.28985402697E+03  0.17200000000E+03 0.  1.
         -6    1    1    2    0  503 -0.56445164152E+02 -0.22381717939E+03  0.41428428709E+03  0.50447562565E+03  0.17200000000E+03 0. -1.
</event>
<event>
 4    1  0.1211980E+000  0.2580571E+03  0.7818608E-02  0.1108316E+00
         21   -1    0    0  501  502  0.00000000000E+00  0.00000000000E+00  0.13071405044E+04  0.13071405044E+04  0.00000000000E+00 0. -1.
         21   -1    0    0  502  503 -0.00000000000E+00 -0.00000000000E+00 -0.53512423605E+03  0.53512423605E+03  0.00000000000E+00 0.  1.
          6    1    1    2  501    0  0.18405694738E+03 -0.55968720608E+02  0.12621963503E+04  0.12883062851E+04  0.17200000000E+03 0. -1.
         -6    1    1    2    0  503 -0.18405694738E+03  0.55968720608E+02 -0.49018008191E+03  0.55395845536E+03  0.17200000000E+03 0.  1.
</event>
<event>
 4    1  0.1211980E+000  0.3304046E+03  0.7818608E-02  0.1070958E+00
         21   -1    0    0  503  502  0.00000000000E+00  0.00000000000E+00  0.69019916555E+02  0.69019916555E+02  0.00000000000E+00 0. -1.
         21   -1    0    0  501  503 -0.00000000000E+00 -0.00000000000E+00 -0.16063954654E+04  0.16063954654E+04  0.00000000000E+00 0.  1.
          6    1    1    2  501    0  0.27655969487E+03  0.55658878519E+02 -0.66477187987E+03  0.74235357334E+03  0.17200000000E+03 0. -1.
         -6    1    1    2    0  502 -0.27655969487E+03 -0.55658878519E+02 -0.87260366896E+03  0.93306180860E+03  0.17200000000E+03 0.  1.
</event>
<event>
 4    1  0.1211980E+000  0.1724024E+03  0.7818608E-02  0.1175365E+00
         21   -1    0    0  503  502  0.00000000000E+00  0.00000000000E+00  0.20415067556E+03  0.20415067556E+03  0.00000000000E+00 0.  1.
         21   -1    0    0  501  503 -0.00000000000E+00 -0.00000000000E+00 -0.16663681841E+03  0.16663681841E+03  0.00000000000E+00 0.  1.
          6    1    1    2  501    0  0.11106180522E+02  0.39059569454E+01 -0.47128187641E+02  0.17872792120E+03  0.17200000000E+03 0.  1.
         -6    1    1    2    0  502 -0.11106180522E+02 -0.39059569454E+01  0.84642044795E+02  0.19205957277E+03  0.17200000000E+03 0.  1.
</event>
<event>
 4    1  0.1211980E+000  0.2581954E+03  0.7818608E-02  0.1108232E+00
         21   -1    0    0  501  502  0.00000000000E+00  0.00000000000E+00  0.46897733121E+03  0.46897733121E+03  0.00000000000E+00 0.  1.
         21   -1    0    0  502  503 -0.00000000000E+00 -0.00000000000E+00 -0.23083637089E+03  0.23083637089E+03  0.00000000000E+00 0. -1.
          6    1    1    2  501    0 -0.13484448020E+03 -0.13746940711E+03  0.33595577380E+03  0.42371116776E+03  0.17200000000E+03 0.  1.
         -6    1    1    2    0  503  0.13484448020E+03  0.13746940711E+03 -0.97814813483E+02  0.27610253434E+03  0.17200000000E+03 0. -1.
</event>
<event>
 4    1  0.1211980E+000  0.1741167E+03  0.7818608E-02  0.1173622E+00
         21   -1    0    0  503  502  0.00000000000E+00  0.00000000000E+00  0.20273117978E+03  0.20273117978E+03  0.00000000000E+00 0.  1.
         21   -1    0    0  501  503 -0.00000000000E+00 -0.00000000000E+00 -0.39340159562E+03  0.39340159562E+03  0.00000000000E+00 0.  1.
          6    1    1    2  501    0 -0.71814686575E+01  0.26096759923E+02 -0.33000965343E+03  0.37312596496E+03  0.17200000000E+03 0.  1.
         -6    1    1    2    0  502  0.71814686575E+01 -0.26096759923E+02  0.13933923759E+03  0.22300681044E+03  0.17200000000E+03 0.  1.
</event>
<event>
 4    1  0.1211980E+000  0.1871901E+03  0.7818608E-02  0.1161020E+00
         21   -1    0    0  503  502  0.00000000000E+00  0.00000000000E+00  0.19583028466E+03  0.19583028466E+03  0.00000000000E+00 0. -1.
         21   -1    0    0  501  503 -0.00000000000E+00 -0.00000000000E+00 -0.21733902916E+03  0.21733902916E+03  0.00000000000E+00 0. -1.
          6    1    1    2  501    0 -0.68671039195E+02 -0.27210794144E+02  0.76089531847E+02  0.20206374192E+03  0.17200000000E+03 0. -1.
         -6    1    1    2    0  502  0.68671039195E+02  0.27210794144E+02 -0.97598276345E+02  0.21110557190E+03  0.17200000000E+03 0. -1.
</event>
<event>
 4    1  0.1211980E+000  0.2520372E+03  0.7818608E-02  0.1112024E+00
         21   -1    0    0  503  502  0.00000000000E+00  0.00000000000E+00  0.95658593960E+02  0.95658593960E+02  0.00000000000E+00 0. -1.
         21   -1    0    0  501  503 -0.00000000000E+00 -0.00000000000E+00 -0.10100332339E+04  0.10100332339E+04  0.00000000000E+00 0. -1.
          6    1    1    2  501    0 -0.15224391628E+03  0.10373296425E+03 -0.78075083403E+03  0.82042342894E+03  0.17200000000E+03 0. -1.
         -6    1    1    2    0  502  0.15224391628E+03 -0.10373296425E+03 -0.13362380591E+03  0.28526839892E+03  0.17200000000E+03 0. -1.
</event>
<event>
 4    1  0.1211980E+000  0.1854505E+03  0.7818608E-02  0.1162630E+00
         21   -1    0    0  503  502  0.00000000000E+00  0.00000000000E+00  0.28548424227E+03  0.28548424227E+03  0.00000000000E+00 0.  1.
         21   -1    0    0  501  503 -0.00000000000E+00 -0.00000000000E+00 -0.12277343294E+03  0.12277343294E+03  0.00000000000E+00 0.  1.
          6    1    1    2  501    0  0.53467680683E+02  0.44148672902E+02  0.10932384122E+03  0.21527563832E+03  0.17200000000E+03 0.  1.
         -6    1    1    2    0  502 -0.53467680683E+02 -0.44148672902E+02  0.53386968112E+02  0.19298203689E+03  0.17200000000E+03 0.  1.
</event>
<event>
 4    1  0.1211980E+000  0.1804037E+03  0.7818608E-02  0.1167413E+00
         21   -1    0    0  503  502  0.00000000000E+00  0.00000000000E+00  0.21360665968E+03  0.21360665968E+03  0.00000000000E+00 0.  1.
         21   -1    0    0  501  503 -0.00000000000E+00 -0.00000000000E+00 -0.17159991278E+03  0.17159991278E+03  0.00000000000E+00 0.  1.
          6    1    1    2  501    0  0.35338836228E+02 -0.41384195278E+02  0.85492565121E+02  0.19963582759E+03  0.17200000000E+03 0.  1.
         -6    1    1    2    0  502 -0.35338836228E+02  0.41384195278E+02 -0.43485818221E+02  0.18557074487E+03  0.17200000000E+03 0.  1.
</event>
<event>
 4    1  0.1211980E+000  0.1928937E+03  0.7818608E-02  0.1155877E+00
         21   -1    0    0  503  502  0.00000000000E+00  0.00000000000E+00  0.13378059697E+03  0.13378059697E+03  0.00000000000E+00 0.  1.
         21   -1    0    0  501  503 -0.00000000000E+00 -0.00000000000E+00 -0.58836818807E+03  0.58836818807E+03  0.00000000000E+00 0.  1.
          6    1    1    2  501    0 -0.21893723828E+00  0.87315138407E+02 -0.48948728430E+03  0.52612335324E+03  0.17200000000E+03 0.  1.
         -6    1    1    2    0  502  0.21893723828E+00 -0.87315138407E+02  0.34899693200E+02  0.19602543180E+03  0.17200000000E+03 0.  1.
</event>
<event>
 4    1  0.1211980E+000  0.2440687E+03  0.7818608E-02  0.1117112E+00
         21   -1    0    0  503  502  0.00000000000E+00  0.00000000000E+00  0.25238621139E+03  0.25238621139E+03  0.00000000000E+00 0.  1.
         21   -1    0    0  501  503 -0.00000000000E+00 -0.00000000000E+00 -0.26011472240E+03  0.26011472240E+03  0.00000000000E+00 0. -1.
          6    1    1    2  501    0 -0.13657382146E+03  0.10645710770E+03 -0.81846482546E+02  0.25742643841E+03  0.17200000000E+03 0.  1.
         -6    1    1    2    0  502  0.13657382146E+03 -0.10645710770E+03  0.74117971534E+02  0.25507449538E+03  0.17200000000E+03 0.  1.
</event>
<event>
 4    1  0.1211980E+000  0.2140451E+03  0.7818608E-02  0.1138402E+00
         21   -1    0    0  503  502  0.00000000000E+00  0.00000000000E+00  0.66237656566E+02  0.66237656566E+02  0.00000000000E+00 0. -1.
         21   -1    0    0  501  503 -0.00000000000E+00 -0.00000000000E+00 -0.69179823739E+03  0.69179823739E+03  0.00000000000E+00 0.  1.
          6    1    1    2  501    0  0.12730389103E+03  0.50039098281E+01 -0.30784346739E+03  0.37494388940E+03  0.17200000000E+03 0.  1.
         -6    1    1    2    0  502 -0.12730389103E+03 -0.50039098281E+01 -0.31771711343E+03  0.38309200455E+03  0.17200000000E+03 0.  1.
</event>
<event>
 4    1  0.1211980E+000  0.2236741E+03  0.7818608E-02  0.1131173E+00
         21   -1    0    0  503  502  0.00000000000E+00  0.00000000000E+00  0.24004212990E+03  0.24004212990E+03  0.00000000000E+00 0. -1.
         21   -1    0    0  501  503 -0.00000000000E+00 -0.00000000000E+00 -0.21037371643E+03  0.21037371643E+03  0.00000000000E+00 0. -1.
          6    1    1    2  501    0  0.10378310852E+03  0.98362482925E+02  0.36524863819E+02  0.22663666371E+03  0.17200000000E+03 0. -1.
         -6    1    1    2    0  502 -0.10378310852E+03 -0.98362482925E+02 -0.68564503492E+01  0.22377918262E+03  0.17200000000E+03 0. -1.
</event>
<event>
 4    1  0.1211980E+000  0.2307748E+03  0.7818608E-02  0.1126096E+00
         21   -1    0    0  503  502  0.00000000000E+00  0.00000000000E+00  0.19483649102E+03  0.19483649102E+03  0.00000000000E+00 0. -1.
         21   -1    0    0  501  503 -0.00000000000E+00 -0.00000000000E+00 -0.41277079736E+03  0.41277079736E+03  0.00000000000E+00 0.  1.
          6    1    1    2  501    0 -0.12115123700E+03  0.94843904068E+02  0.67601985958E+02  0.24047248672E+03  0.17200000000E+03 0. -1.
         -6    1    1    2    0  502  0.12115123700E+03 -0.94843904068E+02 -0.28553629230E+03  0.36713480166E+03  0.17200000000E+03 0.  1.
</event>
<event>
 4    1  0.1211980E+000  0.2343344E+03  0.7818608E-02  0.1123626E+00
         21   -1    0    0  503  502  0.00000000000E+00  0.00000000000E+00  0.95863456968E+03  0.95863456968E+03  0.00000000000E+00 0. -1.
         21   -1    0    0  501  503 -0.00000000000E+00 -0.00000000000E+00 -0.61564756442E+02  0.61564756442E+02  0.00000000000E+00 0.  1.
          6    1    1    2  501    0  0.10824762100E+03  0.11666652734E+03  0.58307268808E+03  0.62839986126E+03  0.17200000000E+03 0. -1.
         -6    1    1    2    0  502 -0.10824762100E+03 -0.11666652734E+03  0.31399712516E+03  0.39179946486E+03  0.17200000000E+03 0. -1.
</event>
<event>
 4    1  0.1211980E+000  0.2627051E+03  0.7818608E-02  0.1105529E+00
         21   -1    0    0  501  502  0.00000000000E+00  0.00000000000E+00  0.12969589802E+04  0.12969589802E+04  0.00000000000E+00 0.  1.
         21   -1    0    0  502  503 -0.00000000000E+00 -0.00000000000E+00 -0.54409197733E+02  0.54409197733E+02  0.00000000000E+00 0. -1.
          6    1    1    2  501    0 -0.13273125676E+03  0.14769017161E+03  0.72149701779E+03  0.76783586787E+03  0.17200000000E+03 0.  1.
         -6    1    1    2    0  503  0.13273125676E+03 -0.14769017161E+03  0.52105276468E+03  0.58353231007E+03  0.17200000000E+03 0.  1.
</event>
<event>
 4    1  0.1211980E+000  0.1993510E+03  0.7818608E-02  0.1150288E+00
         21   -1    0    0  501  502  0.00000000000E+00  0.00000000000E+00  0.17316209700E+03  0.17316209700E+03  0.00000000000E+00 0.  1.
         21   -1    0    0  502  503 -0.00000000000E+00 -0.00000000000E+00 -0.27730655047E+03  0.27730655047E+03  0.00000000000E+00 0.  1.
          6    1    1    2  501    0  0.94364553123E+02 -0.35385892185E+02 -0.14559014484E+03  0.24685485721E+03  0.17200000000E+03 0.  1.
         -6    1    1    2    0  503 -0.94364553123E+02  0.35385892185E+02  0.41445691378E+02  0.20361379026E+03  0.17200000000E+03 0.  1.
</event>
<event>
 4    1  0.1211980E+000  0.1875261E+03  0.7818608E-02  0.1160712E+00
         21   -1    0    0  503  502  0.00000000000E+00  0.00000000000E+00  0.73214078192E+02  0.73214078192E+02  0.00000000000E+00 0. -1.
         21   -1    0    0  501  503 -0.00000000000E+00 -0.00000000000E+00 -0.51103316585E+03  0.51103316585E+03  0.00000000000E+00 0. -1.
          6    1    1    2  501    0  0.21758202576E+02 -0.71474481807E+02 -0.29052724384E+03  0.34579198999E+03  0.17200000000E+03 0. -1.
         -6    1    1    2    0  502 -0.21758202576E+02  0.71474481807E+02 -0.14729184382E+03  0.23845525405E+03  0.17200000000E+03 0. -1.
</event>
<event>
 4    1  0.1211980E+000  0.2680759E+03  0.7818608E-02  0.1102386E+00
         21   -1    0    0  503  502  0.00000000000E+00  0.00000000000E+00  0.29320326390E+03  0.29320326390E+03  0.00000000000E+00 0.  1.
         21   -1    0    0  501  503 -0.00000000000E+00 -0.00000000000E+00 -0.41085503727E+03  0.41085503727E+03  0.00000000000E+00 0. -1.
          6    1    1    2  501    0  0.16805265701E+03 -0.11848619235E+03 -0.28242249685E+03  0.38939329737E+03  0.17200000000E+03 0.  1.
         -6    1    1    2    0  502 -0.16805265701E+03  0.11848619235E+03  0.16477072347E+03  0.31466500381E+03  0.17200000000E+03 0.  1.
</event>
<event>
 4    1  0.1211980E+000  0.2999708E+03  0.7818608E-02  0.1085255E+00
         21   -1    0    0  501  502  0.00000000000E+00  0.00000000000E+00  0.12322324979E+04  0.12322324979E+04  0.00000000000E+00 0.  1.
         21   -1    0    0  502  503 -0.00000000000E+00 -0.00000000000E+00 -0.74667882617E+02  0.74667882617E+02  0.00000000000E+00 0. -1.
          6    1    1    2  501    0  0.14527819681E+03  0.19822394961E+03  0.67574108053E+03  0.73932976173E+03  0.17200000000E+03 0. -1.
         -6    1    1    2    0  503 -0.14527819681E+03 -0.19822394961E+03  0.48182353476E+03  0.56757061879E+03  0.17200000000E+03 0. -1.
</event>
<event>
 4    1  0.1211980E+000  0.1842668E+03  0.7818608E-02  0.1163736E+00
         21   -1    0    0  503  502  0.00000000000E+00  0.00000000000E+00  0.25575442472E+03  0.25575442472E+03  0.00000000000E+00 0.  1.
         21   -1    0    0  501  503 -0.00000000000E+00 -0.00000000000E+00 -0.13283371395E+03  0.13283371395E+03  0.00000000000E+00 0. -1.
          6    1    1    2  501    0 -0.65401212293E+02 -0.96406841063E+01  0.56920406426E+02  0.19285796335E+03  0.17200000000E+03 0.  1.
         -6    1    1    2    0  502  0.65401212293E+02  0.96406841063E+01  0.66000304337E+02  0.19573017532E+03  0.17200000000E+03 0.  1.
</event>
<event>
 4    1  0.1211980E+000  0.2133446E+03  0.7818608E-02  0.1138944E+00
         21   -1    0    0  501  502  0.00000000000E+00  0.00000000000E+00  0.81232174274E+02  0.81232174274E+02  0.00000000000E+00 0. -1.
         21   -1    0    0  502  503 -0.00000000000E+00 -0.00000000000E+00 -0.91896705982E+03  0.91896705982E+03  0.00000000000E+00 0.  1.
          6    1    1    2  501    0  0.11488425404E+03  0.52283207773E+02 -0.10644600260E+03  0.23842541205E+03  0.17200000000E+03 0. -1.
         -6    1    1    2    0  503 -0.11488425404E+03 -0.52283207773E+02 -0.73128888294E+03  0.76177382205E+03  0.17200000000E+03 0. -1.
</event>
<event>
 4    1  0.1211980E+000  0.2298562E+03  0.7818608E-02  0.1126741E+00
         21   -1    0    0  501  502  0.00000000000E+00  0.00000000000E+00  0.54576046022E+03  0.54576046022E+03  0.00000000000E+00 0.  1.
         21   -1    0    0  502  503 -0.00000000000E+00 -0.00000000000E+00 -0.10184508441E+03  0.10184508441E+03  0.00000000000E+00 0.  1.
          6    1    1    2  501    0  0.97142504115E+02  0.11752960271E+03  0.29397027873E+03  0.37316537673E+03  0.17200000000E+03 0.  1.
         -6    1    1    2    0  503 -0.97142504115E+02 -0.11752960271E+03  0.14994509708E+03  0.27444016790E+03  0.17200000000E+03 0.  1.
</event>
<event>
 4    1  0.1211980E+000  0.1801545E+03  0.7818608E-02  0.1167654E+00
         21   -1    0    0  501  502  0.00000000000E+00  0.00000000000E+00  0.15843959074E+03  0.15843959074E+03  0.00000000000E+00 0.  1.
         21   -1    0    0  502  503 -0.00000000000E+00 -0.00000000000E+00 -0.22419902898E+03  0.22419902898E+03  0.00000000000E+00 0. -1.
          6    1    1    2  501    0  0.49959702422E+02 -0.19382092677E+02  0.23331371494E+02  0.18165899449E+03  0.17200000000E+03 0.  1.
         -6    1    1    2    0  503 -0.49959702422E+02  0.19382092677E+02 -0.89090809733E+02  0.20097962524E+03  0.17200000000E+03 0. -1.
</event>
<event>
 4    1  0.1211980E+000  0.2384834E+03  0.7818608E-02  0.1120807E+00
         21   -1    0    0  503  502  0.00000000000E+00  0.00000000000E+00  0.10286386467E+03  0.10286386467E+03  0.00000000000E+00 0.  1.
         21   -1    0    0  501  503 -0.00000000000E+00 -0.00000000000E+00 -0.83953339318E+03  0.83953339318E+03  0.00000000000E+00 0.  1.
          6    1    1    2  501    0 -0.14071225243E+03  0.86547074351E+02 -0.64365730598E+03  0.68641755631E+03  0.17200000000E+03 0.  1.
         -6    1    1    2    0  502  0.14071225243E+03 -0.86547074351E+02 -0.93012222527E+02  0.25597970154E+03  0.17200000000E+03 0.  1.
</event>
<event>
 4    1  0.1211980E+000  0.2267967E+03  0.7818608E-02  0.1128915E+00
         21   -1    0    0  501  502  0.00000000000E+00  0.00000000000E+00  0.42280272990E+03  0.42280272990E+03  0.00000000000E+00 0. -1.
         21   -1    0    0  502  503 -0.00000000000E+00 -0.00000000000E+00 -0.12551175999E+03  0.12551175999E+03  0.00000000000E+00 0.  1.
          6    1    1    2  501    0 -0.58229869905E+02 -0.13587508963E+03  0.19669363853E+03  0.30020850283E+03  0.17200000000E+03 0. -1.
         -6    1    1    2    0  503  0.58229869905E+02  0.13587508963E+03  0.10059733138E+03  0.24810598705E+03  0.17200000000E+03 0.  1.
</event>
<event>
 4    1  0.1211980E+000  0.3066150E+03  0.7818608E-02  0.1081980E+00
         21   -1    0    0  503  502  0.00000000000E+00  0.00000000000E+00  0.15824925250E+04  0.15824925250E+04  0.00000000000E+00 0.  1.
         21   -1    0    0  501  503 -0.00000000000E+00 -0.00000000000E+00 -0.90480538079E+02  0.90480538079E+02  0.00000000000E+00 0.  1.
          6    1    1    2  501    0 -0.24652953792E+03 -0.60431499366E+02  0.25581034633E+03  0.39931405244E+03  0.17200000000E+03 0.  1.
         -6    1    1    2    0  502  0.24652953792E+03  0.60431499366E+02  0.12362016406E+04  0.12736590107E+04  0.17200000000E+03 0.  1.
</event>
<event>
 4    1  0.1211980E+000  0.1942747E+03  0.7818608E-02  0.1154661E+00
         21   -1    0    0  501  502  0.00000000000E+00  0.00000000000E+00  0.50468459195E+02  0.50468459195E+02  0.00000000000E+00 0.  1.
         21   -1    0    0  502  503 -0.00000000000E+00 -0.00000000000E+00 -0.21787086245E+04  0.21787086245E+04  0.00000000000E+00 0.  1.
          6    1    1    2  501    0 -0.88431781143E+02 -0.18397490076E+02 -0.16085768552E+03  0.25222577693E+03  0.17200000000E+03 0.  1.
         -6    1    1    2    0  503  0.88431781143E+02  0.18397490076E+02 -0.19673824797E+04  0.19769513067E+04  0.17200000000E+03 0.  1.
</event>
<event>
 4    1  0.1211980E+000  0.2524523E+03  0.7818608E-02  0.1111765E+00
         21   -1    0    0  503  502  0.00000000000E+00  0.00000000000E+00  0.17756124243E+03  0.17756124243E+03  0.00000000000E+00 0.  1.
         21   -1    0    0  501  503 -0.00000000000E+00 -0.00000000000E+00 -0.37112454027E+03  0.37112454027E+03  0.00000000000E+00 0.  1.
          6    1    1    2  501    0  0.18337980085E+03 -0.22804231329E+02 -0.14650996993E+03  0.29188586060E+03  0.17200000000E+03 0. -1.
         -6    1    1    2    0  502 -0.18337980085E+03  0.22804231329E+02 -0.47053327906E+02  0.25679992211E+03  0.17200000000E+03 0. -1.
</event>
<event>
 4    1  0.1211980E+000  0.2855960E+03  0.7818608E-02  0.1092671E+00
         21   -1    0    0  501  502  0.00000000000E+00  0.00000000000E+00  0.67285398000E+03  0.67285398000E+03  0.00000000000E+00 0.  1.
         21   -1    0    0  502  503 -0.00000000000E+00 -0.00000000000E+00 -0.12549209516E+03  0.12549209516E+03  0.00000000000E+00 0. -1.
          6    1    1    2  501    0  0.85933764432E+00 -0.22799201781E+03  0.34730878067E+03  0.44965374209E+03  0.17200000000E+03 0.  1.
         -6    1    1    2    0  503 -0.85933764432E+00  0.22799201781E+03  0.20005310417E+03  0.34869233306E+03  0.17200000000E+03 0. -1.
</event>
<event>
 4    1  0.1211980E+000  0.1818627E+03  0.7818608E-02  0.1166012E+00
         21   -1    0    0  503  502  0.00000000000E+00  0.00000000000E+00  0.21586393410E+03  0.21586393410E+03  0.00000000000E+00 0.  1.
         21   -1    0    0  501  503 -0.00000000000E+00 -0.00000000000E+00 -0.18108777940E+03  0.18108777940E+03  0.00000000000E+00 0.  1.
          6    1    1    2  501    0 -0.57291522014E+02  0.14413175793E+02 -0.60475876478E+02  0.19165434972E+03  0.17200000000E+03 0.  1.
         -6    1    1    2    0  502  0.57291522014E+02 -0.14413175793E+02  0.95252031172E+02  0.20529736378E+03  0.17200000000E+03 0.  1.
</event>
<event>
 4    1  0.1211980E+000  0.2398679E+03  0.7818608E-02  0.1119881E+00
         21   -1    0    0  503  502  0.00000000000E+00  0.00000000000E+00  0.12527245464E+03  0.12527245464E+03  0.00000000000E+00 0.  1.
         21   -1    0    0  501  503 -0.00000000000E+00 -0.00000000000E+00 -0.63424294880E+03  0.63424294880E+03  0.00000000000E+00 0. -1.
          6    1    1    2  501    0  0.16440255018E+03 -0.30403966106E+02 -0.45393673476E+03  0.51341519147E+03  0.17200000000E+03 0. -1.
         -6    1    1    2    0  502 -0.16440255018E+03  0.30403966106E+02 -0.55033759396E+02  0.24610021198E+03  0.17200000000E+03 0.  1.
</event>
<event>
 4    1  0.1211980E+000  0.3116740E+03  0.7818608E-02  0.1079546E+00
         21   -1    0    0  501  502  0.00000000000E+00  0.00000000000E+00  0.84782013306E+03  0.84782013306E+03  0.00000000000E+00 0.  1.
         21   -1    0    0  502  503 -0.00000000000E+00 -0.00000000000E+00 -0.15231170203E+03  0.15231170203E+03  0.00000000000E+00 0. -1.
          6    1    1    2  501    0  0.11142930746E+03 -0.23481942316E+03  0.59665789829E+03  0.67315770785E+03  0.17200000000E+03 0.  1.
         -6    1    1    2    0  503 -0.11142930746E+03  0.23481942316E+03  0.98850532741E+02  0.32697412723E+03  0.17200000000E+03 0. -1.
</event>
<event>
 4    1  0.1211980E+000  0.2127914E+03  0.7818608E-02  0.1139374E+00
         21   -1    0    0  501  502  0.00000000000E+00  0.00000000000E+00  0.20437769162E+03  0.20437769162E+03  0.00000000000E+00 0. -1.
         21   -1    0    0  502  503 -0.00000000000E+00 -0.00000000000E+00 -0.44188641614E+03  0.44188641614E+03  0.00000000000E+00 0. -1.
          6    1    1    2  501    0  0.10979047642E+03 -0.60350837774E+02  0.10941978423E+03  0.23927570189E+03  0.17200000000E+03 0. -1.
         -6    1    1    2    0  503 -0.10979047642E+03  0.60350837774E+02 -0.34692850875E+03  0.40698840587E+03  0.17200000000E+03 0. -1.
</event>
<event>
 4    1  0.1211980E+000  0.2790163E+03  0.7818608E-02  0.1096227E+00
         21   -1    0    0  501  502  0.00000000000E+00  0.00000000000E+00  0.31332587533E+02  0.31332587533E+02  0.00000000000E+00 0. -1.
         21   -1    0    0  502  503 -0.00000000000E+00 -0.00000000000E+00 -0.31429626837E+04  0.31429626837E+04  0.00000000000E+00 0.  1.
          6    1    1    2  501    0  0.97928706554E+02 -0.19666229807E+03 -0.22822024008E+04  0.22991950524E+04  0.17200000000E+03 0.  1.
         -6    1    1    2    0  503 -0.97928706554E+02  0.19666229807E+03 -0.82942769535E+03  0.87510021876E+03  0.17200000000E+03 0. -1.
</event>
<event>
 4    1  0.1211980E+000  0.2218793E+03  0.7818608E-02  0.1132490E+00
         21   -1    0    0  503  502  0.00000000000E+00  0.00000000000E+00  0.12493159684E+03  0.12493159684E+03  0.00000000000E+00 0. -1.
         21   -1    0    0  501  503 -0.00000000000E+00 -0.00000000000E+00 -0.55523094273E+03  0.55523094273E+03  0.00000000000E+00 0. -1.
          6    1    1    2  501    0 -0.69877241013E+02 -0.12150551046E+03 -0.39837716090E+03  0.45599866251E+03  0.17200000000E+03 0.  1.
         -6    1    1    2    0  502  0.69877241013E+02  0.12150551046E+03 -0.31922184994E+02  0.22416387706E+03  0.17200000000E+03 0.  1.
</event>
<event>
 4    1  0.1211980E+000  0.2054926E+03  0.7818608E-02  0.1145186E+00
         21   -1    0    0  501  502  0.00000000000E+00  0.00000000000E+00  0.31333967049E+03  0.31333967049E+03  0.00000000000E+00 0. -1.
         21   -1    0    0  502  503 -0.00000000000E+00 -0.00000000000E+00 -0.22397412399E+03  0.22397412399E+03  0.00000000000E+00 0.  1.
          6    1    1    2  501    0 -0.95665759513E+02  0.59086881488E+02  0.21423515390E+03  0.29685669653E+03  0.17200000000E+03 0. -1.
         -6    1    1    2    0  503  0.95665759513E+02 -0.59086881488E+02 -0.12486960739E+03  0.24045709796E+03  0.17200000000E+03 0.  1.
</event>
<event>
 4    1  0.1211980E+000  0.1921255E+03  0.7818608E-02  0.1156558E+00
         21   -1    0    0  503  502  0.00000000000E+00  0.00000000000E+00  0.52362249524E+02  0.52362249524E+02  0.00000000000E+00 0. -1.
         21   -1    0    0  501  503 -0.00000000000E+00 -0.00000000000E+00 -0.78460963375E+03  0.78460963375E+03  0.00000000000E+00 0. -1.
          6    1    1    2  501    0  0.25301624670E+02  0.81780485994E+02 -0.49947636308E+03  0.53515311582E+03  0.17200000000E+03 0.  1.
         -6    1    1    2    0  502 -0.25301624670E+02 -0.81780485994E+02 -0.23277102115E+03  0.30181876745E+03  0.17200000000E+03 0.  1.
</event>
<event>
 4    1  0.1211980E+000  0.2349733E+03  0.7818608E-02  0.1123187E+00
         21   -1    0    0  503  502  0.00000000000E+00  0.00000000000E+00  0.70926983655E+03  0.70926983655E+03  0.00000000000E+00 0. -1.
         21   -1    0    0  501  503 -0.00000000000E+00 -0.00000000000E+00 -0.78236504737E+02  0.78236504737E+02  0.00000000000E+00 0.  1.
          6    1    1    2  501    0  0.13280037503E+03  0.89400915764E+02  0.34340311915E+03  0.41609874500E+03  0.17200000000E+03 0. -1.
         -6    1    1    2    0  502 -0.13280037503E+03 -0.89400915764E+02  0.28763021267E+03  0.37140759629E+03  0.17200000000E+03 0.  1.
</event>
<event>
 4    1  0.1211980E+000  0.3023138E+03  0.7818608E-02  0.1084090E+00
         21   -1    0    0  501  502  0.00000000000E+00  0.00000000000E+00  0.21419200322E+04  0.21419200322E+04  0.00000000000E+00 0.  1.
         21   -1    0    0  502  503 -0.00000000000E+00 -0.00000000000E+00 -0.62935844848E+02  0.62935844848E+02  0.00000000000E+00 0. -1.
          6    1    1    2  501    0 -0.24126543909E+03 -0.60005188757E+02  0.16650881529E+04  0.16923097210E+04  0.17200000000E+03 0.  1.
         -6    1    1    2    0  503  0.24126543909E+03  0.60005188757E+02  0.41389603450E+03  0.51254615612E+03  0.17200000000E+03 0. -1.
</event>
<event>
 4    1  0.1211980E+000  0.1820215E+03  0.7818608E-02  0.1165861E+00
         21   -1    0    0  501  502  0.00000000000E+00  0.00000000000E+00  0.41407168987E+03  0.41407168987E+03  0.00000000000E+00 0.  1.
         21   -1    0    0  502  503 -0.00000000000E+00 -0.00000000000E+00 -0.80035806889E+02  0.80035806889E+02  0.00000000000E+00 0.  1.
          6    1    1    2  501    0 -0.16078451295E+02  0.57352537634E+02  0.17102808038E+03  0.24976475822E+03  0.17200000000E+03 0.  1.
         -6    1    1    2    0  503  0.16078451295E+02 -0.57352537634E+02  0.16300780260E+03  0.24434273854E+03  0.17200000000E+03 0.  1.
</event>
<event>
 4    1  0.1211980E+000  0.2106107E+03  0.7818608E-02  0.1141083E+00
         21   -1    0    0  501  502  0.00000000000E+00  0.00000000000E+00  0.10213194300E+03  0.10213194300E+03  0.00000000000E+00 0.  1.
         21   -1    0    0  502  503 -0.00000000000E+00 -0.00000000000E+00 -0.61917907288E+03  0.61917907288E+03  0.00000000000E+00 0.  1.
          6    1    1    2  501    0  0.14292132152E+02 -0.12070045461E+03 -0.61455047723E+02  0.21939368194E+03  0.17200000000E+03 0.  1.
         -6    1    1    2    0  503 -0.14292132152E+02  0.12070045461E+03 -0.45559208216E+03  0.50191733394E+03  0.17200000000E+03 0.  1.
</event>
<event>
 4    1  0.1211980E+000  0.2154046E+03  0.7818608E-02  0.1137356E+00
         21   -1    0    0  501  502  0.00000000000E+00  0.00000000000E+00  0.16479637500E+03  0.16479637500E+03  0.00000000000E+00 0. -1.
         21   -1    0    0  502  503 -0.00000000000E+00 -0.00000000000E+00 -0.34923169197E+03  0.34923169197E+03  0.00000000000E+00 0. -1.
          6    1    1    2  501    0  0.99761210820E+02 -0.82842326565E+02  0.20923699542E+02  0.21641846376E+03  0.17200000000E+03 0. -1.
         -6    1    1    2    0  503 -0.99761210820E+02  0.82842326565E+02 -0.20535901651E+03  0.29760960320E+03  0.17200000000E+03 0. -1.
</event>
<event>
 4    1  0.1211980E+000  0.2109518E+03  0.7818608E-02  0.1140814E+00
         21   -1    0    0  501  502  0.00000000000E+00  0.00000000000E+00  0.43107558853E+02  0.43107558853E+02  0.00000000000E+00 0. -1.
         21   -1    0    0  502  503 -0.00000000000E+00 -0.00000000000E+00 -0.11084960613E+04  0.11084960613E+04  0.00000000000E+00 0. -1.
          6    1    1    2  501    0  0.94117649397E+02 -0.77836566657E+02 -0.38174744035E+03  0.43615567318E+03  0.17200000000E+03 0. -1.
         -6    1    1    2    0  503 -0.94117649397E+02  0.77836566657E+02 -0.68364106211E+03  0.71544794698E+03  0.17200000000E+03 0. -1.
</event>
<event>
 4    1  0.1211980E+000  0.2136822E+03  0.7818608E-02  0.1138683E+00
         21   -1    0    0  501  502  0.00000000000E+00  0.00000000000E+00  0.89000999401E+03  0.89000999401E+03  0.00000000000E+00 0.  1.
         21   -1    0    0  502  503 -0.00000000000E+00 -0.00000000000E+00 -0.52236358023E+02  0.52236358023E+02  0.00000000000E+00 0. -1.
          6    1    1    2  501    0  0.12632685418E+03 -0.10845419913E+02  0.48186563612E+03  0.52711914070E+03  0.17200000000E+03 0.  1.
         -6    1    1    2    0  503 -0.12632685418E+03  0.10845419913E+02  0.35590799987E+03  0.41512721133E+03  0.17200000000E+03 0. -1.
</event>
<event>
 4    1  0.1211980E+000  0.1735491E+03  0.7818608E-02  0.1174196E+00
         21   -1    0    0  501  502  0.00000000000E+00  0.00000000000E+00  0.29979013961E+03  0.29979013961E+03  0.00000000000E+00 0. -1.
         21   -1    0    0  502  503 -0.00000000000E+00 -0.00000000000E+00 -0.14183543497E+03  0.14183543497E+03  0.00000000000E+00 0. -1.
          6    1    1    2  501    0  0.13069111509E+02  0.19091287896E+02  0.19822828601E+03  0.26346485975E+03  0.17200000000E+03 0. -1.
         -6    1    1    2    0  503 -0.13069111509E+02 -0.19091287896E+02 -0.40273581372E+02  0.17816071482E+03  0.17200000000E+03 0. -1.
</event>
<event>
 4    1  0.1211980E+000  0.2210960E+03  0.7818608E-02  0.1133069E+00
         21   -1    0    0  501  502  0.00000000000E+00  0.00000000000E+00  0.16707023897E+03  0.16707023897E+03  0.00000000000E+00 0. -1.
         21   -1    0    0  502  503 -0.00000000000E+00 -0.00000000000E+00 -0.51592039346E+03  0.51592039346E+03  0.00000000000E+00 0.  1.
          6    1    1    2  501    0 -0.62428214866E+02  0.12410545447E+03  0.50255327428E+02  0.22673562529E+03  0.17200000000E+03 0.  1.
         -6    1    1    2    0  503  0.62428214866E+02 -0.12410545447E+03 -0.39910548192E+03  0.45625500714E+03  0.17200000000E+03 0.  1.
</event>
<event>
 4    1  0.1211980E+000  0.2133961E+03  0.7818608E-02  0.1138905E+00
         21   -1    0    0  503  502  0.00000000000E+00  0.00000000000E+00  0.42804331261E+03  0.42804331261E+03  0.00000000000E+00 0.  1.
         21   -1    0    0  501  503 -0.00000000000E+00 -0.00000000000E+00 -0.10641594621E+03  0.10641594621E+03  0.00000000000E+00 0.  1.
          6    1    1    2  501    0 -0.46641060258E+02 -0.11738183428E+03  0.16528466428E+03  0.26992018036E+03  0.17200000000E+03 0. -1.
         -6    1    1    2    0  502  0.46641060258E+02  0.11738183428E+03  0.15634270212E+03  0.26453907845E+03  0.17200000000E+03 0. -1.
</event>
<event>
 4    1  0.1211980E+000  0.1922953E+03  0.7818608E-02  0.1156407E+00
         21   -1    0    0  501  502  0.00000000000E+00  0.00000000000E+00  0.17190549149E+04  0.17190549149E+04  0.00000000000E+00 0.  1.
         21   -1    0    0  502  503 -0.00000000000E+00 -0.00000000000E+00 -0.12030406647E+03  0.12030406647E+03  0.00000000000E+00 0.  1.
          6    1    1    2  501    0 -0.26504375213E+02 -0.81798519839E+02  0.16327898255E+04  0.16440742361E+04  0.17200000000E+03 0.  1.
         -6    1    1    2    0  503  0.26504375213E+02  0.81798519839E+02 -0.34038977069E+02  0.19528474521E+03  0.17200000000E+03 0.  1.
</event>
<event>
 4    1  0.1211980E+000  0.2536339E+03  0.7818608E-02  0.1111030E+00
         21   -1    0    0  503  502  0.00000000000E+00  0.00000000000E+00  0.20486268903E+03  0.20486268903E+03  0.00000000000E+00 0.  1.
         21   -1    0    0  501  503 -0.00000000000E+00 -0.00000000000E+00 -0.83038203238E+03  0.83038203238E+03  0.00000000000E+00 0.  1.
          6    1    1    2  501    0  0.17848436830E+03  0.53753836109E+02 -0.72094080413E+03  0.76425505408E+03  0.17200000000E+03 0.  1.
         -6    1    1    2    0  502 -0.17848436830E+03 -0.53753836109E+02  0.95421460785E+02  0.27098966733E+03  0.17200000000E+03 0.  1.
</event>
<event>
 4    1  0.1211980E+000  0.2849519E+03  0.7818608E-02  0.1093015E+00
         21   -1    0    0  501  502  0.00000000000E+00  0.00000000000E+00  0.18917876920E+04  0.18917876920E+04  0.00000000000E+00 0. -1.
         21   -1    0    0  502  503 -0.00000000000E+00 -0.00000000000E+00 -0.55714207331E+02  0.55714207331E+02  0.00000000000E+00 0.  1.
          6    1    1    2  501    0 -0.82252891932E+02 -0.21177353382E+03  0.13846459499E+04  0.14136626099E+04  0.17200000000E+03 0.  1.
         -6    1    1    2    0  503  0.82252891932E+02  0.21177353382E+03  0.45142753471E+03  0.53383928944E+03  0.17200000000E+03 0.  1.
</event>
<event>
 4    1  0.1211980E+000  0.2598854E+03  0.7818608E-02  0.1107212E+00
         21   -1    0    0  501  502  0.00000000000E+00  0.00000000000E+00  0.14473515600E+03  0.14473515600E+03  0.00000000000E+00 0.  1.
         21   -1    0    0  502  503 -0.00000000000E+00 -0.00000000000E+00 -0.50469207309E+03  0.50469207309E+03  0.00000000000E+00 0. -1.
          6    1    1    2  501    0 -0.17863221901E+03 -0.77762295540E+02 -0.90827118958E+02  0.27529985437E+03  0.17200000000E+03 0.  1.
         -6    1    1    2    0  503  0.17863221901E+03  0.77762295540E+02 -0.26912979813E+03  0.37412737472E+03  0.17200000000E+03 0.  1.
</event>
<event>
 4    1  0.1211980E+000  0.2032699E+03  0.7818608E-02  0.1147009E+00
         21   -1    0    0  501  502  0.00000000000E+00  0.00000000000E+00  0.69226259998E+02  0.69226259998E+02  0.00000000000E+00 0.  1.
         21   -1    0    0  502  503 -0.00000000000E+00 -0.00000000000E+00 -0.60832009008E+03  0.60832009008E+03  0.00000000000E+00 0.  1.
          6    1    1    2  501    0 -0.98794349285E+02 -0.44433217605E+02 -0.31603791180E+03  0.37576401634E+03  0.17200000000E+03 0. -1.
         -6    1    1    2    0  503  0.98794349285E+02  0.44433217605E+02 -0.22305591828E+03  0.30178233374E+03  0.17200000000E+03 0. -1.
</event>
<event>
 4    1  0.1211980E+000  0.1837758E+03  0.7818608E-02  0.1164198E+00
         21   -1    0    0  501  502  0.00000000000E+00  0.00000000000E+00  0.16440218656E+03  0.16440218656E+03  0.00000000000E+00 0. -1.
         21   -1    0    0  502  503 -0.00000000000E+00 -0.00000000000E+00 -0.21503241932E+03  0.21503241932E+03  0.00000000000E+00 0. -1.
          6    1    1    2  501    0  0.47201457128E+02 -0.44289462055E+02 -0.65400981904E+02  0.19506620014E+03  0.17200000000E+03 0. -1.
         -6    1    1    2    0  503 -0.47201457128E+02  0.44289462055E+02  0.14770749143E+02  0.18436840574E+03  0.17200000000E+03 0. -1.
</event>
<event>
 4    1  0.1211980E+000  0.2595012E+03  0.7818608E-02  0.1107443E+00
         21   -1    0    0  501  502  0.00000000000E+00  0.00000000000E+00  0.13015784301E+03  0.13015784301E+03  0.00000000000E+00 0.  1.
         21   -1    0    0  502  503 -0.00000000000E+00 -0.00000000000E+00 -0.10540917415E+04  0.10540917415E+04  0.00000000000E+00 0. -1.
          6    1    1    2  501    0 -0.11217802542E+03 -0.15865988872E+03 -0.39448969336E+02  0.26248255344E+03  0.17200000000E+03 0.  1.
         -6    1    1    2    0  503  0.11217802542E+03  0.15865988872E+03 -0.88448492915E+03  0.92176703107E+03  0.17200000000E+03 0. -1.
</event>
<event>
 4    1  0.1211980E+000  0.3151881E+03  0.7818608E-02  0.1077885E+00
         21   -1    0    0  503  502  0.00000000000E+00  0.00000000000E+00  0.23352771045E+03  0.23352771045E+03  0.00000000000E+00 0. -1.
         21   -1    0    0  501  503 -0.00000000000E+00 -0.00000000000E+00 -0.53257131557E+03  0.53257131557E+03  0.00000000000E+00 0.  1.
          6    1    1    2  501    0  0.25251580551E+03  0.77429510278E+02 -0.32135130580E+03  0.45012245315E+03  0.17200000000E+03 0.  1.
         -6    1    1    2    0  502 -0.25251580551E+03 -0.77429510278E+02  0.22307700680E+02  0.31597657287E+03  0.17200000000E+03 0. -1.
</event>
<event>
 4    1  0.1211980E+000  0.1768088E+03  0.7818608E-02  0.1170928E+00
         21   -1    0    0  501  502  0.00000000000E+00  0.00000000000E+00  0.64802428379E+02  0.64802428379E+02  0.00000000000E+00 0. -1.
         21   -1    0    0  502  503 -0.00000000000E+00 -0.00000000000E+00 -0.73635482088E+03  0.73635482088E+03  0.00000000000E+00 0. -1.
          6    1    1    2  501    0 -0.34181488815E+02 -0.22560145881E+02 -0.10053469011E+03  0.20339262099E+03  0.17200000000E+03 0. -1.
         -6    1    1    2    0  503  0.34181488815E+02  0.22560145881E+02 -0.57101770240E+03  0.59776462827E+03  0.17200000000E+03 0. -1.
</event>
<event>
 4    1  0.1211980E+000  0.2917083E+03  0.7818608E-02  0.1089461E+00
         21   -1    0    0  503  502  0.00000000000E+00  0.00000000000E+00  0.12264747986E+04  0.12264747986E+04  0.00000000000E+00 0. -1.
         21   -1    0    0  501  503 -0.00000000000E+00 -0.00000000000E+00 -0.72718252159E+02  0.72718252159E+02  0.00000000000E+00 0. -1.
          6    1    1    2  501    0  0.22393953704E+03 -0.73217459817E+02  0.43771190998E+03  0.52600896267E+03  0.17200000000E+03 0. -1.
         -6    1    1    2    0  502 -0.22393953704E+03  0.73217459817E+02  0.71604463650E+03  0.77318408813E+03  0.17200000000E+03 0. -1.
</event>
<event>
 4    1  0.1211980E+000  0.2094474E+03  0.7818608E-02  0.1142004E+00
         21   -1    0    0  503  502  0.00000000000E+00  0.00000000000E+00  0.69843555076E+03  0.69843555076E+03  0.00000000000E+00 0. -1.
         21   -1    0    0  501  503 -0.00000000000E+00 -0.00000000000E+00 -0.65319510816E+02  0.65319510816E+02  0.00000000000E+00 0. -1.
          6    1    1    2  501    0 -0.51727570902E+02 -0.10774267662E+03  0.24169618344E+03  0.31982068577E+03  0.17200000000E+03 0. -1.
         -6    1    1    2    0  502  0.51727570902E+02  0.10774267662E+03  0.39141985650E+03  0.44393437581E+03  0.17200000000E+03 0. -1.
</event>
<event>
 4    1  0.1211980E+000  0.2016918E+03  0.7818608E-02  0.1148319E+00
         21   -1    0    0  503  502  0.00000000000E+00  0.00000000000E+00  0.31787397264E+02  0.31787397264E+02  0.00000000000E+00 0.  1.
         21   -1    0    0  501  503 -0.00000000000E+00 -0.00000000000E+00 -0.19223373668E+04  0.19223373668E+04  0.00000000000E+00 0.  1.
          6    1    1    2  501    0 -0.96223830843E+02 -0.42855241399E+02 -0.38036789142E+03  0.43053377354E+03  0.17200000000E+03 0.  1.
         -6    1    1    2    0  502  0.96223830843E+02  0.42855241399E+02 -0.15101820782E+04  0.15235909906E+04  0.17200000000E+03 0.  1.
</event>
<event>
 4    1  0.1211980E+000  0.1776076E+03  0.7818608E-02  0.1170139E+00
         21   -1    0    0  503  502  0.00000000000E+00  0.00000000000E+00  0.36370221770E+03  0.36370221770E+03  0.00000000000E+00 0.  1.
         21   -1    0    0  501  503 -0.00000000000E+00 -0.00000000000E+00 -0.87008509613E+02  0.87008509613E+02  0.00000000000E+00 0.  1.
          6    1    1    2  501    0  0.23896136938E+02  0.37275120963E+02  0.12563265654E+03  0.21755005032E+03  0.17200000000E+03 0. -1.
         -6    1    1    2    0  502 -0.23896136938E+02 -0.37275120963E+02  0.15106105154E+03  0.23316067699E+03  0.17200000000E+03 0. -1.
</event>
<event>
 4    1  0.1211980E+000  0.1908418E+03  0.7818608E-02  0.1157704E+00
         21   -1    0    0  501  502  0.00000000000E+00  0.00000000000E+00  0.34152347792E+03  0.34152347792E+03  0.00000000000E+00 0. -1.
         21   -1    0    0  502  503 -0.00000000000E+00 -0.00000000000E+00 -0.25172329468E+03  0.25172329468E+03  0.00000000000E+00 0. -1.
          6    1    1    2  501    0 -0.79485685842E+02  0.22773529497E+02  0.27009056017E+03  0.33071062667E+03  0.17200000000E+03 0. -1.
         -6    1    1    2    0  503  0.79485685842E+02 -0.22773529497E+02 -0.18029037694E+03  0.26253614592E+03  0.17200000000E+03 0. -1.
</event>
<event>
 4    1  0.1211980E+000  0.1772455E+03  0.7818608E-02  0.1170496E+00
         21   -1    0    0  503  502  0.00000000000E+00  0.00000000000E+00  0.16801502127E+04  0.16801502127E+04  0.00000000000E+00 0.  1.
         21   -1    0    0  501  503 -0.00000000000E+00 -0.00000000000E+00 -0.18716329044E+02  0.18716329044E+02  0.00000000000E+00 0. -1.
          6    1    1    2  501    0 -0.27484482753E+02  0.32811309847E+02  0.80436467821E+03  0.82366165043E+03  0.17200000000E+03 0. -1.
         -6    1    1    2    0  502  0.27484482753E+02 -0.32811309847E+02  0.85706920546E+03  0.87520489132E+03  0.17200000000E+03 0. -1.
</event>
<event>
 4    1  0.1211980E+000  0.1749045E+03  0.7818608E-02  0.1172828E+00
         21   -1    0    0  501  502  0.00000000000E+00  0.00000000000E+00  0.56738729186E+03  0.56738729186E+03  0.00000000000E+00 0.  1.
         21   -1    0    0  502  503 -0.00000000000E+00 -0.00000000000E+00 -0.77531153632E+02  0.77531153632E+02  0.00000000000E+00 0.  1.
          6    1    1    2  501    0 -0.21130858575E+02  0.23686963262E+02  0.42288982571E+03  0.45763237440E+03  0.17200000000E+03 0.  1.
         -6    1    1    2    0  503  0.21130858575E+02 -0.23686963262E+02  0.66966312523E+02  0.18728607109E+03  0.17200000000E+03 0.  1.
</event>
<event>
 4    1  0.1211980E+000  0.2523571E+03  0.7818608E-02  0.1111824E+00
         21   -1    0    0  503  502  0.00000000000E+00  0.00000000000E+00  0.26581596858E+04  0.26581596858E+04  0.00000000000E+00 0.  1.
         21   -1    0    0  501  503 -0.00000000000E+00 -0.00000000000E+00 -0.51767139684E+02  0.51767139684E+02  0.00000000000E+00 0.  1.
          6    1    1    2  501    0 -0.13206007832E+03 -0.12907463422E+03  0.31009291761E+03  0.39980212986E+03  0.17200000000E+03 0.  1.
         -6    1    1    2    0  502  0.13206007832E+03  0.12907463422E+03  0.22962996285E+04  0.23101246956E+04  0.17200000000E+03 0.  1.
</event>
<event>
 4    1  0.1211980E+000  0.2085017E+03  0.7818608E-02  0.1142758E+00
         21   -1    0    0  501  502  0.00000000000E+00  0.00000000000E+00  0.13791978352E+03  0.13791978352E+03  0.00000000000E+00 0.  1.
         21   -1    0    0  502  503 -0.00000000000E+00 -0.00000000000E+00 -0.31884733507E+03  0.31884733507E+03  0.00000000000E+00 0. -1.
          6    1    1    2  501    0  0.73255619419E+02 -0.92317844146E+02 -0.66053166404E+02  0.21871440491E+03  0.17200000000E+03 0.  1.
         -6    1    1    2    0  503 -0.73255619419E+02  0.92317844146E+02 -0.11487438515E+03  0.23805271368E+03  0.17200000000E+03 0. -1.
</event>
<event>
 4    1  0.1211980E+000  0.1748441E+03  0.7818608E-02  0.1172888E+00
         21   -1    0    0  501  502  0.00000000000E+00  0.00000000000E+00  0.21929887121E+03  0.21929887121E+03  0.00000000000E+00 0.  1.
         21   -1    0    0  502  503 -0.00000000000E+00 -0.00000000000E+00 -0.33469457508E+03  0.33469457508E+03  0.00000000000E+00 0.  1.
          6    1    1    2  501    0 -0.42184746612E+01  0.31123424641E+02  0.15389177281E+03  0.23292303627E+03  0.17200000000E+03 0.  1.
         -6    1    1    2    0  503  0.42184746612E+01 -0.31123424641E+02 -0.26928747668E+03  0.32107041001E+03  0.17200000000E+03 0.  1.
</event>
<event>
 4    1  0.1211980E+000  0.2373001E+03  0.7818608E-02  0.1121605E+00
         21   -1    0    0  503  502  0.00000000000E+00  0.00000000000E+00  0.51415390296E+03  0.51415390296E+03  0.00000000000E+00 0.  1.
         21   -1    0    0  501  503 -0.00000000000E+00 -0.00000000000E+00 -0.12072439337E+03  0.12072439337E+03  0.00000000000E+00 0. -1.
          6    1    1    2  501    0 -0.19824734147E+02 -0.16227851424E+03  0.29341150419E+03  0.37736142763E+03  0.17200000000E+03 0.  1.
         -6    1    1    2    0  502  0.19824734147E+02  0.16227851424E+03  0.10001800540E+03  0.25751686871E+03  0.17200000000E+03 0. -1.
</event>
<event>
 4    1  0.1211980E+000  0.2249381E+03  0.7818608E-02  0.1130254E+00
         21   -1    0    0  503  502  0.00000000000E+00  0.00000000000E+00  0.17846103752E+03  0.17846103752E+03  0.00000000000E+00 0.  1.
         21   -1    0    0  501  503 -0.00000000000E+00 -0.00000000000E+00 -0.46860283844E+03  0.46860283844E+03  0.00000000000E+00 0. -1.
          6    1    1    2  501    0  0.85287033026E+02  0.11721461664E+03 -0.34839957308E+03  0.41470399911E+03  0.17200000000E+03 0. -1.
         -6    1    1    2    0  502 -0.85287033026E+02 -0.11721461664E+03  0.58257772155E+02  0.23235987686E+03  0.17200000000E+03 0.  1.
</event>
<event>
 4    1  0.1211980E+000  0.2005157E+03  0.7818608E-02  0.1149305E+00
         21   -1    0    0  503  502  0.00000000000E+00  0.00000000000E+00  0.95765657098E+02  0.95765657098E+02  0.00000000000E+00 0. -1.
         21   -1    0    0  501  503 -0.00000000000E+00 -0.00000000000E+00 -0.49222144954E+03  0.49222144954E+03  0.00000000000E+00 0.  1.
          6    1    1    2  501    0  0.88061206619E+02  0.53551542226E+02 -0.31096375649E+03  0.37000675891E+03  0.17200000000E+03 0.  1.
         -6    1    1    2    0  502 -0.88061206619E+02 -0.53551542226E+02 -0.85492035950E+02  0.21798034773E+03  0.17200000000E+03 0.  1.
</event>
<event>
 4    1  0.1211980E+000  0.1965299E+03  0.7818608E-02  0.1152700E+00
         21   -1    0    0  503  502  0.00000000000E+00  0.00000000000E+00  0.27216536146E+03  0.27216536146E+03  0.00000000000E+00 0. -1.
         21   -1    0    0  501  503 -0.00000000000E+00 -0.00000000000E+00 -0.14530922325E+03  0.14530922325E+03  0.00000000000E+00 0. -1.
          6    1    1    2  501    0  0.87718508738E+02 -0.36680404745E+02  0.31519458968E+02  0.19904136545E+03  0.17200000000E+03 0. -1.
         -6    1    1    2    0  502 -0.87718508738E+02  0.36680404745E+02  0.95336679244E+02  0.21843321926E+03  0.17200000000E+03 0. -1.
</event>
<event>
 4    1  0.1211980E+000  0.1912966E+03  0.7818608E-02  0.1157297E+00
         21   -1    0    0  503  502  0.00000000000E+00  0.00000000000E+00  0.72906309991E+02  0.72906309991E+02  0.00000000000E+00 0.  1.
         21   -1    0    0  501  503 -0.00000000000E+00 -0.00000000000E+00 -0.58408175401E+03  0.58408175401E+03  0.00000000000E+00 0. -1.
          6    1    1    2  501    0 -0.14831259553E+01  0.83714895125E+02 -0.37877908528E+03  0.42434417490E+03  0.17200000000E+03 0.  1.
         -6    1    1    2    0  502  0.14831259553E+01 -0.83714895125E+02 -0.13239635875E+03  0.23264388910E+03  0.17200000000E+03 0.  1.
</event>
<event>
 4    1  0.1211980E+000  0.2139364E+03  0.7818608E-02  0.1138486E+00
         21   -1    0    0  503  502  0.00000000000E+00  0.00000000000E+00  0.38315475845E+03  0.38315475845E+03  0.00000000000E+00 0.  1.
         21   -1    0    0  501  503 -0.00000000000E+00 -0.00000000000E+00 -0.12291046454E+03  0.12291046454E+03  0.00000000000E+00 0. -1.
          6    1    1    2  501    0  0.94710296536E+02 -0.84939736762E+02  0.17256371837E+03  0.27485821081E+03  0.17200000000E+03 0.  1.
         -6    1    1    2    0  502 -0.94710296536E+02  0.84939736762E+02  0.87680575535E+02  0.23120701217E+03  0.17200000000E+03 0. -1.
</event>
<event>
 4    1  0.1211980E+000  0.1887730E+03  0.7818608E-02  0.1159573E+00
         21   -1    0    0  501  502  0.00000000000E+00  0.00000000000E+00  0.20189581222E+03  0.20189581222E+03  0.00000000000E+00 0.  1.
         21   -1    0    0  502  503 -0.00000000000E+00 -0.00000000000E+00 -0.17723428665E+03  0.17723428665E+03  0.00000000000E+00 0.  1.
          6    1    1    2  501    0 -0.63076494773E+02  0.45525952241E+02  0.15575022230E+00  0.18877309336E+03  0.17200000000E+03 0.  1.
         -6    1    1    2    0  503  0.63076494773E+02 -0.45525952241E+02  0.24505775350E+02  0.19035700551E+03  0.17200000000E+03 0.  1.
</event>
<event>
 4    1  0.1211980E+000  0.1747592E+03  0.7818608E-02  0.1172974E+00
         21   -1    0    0  501  502  0.00000000000E+00  0.00000000000E+00  0.23557672961E+03  0.23557672961E+03  0.00000000000E+00 0.  1.
         21   -1    0    0  502  503 -0.00000000000E+00 -0.00000000000E+00 -0.21010561134E+03  0.21010561134E+03  0.00000000000E+00 0.  1.
          6    1    1    2  501    0 -0.29552952294E+02  0.91316437782E+01  0.15063894444E+03  0.23072246420E+03  0.17200000000E+03 0.  1.
         -6    1    1    2    0  503  0.29552952294E+02 -0.91316437782E+01 -0.12516782617E+03  0.21495987676E+03  0.17200000000E+03 0.  1.
</event>
<event>
 4    1  0.1211980E+000  0.1944121E+03  0.7818608E-02  0.1154541E+00
         21   -1    0    0  501  502  0.00000000000E+00  0.00000000000E+00  0.43445846439E+03  0.43445846439E+03  0.00000000000E+00 0.  1.
         21   -1    0    0  502  503 -0.00000000000E+00 -0.00000000000E+00 -0.11046016125E+04  0.11046016125E+04  0.00000000000E+00 0.  1.
          6    1    1    2  501    0 -0.16775856570E+02  0.89054021910E+02  0.40353392507E+03  0.44792374001E+03  0.17200000000E+03 0.  1.
         -6    1    1    2    0  503  0.16775856570E+02 -0.89054021910E+02 -0.10736770731E+04  0.10911363368E+04  0.17200000000E+03 0.  1.
</event>
<event>
 4    1  0.1211980E+000  0.2809307E+03  0.7818608E-02  0.1095182E+00
         21   -1    0    0  501  502  0.00000000000E+00  0.00000000000E+00  0.23123747172E+03  0.23123747172E+03  0.00000000000E+00 0. -1.
         21   -1    0    0  502  503 -0.00000000000E+00 -0.00000000000E+00 -0.37053645465E+03  0.37053645465E+03  0.00000000000E+00 0.  1.
          6    1    1    2  501    0 -0.87343861943E+02 -0.20422805798E+03  0.14864330705E+02  0.28132365385E+03  0.17200000000E+03 0.  1.
         -6    1    1    2    0  503  0.87343861943E+02  0.20422805798E+03 -0.15416331364E+03  0.32045027252E+03  0.17200000000E+03 0.  1.
</event>
<event>
 4    1  0.1211980E+000  0.2154999E+03  0.7818608E-02  0.1137283E+00
         21   -1    0    0  503  502  0.00000000000E+00  0.00000000000E+00  0.36392995257E+03  0.36392995257E+03  0.00000000000E+00 0.  1.
         21   -1    0    0  501  503 -0.00000000000E+00 -0.00000000000E+00 -0.24669708658E+03  0.24669708658E+03  0.00000000000E+00 0. -1.
          6    1    1    2  501    0  0.17052543329E+02  0.12870667076E+03 -0.15351298215E+03  0.26458728621E+03  0.17200000000E+03 0. -1.
         -6    1    1    2    0  502 -0.17052543329E+02 -0.12870667076E+03  0.27074584814E+03  0.34603975294E+03  0.17200000000E+03 0. -1.
</event>
<event>
 4    1  0.1211980E+000  0.1960618E+03  0.7818608E-02  0.1153105E+00
         21   -1    0    0  501  502  0.00000000000E+00  0.00000000000E+00  0.43333120407E+03  0.43333120407E+03  0.00000000000E+00 0.  1.
         21   -1    0    0  502  503 -0.00000000000E+00 -0.00000000000E+00 -0.89435868933E+02  0.89435868933E+02  0.00000000000E+00 0. -1.
          6    1    1    2  501    0 -0.93935015274E+02  0.56958846909E+01  0.14837807144E+03  0.24587859257E+03  0.17200000000E+03 0. -1.
         -6    1    1    2    0  503  0.93935015274E+02 -0.56958846909E+01  0.19551726370E+03  0.27688848044E+03  0.17200000000E+03 0.  1.
</event>
<event>
 4    1  0.1211980E+000  0.2740751E+03  0.7818608E-02  0.1098970E+00
         21   -1    0    0  501  502  0.00000000000E+00  0.00000000000E+00  0.11808923097E+03  0.11808923097E+03  0.00000000000E+00 0. -1.
         21   -1    0    0  502  503 -0.00000000000E+00 -0.00000000000E+00 -0.71974626305E+03  0.71974626305E+03  0.00000000000E+00 0.  1.
          6    1    1    2  501    0  0.35530508068E+02  0.21040618958E+03 -0.15802179361E+03  0.31636698448E+03  0.17200000000E+03 0.  1.
         -6    1    1    2    0  503 -0.35530508068E+02 -0.21040618958E+03 -0.44363523848E+03  0.52146850953E+03  0.17200000000E+03 0. -1.
</event>
<event>
 4    1  0.1211980E+000  0.2768788E+03  0.7818608E-02  0.1097406E+00
         21   -1    0    0  503  502  0.00000000000E+00  0.00000000000E+00  0.35119734242E+03  0.35119734242E+03  0.00000000000E+00 0. -1.
         21   -1    0    0  501  503 -0.00000000000E+00 -0.00000000000E+00 -0.32103832822E+03  0.32103832822E+03  0.00000000000E+00 0.  1.
          6    1    1    2  501    0 -0.30640612316E+02 -0.21479994016E+03 -0.17507496949E+03  0.32758679210E+03  0.17200000000E+03 0.  1.
         -6    1    1    2    0  502  0.30640612316E+02  0.21479994016E+03  0.20523398369E+03  0.34464887854E+03  0.17200000000E+03 0. -1.
</event>
<event>
 4    1  0.1211980E+000  0.2104140E+03  0.7818608E-02  0.1141239E+00
         21   -1    0    0  501  502  0.00000000000E+00  0.00000000000E+00  0.58757282774E+03  0.58757282774E+03  0.00000000000E+00 0. -1.
         21   -1    0    0  502  503 -0.00000000000E+00 -0.00000000000E+00 -0.78683295086E+02  0.78683295086E+02  0.00000000000E+00 0. -1.
          6    1    1    2  501    0  0.10551553826E+03 -0.59636685801E+02  0.32300256616E+03  0.38549282854E+03  0.17200000000E+03 0.  1.
         -6    1    1    2    0  503 -0.10551553826E+03  0.59636685801E+02  0.18588696649E+03  0.28076329429E+03  0.17200000000E+03 0.  1.
</event>
<event>
 4    1  0.1211980E+000  0.1850262E+03  0.7818608E-02  0.1163025E+00
         21   -1    0    0  503  502  0.00000000000E+00  0.00000000000E+00  0.13889238985E+03  0.13889238985E+03  0.00000000000E+00 0.  1.
         21   -1    0    0  501  503 -0.00000000000E+00 -0.00000000000E+00 -0.32930122239E+03  0.32930122239E+03  0.00000000000E+00 0.  1.
          6    1    1    2  501    0  0.67373579879E+02 -0.10559963998E+02 -0.21260219968E+03  0.28184110313E+03  0.17200000000E+03 0.  1.
         -6    1    1    2    0  502 -0.67373579879E+02  0.10559963998E+02  0.22193367139E+02  0.18635250911E+03  0.17200000000E+03 0.  1.
</event>
<event>
 4    1  0.1211980E+000  0.1969786E+03  0.7818608E-02  0.1152313E+00
         21   -1    0    0  501  502  0.00000000000E+00  0.00000000000E+00  0.56654848745E+02  0.56654848745E+02  0.00000000000E+00 0. -1.
         21   -1    0    0  502  503 -0.00000000000E+00 -0.00000000000E+00 -0.68929653084E+03  0.68929653084E+03  0.00000000000E+00 0.  1.
          6    1    1    2  501    0  0.83947812650E+02  0.46576065669E+02 -0.28639380927E+03  0.34759456142E+03  0.17200000000E+03 0. -1.
         -6    1    1    2    0  503 -0.83947812650E+02 -0.46576065669E+02 -0.34624787282E+03  0.39835681816E+03  0.17200000000E+03 0. -1.
</event>
<event>
 4    1  0.1211980E+000  0.1860864E+03  0.7818608E-02  0.1162039E+00
         21   -1    0    0  503  502  0.00000000000E+00  0.00000000000E+00  0.33889140663E+03  0.33889140663E+03  0.00000000000E+00 0.  1.
         21   -1    0    0  501  503 -0.00000000000E+00 -0.00000000000E+00 -0.10609789481E+03  0.10609789481E+03  0.00000000000E+00 0.  1.
          6    1    1    2  501    0  0.62017739214E+02  0.34611141393E+02  0.73644533647E+02  0.20012907940E+03  0.17200000000E+03 0.  1.
         -6    1    1    2    0  502 -0.62017739214E+02 -0.34611141393E+02  0.15914897817E+03  0.24486022204E+03  0.17200000000E+03 0.  1.
</event>
<event>
 4    1  0.1211980E+000  0.2550961E+03  0.7818608E-02  0.1110126E+00
         21   -1    0    0  503  502  0.00000000000E+00  0.00000000000E+00  0.61223838488E+02  0.61223838488E+02  0.00000000000E+00 0. -1.
         21   -1    0    0  501  503 -0.00000000000E+00 -0.00000000000E+00 -0.13300282576E+04  0.13300282576E+04  0.00000000000E+00 0.  1.
          6    1    1    2  501    0  0.32589753595E+02 -0.18554770107E+03 -0.94615878890E+03  0.97994412862E+03  0.17200000000E+03 0.  1.
         -6    1    1    2    0  502 -0.32589753595E+02  0.18554770107E+03 -0.32264563025E+03  0.41130796751E+03  0.17200000000E+03 0.  1.
</event>
<event>
 4    1  0.1211980E+000  0.1838415E+03  0.7818608E-02  0.1164136E+00
         21   -1    0    0  503  502  0.00000000000E+00  0.00000000000E+00  0.54059285388E+02  0.54059285388E+02  0.00000000000E+00 0.  1.
         21   -1    0    0  501  503 -0.00000000000E+00 -0.00000000000E+00 -0.15901852311E+04  0.15901852311E+04  0.00000000000E+00 0.  1.
          6    1    1    2  501    0 -0.30204785311E+02  0.57457528371E+02 -0.14084957986E+04  0.14204429278E+04  0.17200000000E+03 0.  1.
         -6    1    1    2    0  502  0.30204785311E+02 -0.57457528371E+02 -0.12763014711E+03  0.22380158863E+03  0.17200000000E+03 0.  1.
</event>
<event>
 4    1  0.1211980E+000  0.1722546E+03  0.7818608E-02  0.1175517E+00
         21   -1    0    0  503  502  0.00000000000E+00  0.00000000000E+00  0.14663078309E+03  0.14663078309E+03  0.00000000000E+00 0. -1.
         21   -1    0    0  501  503 -0.00000000000E+00 -0.00000000000E+00 -0.21490556621E+03  0.21490556621E+03  0.00000000000E+00 0. -1.
          6    1    1    2  501    0  0.13520497380E+01  0.92630897819E+01 -0.77820228014E+02  0.18901751442E+03  0.17200000000E+03 0. -1.
         -6    1    1    2    0  502 -0.13520497380E+01 -0.92630897819E+01  0.95454448966E+01  0.17251883488E+03  0.17200000000E+03 0. -1.
</event>
<event>
 4    1  0.1211980E+000  0.2328436E+03  0.7818608E-02  0.1124654E+00
         21   -1    0    0  503  502  0.00000000000E+00  0.00000000000E+00  0.17726423512E+03  0.17726423512E+03  0.00000000000E+00 0. -1.
         21   -1    0    0  501  503 -0.00000000000E+00 -0.00000000000E+00 -0.30740050947E+03  0.30740050947E+03  0.00000000000E+00 0. -1.
          6    1    1    2  501    0  0.13698171684E+03  0.76603734220E+02 -0.82283241986E+02  0.24695476257E+03  0.17200000000E+03 0. -1.
         -6    1    1    2    0  502 -0.13698171684E+03 -0.76603734220E+02 -0.47853032358E+02  0.23770998202E+03  0.17200000000E+03 0. -1.
</event>
<event>
 4    1  0.1211980E+000  0.2408890E+03  0.7818608E-02  0.1119202E+00
         21   -1    0    0  503  502  0.00000000000E+00  0.00000000000E+00  0.72305011853E+03  0.72305011853E+03  0.00000000000E+00 0. -1.
         21   -1    0    0  501  503 -0.00000000000E+00 -0.00000000000E+00 -0.23453013777E+03  0.23453013777E+03  0.00000000000E+00 0.  1.
          6    1    1    2  501    0 -0.97219091711E+02 -0.13781125129E+03 -0.14406520621E+03  0.28068180635E+03  0.17200000000E+03 0.  1.
         -6    1    1    2    0  502  0.97219091711E+02  0.13781125129E+03  0.63258518698E+03  0.67689844996E+03  0.17200000000E+03 0. -1.
</event>
<event>
 4    1  0.1211980E+000  0.2538878E+03  0.7818608E-02  0.1110872E+00
         21   -1    0    0  501  502  0.00000000000E+00  0.00000000000E+00  0.32689140816E+03  0.32689140816E+03  0.00000000000E+00 0. -1.
         21   -1    0    0  502  503 -0.00000000000E+00 -0.00000000000E+00 -0.22257547929E+03  0.22257547929E+03  0.00000000000E+00 0. -1.
          6    1    1    2  501    0 -0.57931952833E+02 -0.17753565748E+03  0.14494424490E+03  0.29234885833E+03  0.17200000000E+03 0.  1.
         -6    1    1    2    0  503  0.57931952833E+02  0.17753565748E+03 -0.40628316025E+02  0.25711802912E+03  0.17200000000E+03 0.  1.
</event>
<event>
 4    1  0.1211980E+000  0.1986152E+03  0.7818608E-02  0.1150913E+00
         21   -1    0    0  501  502  0.00000000000E+00  0.00000000000E+00  0.27312205497E+03  0.27312205497E+03  0.00000000000E+00 0. -1.
         21   -1    0    0  502  503 -0.00000000000E+00 -0.00000000000E+00 -0.20891968954E+03  0.20891968954E+03  0.00000000000E+00 0. -1.
          6    1    1    2  501    0 -0.41924482364E+02  0.90035112733E+02  0.16600661921E+03  0.25885552219E+03  0.17200000000E+03 0.  1.
         -6    1    1    2    0  503  0.41924482364E+02 -0.90035112733E+02 -0.10180425378E+03  0.22318622232E+03  0.17200000000E+03 0.  1.
</event>
<event>
 4    1  0.1211980E+000  0.1945975E+03  0.7818608E-02  0.1154379E+00
         21   -1    0    0  503  502  0.00000000000E+00  0.00000000000E+00  0.15219543783E+03  0.15219543783E+03  0.00000000000E+00 0. -1.
         21   -1    0    0  501  503 -0.00000000000E+00 -0.00000000000E+00 -0.73699706320E+03  0.73699706320E+03  0.00000000000E+00 0. -1.
          6    1    1    2  501    0  0.46495019453E+02  0.78245708095E+02 -0.65424765861E+03  0.68257466732E+03  0.17200000000E+03 0. -1.
         -6    1    1    2    0  502 -0.46495019453E+02 -0.78245708095E+02  0.69446033249E+02  0.20661783370E+03  0.17200000000E+03 0. -1.
</event>
<event>
 4    1  0.1211980E+000  0.2789323E+03  0.7818608E-02  0.1096274E+00
         21   -1    0    0  501  502  0.00000000000E+00  0.00000000000E+00  0.62506394510E+02  0.62506394510E+02  0.00000000000E+00 0.  1.
         21   -1    0    0  502  503 -0.00000000000E+00 -0.00000000000E+00 -0.14007729516E+04  0.14007729516E+04  0.00000000000E+00 0. -1.
          6    1    1    2  501    0  0.80722605017E+02 -0.20421329283E+03 -0.42493430518E+03  0.50830342478E+03  0.17200000000E+03 0.  1.
         -6    1    1    2    0  503 -0.80722605017E+02  0.20421329283E+03 -0.91333225187E+03  0.95497592128E+03  0.17200000000E+03 0.  1.
</event>
<event>
 4    1  0.1211980E+000  0.2039473E+03  0.7818608E-02  0.1146451E+00
         21   -1    0    0  501  502  0.00000000000E+00  0.00000000000E+00  0.12995850697E+04  0.12995850697E+04  0.00000000000E+00 0. -1.
         21   -1    0    0  502  503 -0.00000000000E+00 -0.00000000000E+00 -0.32883057722E+02  0.32883057722E+02  0.00000000000E+00 0. -1.
          6    1    1    2  501    0 -0.48169824593E+02  0.98438652075E+02  0.52454357842E+03  0.56279700238E+03  0.17200000000E+03 0. -1.
         -6    1    1    2    0  503  0.48169824593E+02 -0.98438652075E+02  0.74215843355E+03  0.76967112503E+03  0.17200000000E+03 0. -1.
</event>
<event>
 4    1  0.1211980E+000  0.2945810E+03  0.7818608E-02  0.1087981E+00
         21   -1    0    0  501  502  0.00000000000E+00  0.00000000000E+00  0.80514781679E+03  0.80514781679E+03  0.00000000000E+00 0. -1.
         21   -1    0    0  502  503 -0.00000000000E+00 -0.00000000000E+00 -0.12791083347E+03  0.12791083347E+03  0.00000000000E+00 0. -1.
          6    1    1    2  501    0  0.14800247112E+03 -0.18785433675E+03  0.15353506671E+03  0.33219121001E+03  0.17200000000E+03 0.  1.
         -6    1    1    2    0  503 -0.14800247112E+03  0.18785433675E+03  0.52370191661E+03  0.60086744025E+03  0.17200000000E+03 0.  1.
</event>
<event>
 4    1  0.1211980E+000  0.2467746E+03  0.7818608E-02  0.1115360E+00
         21   -1    0    0  501  502  0.00000000000E+00  0.00000000000E+00  0.12027341308E+03  0.12027341308E+03  0.00000000000E+00 0.  1.
         21   -1    0    0  502  503 -0.00000000000E+00 -0.00000000000E+00 -0.98604728274E+03  0.98604728274E+03  0.00000000000E+00 0. -1.
          6    1    1    2  501    0  0.15200068737E+03  0.90606286508E+02 -0.47056846832E+02  0.25122112759E+03  0.17200000000E+03 0.  1.
         -6    1    1    2    0  503 -0.15200068737E+03 -0.90606286508E+02 -0.81871702282E+03  0.85509956823E+03  0.17200000000E+03 0. -1.
</event>
<event>
 4    1  0.1211980E+000  0.2269713E+03  0.7818608E-02  0.1128790E+00
         21   -1    0    0  503  502  0.00000000000E+00  0.00000000000E+00  0.25892351156E+03  0.25892351156E+03  0.00000000000E+00 0. -1.
         21   -1    0    0  501  503 -0.00000000000E+00 -0.00000000000E+00 -0.20377602991E+03  0.20377602991E+03  0.00000000000E+00 0. -1.
          6    1    1    2  501    0  0.56224803452E+02 -0.13700640629E+03 -0.79844143104E+01  0.22711172308E+03  0.17200000000E+03 0. -1.
         -6    1    1    2    0  502 -0.56224803452E+02  0.13700640629E+03  0.63131895960E+02  0.23558781839E+03  0.17200000000E+03 0. -1.
</event>
<event>
 4    1  0.1211980E+000  0.1814789E+03  0.7818608E-02  0.1166379E+00
         21   -1    0    0  503  502  0.00000000000E+00  0.00000000000E+00  0.42487197831E+03  0.42487197831E+03  0.00000000000E+00 0. -1.
         21   -1    0    0  501  503 -0.00000000000E+00 -0.00000000000E+00 -0.91653616882E+02  0.91653616882E+02  0.00000000000E+00 0. -1.
          6    1    1    2  501    0  0.54665980942E+02  0.19031942358E+02  0.65178899230E+02  0.19282861097E+03  0.17200000000E+03 0. -1.
         -6    1    1    2    0  502 -0.54665980942E+02 -0.19031942358E+02  0.26803946220E+03  0.32369698423E+03  0.17200000000E+03 0. -1.
</event>
<event>
 4    1  0.1211980E+000  0.2360401E+03  0.7818608E-02  0.1122459E+00
         21   -1    0    0  503  502  0.00000000000E+00  0.00000000000E+00  0.12892253152E+04  0.12892253152E+04  0.00000000000E+00 0.  1.
         21   -1    0    0  501  503 -0.00000000000E+00 -0.00000000000E+00 -0.72342992089E+02  0.72342992089E+02  0.00000000000E+00 0.  1.
          6    1    1    2  501    0 -0.16035536755E+03 -0.20423138338E+02  0.17646452975E+03  0.29471117852E+03  0.17200000000E+03 0. -1.
         -6    1    1    2    0  502  0.16035536755E+03  0.20423138338E+02  0.10404177934E+04  0.10668571288E+04  0.17200000000E+03 0. -1.
</event>
<event>
 4    1  0.1211980E+000  0.1783870E+03  0.7818608E-02  0.1169373E+00
         21   -1    0    0  501  502  0.00000000000E+00  0.00000000000E+00  0.58635374395E+03  0.58635374395E+03  0.00000000000E+00 0.  1.
         21   -1    0    0  502  503 -0.00000000000E+00 -0.00000000000E+00 -0.13865326386E+03  0.13865326386E+03  0.00000000000E+00 0.  1.
          6    1    1    2  501    0 -0.33095732949E+02  0.33802384441E+02  0.50664611939E+03  0.53713333449E+03  0.17200000000E+03 0.  1.
         -6    1    1    2    0  503  0.33095732949E+02 -0.33802384441E+02 -0.58945639294E+02  0.18787367332E+03  0.17200000000E+03 0.  1.
</event>
<event>
 4    1  0.1211980E+000  0.3864590E+03  0.7818608E-02  0.1048572E+00
         21   -1    0    0  501  502  0.00000000000E+00  0.00000000000E+00  0.35975621906E+03  0.35975621906E+03  0.00000000000E+00 0. -1.
         21   -1    0    0  502  503 -0.00000000000E+00 -0.00000000000E+00 -0.56413845035E+03  0.56413845035E+03  0.00000000000E+00 0.  1.
          6    1    1    2  501    0  0.12523392301E+03 -0.32261905727E+03  0.13521113966E+03  0.40942965681E+03  0.17200000000E+03 0. -1.
         -6    1    1    2    0  503 -0.12523392301E+03  0.32261905727E+03 -0.33959337096E+03  0.51446501260E+03  0.17200000000E+03 0.  1.
</event>
<event>
 4    1  0.1211980E+000  0.1774332E+03  0.7818608E-02  0.1170311E+00
         21   -1    0    0  501  502  0.00000000000E+00  0.00000000000E+00  0.14812732818E+04  0.14812732818E+04  0.00000000000E+00 0. -1.
         21   -1    0    0  502  503 -0.00000000000E+00 -0.00000000000E+00 -0.21253707450E+02  0.21253707450E+02  0.00000000000E+00 0.  1.
          6    1    1    2  501    0 -0.13135458448E+02  0.41545260396E+02  0.73004071087E+03  0.75129354347E+03  0.17200000000E+03 0.  1.
         -6    1    1    2    0  503  0.13135458448E+02 -0.41545260396E+02  0.72997886344E+03  0.75123344574E+03  0.17200000000E+03 0.  1.
</event>
<event>
 4    1  0.1211980E+000  0.1897700E+03  0.7818608E-02  0.1158669E+00
         21   -1    0    0  503  502  0.00000000000E+00  0.00000000000E+00  0.14697677685E+03  0.14697677685E+03  0.00000000000E+00 0.  1.
         21   -1    0    0  501  503 -0.00000000000E+00 -0.00000000000E+00 -0.33456212566E+03  0.33456212566E+03  0.00000000000E+00 0.  1.
          6    1    1    2  501    0 -0.79733598598E+02  0.84378681216E+01 -0.21835026142E+03  0.28929134281E+03  0.17200000000E+03 0.  1.
         -6    1    1    2    0  502  0.79733598598E+02 -0.84378681216E+01  0.30764912598E+02  0.19224755970E+03  0.17200000000E+03 0.  1.
</event>
<event>
 4    1  0.1211980E+000  0.2427757E+03  0.7818608E-02  0.1117957E+00
         21   -1    0    0  503  502  0.00000000000E+00  0.00000000000E+00  0.88053582809E+02  0.88053582809E+02  0.00000000000E+00 0. -1.
         21   -1    0    0  501  503 -0.00000000000E+00 -0.00000000000E+00 -0.67573207184E+03  0.67573207184E+03  0.00000000000E+00 0.  1.
          6    1    1    2  501    0  0.15872070360E+03 -0.64527467807E+02 -0.25677140872E+03  0.35337177616E+03  0.17200000000E+03 0.  1.
         -6    1    1    2    0  502 -0.15872070360E+03  0.64527467807E+02 -0.33090708031E+03  0.41041387848E+03  0.17200000000E+03 0.  1.
</event>
<event>
 4    1  0.1211980E+000  0.2257869E+03  0.7818608E-02  0.1129641E+00
         21   -1    0    0  503  502  0.00000000000E+00  0.00000000000E+00  0.20051549845E+03  0.20051549845E+03  0.00000000000E+00 0. -1.
         21   -1    0    0  501  503 -0.00000000000E+00 -0.00000000000E+00 -0.29886287227E+03  0.29886287227E+03  0.00000000000E+00 0. -1.
          6    1    1    2  501    0 -0.76469593579E+02 -0.12469216820E+03 -0.14565120500E+03  0.26868942865E+03  0.17200000000E+03 0.  1.
         -6    1    1    2    0  502  0.76469593579E+02  0.12469216820E+03  0.47303831175E+02  0.23068894208E+03  0.17200000000E+03 0.  1.
</event>
<event>
 4    1  0.1211980E+000  0.2431341E+03  0.7818608E-02  0.1117722E+00
         21   -1    0    0  503  502  0.00000000000E+00  0.00000000000E+00  0.11213910711E+04  0.11213910711E+04  0.00000000000E+00 0.  1.
         21   -1    0    0  501  503 -0.00000000000E+00 -0.00000000000E+00 -0.53429973179E+02  0.53429973179E+02  0.00000000000E+00 0.  1.
          6    1    1    2  501    0  0.52504856946E+01 -0.17176324127E+03  0.46603186856E+03  0.52564235100E+03  0.17200000000E+03 0.  1.
         -6    1    1    2    0  502 -0.52504856946E+01  0.17176324127E+03  0.60192922936E+03  0.64917869328E+03  0.17200000000E+03 0.  1.
</event>
<event>
 4    1  0.1211980E+000  0.1990761E+03  0.7818608E-02  0.1150521E+00
         21   -1    0    0  501  502  0.00000000000E+00  0.00000000000E+00  0.33823730663E+03  0.33823730663E+03  0.00000000000E+00 0. -1.
         21   -1    0    0  502  503 -0.00000000000E+00 -0.00000000000E+00 -0.15484133015E+03  0.15484133015E+03  0.00000000000E+00 0. -1.
          6    1    1    2  501    0 -0.99380502986E+02 -0.13069688967E+02  0.21330191792E+03  0.29176876003E+03  0.17200000000E+03 0. -1.
         -6    1    1    2    0  503  0.99380502986E+02  0.13069688967E+02 -0.29905941445E+02  0.20130987675E+03  0.17200000000E+03 0. -1.
</event>
<event>
 4    1  0.1211980E+000  0.2323292E+03  0.7818608E-02  0.1125011E+00
         21   -1    0    0  503  502  0.00000000000E+00  0.00000000000E+00  0.25400298365E+03  0.25400298365E+03  0.00000000000E+00 0.  1.
         21   -1    0    0  501  503 -0.00000000000E+00 -0.00000000000E+00 -0.26800574238E+03  0.26800574238E+03  0.00000000000E+00 0. -1.
          6    1    1    2  501    0  0.50866607982E+02  0.14766666072E+03 -0.12577660845E+03  0.26419048001E+03  0.17200000000E+03 0. -1.
         -6    1    1    2    0  502 -0.50866607982E+02 -0.14766666072E+03  0.11177384971E+03  0.25781824601E+03  0.17200000000E+03 0.  1.
</event>
<event>
 4    1  0.1211980E+000  0.1971204E+03  0.7818608E-02  0.1152192E+00
         21   -1    0    0  501  502  0.00000000000E+00  0.00000000000E+00  0.19748676511E+03  0.19748676511E+03  0.00000000000E+00 0. -1.
         21   -1    0    0  502  503 -0.00000000000E+00 -0.00000000000E+00 -0.50065123071E+03  0.50065123071E+03  0.00000000000E+00 0. -1.
          6    1    1    2  501    0  0.55454316578E+02 -0.78722625757E+02  0.12037872680E+03  0.23097071438E+03  0.17200000000E+03 0. -1.
         -6    1    1    2    0  503 -0.55454316578E+02  0.78722625757E+02 -0.42354319240E+03  0.46716728145E+03  0.17200000000E+03 0. -1.
</event>
<event>
 4    1  0.1211980E+000  0.1912182E+03  0.7818608E-02  0.1157367E+00
         21   -1    0    0  501  502  0.00000000000E+00  0.00000000000E+00  0.14510939949E+04  0.14510939949E+04  0.00000000000E+00 0. -1.
         21   -1    0    0  502  503 -0.00000000000E+00 -0.00000000000E+00 -0.50276499363E+02  0.50276499363E+02  0.00000000000E+00 0. -1.
          6    1    1    2  501    0  0.81744255553E+02 -0.17270256568E+02  0.12305942128E+04  0.12453619962E+04  0.17200000000E+03 0.  1.
         -6    1    1    2    0  503 -0.81744255553E+02  0.17270256568E+02  0.17022328273E+03  0.25600849802E+03  0.17200000000E+03 0.  1.
</event>
<event>
 4    1  0.1211980E+000  0.2033069E+03  0.7818608E-02  0.1146979E+00
         21   -1    0    0  501  502  0.00000000000E+00  0.00000000000E+00  0.20731257973E+03  0.20731257973E+03  0.00000000000E+00 0. -1.
         21   -1    0    0  502  503 -0.00000000000E+00 -0.00000000000E+00 -0.33827202659E+03  0.33827202659E+03  0.00000000000E+00 0. -1.
          6    1    1    2  501    0  0.10528588798E+03 -0.25779683848E+02  0.10931961206E+03  0.23083432996E+03  0.17200000000E+03 0. -1.
         -6    1    1    2    0  503 -0.10528588798E+03  0.25779683848E+02 -0.24027905893E+03  0.31475027636E+03  0.17200000000E+03 0. -1.
</event>
<event>
 4    1  0.1211980E+000  0.1996160E+03  0.7818608E-02  0.1150063E+00
         21   -1    0    0  503  502  0.00000000000E+00  0.00000000000E+00  0.19444908938E+03  0.19444908938E+03  0.00000000000E+00 0.  1.
         21   -1    0    0  501  503 -0.00000000000E+00 -0.00000000000E+00 -0.26621675131E+03  0.26621675131E+03  0.00000000000E+00 0. -1.
          6    1    1    2  501    0  0.10126906226E+03 -0.26668791090E+01 -0.14640781879E+03  0.24755157971E+03  0.17200000000E+03 0. -1.
         -6    1    1    2    0  502 -0.10126906226E+03  0.26668791090E+01  0.74640156856E+02  0.21311426097E+03  0.17200000000E+03 0.  1.
</event>
<event>
 4    1  0.1211980E+000  0.1942690E+03  0.7818608E-02  0.1154666E+00
         21   -1    0    0  503  502  0.00000000000E+00  0.00000000000E+00  0.14020599788E+03  0.14020599788E+03  0.00000000000E+00 0. -1.
         21   -1    0    0  501  503 -0.00000000000E+00 -0.00000000000E+00 -0.54978903205E+03  0.54978903205E+03  0.00000000000E+00 0. -1.
          6    1    1    2  501    0  0.10199193524E+02  0.89735319527E+02 -0.45126480261E+03  0.49130476610E+03  0.17200000000E+03 0. -1.
         -6    1    1    2    0  502 -0.10199193524E+02 -0.89735319527E+02  0.41681768436E+02  0.19869026383E+03  0.17200000000E+03 0. -1.
</event>
<event>
 4    1  0.1211980E+000  0.2195531E+03  0.7818608E-02  0.1134217E+00
         21   -1    0    0  501  502  0.00000000000E+00  0.00000000000E+00  0.16468549948E+04  0.16468549948E+04  0.00000000000E+00 0. -1.
         21   -1    0    0  502  503 -0.00000000000E+00 -0.00000000000E+00 -0.32121423197E+02  0.32121423197E+02  0.00000000000E+00 0.  1.
          6    1    1    2  501    0  0.16162127865E+02  0.13549295684E+03  0.10574836424E+04  0.10800348187E+04  0.17200000000E+03 0. -1.
         -6    1    1    2    0  503 -0.16162127865E+02 -0.13549295684E+03  0.55724992917E+03  0.59894159923E+03  0.17200000000E+03 0. -1.
</event>
<event>
 4    1  0.1211980E+000  0.1944610E+03  0.7818608E-02  0.1154498E+00
         21   -1    0    0  501  502  0.00000000000E+00  0.00000000000E+00  0.99568230256E+02  0.99568230256E+02  0.00000000000E+00 0.  1.
         21   -1    0    0  502  503 -0.00000000000E+00 -0.00000000000E+00 -0.43470398778E+03  0.43470398778E+03  0.00000000000E+00 0.  1.
          6    1    1    2  501    0  0.10585927521E+02  0.90105569791E+02 -0.72622245477E+02  0.20757905990E+03  0.17200000000E+03 0.  1.
         -6    1    1    2    0  503 -0.10585927521E+02 -0.90105569791E+02 -0.26251351205E+03  0.32669315814E+03  0.17200000000E+03 0.  1.
</event>
<event>
 4    1  0.1211980E+000  0.2666830E+03  0.7818608E-02  0.1103193E+00
         21   -1    0    0  501  502  0.00000000000E+00  0.00000000000E+00  0.19288534680E+03  0.19288534680E+03  0.00000000000E+00 0.  1.
         21   -1    0    0  502  503 -0.00000000000E+00 -0.00000000000E+00 -0.37989012020E+03  0.37989012020E+03  0.00000000000E+00 0. -1.
          6    1    1    2  501    0 -0.15634994554E+03 -0.13073062907E+03 -0.44384097349E+02  0.27035116228E+03  0.17200000000E+03 0. -1.
         -6    1    1    2    0  503  0.15634994554E+03  0.13073062907E+03 -0.14262067605E+03  0.30242430472E+03  0.17200000000E+03 0. -1.
</event>
<event>
 4    1  0.1211980E+000  0.1813826E+03  0.7818608E-02  0.1166472E+00
         21   -1    0    0  501  502  0.00000000000E+00  0.00000000000E+00  0.28994782563E+03  0.28994782563E+03  0.00000000000E+00 0.  1.
         21   -1    0    0  502  503 -0.00000000000E+00 -0.00000000000E+00 -0.11844882645E+03  0.11844882645E+03  0.00000000000E+00 0.  1.
          6    1    1    2  501    0  0.24485606152E+02  0.52116248300E+02  0.12762502792E+03  0.22178321848E+03  0.17200000000E+03 0.  1.
         -6    1    1    2    0  503 -0.24485606152E+02 -0.52116248300E+02  0.43873971263E+02  0.18661343360E+03  0.17200000000E+03 0.  1.
</event>
<event>
 4    1  0.1211980E+000  0.1775491E+03  0.7818608E-02  0.1170196E+00
         21   -1    0    0  503  502  0.00000000000E+00  0.00000000000E+00  0.46348019451E+03  0.46348019451E+03  0.00000000000E+00 0. -1.
         21   -1    0    0  501  503 -0.00000000000E+00 -0.00000000000E+00 -0.10488349845E+03  0.10488349845E+03  0.00000000000E+00 0. -1.
          6    1    1    2  501    0 -0.38405875423E+02 -0.21556265182E+02  0.10810152919E+02  0.17787788857E+03  0.17200000000E+03 0.  1.
         -6    1    1    2    0  502  0.38405875423E+02  0.21556265182E+02  0.34778654314E+03  0.39048580438E+03  0.17200000000E+03 0.  1.
</event>
<event>
 4    1  0.1211980E+000  0.2158098E+03  0.7818608E-02  0.1137046E+00
         21   -1    0    0  501  502  0.00000000000E+00  0.00000000000E+00  0.51910949416E+03  0.51910949416E+03  0.00000000000E+00 0.  1.
         21   -1    0    0  502  503 -0.00000000000E+00 -0.00000000000E+00 -0.93415585948E+02  0.93415585948E+02  0.00000000000E+00 0. -1.
          6    1    1    2  501    0  0.13024895440E+03  0.50090890755E+01  0.27377206626E+03  0.34860439665E+03  0.17200000000E+03 0. -1.
         -6    1    1    2    0  503 -0.13024895440E+03 -0.50090890755E+01  0.15192184195E+03  0.26392068346E+03  0.17200000000E+03 0. -1.
</event>
<event>
 4    1  0.1211980E+000  0.2051433E+03  0.7818608E-02  0.1145471E+00
         21   -1    0    0  501  502  0.00000000000E+00  0.00000000000E+00  0.61168889489E+02  0.61168889489E+02  0.00000000000E+00 0. -1.
         21   -1    0    0  502  503 -0.00000000000E+00 -0.00000000000E+00 -0.91624556847E+03  0.91624556847E+03  0.00000000000E+00 0.  1.
          6    1    1    2  501    0 -0.74885970018E+02  0.83017141290E+02 -0.18361639880E+03  0.27531570272E+03  0.17200000000E+03 0. -1.
         -6    1    1    2    0  503  0.74885970018E+02 -0.83017141290E+02 -0.67146028018E+03  0.70209875525E+03  0.17200000000E+03 0.  1.
</event>
<event>
 4    1  0.1211980E+000  0.2256232E+03  0.7818608E-02  0.1129759E+00
         21   -1    0    0  503  502  0.00000000000E+00  0.00000000000E+00  0.67313950936E+02  0.67313950936E+02  0.00000000000E+00 0.  1.
         21   -1    0    0  501  503 -0.00000000000E+00 -0.00000000000E+00 -0.76229254837E+03  0.76229254837E+03  0.00000000000E+00 0.  1.
          6    1    1    2  501    0  0.97305890797E+02  0.10887332854E+03 -0.38443563684E+03  0.44575396456E+03  0.17200000000E+03 0.  1.
         -6    1    1    2    0  502 -0.97305890797E+02 -0.10887332854E+03 -0.31054296059E+03  0.38385253474E+03  0.17200000000E+03 0.  1.
</event>
<event>
 4    1  0.1211980E+000  0.2357163E+03  0.7818608E-02  0.1122680E+00
         21   -1    0    0  503  502  0.00000000000E+00  0.00000000000E+00  0.51559458034E+03  0.51559458034E+03  0.00000000000E+00 0.  1.
         21   -1    0    0  501  503 -0.00000000000E+00 -0.00000000000E+00 -0.11091776907E+03  0.11091776907E+03  0.00000000000E+00 0. -1.
          6    1    1    2  501    0 -0.40250042059E+02 -0.15607083038E+03  0.25516622397E+03  0.34737871529E+03  0.17200000000E+03 0.  1.
         -6    1    1    2    0  502  0.40250042059E+02  0.15607083038E+03  0.14951058730E+03  0.27913363412E+03  0.17200000000E+03 0. -1.
</event>
<event>
 4    1  0.1211980E+000  0.1759766E+03  0.7818608E-02  0.1171755E+00
         21   -1    0    0  503  502  0.00000000000E+00  0.00000000000E+00  0.27039218585E+03  0.27039218585E+03  0.00000000000E+00 0. -1.
         21   -1    0    0  501  503 -0.00000000000E+00 -0.00000000000E+00 -0.32528030771E+03  0.32528030771E+03  0.00000000000E+00 0. -1.
          6    1    1    2  501    0  0.36866632574E+02 -0.49604917558E+01 -0.26718034604E+03  0.31992669846E+03  0.17200000000E+03 0. -1.
         -6    1    1    2    0  502 -0.36866632574E+02  0.49604917558E+01  0.21229222417E+03  0.27574579511E+03  0.17200000000E+03 0. -1.
</event>
<event>
 4    1  0.1211980E+000  0.1733109E+03  0.7818608E-02  0.1174438E+00
         21   -1    0    0  503  502  0.00000000000E+00  0.00000000000E+00  0.19939826924E+02  0.19939826924E+02  0.00000000000E+00 0. -1.
         21   -1    0    0  501  503 -0.00000000000E+00 -0.00000000000E+00 -0.16441099809E+04  0.16441099809E+04  0.00000000000E+00 0. -1.
          6    1    1    2  501    0 -0.14708607882E+02 -0.15372624075E+02 -0.10529139320E+04  0.10670821940E+04  0.17200000000E+03 0.  1.
         -6    1    1    2    0  502  0.14708607882E+02  0.15372624075E+02 -0.57125622198E+03  0.59696761375E+03  0.17200000000E+03 0.  1.
</event>
<event>
 4    1  0.1211980E+000  0.1727626E+03  0.7818608E-02  0.1174997E+00
         21   -1    0    0  503  502  0.00000000000E+00  0.00000000000E+00  0.84106651751E+03  0.84106651751E+03  0.00000000000E+00 0.  1.
         21   -1    0    0  501  503 -0.00000000000E+00 -0.00000000000E+00 -0.49631730214E+02  0.49631730214E+02  0.00000000000E+00 0.  1.
          6    1    1    2  501    0 -0.15930298443E+02  0.30261655455E+01  0.15796869678E+03  0.23409622220E+03  0.17200000000E+03 0.  1.
         -6    1    1    2    0  502  0.15930298443E+02 -0.30261655455E+01  0.63346609051E+03  0.65660202552E+03  0.17200000000E+03 0.  1.
</event>
<event>
 4    1  0.1211980E+000  0.2553957E+03  0.7818608E-02  0.1109942E+00
         21   -1    0    0  503  502  0.00000000000E+00  0.00000000000E+00  0.36631331811E+03  0.36631331811E+03  0.00000000000E+00 0.  1.
         21   -1    0    0  501  503 -0.00000000000E+00 -0.00000000000E+00 -0.18013347917E+03  0.18013347917E+03  0.00000000000E+00 0.  1.
          6    1    1    2  501    0  0.18781691736E+03  0.19177129960E+02  0.12238030351E+03  0.28320292274E+03  0.17200000000E+03 0. -1.
         -6    1    1    2    0  502 -0.18781691736E+03 -0.19177129960E+02  0.63799535428E+02  0.26324387454E+03  0.17200000000E+03 0. -1.
</event>
<event>
 4    1  0.1211980E+000  0.1776503E+03  0.7818608E-02  0.1170097E+00
         21   -1    0    0  501  502  0.00000000000E+00  0.00000000000E+00  0.23125915556E+03  0.23125915556E+03  0.00000000000E+00 0. -1.
         21   -1    0    0  502  503 -0.00000000000E+00 -0.00000000000E+00 -0.13647400654E+03  0.13647400654E+03  0.00000000000E+00 0. -1.
          6    1    1    2  501    0  0.34447136958E+02  0.28089731013E+02  0.48538207412E+02  0.18416187394E+03  0.17200000000E+03 0. -1.
         -6    1    1    2    0  503 -0.34447136958E+02 -0.28089731013E+02  0.46246941608E+02  0.18357128817E+03  0.17200000000E+03 0. -1.
</event>
<event>
 4    1  0.1211980E+000  0.1867032E+03  0.7818608E-02  0.1161469E+00
         21   -1    0    0  501  502  0.00000000000E+00  0.00000000000E+00  0.14692601548E+03  0.14692601548E+03  0.00000000000E+00 0. -1.
         21   -1    0    0  502  503 -0.00000000000E+00 -0.00000000000E+00 -0.26872540219E+03  0.26872540219E+03  0.00000000000E+00 0. -1.
          6    1    1    2  501    0 -0.21019250167E+02 -0.69514677680E+02  0.10227414476E+02  0.18698315244E+03  0.17200000000E+03 0. -1.
         -6    1    1    2    0  503  0.21019250167E+02  0.69514677680E+02 -0.13202680118E+03  0.22866826523E+03  0.17200000000E+03 0. -1.
</event>
<event>
 4    1  0.1211980E+000  0.1941650E+03  0.7818608E-02  0.1154758E+00
         21   -1    0    0  501  502  0.00000000000E+00  0.00000000000E+00  0.40121816132E+02  0.40121816132E+02  0.00000000000E+00 0.  1.
         21   -1    0    0  502  503 -0.00000000000E+00 -0.00000000000E+00 -0.11040930252E+04  0.11040930252E+04  0.00000000000E+00 0.  1.
          6    1    1    2  501    0 -0.88547767164E+02  0.16593579388E+02 -0.31118717026E+03  0.36679355076E+03  0.17200000000E+03 0. -1.
         -6    1    1    2    0  503  0.88547767164E+02 -0.16593579388E+02 -0.75278403885E+03  0.77742129061E+03  0.17200000000E+03 0. -1.
</event>
<event>
 4    1  0.1211980E+000  0.1858421E+03  0.7818608E-02  0.1162266E+00
         21   -1    0    0  501  502  0.00000000000E+00  0.00000000000E+00  0.16078743075E+04  0.16078743075E+04  0.00000000000E+00 0.  1.
         21   -1    0    0  502  503 -0.00000000000E+00 -0.00000000000E+00 -0.37111118161E+02  0.37111118161E+02  0.00000000000E+00 0.  1.
          6    1    1    2  501    0 -0.13541565315E+02  0.69064508129E+02  0.13191757952E+04  0.13322019588E+04  0.17200000000E+03 0.  1.
         -6    1    1    2    0  503  0.13541565315E+02 -0.69064508129E+02  0.25158739410E+03  0.31278346687E+03  0.17200000000E+03 0.  1.
</event>
<event>
 4    1  0.1211980E+000  0.2167421E+03  0.7818608E-02  0.1136336E+00
         21   -1    0    0  503  502  0.00000000000E+00  0.00000000000E+00  0.12296160513E+03  0.12296160513E+03  0.00000000000E+00 0. -1.
         21   -1    0    0  501  503 -0.00000000000E+00 -0.00000000000E+00 -0.38248124813E+03  0.38248124813E+03  0.00000000000E+00 0. -1.
          6    1    1    2  501    0 -0.63206872878E+02 -0.11574980060E+03 -0.12124542129E+03  0.24834970767E+03  0.17200000000E+03 0. -1.
         -6    1    1    2    0  502  0.63206872878E+02  0.11574980060E+03 -0.13827422172E+03  0.25709314559E+03  0.17200000000E+03 0. -1.
</event>
<event>
 4    1  0.1211980E+000  0.1926126E+03  0.7818608E-02  0.1156126E+00
         21   -1    0    0  503  502  0.00000000000E+00  0.00000000000E+00  0.12465792936E+03  0.12465792936E+03  0.00000000000E+00 0. -1.
         21   -1    0    0  501  503 -0.00000000000E+00 -0.00000000000E+00 -0.30990600300E+03  0.30990600300E+03  0.00000000000E+00 0. -1.
          6    1    1    2  501    0  0.83139159987E+02 -0.24565768281E+02 -0.49345821712E+02  0.19883311348E+03  0.17200000000E+03 0. -1.
         -6    1    1    2    0  502 -0.83139159987E+02  0.24565768281E+02 -0.13590225192E+03  0.23573081888E+03  0.17200000000E+03 0. -1.
</event>
<event>
 4    1  0.1211980E+000  0.1742444E+03  0.7818608E-02  0.1173493E+00
         21   -1    0    0  503  502  0.00000000000E+00  0.00000000000E+00  0.14076398104E+03  0.14076398104E+03  0.00000000000E+00 0.  1.
         21   -1    0    0  501  503 -0.00000000000E+00 -0.00000000000E+00 -0.23107036142E+03  0.23107036142E+03  0.00000000000E+00 0.  1.
          6    1    1    2  501    0  0.23011780903E+02 -0.15734255008E+02 -0.93121912936E+02  0.19756720252E+03  0.17200000000E+03 0.  1.
         -6    1    1    2    0  502 -0.23011780903E+02  0.15734255008E+02  0.28155325604E+01  0.17426713994E+03  0.17200000000E+03 0.  1.
</event>
<event>
 4    1  0.1211980E+000  0.2046478E+03  0.7818608E-02  0.1145876E+00
         21   -1    0    0  503  502  0.00000000000E+00  0.00000000000E+00  0.30346404669E+03  0.30346404669E+03  0.00000000000E+00 0. -1.
         21   -1    0    0  501  503 -0.00000000000E+00 -0.00000000000E+00 -0.27890839176E+03  0.27890839176E+03  0.00000000000E+00 0.  1.
          6    1    1    2  501    0 -0.97619795283E+02  0.52603052230E+02 -0.19468622117E+03  0.28245960817E+03  0.17200000000E+03 0.  1.
         -6    1    1    2    0  502  0.97619795283E+02 -0.52603052230E+02  0.21924187609E+03  0.29991283028E+03  0.17200000000E+03 0. -1.
</event>
<event>
 4    1  0.1211980E+000  0.2632082E+03  0.7818608E-02  0.1105231E+00
         21   -1    0    0  501  502  0.00000000000E+00  0.00000000000E+00  0.72921407698E+03  0.72921407698E+03  0.00000000000E+00 0.  1.
         21   -1    0    0  502  503 -0.00000000000E+00 -0.00000000000E+00 -0.95203598744E+02  0.95203598744E+02  0.00000000000E+00 0.  1.
          6    1    1    2  501    0 -0.15241433948E+03 -0.12831378442E+03  0.29815071688E+03  0.39770894902E+03  0.17200000000E+03 0. -1.
         -6    1    1    2    0  503  0.15241433948E+03  0.12831378442E+03  0.33585976136E+03  0.42670872671E+03  0.17200000000E+03 0. -1.
</event>
<event>
 4    1  0.1211980E+000  0.2317732E+03  0.7818608E-02  0.1125398E+00
         21   -1    0    0  503  502  0.00000000000E+00  0.00000000000E+00  0.59707162119E+03  0.59707162119E+03  0.00000000000E+00 0.  1.
         21   -1    0    0  501  503 -0.00000000000E+00 -0.00000000000E+00 -0.10493367798E+03  0.10493367798E+03  0.00000000000E+00 0. -1.
          6    1    1    2  501    0  0.85606050147E+02  0.12963962104E+03  0.11352347010E+03  0.25808216798E+03  0.17200000000E+03 0. -1.
         -6    1    1    2    0  502 -0.85606050147E+02 -0.12963962104E+03  0.37861447310E+03  0.44392313119E+03  0.17200000000E+03 0.  1.
</event>
<event>
 4    1  0.1211980E+000  0.1829748E+03  0.7818608E-02  0.1164955E+00
         21   -1    0    0  503  502  0.00000000000E+00  0.00000000000E+00  0.79186176988E+02  0.79186176988E+02  0.00000000000E+00 0.  1.
         21   -1    0    0  501  503 -0.00000000000E+00 -0.00000000000E+00 -0.67962777754E+03  0.67962777754E+03  0.00000000000E+00 0.  1.
          6    1    1    2  501    0  0.56196202878E+02  0.27161907358E+02 -0.53345496745E+03  0.56396275119E+03  0.17200000000E+03 0.  1.
         -6    1    1    2    0  502 -0.56196202878E+02 -0.27161907358E+02 -0.66986633102E+02  0.19485120334E+03  0.17200000000E+03 0.  1.
</event>
<event>
 4    1  0.1211980E+000  0.2305013E+03  0.7818608E-02  0.1126287E+00
         21   -1    0    0  503  502  0.00000000000E+00  0.00000000000E+00  0.60339794293E+03  0.60339794293E+03  0.00000000000E+00 0. -1.
         21   -1    0    0  501  503 -0.00000000000E+00 -0.00000000000E+00 -0.88498356379E+02  0.88498356379E+02  0.00000000000E+00 0.  1.
          6    1    1    2  501    0 -0.69155528196E+02 -0.13698307462E+03  0.28199788983E+03  0.36421650111E+03  0.17200000000E+03 0.  1.
         -6    1    1    2    0  502  0.69155528196E+02  0.13698307462E+03  0.23290169672E+03  0.32767979820E+03  0.17200000000E+03 0.  1.
</event>
<event>
 4    1  0.1211980E+000  0.2134967E+03  0.7818608E-02  0.1138827E+00
         21   -1    0    0  501  502  0.00000000000E+00  0.00000000000E+00  0.50106956624E+03  0.50106956624E+03  0.00000000000E+00 0. -1.
         21   -1    0    0  502  503 -0.00000000000E+00 -0.00000000000E+00 -0.92448407032E+02  0.92448407032E+02  0.00000000000E+00 0.  1.
          6    1    1    2  501    0  0.11822749797E+03  0.44934184426E+02  0.24187558652E+03  0.32262148341E+03  0.17200000000E+03 0.  1.
         -6    1    1    2    0  503 -0.11822749797E+03 -0.44934184426E+02  0.16674557269E+03  0.27089648986E+03  0.17200000000E+03 0.  1.
</event>
<event>
 4    1  0.1211980E+000  0.1804816E+03  0.7818608E-02  0.1167338E+00
         21   -1    0    0  501  502  0.00000000000E+00  0.00000000000E+00  0.32361294351E+03  0.32361294351E+03  0.00000000000E+00 0. -1.
         21   -1    0    0  502  503 -0.00000000000E+00 -0.00000000000E+00 -0.10868390341E+03  0.10868390341E+03  0.00000000000E+00 0. -1.
          6    1    1    2  501    0 -0.54661633065E+02  0.13054523160E+01  0.16620931149E+03  0.24535511725E+03  0.17200000000E+03 0. -1.
         -6    1    1    2    0  503  0.54661633065E+02 -0.13054523160E+01  0.48719728612E+02  0.18694172967E+03  0.17200000000E+03 0. -1.
</event>
<event>
 4    1  0.1211980E+000  0.1774270E+03  0.7818608E-02  0.1170317E+00
         21   -1    0    0  503  502  0.00000000000E+00  0.00000000000E+00  0.10151045586E+04  0.10151045586E+04  0.00000000000E+00 0. -1.
         21   -1    0    0  501  503 -0.00000000000E+00 -0.00000000000E+00 -0.49435109919E+02  0.49435109919E+02  0.00000000000E+00 0. -1.
          6    1    1    2  501    0  0.29805944348E+02  0.31748349721E+02  0.15789979990E+03  0.23751357611E+03  0.17200000000E+03 0. -1.
         -6    1    1    2    0  502 -0.29805944348E+02 -0.31748349721E+02  0.80776964877E+03  0.82702609240E+03  0.17200000000E+03 0. -1.
</event>
<event>
 4    1  0.1211980E+000  0.2229477E+03  0.7818608E-02  0.1131704E+00
         21   -1    0    0  503  502  0.00000000000E+00  0.00000000000E+00  0.49662595882E+03  0.49662595882E+03  0.00000000000E+00 0. -1.
         21   -1    0    0  501  503 -0.00000000000E+00 -0.00000000000E+00 -0.41363217806E+03  0.41363217806E+03  0.00000000000E+00 0.  1.
          6    1    1    2  501    0  0.11424852294E+03 -0.84077054909E+02 -0.35476075523E+03  0.41899984440E+03  0.17200000000E+03 0.  1.
         -6    1    1    2    0  502 -0.11424852294E+03  0.84077054909E+02  0.43775453599E+03  0.49125829249E+03  0.17200000000E+03 0. -1.
</event>
<event>
 4    1  0.1211980E+000  0.1840463E+03  0.7818608E-02  0.1163943E+00
         21   -1    0    0  501  502  0.00000000000E+00  0.00000000000E+00  0.47944212736E+03  0.47944212736E+03  0.00000000000E+00 0.  1.
         21   -1    0    0  502  503 -0.00000000000E+00 -0.00000000000E+00 -0.97376491299E+02  0.97376491299E+02  0.00000000000E+00 0.  1.
          6    1    1    2  501    0 -0.30540165674E+02  0.57934071233E+02  0.34212611155E+03  0.38848852561E+03  0.17200000000E+03 0.  1.
         -6    1    1    2    0  503  0.30540165674E+02 -0.57934071233E+02  0.39939524515E+02  0.18833009305E+03  0.17200000000E+03 0.  1.
</event>
<event>
 4    1  0.1211980E+000  0.2683850E+03  0.7818608E-02  0.1102207E+00
         21   -1    0    0  501  502  0.00000000000E+00  0.00000000000E+00  0.84225973146E+03  0.84225973146E+03  0.00000000000E+00 0. -1.
         21   -1    0    0  502  503 -0.00000000000E+00 -0.00000000000E+00 -0.13391943919E+03  0.13391943919E+03  0.00000000000E+00 0. -1.
          6    1    1    2  501    0  0.20279425628E+03 -0.36345803610E+02  0.64759396246E+03  0.70100532668E+03  0.17200000000E+03 0. -1.
         -6    1    1    2    0  503 -0.20279425628E+03  0.36345803610E+02  0.60746329806E+02  0.27517384397E+03  0.17200000000E+03 0. -1.
</event>
<event>
 4    1  0.1211980E+000  0.1822685E+03  0.7818608E-02  0.1165625E+00
         21   -1    0    0  503  502  0.00000000000E+00  0.00000000000E+00  0.63573098808E+03  0.63573098808E+03  0.00000000000E+00 0. -1.
         21   -1    0    0  501  503 -0.00000000000E+00 -0.00000000000E+00 -0.87614644799E+02  0.87614644799E+02  0.00000000000E+00 0. -1.
          6    1    1    2  501    0  0.10533676233E+02  0.59387293822E+02  0.44303064816E+02  0.18757550628E+03  0.17200000000E+03 0. -1.
         -6    1    1    2    0  502 -0.10533676233E+02 -0.59387293822E+02  0.50381327847E+03  0.53577012660E+03  0.17200000000E+03 0. -1.
</event>
<event>
 4    1  0.1211980E+000  0.2019729E+03  0.7818608E-02  0.1148085E+00
         21   -1    0    0  501  502  0.00000000000E+00  0.00000000000E+00  0.19691445152E+04  0.19691445152E+04  0.00000000000E+00 0.  1.
         21   -1    0    0  502  503 -0.00000000000E+00 -0.00000000000E+00 -0.20822895765E+02  0.20822895765E+02  0.00000000000E+00 0.  1.
          6    1    1    2  501    0  0.10225211513E+03 -0.27451034533E+02  0.90291475564E+03  0.92522868000E+03  0.17200000000E+03 0.  1.
         -6    1    1    2    0  503 -0.10225211513E+03  0.27451034533E+02  0.10454068638E+04  0.10647387310E+04  0.17200000000E+03 0.  1.
</event>
<event>
 4    1  0.1211980E+000  0.2039723E+03  0.7818608E-02  0.1146430E+00
         21   -1    0    0  503  502  0.00000000000E+00  0.00000000000E+00  0.17472869683E+03  0.17472869683E+03  0.00000000000E+00 0.  1.
         21   -1    0    0  501  503 -0.00000000000E+00 -0.00000000000E+00 -0.31327568766E+03  0.31327568766E+03  0.00000000000E+00 0.  1.
          6    1    1    2  501    0  0.32009375569E+02  0.10486238320E+03 -0.18879307317E+03  0.27793442394E+03  0.17200000000E+03 0.  1.
         -6    1    1    2    0  502 -0.32009375569E+02 -0.10486238320E+03  0.50246082337E+02  0.21006996055E+03  0.17200000000E+03 0.  1.
</event>
<event>
 4    1  0.1211980E+000  0.1753205E+03  0.7818608E-02  0.1172410E+00
         21   -1    0    0  501  502  0.00000000000E+00  0.00000000000E+00  0.11613078257E+03  0.11613078257E+03  0.00000000000E+00 0.  1.
         21   -1    0    0  502  503 -0.00000000000E+00 -0.00000000000E+00 -0.29227581871E+03  0.29227581871E+03  0.00000000000E+00 0.  1.
          6    1    1    2  501    0 -0.30042743327E+02  0.15833917740E+02 -0.25324125938E+02  0.17714003142E+03  0.17200000000E+03 0.  1.
         -6    1    1    2    0  503  0.30042743327E+02 -0.15833917740E+02 -0.15082091020E+03  0.23126656985E+03  0.17200000000E+03 0.  1.
</event>
<event>
 4    1  0.1211980E+000  0.1772104E+03  0.7818608E-02  0.1170530E+00
         21   -1    0    0  501  502  0.00000000000E+00  0.00000000000E+00  0.37075940458E+03  0.37075940458E+03  0.00000000000E+00 0.  1.
         21   -1    0    0  502  503 -0.00000000000E+00 -0.00000000000E+00 -0.87324095810E+02  0.87324095810E+02  0.00000000000E+00 0. -1.
          6    1    1    2  501    0 -0.73424075759E+01 -0.42019192877E+02  0.10201748408E+03  0.20447760410E+03  0.17200000000E+03 0.  1.
         -6    1    1    2    0  503  0.73424075759E+01  0.42019192877E+02  0.18141782469E+03  0.25360589629E+03  0.17200000000E+03 0.  1.
</event>
<event>
 4    1  0.1211980E+000  0.1841588E+03  0.7818608E-02  0.1163838E+00
         21   -1    0    0  503  502  0.00000000000E+00  0.00000000000E+00  0.85138092467E+02  0.85138092467E+02  0.00000000000E+00 0.  1.
         21   -1    0    0  501  503 -0.00000000000E+00 -0.00000000000E+00 -0.41353997401E+03  0.41353997401E+03  0.00000000000E+00 0.  1.
          6    1    1    2  501    0  0.39549900605E+02  0.52595172753E+02 -0.21199374023E+03  0.28081273606E+03  0.17200000000E+03 0.  1.
         -6    1    1    2    0  502 -0.39549900605E+02 -0.52595172753E+02 -0.11640814131E+03  0.21786533042E+03  0.17200000000E+03 0.  1.
</event>
<event>
 4    1  0.1211980E+000  0.2023528E+03  0.7818608E-02  0.1147769E+00
         21   -1    0    0  501  502  0.00000000000E+00  0.00000000000E+00  0.74942453598E+02  0.74942453598E+02  0.00000000000E+00 0. -1.
         21   -1    0    0  502  503 -0.00000000000E+00 -0.00000000000E+00 -0.67756494731E+03  0.67756494731E+03  0.00000000000E+00 0. -1.
          6    1    1    2  501    0 -0.60614451636E+01 -0.10642332819E+03 -0.46687145856E+03  0.50883752290E+03  0.17200000000E+03 0. -1.
         -6    1    1    2    0  503  0.60614451636E+01  0.10642332819E+03 -0.13575103515E+03  0.24366987800E+03  0.17200000000E+03 0. -1.
</event>
<event>
 4    1  0.1211980E+000  0.1905265E+03  0.7818608E-02  0.1157987E+00
         21   -1    0    0  503  502  0.00000000000E+00  0.00000000000E+00  0.34821108694E+03  0.34821108694E+03  0.00000000000E+00 0.  1.
         21   -1    0    0  501  503 -0.00000000000E+00 -0.00000000000E+00 -0.10726383477E+03  0.10726383477E+03  0.00000000000E+00 0.  1.
          6    1    1    2  501    0 -0.44080458013E+01 -0.81834777316E+02  0.15865932830E+03  0.24793778272E+03  0.17200000000E+03 0.  1.
         -6    1    1    2    0  502  0.44080458013E+01  0.81834777316E+02  0.82287923871E+02  0.20753713899E+03  0.17200000000E+03 0.  1.
</event>
<event>
 4    1  0.1211980E+000  0.1808028E+03  0.7818608E-02  0.1167028E+00
         21   -1    0    0  501  502  0.00000000000E+00  0.00000000000E+00  0.16005865100E+04  0.16005865100E+04  0.00000000000E+00 0. -1.
         21   -1    0    0  502  503 -0.00000000000E+00 -0.00000000000E+00 -0.21454076689E+02  0.21454076689E+02  0.00000000000E+00 0. -1.
          6    1    1    2  501    0 -0.23203576421E+01  0.55679894383E+02  0.96731620366E+03  0.98406822556E+03  0.17200000000E+03 0. -1.
         -6    1    1    2    0  503  0.23203576421E+01 -0.55679894383E+02  0.61181622967E+03  0.63797236114E+03  0.17200000000E+03 0. -1.
</event>
<event>
 4    1  0.1211980E+000  0.2912701E+03  0.7818608E-02  0.1089688E+00
         21   -1    0    0  503  502  0.00000000000E+00  0.00000000000E+00  0.16989117605E+03  0.16989117605E+03  0.00000000000E+00 0.  1.
         21   -1    0    0  501  503 -0.00000000000E+00 -0.00000000000E+00 -0.65881223916E+03  0.65881223916E+03  0.00000000000E+00 0.  1.
          6    1    1    2  501    0 -0.16677673740E+03  0.16564960326E+03 -0.44830188008E+03  0.53461467141E+03  0.17200000000E+03 0.  1.
         -6    1    1    2    0  502  0.16677673740E+03 -0.16564960326E+03 -0.40619183026E+02  0.29408874380E+03  0.17200000000E+03 0.  1.
</event>
<event>
 4    1  0.1211980E+000  0.2747091E+03  0.7818608E-02  0.1098614E+00
         21   -1    0    0  501  502  0.00000000000E+00  0.00000000000E+00  0.71278291586E+03  0.71278291586E+03  0.00000000000E+00 0.  1.
         21   -1    0    0  502  503 -0.00000000000E+00 -0.00000000000E+00 -0.12384315351E+03  0.12384315351E+03  0.00000000000E+00 0. -1.
          6    1    1    2  501    0  0.49634002160E+02  0.20836884939E+03  0.45381190884E+03  0.53048125337E+03  0.17200000000E+03 0. -1.
         -6    1    1    2    0  503 -0.49634002160E+02 -0.20836884939E+03  0.13512785351E+03  0.30614481600E+03  0.17200000000E+03 0.  1.
</event>
<event>
 4    1  0.1211980E+000  0.3498137E+03  0.7818608E-02  0.1062692E+00
         21   -1    0    0  503  502  0.00000000000E+00  0.00000000000E+00  0.30944935163E+03  0.30944935163E+03  0.00000000000E+00 0.  1.
         21   -1    0    0  501  503 -0.00000000000E+00 -0.00000000000E+00 -0.51345076714E+03  0.51345076714E+03  0.00000000000E+00 0.  1.
          6    1    1    2  501    0 -0.17472074522E+03  0.24951607199E+03 -0.29925335921E+03  0.46035006461E+03  0.17200000000E+03 0.  1.
         -6    1    1    2    0  502  0.17472074522E+03 -0.24951607199E+03  0.95251943696E+02  0.36255005416E+03  0.17200000000E+03 0.  1.
</event>
<event>
 4    1  0.1211980E+000  0.2075877E+03  0.7818608E-02  0.1143491E+00
         21   -1    0    0  503  502  0.00000000000E+00  0.00000000000E+00  0.23402264935E+03  0.23402264935E+03  0.00000000000E+00 0.  1.
         21   -1    0    0  501  503 -0.00000000000E+00 -0.00000000000E+00 -0.18492717154E+03  0.18492717154E+03  0.00000000000E+00 0. -1.
          6    1    1    2  501    0 -0.10580437256E+03 -0.48105064726E+02  0.38224466305E+02  0.21107764526E+03  0.17200000000E+03 0.  1.
         -6    1    1    2    0  502  0.10580437256E+03  0.48105064726E+02  0.10871011509E+02  0.20787217562E+03  0.17200000000E+03 0. -1.
</event>
<event>
 4    1  0.1211980E+000  0.3331050E+03  0.7818608E-02  0.1069771E+00
         21   -1    0    0  503  502  0.00000000000E+00  0.00000000000E+00  0.23311089218E+03  0.23311089218E+03  0.00000000000E+00 0. -1.
         21   -1    0    0  501  503 -0.00000000000E+00 -0.00000000000E+00 -0.74445431940E+03  0.74445431940E+03  0.00000000000E+00 0.  1.
          6    1    1    2  501    0 -0.19284286483E+03 -0.21020607656E+03 -0.54919207060E+03  0.64231681867E+03  0.17200000000E+03 0.  1.
         -6    1    1    2    0  502  0.19284286483E+03  0.21020607656E+03  0.37848643385E+02  0.33524839291E+03  0.17200000000E+03 0. -1.
</event>
<event>
 4    1  0.1211980E+000  0.1907510E+03  0.7818608E-02  0.1157786E+00
         21   -1    0    0  501  502  0.00000000000E+00  0.00000000000E+00  0.20748263247E+03  0.20748263247E+03  0.00000000000E+00 0.  1.
         21   -1    0    0  502  503 -0.00000000000E+00 -0.00000000000E+00 -0.18357764525E+03  0.18357764525E+03  0.00000000000E+00 0.  1.
          6    1    1    2  501    0  0.77163470614E+02 -0.29115837575E+02 -0.29395157984E+02  0.19300261270E+03  0.17200000000E+03 0. -1.
         -6    1    1    2    0  503 -0.77163470614E+02  0.29115837575E+02  0.53300145202E+02  0.19805766502E+03  0.17200000000E+03 0. -1.
</event>
<event>
 4    1  0.1211980E+000  0.2051220E+03  0.7818608E-02  0.1145488E+00
         21   -1    0    0  503  502  0.00000000000E+00  0.00000000000E+00  0.41924249207E+03  0.41924249207E+03  0.00000000000E+00 0.  1.
         21   -1    0    0  501  503 -0.00000000000E+00 -0.00000000000E+00 -0.10092660678E+03  0.10092660678E+03  0.00000000000E+00 0. -1.
          6    1    1    2  501    0 -0.34480483500E+01  0.11171011136E+03  0.17865096399E+03  0.27201324407E+03  0.17200000000E+03 0.  1.
         -6    1    1    2    0  502  0.34480483500E+01 -0.11171011136E+03  0.13966492130E+03  0.24815585478E+03  0.17200000000E+03 0. -1.
</event>
<event>
 4    1  0.1211980E+000  0.1727036E+03  0.7818608E-02  0.1175057E+00
         21   -1    0    0  503  502  0.00000000000E+00  0.00000000000E+00  0.24766024402E+03  0.24766024402E+03  0.00000000000E+00 0.  1.
         21   -1    0    0  501  503 -0.00000000000E+00 -0.00000000000E+00 -0.14053822800E+03  0.14053822800E+03  0.00000000000E+00 0.  1.
          6    1    1    2  501    0  0.36952042635E+01 -0.15128656177E+02 -0.19852888146E+02  0.17384092711E+03  0.17200000000E+03 0.  1.
         -6    1    1    2    0  502 -0.36952042635E+01  0.15128656177E+02  0.12697490417E+03  0.21435754491E+03  0.17200000000E+03 0.  1.
</event>
<event>
 4    1  0.1211980E+000  0.2113478E+03  0.7818608E-02  0.1140503E+00
         21   -1    0    0  503  502  0.00000000000E+00  0.00000000000E+00  0.66077333843E+03  0.66077333843E+03  0.00000000000E+00 0. -1.
         21   -1    0    0  501  503 -0.00000000000E+00 -0.00000000000E+00 -0.67607775877E+02  0.67607775877E+02  0.00000000000E+00 0. -1.
          6    1    1    2  501    0 -0.11921583077E+03 -0.29520535942E+02  0.29252735659E+03  0.36088797528E+03  0.17200000000E+03 0.  1.
         -6    1    1    2    0  502  0.11921583077E+03  0.29520535942E+02  0.30063820596E+03  0.36749313903E+03  0.17200000000E+03 0.  1.
</event>
<event>
 4    1  0.1211980E+000  0.1787755E+03  0.7818608E-02  0.1168993E+00
         21   -1    0    0  501  502  0.00000000000E+00  0.00000000000E+00  0.51376210734E+03  0.51376210734E+03  0.00000000000E+00 0.  1.
         21   -1    0    0  502  503 -0.00000000000E+00 -0.00000000000E+00 -0.14628645851E+03  0.14628645851E+03  0.00000000000E+00 0.  1.
          6    1    1    2  501    0  0.46041355062E+02  0.16026767951E+02  0.43393559531E+03  0.46931946960E+03  0.17200000000E+03 0. -1.
         -6    1    1    2    0  503 -0.46041355062E+02 -0.16026767951E+02 -0.66459946489E+02  0.19072909624E+03  0.17200000000E+03 0. -1.
</event>
<event>
 4    1  0.1211980E+000  0.1997489E+03  0.7818608E-02  0.1149951E+00
         21   -1    0    0  501  502  0.00000000000E+00  0.00000000000E+00  0.85995533619E+03  0.85995533619E+03  0.00000000000E+00 0.  1.
         21   -1    0    0  502  503 -0.00000000000E+00 -0.00000000000E+00 -0.47851560813E+02  0.47851560813E+02  0.00000000000E+00 0. -1.
          6    1    1    2  501    0  0.85726254203E+02 -0.54466749911E+02  0.48518067912E+03  0.52469029808E+03  0.17200000000E+03 0. -1.
         -6    1    1    2    0  503 -0.85726254203E+02  0.54466749911E+02  0.32692309626E+03  0.38311659892E+03  0.17200000000E+03 0.  1.
</event>
<event>
 4    1  0.1211980E+000  0.1854465E+03  0.7818608E-02  0.1162634E+00
         21   -1    0    0  501  502  0.00000000000E+00  0.00000000000E+00  0.19078982633E+03  0.19078982633E+03  0.00000000000E+00 0. -1.
         21   -1    0    0  502  503 -0.00000000000E+00 -0.00000000000E+00 -0.25535839354E+03  0.25535839354E+03  0.00000000000E+00 0. -1.
          6    1    1    2  501    0 -0.52453257071E+02  0.45332941707E+02  0.88694704539E+02  0.20556548931E+03  0.17200000000E+03 0. -1.
         -6    1    1    2    0  503  0.52453257071E+02 -0.45332941707E+02 -0.15326327175E+03  0.24058273057E+03  0.17200000000E+03 0. -1.
</event>
<event>
 4    1  0.1211980E+000  0.2029034E+03  0.7818608E-02  0.1147312E+00
         21   -1    0    0  503  502  0.00000000000E+00  0.00000000000E+00  0.80428246819E+03  0.80428246819E+03  0.00000000000E+00 0. -1.
         21   -1    0    0  501  503 -0.00000000000E+00 -0.00000000000E+00 -0.55467939433E+02  0.55467939433E+02  0.00000000000E+00 0. -1.
          6    1    1    2  501    0 -0.77022680101E+02 -0.75188492059E+02  0.25500072752E+03  0.32587600959E+03  0.17200000000E+03 0. -1.
         -6    1    1    2    0  502  0.77022680101E+02  0.75188492059E+02  0.49381380123E+03  0.53387439803E+03  0.17200000000E+03 0. -1.
</event>
<event>
 4    1  0.1211980E+000  0.1983425E+03  0.7818608E-02  0.1151145E+00
         21   -1    0    0  503  502  0.00000000000E+00  0.00000000000E+00  0.14746161062E+04  0.14746161062E+04  0.00000000000E+00 0. -1.
         21   -1    0    0  501  503 -0.00000000000E+00 -0.00000000000E+00 -0.30021843284E+02  0.30021843284E+02  0.00000000000E+00 0.  1.
          6    1    1    2  501    0  0.92218851567E+02 -0.35375448515E+02  0.47121872784E+03  0.51126003991E+03  0.17200000000E+03 0.  1.
         -6    1    1    2    0  502 -0.92218851567E+02  0.35375448515E+02  0.97337553503E+03  0.99337790953E+03  0.17200000000E+03 0. -1.
</event>
<event>
 4    1  0.1211980E+000  0.2184713E+03  0.7818608E-02  0.1135028E+00
         21   -1    0    0  503  502  0.00000000000E+00  0.00000000000E+00  0.41393733656E+03  0.41393733656E+03  0.00000000000E+00 0.  1.
         21   -1    0    0  501  503 -0.00000000000E+00 -0.00000000000E+00 -0.22359343248E+03  0.22359343248E+03  0.00000000000E+00 0.  1.
          6    1    1    2  501    0 -0.55364590789E+02  0.12280264196E+03 -0.12666268708E+03  0.25253348903E+03  0.17200000000E+03 0.  1.
         -6    1    1    2    0  502  0.55364590789E+02 -0.12280264196E+03  0.31700659115E+03  0.38499728001E+03  0.17200000000E+03 0.  1.
</event>
<event>
 4    1  0.1211980E+000  0.1785416E+03  0.7818608E-02  0.1169222E+00
         21   -1    0    0  501  502  0.00000000000E+00  0.00000000000E+00  0.13636129340E+03  0.13636129340E+03  0.00000000000E+00 0. -1.
         21   -1    0    0  502  503 -0.00000000000E+00 -0.00000000000E+00 -0.27085072395E+03  0.27085072395E+03  0.00000000000E+00 0. -1.
          6    1    1    2  501    0  0.12990909083E+02  0.46090380484E+02  0.80914780499E+01  0.17872481336E+03  0.17200000000E+03 0.  1.
         -6    1    1    2    0  503 -0.12990909083E+02 -0.46090380484E+02 -0.14258090860E+03  0.22848720400E+03  0.17200000000E+03 0.  1.
</event>
<event>
 4    1  0.1211980E+000  0.3008244E+03  0.7818608E-02  0.1084829E+00
         21   -1    0    0  501  502  0.00000000000E+00  0.00000000000E+00  0.91823443468E+02  0.91823443468E+02  0.00000000000E+00 0. -1.
         21   -1    0    0  502  503 -0.00000000000E+00 -0.00000000000E+00 -0.29369099192E+04  0.29369099192E+04  0.00000000000E+00 0.  1.
          6    1    1    2  501    0  0.17385379330E+03 -0.17517467656E+03 -0.18814304355E+03  0.35481419587E+03  0.17200000000E+03 0. -1.
         -6    1    1    2    0  503 -0.17385379330E+03  0.17517467656E+03 -0.26569434322E+04  0.26739191669E+04  0.17200000000E+03 0.  1.
</event>
<event>
 4    1  0.1211980E+000  0.1861954E+03  0.7818608E-02  0.1161938E+00
         21   -1    0    0  503  502  0.00000000000E+00  0.00000000000E+00  0.40592871546E+03  0.40592871546E+03  0.00000000000E+00 0. -1.
         21   -1    0    0  501  503 -0.00000000000E+00 -0.00000000000E+00 -0.21399563754E+03  0.21399563754E+03  0.00000000000E+00 0. -1.
          6    1    1    2  501    0  0.69401852059E+02 -0.16374423668E+02 -0.14430883701E+03  0.23557117663E+03  0.17200000000E+03 0. -1.
         -6    1    1    2    0  502 -0.69401852059E+02  0.16374423668E+02  0.33624191494E+03  0.38435317636E+03  0.17200000000E+03 0. -1.
</event>
<event>
 4    1  0.1211980E+000  0.2199603E+03  0.7818608E-02  0.1133913E+00
         21   -1    0    0  503  502  0.00000000000E+00  0.00000000000E+00  0.83308379907E+02  0.83308379907E+02  0.00000000000E+00 0. -1.
         21   -1    0    0  501  503 -0.00000000000E+00 -0.00000000000E+00 -0.81129873021E+03  0.81129873021E+03  0.00000000000E+00 0.  1.
          6    1    1    2  501    0 -0.12672062149E+03 -0.52349105724E+02 -0.60243550612E+03  0.64133539105E+03  0.17200000000E+03 0. -1.
         -6    1    1    2    0  502  0.12672062149E+03  0.52349105724E+02 -0.12555484418E+03  0.25327171907E+03  0.17200000000E+03 0.  1.
</event>
<event>
 4    1  0.1211980E+000  0.2311833E+03  0.7818608E-02  0.1125810E+00
         21   -1    0    0  503  502  0.00000000000E+00  0.00000000000E+00  0.13560903868E+03  0.13560903868E+03  0.00000000000E+00 0.  1.
         21   -1    0    0  501  503 -0.00000000000E+00 -0.00000000000E+00 -0.73073163911E+03  0.73073163911E+03  0.00000000000E+00 0.  1.
          6    1    1    2  501    0 -0.14694692305E+03  0.47627025589E+02 -0.59156088023E+03  0.63512991330E+03  0.17200000000E+03 0.  1.
         -6    1    1    2    0  502  0.14694692305E+03 -0.47627025589E+02 -0.35617202102E+01  0.23121076448E+03  0.17200000000E+03 0.  1.
</event>
<event>
 4    1  0.1211980E+000  0.2425817E+03  0.7818608E-02  0.1118085E+00
         21   -1    0    0  503  502  0.00000000000E+00  0.00000000000E+00  0.20587794621E+04  0.20587794621E+04  0.00000000000E+00 0. -1.
         21   -1    0    0  501  503 -0.00000000000E+00 -0.00000000000E+00 -0.36343824069E+02  0.36343824069E+02  0.00000000000E+00 0. -1.
          6    1    1    2  501    0  0.17064262146E+03  0.11957339646E+02  0.52713344277E+03  0.58027196099E+03  0.17200000000E+03 0. -1.
         -6    1    1    2    0  502 -0.17064262146E+03 -0.11957339646E+02  0.14953021953E+04  0.15148513252E+04  0.17200000000E+03 0. -1.
</event>
<event>
 4    1  0.1211980E+000  0.1738475E+03  0.7818608E-02  0.1173894E+00
         21   -1    0    0  501  502  0.00000000000E+00  0.00000000000E+00  0.43154272942E+02  0.43154272942E+02  0.00000000000E+00 0. -1.
         21   -1    0    0  502  503 -0.00000000000E+00 -0.00000000000E+00 -0.81515910636E+03  0.81515910636E+03  0.00000000000E+00 0. -1.
          6    1    1    2  501    0 -0.11022746819E+02  0.22747491029E+02 -0.22494183959E+03  0.28429171724E+03  0.17200000000E+03 0. -1.
         -6    1    1    2    0  503  0.11022746819E+02 -0.22747491029E+02 -0.54706299383E+03  0.57402166206E+03  0.17200000000E+03 0. -1.
</event>
<event>
 4    1  0.1211980E+000  0.2380987E+03  0.7818608E-02  0.1121066E+00
         21   -1    0    0  503  502  0.00000000000E+00  0.00000000000E+00  0.48974059324E+03  0.48974059324E+03  0.00000000000E+00 0. -1.
         21   -1    0    0  501  503 -0.00000000000E+00 -0.00000000000E+00 -0.13941581435E+03  0.13941581435E+03  0.00000000000E+00 0. -1.
          6    1    1    2  501    0  0.15468454560E+03 -0.56388855258E+02  0.45573717542E+02  0.24242107040E+03  0.17200000000E+03 0.  1.
         -6    1    1    2    0  502 -0.15468454560E+03  0.56388855258E+02  0.30475106135E+03  0.38673533720E+03  0.17200000000E+03 0.  1.
</event>
<event>
 4    1  0.1211980E+000  0.2884611E+03  0.7818608E-02  0.1091155E+00
         21   -1    0    0  501  502  0.00000000000E+00  0.00000000000E+00  0.24055846657E+03  0.24055846657E+03  0.00000000000E+00 0. -1.
         21   -1    0    0  502  503 -0.00000000000E+00 -0.00000000000E+00 -0.40635872488E+03  0.40635872488E+03  0.00000000000E+00 0. -1.
          6    1    1    2  501    0  0.21892864369E+02  0.23053529953E+03  0.41862269273E+02  0.29148288360E+03  0.17200000000E+03 0. -1.
         -6    1    1    2    0  503 -0.21892864369E+02 -0.23053529953E+03 -0.20766252759E+03  0.35543430786E+03  0.17200000000E+03 0. -1.
</event>
<event>
 4    1  0.1211980E+000  0.1918820E+03  0.7818608E-02  0.1156775E+00
         21   -1    0    0  503  502  0.00000000000E+00  0.00000000000E+00  0.47135721458E+03  0.47135721458E+03  0.00000000000E+00 0.  1.
         21   -1    0    0  501  503 -0.00000000000E+00 -0.00000000000E+00 -0.78116968666E+02  0.78116968666E+02  0.00000000000E+00 0.  1.
          6    1    1    2  501    0  0.66988983934E+02 -0.52413481132E+02  0.19444885459E+03  0.27318318767E+03  0.17200000000E+03 0. -1.
         -6    1    1    2    0  502 -0.66988983934E+02  0.52413481132E+02  0.19879139132E+03  0.27629099558E+03  0.17200000000E+03 0. -1.
</event>
<event>
 4    1  0.1211980E+000  0.2124261E+03  0.7818608E-02  0.1139659E+00
         21   -1    0    0  503  502  0.00000000000E+00  0.00000000000E+00  0.15348031117E+03  0.15348031117E+03  0.00000000000E+00 0. -1.
         21   -1    0    0  501  503 -0.00000000000E+00 -0.00000000000E+00 -0.37158635449E+03  0.37158635449E+03  0.00000000000E+00 0.  1.
          6    1    1    2  501    0 -0.91317560958E+02  0.84864354541E+02 -0.22900772003E+03  0.31236099540E+03  0.17200000000E+03 0.  1.
         -6    1    1    2    0  502  0.91317560958E+02 -0.84864354541E+02  0.10901676711E+02  0.21270567027E+03  0.17200000000E+03 0. -1.
</event>
<event>
 4    1  0.1211980E+000  0.1915157E+03  0.7818608E-02  0.1157101E+00
         21   -1    0    0  503  502  0.00000000000E+00  0.00000000000E+00  0.22607425143E+03  0.22607425143E+03  0.00000000000E+00 0.  1.
         21   -1    0    0  501  503 -0.00000000000E+00 -0.00000000000E+00 -0.37681847487E+03  0.37681847487E+03  0.00000000000E+00 0.  1.
          6    1    1    2  501    0  0.68690813256E+02  0.48742497010E+02 -0.30284893569E+03  0.35832350842E+03  0.17200000000E+03 0.  1.
         -6    1    1    2    0  502 -0.68690813256E+02 -0.48742497010E+02  0.15210471225E+03  0.24456921787E+03  0.17200000000E+03 0.  1.
</event>
<event>
 4    1  0.1211980E+000  0.2478316E+03  0.7818608E-02  0.1114683E+00
         21   -1    0    0  503  502  0.00000000000E+00  0.00000000000E+00  0.29424239684E+03  0.29424239684E+03  0.00000000000E+00 0.  1.
         21   -1    0    0  501  503 -0.00000000000E+00 -0.00000000000E+00 -0.48255266614E+03  0.48255266614E+03  0.00000000000E+00 0.  1.
          6    1    1    2  501    0 -0.17814290842E+03 -0.10080368096E+02 -0.38672522131E+03  0.45932222506E+03  0.17200000000E+03 0.  1.
         -6    1    1    2    0  502  0.17814290842E+03  0.10080368096E+02  0.19841495201E+03  0.31747283792E+03  0.17200000000E+03 0.  1.
</event>
<event>
 4    1  0.1211980E+000  0.2143100E+03  0.7818608E-02  0.1138198E+00
         21   -1    0    0  501  502  0.00000000000E+00  0.00000000000E+00  0.14359868938E+03  0.14359868938E+03  0.00000000000E+00 0.  1.
         21   -1    0    0  502  503 -0.00000000000E+00 -0.00000000000E+00 -0.32604221460E+03  0.32604221460E+03  0.00000000000E+00 0.  1.
          6    1    1    2  501    0 -0.11420626886E+03 -0.57460458660E+02 -0.58837753245E+02  0.22224008946E+03  0.17200000000E+03 0.  1.
         -6    1    1    2    0  503  0.11420626886E+03  0.57460458660E+02 -0.12360577197E+03  0.24740081451E+03  0.17200000000E+03 0.  1.
</event>
<event>
 4    1  0.1211980E+000  0.1808578E+03  0.7818608E-02  0.1166975E+00
         21   -1    0    0  501  502  0.00000000000E+00  0.00000000000E+00  0.30789645646E+03  0.30789645646E+03  0.00000000000E+00 0. -1.
         21   -1    0    0  502  503 -0.00000000000E+00 -0.00000000000E+00 -0.11200661122E+03  0.11200661122E+03  0.00000000000E+00 0.  1.
          6    1    1    2  501    0 -0.17859042995E+02 -0.52977461163E+02  0.14560164362E+03  0.23218396894E+03  0.17200000000E+03 0. -1.
         -6    1    1    2    0  503  0.17859042995E+02  0.52977461163E+02  0.50288201619E+02  0.18771909874E+03  0.17200000000E+03 0. -1.
</event>
<event>
 4    1  0.1211980E+000  0.1806177E+03  0.7818608E-02  0.1167207E+00
         21   -1    0    0  503  502  0.00000000000E+00  0.00000000000E+00  0.11494162345E+04  0.11494162345E+04  0.00000000000E+00 0.  1.
         21   -1    0    0  501  503 -0.00000000000E+00 -0.00000000000E+00 -0.30782257758E+02  0.30782257758E+02  0.00000000000E+00 0.  1.
          6    1    1    2  501    0  0.42522578495E+02  0.35079727147E+02  0.39453802410E+03  0.43391590130E+03  0.17200000000E+03 0.  1.
         -6    1    1    2    0  502 -0.42522578495E+02 -0.35079727147E+02  0.72409595269E+03  0.74628259101E+03  0.17200000000E+03 0.  1.
</event>
<event>
 4    1  0.1211980E+000  0.2099321E+03  0.7818608E-02  0.1141620E+00
         21   -1    0    0  503  502  0.00000000000E+00  0.00000000000E+00  0.74390388163E+03  0.74390388163E+03  0.00000000000E+00 0.  1.
         21   -1    0    0  501  503 -0.00000000000E+00 -0.00000000000E+00 -0.15188259900E+03  0.15188259900E+03  0.00000000000E+00 0.  1.
          6    1    1    2  501    0 -0.11333052086E+03 -0.40542293134E+02 -0.53787592497E+02  0.21671315050E+03  0.17200000000E+03 0.  1.
         -6    1    1    2    0  502  0.11333052086E+03  0.40542293134E+02  0.64580887513E+03  0.67907333013E+03  0.17200000000E+03 0.  1.
</event>
<event>
 4    1  0.1211980E+000  0.3088245E+03  0.7818608E-02  0.1080911E+00
         21   -1    0    0  503  502  0.00000000000E+00  0.00000000000E+00  0.16507443079E+04  0.16507443079E+04  0.00000000000E+00 0.  1.
         21   -1    0    0  501  503 -0.00000000000E+00 -0.00000000000E+00 -0.12111790223E+03  0.12111790223E+03  0.00000000000E+00 0. -1.
          6    1    1    2  501    0  0.54191380318E+02 -0.25070278679E+03  0.12413047920E+03  0.33283775157E+03  0.17200000000E+03 0.  1.
         -6    1    1    2    0  502 -0.54191380318E+02  0.25070278679E+03  0.14054959264E+04  0.14390244585E+04  0.17200000000E+03 0. -1.
</event>
<event>
 4    1  0.1211980E+000  0.2983460E+03  0.7818608E-02  0.1086070E+00
         21   -1    0    0  501  502  0.00000000000E+00  0.00000000000E+00  0.28196063886E+03  0.28196063886E+03  0.00000000000E+00 0. -1.
         21   -1    0    0  502  503 -0.00000000000E+00 -0.00000000000E+00 -0.34909593140E+03  0.34909593140E+03  0.00000000000E+00 0. -1.
          6    1    1    2  501    0  0.24178605096E+03  0.31078194493E+02  0.64047973245E+02  0.30514339496E+03  0.17200000000E+03 0. -1.
         -6    1    1    2    0  503 -0.24178605096E+03 -0.31078194493E+02 -0.13118326579E+03  0.32591317530E+03  0.17200000000E+03 0. -1.
</event>
<event>
 4    1  0.1211980E+000  0.2539113E+03  0.7818608E-02  0.1110858E+00
         21   -1    0    0  503  502  0.00000000000E+00  0.00000000000E+00  0.97092786244E+02  0.97092786244E+02  0.00000000000E+00 0. -1.
         21   -1    0    0  501  503 -0.00000000000E+00 -0.00000000000E+00 -0.66401388418E+03  0.66401388418E+03  0.00000000000E+00 0.  1.
          6    1    1    2  501    0  0.18627640519E+03 -0.13713434624E+02 -0.28342089955E+03  0.38052380178E+03  0.17200000000E+03 0. -1.
         -6    1    1    2    0  502 -0.18627640519E+03  0.13713434624E+02 -0.28350019838E+03  0.38058286864E+03  0.17200000000E+03 0. -1.
</event>
<event>
 4    1  0.1211980E+000  0.1863764E+03  0.7818608E-02  0.1161771E+00
         21   -1    0    0  501  502  0.00000000000E+00  0.00000000000E+00  0.72629769261E+03  0.72629769261E+03  0.00000000000E+00 0. -1.
         21   -1    0    0  502  503 -0.00000000000E+00 -0.00000000000E+00 -0.10183018835E+03  0.10183018835E+03  0.00000000000E+00 0. -1.
          6    1    1    2  501    0  0.55347316584E+02  0.45703828592E+02  0.61377134532E+03  0.64144479867E+03  0.17200000000E+03 0.  1.
         -6    1    1    2    0  503 -0.55347316584E+02 -0.45703828592E+02  0.10696158937E+02  0.18668308230E+03  0.17200000000E+03 0.  1.
</event>
<event>
 4    1  0.1211980E+000  0.1840769E+03  0.7818608E-02  0.1163915E+00
         21   -1    0    0  501  502  0.00000000000E+00  0.00000000000E+00  0.20953631232E+03  0.20953631232E+03  0.00000000000E+00 0.  1.
         21   -1    0    0  502  503 -0.00000000000E+00 -0.00000000000E+00 -0.16950891747E+03  0.16950891747E+03  0.00000000000E+00 0.  1.
          6    1    1    2  501    0 -0.62324883686E+01 -0.65279964822E+02  0.60663202538E+02  0.19381522608E+03  0.17200000000E+03 0.  1.
         -6    1    1    2    0  503  0.62324883686E+01  0.65279964822E+02 -0.20635807690E+02  0.18523000372E+03  0.17200000000E+03 0.  1.
</event>
<event>
 4    1  0.1211980E+000  0.2299348E+03  0.7818608E-02  0.1126686E+00
         21   -1    0    0  503  502  0.00000000000E+00  0.00000000000E+00  0.76926832886E+02  0.76926832886E+02  0.00000000000E+00 0. -1.
         21   -1    0    0  501  503 -0.00000000000E+00 -0.00000000000E+00 -0.14742520705E+04  0.14742520705E+04  0.00000000000E+00 0.  1.
          6    1    1    2  501    0 -0.12865333427E+03 -0.82063055368E+02 -0.12653278556E+04  0.12860500020E+04  0.17200000000E+03 0. -1.
         -6    1    1    2    0  502  0.12865333427E+03  0.82063055368E+02 -0.13199738195E+03  0.26512890132E+03  0.17200000000E+03 0. -1.
</event>
<event>
 4    1  0.1211980E+000  0.1833296E+03  0.7818608E-02  0.1164619E+00
         21   -1    0    0  501  502  0.00000000000E+00  0.00000000000E+00  0.55687216823E+03  0.55687216823E+03  0.00000000000E+00 0.  1.
         21   -1    0    0  502  503 -0.00000000000E+00 -0.00000000000E+00 -0.60357526017E+02  0.60357526017E+02  0.00000000000E+00 0. -1.
          6    1    1    2  501    0 -0.47015962700E+02 -0.42605554186E+02  0.25044721496E+03  0.31037645123E+03  0.17200000000E+03 0. -1.
         -6    1    1    2    0  503  0.47015962700E+02  0.42605554186E+02  0.24606742725E+03  0.30685324302E+03  0.17200000000E+03 0.  1.
</event>
<event>
 4    1  0.1211980E+000  0.2357055E+03  0.7818608E-02  0.1122687E+00
         21   -1    0    0  501  502  0.00000000000E+00  0.00000000000E+00  0.24607180209E+03  0.24607180209E+03  0.00000000000E+00 0.  1.
         21   -1    0    0  502  503 -0.00000000000E+00 -0.00000000000E+00 -0.29639128040E+03  0.29639128040E+03  0.00000000000E+00 0. -1.
          6    1    1    2  501    0  0.15537220032E+02 -0.16041093659E+03 -0.15755036701E+03  0.28351224300E+03  0.17200000000E+03 0. -1.
         -6    1    1    2    0  503 -0.15537220032E+02  0.16041093659E+03  0.10723088870E+03  0.25895083949E+03  0.17200000000E+03 0.  1.
</event>
<event>
 4    1  0.1211980E+000  0.1726940E+03  0.7818608E-02  0.1175067E+00
         21   -1    0    0  503  502  0.00000000000E+00  0.00000000000E+00  0.32096488159E+03  0.32096488159E+03  0.00000000000E+00 0.  1.
         21   -1    0    0  501  503 -0.00000000000E+00 -0.00000000000E+00 -0.11303600965E+03  0.11303600965E+03  0.00000000000E+00 0.  1.
          6    1    1    2  501    0  0.17635594005E+01 -0.15365796936E+02  0.19551296022E+03  0.26086114213E+03  0.17200000000E+03 0.  1.
         -6    1    1    2    0  502 -0.17635594005E+01  0.15365796936E+02  0.12415911711E+02  0.17313974911E+03  0.17200000000E+03 0.  1.
</event>
<event>
 4    1  0.1211980E+000  0.2327712E+03  0.7818608E-02  0.1124704E+00
         21   -1    0    0  501  502  0.00000000000E+00  0.00000000000E+00  0.27914448552E+03  0.27914448552E+03  0.00000000000E+00 0. -1.
         21   -1    0    0  502  503 -0.00000000000E+00 -0.00000000000E+00 -0.20476344122E+03  0.20476344122E+03  0.00000000000E+00 0. -1.
          6    1    1    2  501    0 -0.90087661763E+02 -0.12838476413E+03  0.92400743032E+02  0.25044027587E+03  0.17200000000E+03 0. -1.
         -6    1    1    2    0  503  0.90087661763E+02  0.12838476413E+03 -0.18019698732E+02  0.23346765087E+03  0.17200000000E+03 0. -1.
</event>
<event>
 4    1  0.1211980E+000  0.2196892E+03  0.7818608E-02  0.1134115E+00
         21   -1    0    0  501  502  0.00000000000E+00  0.00000000000E+00  0.68295601229E+02  0.68295601229E+02  0.00000000000E+00 0. -1.
         21   -1    0    0  502  503 -0.00000000000E+00 -0.00000000000E+00 -0.75147704829E+03  0.75147704829E+03  0.00000000000E+00 0.  1.
          6    1    1    2  501    0  0.13048550782E+03 -0.40655691152E+02 -0.24151820490E+03  0.32648797263E+03  0.17200000000E+03 0. -1.
         -6    1    1    2    0  503 -0.13048550782E+03  0.40655691152E+02 -0.44166324216E+03  0.49328467688E+03  0.17200000000E+03 0.  1.
</event>
<event>
 4    1  0.1211980E+000  0.1841579E+03  0.7818608E-02  0.1163839E+00
         21   -1    0    0  501  502  0.00000000000E+00  0.00000000000E+00  0.32457521176E+03  0.32457521176E+03  0.00000000000E+00 0.  1.
         21   -1    0    0  502  503 -0.00000000000E+00 -0.00000000000E+00 -0.10488607814E+03  0.10488607814E+03  0.00000000000E+00 0.  1.
          6    1    1    2  501    0 -0.11648203706E+02  0.64764612282E+02  0.96611755503E+02  0.20796145546E+03  0.17200000000E+03 0.  1.
         -6    1    1    2    0  503  0.11648203706E+02 -0.64764612282E+02  0.12307737811E+03  0.22149983444E+03  0.17200000000E+03 0.  1.
</event>
<event>
 4    1  0.1211980E+000  0.2339151E+03  0.7818608E-02  0.1123914E+00
         21   -1    0    0  503  502  0.00000000000E+00  0.00000000000E+00  0.35976287891E+03  0.35976287891E+03  0.00000000000E+00 0.  1.
         21   -1    0    0  501  503 -0.00000000000E+00 -0.00000000000E+00 -0.33066745574E+03  0.33066745574E+03  0.00000000000E+00 0. -1.
          6    1    1    2  501    0  0.31401382722E+02  0.15539056499E+03 -0.23914481040E+03  0.33452431133E+03  0.17200000000E+03 0. -1.
         -6    1    1    2    0  502 -0.31401382722E+02 -0.15539056499E+03  0.26824023358E+03  0.35590602332E+03  0.17200000000E+03 0. -1.
</event>
<event>
 4    1  0.1211980E+000  0.1764002E+03  0.7818608E-02  0.1171333E+00
         21   -1    0    0  503  502  0.00000000000E+00  0.00000000000E+00  0.31160614139E+03  0.31160614139E+03  0.00000000000E+00 0.  1.
         21   -1    0    0  501  503 -0.00000000000E+00 -0.00000000000E+00 -0.11411392503E+03  0.11411392503E+03  0.00000000000E+00 0.  1.
          6    1    1    2  501    0  0.35570472154E+02  0.16363947217E+02  0.23516345249E+02  0.17796082645E+03  0.17200000000E+03 0.  1.
         -6    1    1    2    0  502 -0.35570472154E+02 -0.16363947217E+02  0.17397587112E+03  0.24775923997E+03  0.17200000000E+03 0.  1.
</event>
<event>
 4    1  0.1211980E+000  0.2498230E+03  0.7818608E-02  0.1113417E+00
         21   -1    0    0  501  502  0.00000000000E+00  0.00000000000E+00  0.99854398532E+02  0.99854398532E+02  0.00000000000E+00 0.  1.
         21   -1    0    0  502  503 -0.00000000000E+00 -0.00000000000E+00 -0.87819771198E+03  0.87819771198E+03  0.00000000000E+00 0.  1.
          6    1    1    2  501    0  0.49825451254E+02  0.17419810073E+03 -0.12660244937E+03  0.28007094472E+03  0.17200000000E+03 0.  1.
         -6    1    1    2    0  503 -0.49825451254E+02 -0.17419810073E+03 -0.65174086408E+03  0.69798116580E+03  0.17200000000E+03 0.  1.
</event>
<event>
 4    1  0.1211980E+000  0.2139572E+03  0.7818608E-02  0.1138470E+00
         21   -1    0    0  501  502  0.00000000000E+00  0.00000000000E+00  0.22559226652E+03  0.22559226652E+03  0.00000000000E+00 0. -1.
         21   -1    0    0  502  503 -0.00000000000E+00 -0.00000000000E+00 -0.20447036886E+03  0.20447036886E+03  0.00000000000E+00 0. -1.
          6    1    1    2  501    0 -0.33359044200E+01 -0.12721065561E+03  0.29271888877E+02  0.21595027816E+03  0.17200000000E+03 0.  1.
         -6    1    1    2    0  503  0.33359044200E+01  0.12721065561E+03 -0.81499912215E+01  0.21411235722E+03  0.17200000000E+03 0.  1.
</event>
<event>
 4    1  0.1211980E+000  0.1921799E+03  0.7818608E-02  0.1156510E+00
         21   -1    0    0  503  502  0.00000000000E+00  0.00000000000E+00  0.39811508847E+03  0.39811508847E+03  0.00000000000E+00 0. -1.
         21   -1    0    0  501  503 -0.00000000000E+00 -0.00000000000E+00 -0.45571048346E+03  0.45571048346E+03  0.00000000000E+00 0. -1.
          6    1    1    2  501    0 -0.74887363799E+02  0.41725274127E+02 -0.40978665693E+03  0.45261265996E+03  0.17200000000E+03 0. -1.
         -6    1    1    2    0  502  0.74887363799E+02 -0.41725274127E+02  0.35219126193E+03  0.40121291198E+03  0.17200000000E+03 0. -1.
</event>
<event>
 4    1  0.1211980E+000  0.2217139E+03  0.7818608E-02  0.1132612E+00
         21   -1    0    0  501  502  0.00000000000E+00  0.00000000000E+00  0.61755493423E+03  0.61755493423E+03  0.00000000000E+00 0.  1.
         21   -1    0    0  502  503 -0.00000000000E+00 -0.00000000000E+00 -0.10918065520E+03  0.10918065520E+03  0.00000000000E+00 0. -1.
          6    1    1    2  501    0  0.11352315878E+03  0.81765284020E+02  0.44332613906E+03  0.49567644167E+03  0.17200000000E+03 0.  1.
         -6    1    1    2    0  503 -0.11352315878E+03 -0.81765284020E+02  0.65048139978E+02  0.23105914776E+03  0.17200000000E+03 0. -1.
</event>
<event>
 4    1  0.1211980E+000  0.2451207E+03  0.7818608E-02  0.1116428E+00
         21   -1    0    0  503  502  0.00000000000E+00  0.00000000000E+00  0.41999692170E+02  0.41999692170E+02  0.00000000000E+00 0. -1.
         21   -1    0    0  501  503 -0.00000000000E+00 -0.00000000000E+00 -0.14324571159E+04  0.14324571159E+04  0.00000000000E+00 0.  1.
          6    1    1    2  501    0  0.17213245874E+03  0.29505082555E+02 -0.66857746067E+03  0.71209546703E+03  0.17200000000E+03 0.  1.
         -6    1    1    2    0  502 -0.17213245874E+03 -0.29505082555E+02 -0.72187996308E+03  0.76236134106E+03  0.17200000000E+03 0. -1.
</event>
<event>
 4    1  0.1211980E+000  0.2008108E+03  0.7818608E-02  0.1149057E+00
         21   -1    0    0  503  502  0.00000000000E+00  0.00000000000E+00  0.11889229061E+03  0.11889229061E+03  0.00000000000E+00 0.  1.
         21   -1    0    0  501  503 -0.00000000000E+00 -0.00000000000E+00 -0.36119386532E+03  0.36119386532E+03  0.00000000000E+00 0. -1.
          6    1    1    2  501    0 -0.65099978482E+02  0.80641032996E+02 -0.18042176944E+03  0.26995740088E+03  0.17200000000E+03 0. -1.
         -6    1    1    2    0  502  0.65099978482E+02 -0.80641032996E+02 -0.61879805262E+02  0.21012875505E+03  0.17200000000E+03 0. -1.
</event>
<event>
 4    1  0.1211980E+000  0.1853374E+03  0.7818608E-02  0.1162735E+00
         21   -1    0    0  501  502  0.00000000000E+00  0.00000000000E+00  0.35048682611E+03  0.35048682611E+03  0.00000000000E+00 0.  1.
         21   -1    0    0  502  503 -0.00000000000E+00 -0.00000000000E+00 -0.20656671135E+03  0.20656671135E+03  0.00000000000E+00 0.  1.
          6    1    1    2  501    0 -0.67650844662E+02 -0.13758565795E+02  0.27387683705E+03  0.33069390195E+03  0.17200000000E+03 0.  1.
         -6    1    1    2    0  503  0.67650844662E+02  0.13758565795E+02 -0.12995672230E+03  0.22635963551E+03  0.17200000000E+03 0.  1.
</event>
<event>
 4    1  0.1211980E+000  0.1997901E+03  0.7818608E-02  0.1149916E+00
         21   -1    0    0  503  502  0.00000000000E+00  0.00000000000E+00  0.47613209099E+03  0.47613209099E+03  0.00000000000E+00 0.  1.
         21   -1    0    0  501  503 -0.00000000000E+00 -0.00000000000E+00 -0.86140309221E+02  0.86140309221E+02  0.00000000000E+00 0. -1.
          6    1    1    2  501    0 -0.37346432016E+02  0.94537448908E+02  0.14899493206E+03  0.24922996411E+03  0.17200000000E+03 0.  1.
         -6    1    1    2    0  502  0.37346432016E+02 -0.94537448908E+02  0.24099684971E+03  0.31304243610E+03  0.17200000000E+03 0.  1.
</event>
<event>
 4    1  0.1211980E+000  0.3427019E+03  0.7818608E-02  0.1065651E+00
         21   -1    0    0  503  502  0.00000000000E+00  0.00000000000E+00  0.22135724742E+03  0.22135724742E+03  0.00000000000E+00 0. -1.
         21   -1    0    0  501  503 -0.00000000000E+00 -0.00000000000E+00 -0.53073327645E+03  0.53073327645E+03  0.00000000000E+00 0.  1.
          6    1    1    2  501    0  0.29164398679E+03 -0.52956405307E+02 -0.16136707484E+03  0.37879272530E+03  0.17200000000E+03 0.  1.
         -6    1    1    2    0  502 -0.29164398679E+03  0.52956405307E+02 -0.14800895419E+03  0.37329779857E+03  0.17200000000E+03 0.  1.
</event>
<event>
 4    1  0.1211980E+000  0.1910064E+03  0.7818608E-02  0.1157557E+00
         21   -1    0    0  503  502  0.00000000000E+00  0.00000000000E+00  0.15954398297E+02  0.15954398297E+02  0.00000000000E+00 0. -1.
         21   -1    0    0  501  503 -0.00000000000E+00 -0.00000000000E+00 -0.27788126839E+04  0.27788126839E+04  0.00000000000E+00 0. -1.
          6    1    1    2  501    0 -0.27421904868E+02 -0.78405798670E+02 -0.19694655684E+04  0.19787061569E+04  0.17200000000E+03 0. -1.
         -6    1    1    2    0  502  0.27421904868E+02  0.78405798670E+02 -0.79339271719E+03  0.81606092532E+03  0.17200000000E+03 0. -1.
</event>
<event>
 4    1  0.1211980E+000  0.2084524E+03  0.7818608E-02  0.1142797E+00
         21   -1    0    0  501  502  0.00000000000E+00  0.00000000000E+00  0.48484262123E+02  0.48484262123E+02  0.00000000000E+00 0.  1.
         21   -1    0    0  502  503 -0.00000000000E+00 -0.00000000000E+00 -0.92042363779E+03  0.92042363779E+03  0.00000000000E+00 0. -1.
          6    1    1    2  501    0 -0.44827096067E+02  0.10889875995E+03 -0.35740489301E+03  0.41375193777E+03  0.17200000000E+03 0.  1.
         -6    1    1    2    0  503  0.44827096067E+02 -0.10889875995E+03 -0.51453448265E+03  0.55515596214E+03  0.17200000000E+03 0. -1.
</event>
<event>
 4    1  0.1211980E+000  0.1994012E+03  0.7818608E-02  0.1150245E+00
         21   -1    0    0  503  502  0.00000000000E+00  0.00000000000E+00  0.11283437954E+04  0.11283437954E+04  0.00000000000E+00 0. -1.
         21   -1    0    0  501  503 -0.00000000000E+00 -0.00000000000E+00 -0.41510414511E+02  0.41510414511E+02  0.00000000000E+00 0. -1.
          6    1    1    2  501    0 -0.68761772184E+02  0.73814978687E+02  0.31604687882E+03  0.37369300502E+03  0.17200000000E+03 0. -1.
         -6    1    1    2    0  502  0.68761772184E+02 -0.73814978687E+02  0.77078650203E+03  0.79616120485E+03  0.17200000000E+03 0. -1.
</event>
<event>
 4    1  0.1211980E+000  0.1788065E+03  0.7818608E-02  0.1168963E+00
         21   -1    0    0  501  502  0.00000000000E+00  0.00000000000E+00  0.11677241981E+03  0.11677241981E+03  0.00000000000E+00 0. -1.
         21   -1    0    0  502  503 -0.00000000000E+00 -0.00000000000E+00 -0.39198405472E+03  0.39198405472E+03  0.00000000000E+00 0.  1.
          6    1    1    2  501    0 -0.31262109292E+02  0.37556120020E+02 -0.27728547833E+03  0.32993790040E+03  0.17200000000E+03 0.  1.
         -6    1    1    2    0  503  0.31262109292E+02 -0.37556120020E+02  0.20738434178E+01  0.17881857413E+03  0.17200000000E+03 0. -1.
</event>
<event>
 4    1  0.1211980E+000  0.2219312E+03  0.7818608E-02  0.1132451E+00
         21   -1    0    0  501  502  0.00000000000E+00  0.00000000000E+00  0.22786658026E+03  0.22786658026E+03  0.00000000000E+00 0.  1.
         21   -1    0    0  502  503 -0.00000000000E+00 -0.00000000000E+00 -0.21622657172E+03  0.21622657172E+03  0.00000000000E+00 0. -1.
          6    1    1    2  501    0 -0.62098393433E+02  0.12575073849E+03  0.99868603234E+01  0.22215579236E+03  0.17200000000E+03 0. -1.
         -6    1    1    2    0  503  0.62098393433E+02 -0.12575073849E+03  0.16531482129E+01  0.22193735962E+03  0.17200000000E+03 0.  1.
</event>
<event>
 4    1  0.1211980E+000  0.1904966E+03  0.7818608E-02  0.1158014E+00
         21   -1    0    0  503  502  0.00000000000E+00  0.00000000000E+00  0.61552369433E+02  0.61552369433E+02  0.00000000000E+00 0. -1.
         21   -1    0    0  501  503 -0.00000000000E+00 -0.00000000000E+00 -0.67869315856E+03  0.67869315856E+03  0.00000000000E+00 0. -1.
          6    1    1    2  501    0  0.56850733638E+02  0.58931878791E+02 -0.44269933140E+03  0.48194571300E+03  0.17200000000E+03 0. -1.
         -6    1    1    2    0  502 -0.56850733638E+02 -0.58931878791E+02 -0.17444145772E+03  0.25829981499E+03  0.17200000000E+03 0. -1.
</event>
<event>
 4    1  0.1211980E+000  0.1737545E+03  0.7818608E-02  0.1173988E+00
         21   -1    0    0  503  502  0.00000000000E+00  0.00000000000E+00  0.43716615755E+02  0.43716615755E+02  0.00000000000E+00 0. -1.
         21   -1    0    0  501  503 -0.00000000000E+00 -0.00000000000E+00 -0.69392176909E+03  0.69392176909E+03  0.00000000000E+00 0. -1.
          6    1    1    2  501    0  0.21636703963E+02  0.11767017032E+02 -0.29957730754E+03  0.34631946645E+03  0.17200000000E+03 0.  1.
         -6    1    1    2    0  502 -0.21636703963E+02 -0.11767017032E+02 -0.35062784579E+03  0.39131891839E+03  0.17200000000E+03 0.  1.
</event>
<event>
 4    1  0.1211980E+000  0.3010345E+03  0.7818608E-02  0.1084725E+00
         21   -1    0    0  503  502  0.00000000000E+00  0.00000000000E+00  0.76515052073E+03  0.76515052073E+03  0.00000000000E+00 0. -1.
         21   -1    0    0  501  503 -0.00000000000E+00 -0.00000000000E+00 -0.12300712435E+03  0.12300712435E+03  0.00000000000E+00 0.  1.
          6    1    1    2  501    0 -0.24212905226E+02  0.24586881860E+03  0.23546982905E+03  0.38218814887E+03  0.17200000000E+03 0. -1.
         -6    1    1    2    0  502  0.24212905226E+02 -0.24586881860E+03  0.40667356733E+03  0.50596949622E+03  0.17200000000E+03 0. -1.
</event>
<event>
 4    1  0.1211980E+000  0.1825426E+03  0.7818608E-02  0.1165365E+00
         21   -1    0    0  503  502  0.00000000000E+00  0.00000000000E+00  0.33935900471E+03  0.33935900471E+03  0.00000000000E+00 0.  1.
         21   -1    0    0  501  503 -0.00000000000E+00 -0.00000000000E+00 -0.12083431288E+03  0.12083431288E+03  0.00000000000E+00 0.  1.
          6    1    1    2  501    0 -0.33643033657E+02  0.51048308704E+02  0.96550212505E+01  0.18279771052E+03  0.17200000000E+03 0.  1.
         -6    1    1    2    0  502  0.33643033657E+02 -0.51048308704E+02  0.20886967058E+03  0.27739560707E+03  0.17200000000E+03 0.  1.
</event>
<event>
 4    1  0.1211980E+000  0.1741665E+03  0.7818608E-02  0.1173571E+00
         21   -1    0    0  501  502  0.00000000000E+00  0.00000000000E+00  0.58222248007E+02  0.58222248007E+02  0.00000000000E+00 0. -1.
         21   -1    0    0  502  503 -0.00000000000E+00 -0.00000000000E+00 -0.52828538412E+03  0.52828538412E+03  0.00000000000E+00 0. -1.
          6    1    1    2  501    0 -0.22706932439E+02  0.15309229302E+02 -0.20060130625E+03  0.26565929563E+03  0.17200000000E+03 0.  1.
         -6    1    1    2    0  503  0.22706932439E+02 -0.15309229302E+02 -0.26946182986E+03  0.32084833650E+03  0.17200000000E+03 0.  1.
</event>
<event>
 4    1  0.1211980E+000  0.1808120E+03  0.7818608E-02  0.1167019E+00
         21   -1    0    0  501  502  0.00000000000E+00  0.00000000000E+00  0.82188587205E+02  0.82188587205E+02  0.00000000000E+00 0.  1.
         21   -1    0    0  502  503 -0.00000000000E+00 -0.00000000000E+00 -0.13275093846E+04  0.13275093846E+04  0.00000000000E+00 0.  1.
          6    1    1    2  501    0  0.46743600827E+02  0.30397768368E+02 -0.32791466523E+02  0.18376144540E+03  0.17200000000E+03 0.  1.
         -6    1    1    2    0  503 -0.46743600827E+02 -0.30397768368E+02 -0.12125293308E+04  0.12259365264E+04  0.17200000000E+03 0.  1.
</event>
<event>
 4    1  0.1211980E+000  0.2153269E+03  0.7818608E-02  0.1137416E+00
         21   -1    0    0  501  502  0.00000000000E+00  0.00000000000E+00  0.51359446560E+03  0.51359446560E+03  0.00000000000E+00 0. -1.
         21   -1    0    0  502  503 -0.00000000000E+00 -0.00000000000E+00 -0.25653470127E+03  0.25653470127E+03  0.00000000000E+00 0. -1.
          6    1    1    2  501    0  0.48107346162E+02 -0.12028034055E+03  0.43852269992E+03  0.48853642180E+03  0.17200000000E+03 0. -1.
         -6    1    1    2    0  503 -0.48107346162E+02  0.12028034055E+03 -0.18146293559E+03  0.28159274506E+03  0.17200000000E+03 0. -1.
</event>
<event>
 4    1  0.1211980E+000  0.1923087E+03  0.7818608E-02  0.1156395E+00
         21   -1    0    0  501  502  0.00000000000E+00  0.00000000000E+00  0.22646956922E+03  0.22646956922E+03  0.00000000000E+00 0.  1.
         21   -1    0    0  502  503 -0.00000000000E+00 -0.00000000000E+00 -0.16532014974E+03  0.16532014974E+03  0.00000000000E+00 0.  1.
          6    1    1    2  501    0 -0.42112200560E+02 -0.75001375274E+02  0.89238816835E+01  0.19251566012E+03  0.17200000000E+03 0. -1.
         -6    1    1    2    0  503  0.42112200560E+02  0.75001375274E+02  0.52225537799E+02  0.19927405884E+03  0.17200000000E+03 0. -1.
</event>
<event>
 4    1  0.1211980E+000  0.2871571E+03  0.7818608E-02  0.1091843E+00
         21   -1    0    0  503  502  0.00000000000E+00  0.00000000000E+00  0.47257165446E+03  0.47257165446E+03  0.00000000000E+00 0.  1.
         21   -1    0    0  501  503 -0.00000000000E+00 -0.00000000000E+00 -0.21476169572E+03  0.21476169572E+03  0.00000000000E+00 0. -1.
          6    1    1    2  501    0  0.12190512317E+03  0.19497264387E+03 -0.19913584231E+02  0.28784673309E+03  0.17200000000E+03 0. -1.
         -6    1    1    2    0  502 -0.12190512317E+03 -0.19497264387E+03  0.27772354296E+03  0.39948661709E+03  0.17200000000E+03 0.  1.
</event>
<event>
 4    1  0.1211980E+000  0.1801108E+03  0.7818608E-02  0.1167696E+00
         21   -1    0    0  501  502  0.00000000000E+00  0.00000000000E+00  0.88187324014E+02  0.88187324014E+02  0.00000000000E+00 0. -1.
         21   -1    0    0  502  503 -0.00000000000E+00 -0.00000000000E+00 -0.42422563893E+03  0.42422563893E+03  0.00000000000E+00 0. -1.
          6    1    1    2  501    0  0.46194794134E+02 -0.26868880668E+02 -0.26141534663E+03  0.31745531844E+03  0.17200000000E+03 0. -1.
         -6    1    1    2    0  503 -0.46194794134E+02  0.26868880668E+02 -0.74622968284E+02  0.19495764450E+03  0.17200000000E+03 0. -1.
</event>
<event>
 4    1  0.1211980E+000  0.1998569E+03  0.7818608E-02  0.1149860E+00
         21   -1    0    0  503  502  0.00000000000E+00  0.00000000000E+00  0.91362531506E+02  0.91362531506E+02  0.00000000000E+00 0.  1.
         21   -1    0    0  501  503 -0.00000000000E+00 -0.00000000000E+00 -0.44660339427E+03  0.44660339427E+03  0.00000000000E+00 0. -1.
          6    1    1    2  501    0 -0.72390884585E+02 -0.71542658904E+02 -0.21667169614E+03  0.29477010724E+03  0.17200000000E+03 0. -1.
         -6    1    1    2    0  502  0.72390884585E+02  0.71542658904E+02 -0.13856916663E+03  0.24319581854E+03  0.17200000000E+03 0.  1.
</event>
<event>
 4    1  0.1211980E+000  0.3026318E+03  0.7818608E-02  0.1083932E+00
         21   -1    0    0  503  502  0.00000000000E+00  0.00000000000E+00  0.20214562643E+03  0.20214562643E+03  0.00000000000E+00 0. -1.
         21   -1    0    0  501  503 -0.00000000000E+00 -0.00000000000E+00 -0.51758782517E+03  0.51758782517E+03  0.00000000000E+00 0. -1.
          6    1    1    2  501    0  0.20797601102E+03  0.13692334296E+03 -0.28477591308E+03  0.41555185438E+03  0.17200000000E+03 0. -1.
         -6    1    1    2    0  502 -0.20797601102E+03 -0.13692334296E+03 -0.30666285665E+02  0.30418159722E+03  0.17200000000E+03 0. -1.
</event>
<event>
 4    1  0.1211980E+000  0.2127212E+03  0.7818608E-02  0.1139429E+00
         21   -1    0    0  503  502  0.00000000000E+00  0.00000000000E+00  0.68976396342E+02  0.68976396342E+02  0.00000000000E+00 0. -1.
         21   -1    0    0  501  503 -0.00000000000E+00 -0.00000000000E+00 -0.68267944951E+03  0.68267944951E+03  0.00000000000E+00 0. -1.
          6    1    1    2  501    0 -0.33107165778E+02 -0.12070721527E+03 -0.38111179775E+03  0.43645906868E+03  0.17200000000E+03 0. -1.
         -6    1    1    2    0  502  0.33107165778E+02  0.12070721527E+03 -0.23259125542E+03  0.31519677717E+03  0.17200000000E+03 0. -1.
</event>
<event>
 4    1  0.1211980E+000  0.3264093E+03  0.7818608E-02  0.1072737E+00
         21   -1    0    0  503  502  0.00000000000E+00  0.00000000000E+00  0.21478012641E+04  0.21478012641E+04  0.00000000000E+00 0.  1.
         21   -1    0    0  501  503 -0.00000000000E+00 -0.00000000000E+00 -0.49639689293E+02  0.49639689293E+02  0.00000000000E+00 0. -1.
          6    1    1    2  501    0  0.13168005655E+03  0.24417078953E+03  0.10202962694E+04  0.10712364301E+04  0.17200000000E+03 0.  1.
         -6    1    1    2    0  502 -0.13168005655E+03 -0.24417078953E+03  0.10778653054E+04  0.11262045233E+04  0.17200000000E+03 0.  1.
</event>
<event>
 4    1  0.1211980E+000  0.1962202E+03  0.7818608E-02  0.1152968E+00
         21   -1    0    0  503  502  0.00000000000E+00  0.00000000000E+00  0.23614472394E+03  0.23614472394E+03  0.00000000000E+00 0. -1.
         21   -1    0    0  501  503 -0.00000000000E+00 -0.00000000000E+00 -0.17516530815E+03  0.17516530815E+03  0.00000000000E+00 0. -1.
          6    1    1    2  501    0  0.92524867809E+02 -0.18907807303E+02 -0.23605834558E+02  0.19763499631E+03  0.17200000000E+03 0. -1.
         -6    1    1    2    0  502 -0.92524867809E+02  0.18907807303E+02  0.84585250342E+02  0.21367503578E+03  0.17200000000E+03 0. -1.
</event>
<event>
 4    1  0.1211980E+000  0.3180859E+03  0.7818608E-02  0.1076534E+00
         21   -1    0    0  501  502  0.00000000000E+00  0.00000000000E+00  0.11890699979E+04  0.11890699979E+04  0.00000000000E+00 0. -1.
         21   -1    0    0  502  503 -0.00000000000E+00 -0.00000000000E+00 -0.86382045003E+02  0.86382045003E+02  0.00000000000E+00 0. -1.
          6    1    1    2  501    0 -0.26562604944E+03 -0.32208969827E+02  0.47336646679E+03  0.57031081680E+03  0.17200000000E+03 0. -1.
         -6    1    1    2    0  503  0.26562604944E+03  0.32208969827E+02  0.62932148612E+03  0.70514122612E+03  0.17200000000E+03 0. -1.
</event>
<event>
 4    1  0.1211980E+000  0.2129755E+03  0.7818608E-02  0.1139231E+00
         21   -1    0    0  501  502  0.00000000000E+00  0.00000000000E+00  0.62999795607E+02  0.62999795607E+02  0.00000000000E+00 0.  1.
         21   -1    0    0  502  503 -0.00000000000E+00 -0.00000000000E+00 -0.71998424915E+03  0.71998424915E+03  0.00000000000E+00 0.  1.
          6    1    1    2  501    0  0.11704139098E+03 -0.45561921751E+02 -0.32751155395E+03  0.39066916168E+03  0.17200000000E+03 0.  1.
         -6    1    1    2    0  503 -0.11704139098E+03  0.45561921751E+02 -0.32947289959E+03  0.39231488308E+03  0.17200000000E+03 0.  1.
</event>
<event>
 4    1  0.1211980E+000  0.2517352E+03  0.7818608E-02  0.1112213E+00
         21   -1    0    0  501  502  0.00000000000E+00  0.00000000000E+00  0.43789483936E+02  0.43789483936E+02  0.00000000000E+00 0. -1.
         21   -1    0    0  502  503 -0.00000000000E+00 -0.00000000000E+00 -0.15486942432E+04  0.15486942432E+04  0.00000000000E+00 0.  1.
          6    1    1    2  501    0 -0.25387540397E+02 -0.18204972507E+03 -0.54858078956E+03  0.60358223323E+03  0.17200000000E+03 0. -1.
         -6    1    1    2    0  503  0.25387540397E+02  0.18204972507E+03 -0.95632396976E+03  0.98890149395E+03  0.17200000000E+03 0.  1.
</event>
<event>
 4    1  0.1211980E+000  0.1972785E+03  0.7818608E-02  0.1152056E+00
         21   -1    0    0  503  502  0.00000000000E+00  0.00000000000E+00  0.13088193960E+03  0.13088193960E+03  0.00000000000E+00 0.  1.
         21   -1    0    0  501  503 -0.00000000000E+00 -0.00000000000E+00 -0.36324548567E+03  0.36324548567E+03  0.00000000000E+00 0.  1.
          6    1    1    2  501    0 -0.65528535548E+02  0.70998782312E+02 -0.22140453731E+03  0.29654474401E+03  0.17200000000E+03 0.  1.
         -6    1    1    2    0  502  0.65528535548E+02 -0.70998782312E+02 -0.10959008762E+02  0.19758268126E+03  0.17200000000E+03 0.  1.
</event>
<event>
 4    1  0.1211980E+000  0.2228399E+03  0.7818608E-02  0.1131783E+00
         21   -1    0    0  501  502  0.00000000000E+00  0.00000000000E+00  0.15131626582E+03  0.15131626582E+03  0.00000000000E+00 0.  1.
         21   -1    0    0  502  503 -0.00000000000E+00 -0.00000000000E+00 -0.37934110727E+03  0.37934110727E+03  0.00000000000E+00 0. -1.
          6    1    1    2  501    0  0.82603963883E+02 -0.11510956842E+03 -0.16563522947E+02  0.22345464391E+03  0.17200000000E+03 0.  1.
         -6    1    1    2    0  503 -0.82603963883E+02  0.11510956842E+03 -0.21146131850E+03  0.30720272918E+03  0.17200000000E+03 0. -1.
</event>
<event>
 4    1  0.1211980E+000  0.2575721E+03  0.7818608E-02  0.1108611E+00
         21   -1    0    0  501  502  0.00000000000E+00  0.00000000000E+00  0.16670034965E+03  0.16670034965E+03  0.00000000000E+00 0. -1.
         21   -1    0    0  502  503 -0.00000000000E+00 -0.00000000000E+00 -0.52057298408E+03  0.52057298408E+03  0.00000000000E+00 0. -1.
          6    1    1    2  501    0 -0.14076398795E+03  0.13017243973E+03 -0.10176301828E+02  0.25777300380E+03  0.17200000000E+03 0. -1.
         -6    1    1    2    0  503  0.14076398795E+03 -0.13017243973E+03 -0.34369633260E+03  0.42950032994E+03  0.17200000000E+03 0. -1.
</event>
<event>
 4    1  0.1211980E+000  0.1878875E+03  0.7818608E-02  0.1160381E+00
         21   -1    0    0  503  502  0.00000000000E+00  0.00000000000E+00  0.39572595077E+03  0.39572595077E+03  0.00000000000E+00 0.  1.
         21   -1    0    0  501  503 -0.00000000000E+00 -0.00000000000E+00 -0.89674517286E+02  0.89674517286E+02  0.00000000000E+00 0.  1.
          6    1    1    2  501    0 -0.66689351644E+02  0.35640458999E+02  0.13551052670E+03  0.23165667438E+03  0.17200000000E+03 0. -1.
         -6    1    1    2    0  502  0.66689351644E+02 -0.35640458999E+02  0.17054090679E+03  0.25374379367E+03  0.17200000000E+03 0. -1.
</event>
<event>
 4    1  0.1211980E+000  0.1879750E+03  0.7818608E-02  0.1160301E+00
         21   -1    0    0  503  502  0.00000000000E+00  0.00000000000E+00  0.83205427987E+03  0.83205427987E+03  0.00000000000E+00 0. -1.
         21   -1    0    0  501  503 -0.00000000000E+00 -0.00000000000E+00 -0.51728631406E+02  0.51728631406E+02  0.00000000000E+00 0. -1.
          6    1    1    2  501    0 -0.73728318738E+02  0.17740593159E+02  0.20318028416E+03  0.27679743767E+03  0.17200000000E+03 0. -1.
         -6    1    1    2    0  502  0.73728318738E+02 -0.17740593159E+02  0.57714536431E+03  0.60698547361E+03  0.17200000000E+03 0. -1.
</event>
<event>
 4    1  0.1211980E+000  0.1979258E+03  0.7818608E-02  0.1151501E+00
         21   -1    0    0  503  502  0.00000000000E+00  0.00000000000E+00  0.20984507242E+03  0.20984507242E+03  0.00000000000E+00 0.  1.
         21   -1    0    0  501  503 -0.00000000000E+00 -0.00000000000E+00 -0.41374006973E+03  0.41374006973E+03  0.00000000000E+00 0.  1.
          6    1    1    2  501    0 -0.76158056175E+01 -0.97635094221E+02  0.12902964687E+03  0.23626946881E+03  0.17200000000E+03 0.  1.
         -6    1    1    2    0  502  0.76158056175E+01  0.97635094221E+02 -0.33292464417E+03  0.38731567334E+03  0.17200000000E+03 0.  1.
</event>
<event>
 4    1  0.1211980E+000  0.1854396E+03  0.7818608E-02  0.1162640E+00
         21   -1    0    0  501  502  0.00000000000E+00  0.00000000000E+00  0.15215520206E+03  0.15215520206E+03  0.00000000000E+00 0. -1.
         21   -1    0    0  502  503 -0.00000000000E+00 -0.00000000000E+00 -0.22602723387E+03  0.22602723387E+03  0.00000000000E+00 0. -1.
          6    1    1    2  501    0 -0.37916824801E+02  0.58018461638E+02 -0.38813914128E+02  0.18945803605E+03  0.17200000000E+03 0. -1.
         -6    1    1    2    0  503  0.37916824801E+02 -0.58018461638E+02 -0.35058117680E+02  0.18872439988E+03  0.17200000000E+03 0. -1.
</event>
<event>
 4    1  0.1211980E+000  0.2485366E+03  0.7818608E-02  0.1114233E+00
         21   -1    0    0  503  502  0.00000000000E+00  0.00000000000E+00  0.11740329913E+04  0.11740329913E+04  0.00000000000E+00 0.  1.
         21   -1    0    0  501  503 -0.00000000000E+00 -0.00000000000E+00 -0.55913308949E+02  0.55913308949E+02  0.00000000000E+00 0. -1.
          6    1    1    2  501    0  0.17484617012E+03  0.40190083614E+02  0.40967097804E+03  0.47916671031E+03  0.17200000000E+03 0.  1.
         -6    1    1    2    0  502 -0.17484617012E+03 -0.40190083614E+02  0.70844870436E+03  0.75077958998E+03  0.17200000000E+03 0.  1.
</event>
<event>
 4    1  0.1211980E+000  0.1925817E+03  0.7818608E-02  0.1156153E+00
         21   -1    0    0  503  502  0.00000000000E+00  0.00000000000E+00  0.15975302217E+04  0.15975302217E+04  0.00000000000E+00 0.  1.
         21   -1    0    0  501  503 -0.00000000000E+00 -0.00000000000E+00 -0.23336480139E+02  0.23336480139E+02  0.00000000000E+00 0. -1.
          6    1    1    2  501    0  0.15790927547E+02  0.85172485530E+02  0.72878141503E+03  0.75379709244E+03  0.17200000000E+03 0.  1.
         -6    1    1    2    0  502 -0.15790927547E+02 -0.85172485530E+02  0.84541232649E+03  0.86706960936E+03  0.17200000000E+03 0.  1.
</event>
<event>
 4    1  0.1211980E+000  0.2024437E+03  0.7818608E-02  0.1147693E+00
         21   -1    0    0  501  502  0.00000000000E+00  0.00000000000E+00  0.27324161586E+03  0.27324161586E+03  0.00000000000E+00 0. -1.
         21   -1    0    0  502  503 -0.00000000000E+00 -0.00000000000E+00 -0.26709410400E+03  0.26709410400E+03  0.00000000000E+00 0.  1.
          6    1    1    2  501    0 -0.10282152713E+02  0.10627198995E+03  0.18196452821E+03  0.27220313745E+03  0.17200000000E+03 0. -1.
         -6    1    1    2    0  503  0.10282152713E+02 -0.10627198995E+03 -0.17581701635E+03  0.26813258241E+03  0.17200000000E+03 0.  1.
</event>
<event>
 4    1  0.1211980E+000  0.1968692E+03  0.7818608E-02  0.1152408E+00
         21   -1    0    0  501  502  0.00000000000E+00  0.00000000000E+00  0.28355277080E+03  0.28355277080E+03  0.00000000000E+00 0.  1.
         21   -1    0    0  502  503 -0.00000000000E+00 -0.00000000000E+00 -0.20254161472E+03  0.20254161472E+03  0.00000000000E+00 0.  1.
          6    1    1    2  501    0 -0.78459421497E+02  0.54932711560E+02  0.17909571565E+03  0.26614424470E+03  0.17200000000E+03 0. -1.
         -6    1    1    2    0  503  0.78459421497E+02 -0.54932711560E+02 -0.98084559578E+02  0.21995014082E+03  0.17200000000E+03 0. -1.
</event>
<event>
 4    1  0.1211980E+000  0.1782643E+03  0.7818608E-02  0.1169494E+00
         21   -1    0    0  503  502  0.00000000000E+00  0.00000000000E+00  0.96228054936E+03  0.96228054936E+03  0.00000000000E+00 0.  1.
         21   -1    0    0  501  503 -0.00000000000E+00 -0.00000000000E+00 -0.33251852459E+02  0.33251852459E+02  0.00000000000E+00 0.  1.
          6    1    1    2  501    0 -0.14970495390E+02 -0.44385123545E+02  0.42329128289E+03  0.45929692476E+03  0.17200000000E+03 0.  1.
         -6    1    1    2    0  502  0.14970495390E+02  0.44385123545E+02  0.50573741401E+03  0.53623547706E+03  0.17200000000E+03 0.  1.
</event>
<event>
 4    1  0.1211980E+000  0.2261020E+03  0.7818608E-02  0.1129414E+00
         21   -1    0    0  503  502  0.00000000000E+00  0.00000000000E+00  0.10779896227E+03  0.10779896227E+03  0.00000000000E+00 0. -1.
         21   -1    0    0  501  503 -0.00000000000E+00 -0.00000000000E+00 -0.47465781190E+03  0.47465781190E+03  0.00000000000E+00 0.  1.
          6    1    1    2  501    0 -0.29483208541E+02 -0.14376659602E+03 -0.19211633003E+03  0.29669981122E+03  0.17200000000E+03 0.  1.
         -6    1    1    2    0  502  0.29483208541E+02  0.14376659602E+03 -0.17474251960E+03  0.28575696295E+03  0.17200000000E+03 0. -1.
</event>
<event>
 4    1  0.1211980E+000  0.1754799E+03  0.7818608E-02  0.1172251E+00
         21   -1    0    0  501  502  0.00000000000E+00  0.00000000000E+00  0.54582849791E+03  0.54582849791E+03  0.00000000000E+00 0.  1.
         21   -1    0    0  502  503 -0.00000000000E+00 -0.00000000000E+00 -0.59842769128E+02  0.59842769128E+02  0.00000000000E+00 0.  1.
          6    1    1    2  501    0 -0.12278501111E+02  0.32533399374E+02  0.31546577423E+03  0.36098731054E+03  0.17200000000E+03 0.  1.
         -6    1    1    2    0  503  0.12278501111E+02 -0.32533399374E+02  0.17051995455E+03  0.24468395649E+03  0.17200000000E+03 0.  1.
</event>
<event>
 4    1  0.1211980E+000  0.1774512E+03  0.7818608E-02  0.1170293E+00
         21   -1    0    0  503  502  0.00000000000E+00  0.00000000000E+00  0.15232768009E+04  0.15232768009E+04  0.00000000000E+00 0. -1.
         21   -1    0    0  501  503 -0.00000000000E+00 -0.00000000000E+00 -0.47592083946E+02  0.47592083946E+02  0.00000000000E+00 0. -1.
          6    1    1    2  501    0 -0.32887514545E+02 -0.28693833548E+02  0.14712174340E+03  0.23050755319E+03  0.17200000000E+03 0. -1.
         -6    1    1    2    0  502  0.32887514545E+02  0.28693833548E+02  0.13285629736E+04  0.13403613317E+04  0.17200000000E+03 0. -1.
</event>
<event>
 4    1  0.1211980E+000  0.3362818E+03  0.7818608E-02  0.1068391E+00
         21   -1    0    0  503  502  0.00000000000E+00  0.00000000000E+00  0.40080286100E+03  0.40080286100E+03  0.00000000000E+00 0.  1.
         21   -1    0    0  501  503 -0.00000000000E+00 -0.00000000000E+00 -0.28275000379E+03  0.28275000379E+03  0.00000000000E+00 0. -1.
          6    1    1    2  501    0 -0.25301467077E+03  0.13958881130E+03  0.74805427910E+02  0.34450154123E+03  0.17200000000E+03 0. -1.
         -6    1    1    2    0  502  0.25301467077E+03 -0.13958881130E+03  0.43247429293E+02  0.33905132356E+03  0.17200000000E+03 0.  1.
</event>
<event>
 4    1  0.1211980E+000  0.3509415E+03  0.7818608E-02  0.1062229E+00
         21   -1    0    0  501  502  0.00000000000E+00  0.00000000000E+00  0.15665569009E+04  0.15665569009E+04  0.00000000000E+00 0.  1.
         21   -1    0    0  502  503 -0.00000000000E+00 -0.00000000000E+00 -0.84182639447E+02  0.84182639447E+02  0.00000000000E+00 0. -1.
          6    1    1    2  501    0 -0.49265122938E+02 -0.30190869884E+03  0.95338803323E+03  0.10159274859E+04  0.17200000000E+03 0.  1.
         -6    1    1    2    0  503  0.49265122938E+02  0.30190869884E+03  0.52898622822E+03  0.63481205441E+03  0.17200000000E+03 0.  1.
</event>
<event>
 4    1  0.1211980E+000  0.2176003E+03  0.7818608E-02  0.1135685E+00
         21   -1    0    0  503  502  0.00000000000E+00  0.00000000000E+00  0.72654780921E+03  0.72654780921E+03  0.00000000000E+00 0.  1.
         21   -1    0    0  501  503 -0.00000000000E+00 -0.00000000000E+00 -0.65391769565E+02  0.65391769565E+02  0.00000000000E+00 0.  1.
          6    1    1    2  501    0 -0.12154212332E+03 -0.54712040604E+02  0.35358212332E+03  0.41517491863E+03  0.17200000000E+03 0.  1.
         -6    1    1    2    0  502  0.12154212332E+03  0.54712040604E+02  0.30757391632E+03  0.37676466014E+03  0.17200000000E+03 0.  1.
</event>
<event>
 4    1  0.1211980E+000  0.1732580E+03  0.7818608E-02  0.1174492E+00
         21   -1    0    0  503  502  0.00000000000E+00  0.00000000000E+00  0.21874692621E+03  0.21874692621E+03  0.00000000000E+00 0.  1.
         21   -1    0    0  501  503 -0.00000000000E+00 -0.00000000000E+00 -0.15098884645E+03  0.15098884645E+03  0.00000000000E+00 0.  1.
          6    1    1    2  501    0  0.18770484434E+01  0.20756277458E+02 -0.21929580664E+02  0.17464035293E+03  0.17200000000E+03 0. -1.
         -6    1    1    2    0  502 -0.18770484434E+01 -0.20756277458E+02  0.89687660422E+02  0.19509541972E+03  0.17200000000E+03 0. -1.
</event>
<event>
 4    1  0.1211980E+000  0.1720698E+03  0.7818608E-02  0.1175706E+00
         21   -1    0    0  503  502  0.00000000000E+00  0.00000000000E+00  0.15552094672E+03  0.15552094672E+03  0.00000000000E+00 0. -1.
         21   -1    0    0  501  503 -0.00000000000E+00 -0.00000000000E+00 -0.19175441073E+03  0.19175441073E+03  0.00000000000E+00 0. -1.
          6    1    1    2  501    0 -0.23766823069E+01  0.42855890450E+01 -0.32819310088E+02  0.17517169294E+03  0.17200000000E+03 0. -1.
         -6    1    1    2    0  502  0.23766823069E+01 -0.42855890450E+01 -0.34141539174E+01  0.17210366451E+03  0.17200000000E+03 0. -1.
</event>
<event>
 4    1  0.1211980E+000  0.1900094E+03  0.7818608E-02  0.1158453E+00
         21   -1    0    0  503  502  0.00000000000E+00  0.00000000000E+00  0.13925061510E+03  0.13925061510E+03  0.00000000000E+00 0.  1.
         21   -1    0    0  501  503 -0.00000000000E+00 -0.00000000000E+00 -0.31128099852E+03  0.31128099852E+03  0.00000000000E+00 0. -1.
          6    1    1    2  501    0  0.53023976475E+02 -0.60893564972E+02 -0.17809506767E+03  0.26042546240E+03  0.17200000000E+03 0. -1.
         -6    1    1    2    0  502 -0.53023976475E+02  0.60893564972E+02  0.60646842536E+01  0.19010615122E+03  0.17200000000E+03 0.  1.
</event>
<event>
 4    1  0.1211980E+000  0.2091480E+03  0.7818608E-02  0.1142242E+00
         21   -1    0    0  501  502  0.00000000000E+00  0.00000000000E+00  0.28784829541E+03  0.28784829541E+03  0.00000000000E+00 0.  1.
         21   -1    0    0  502  503 -0.00000000000E+00 -0.00000000000E+00 -0.15676315385E+03  0.15676315385E+03  0.00000000000E+00 0. -1.
          6    1    1    2  501    0 -0.11337496737E+03  0.36124732249E+02  0.10443487234E+03  0.23377237233E+03  0.17200000000E+03 0. -1.
         -6    1    1    2    0  503  0.11337496737E+03 -0.36124732249E+02  0.26650269223E+02  0.21083907692E+03  0.17200000000E+03 0. -1.
</event>
<event>
 4    1  0.1211980E+000  0.1758529E+03  0.7818608E-02  0.1171878E+00
         21   -1    0    0  501  502  0.00000000000E+00  0.00000000000E+00  0.43011524162E+03  0.43011524162E+03  0.00000000000E+00 0.  1.
         21   -1    0    0  502  503 -0.00000000000E+00 -0.00000000000E+00 -0.72526408821E+02  0.72526408821E+02  0.00000000000E+00 0.  1.
          6    1    1    2  501    0  0.18046430132E+02  0.31852211156E+02  0.15539241344E+03  0.23467219509E+03  0.17200000000E+03 0. -1.
         -6    1    1    2    0  503 -0.18046430132E+02 -0.31852211156E+02  0.20219641936E+03  0.26796945534E+03  0.17200000000E+03 0. -1.
</event>
<event>
 4    1  0.1211980E+000  0.2138031E+03  0.7818608E-02  0.1138589E+00
         21   -1    0    0  503  502  0.00000000000E+00  0.00000000000E+00  0.42253774043E+02  0.42253774043E+02  0.00000000000E+00 0.  1.
         21   -1    0    0  501  503 -0.00000000000E+00 -0.00000000000E+00 -0.17318659190E+04  0.17318659190E+04  0.00000000000E+00 0. -1.
          6    1    1    2  501    0  0.12489819296E+03 -0.22982593834E+02 -0.13882586294E+04  0.14046258507E+04  0.17200000000E+03 0. -1.
         -6    1    1    2    0  502 -0.12489819296E+03  0.22982593834E+02 -0.30135351555E+03  0.36949384238E+03  0.17200000000E+03 0.  1.
</event>
<event>
 4    1  0.1211980E+000  0.1951270E+03  0.7818608E-02  0.1153917E+00
         21   -1    0    0  501  502  0.00000000000E+00  0.00000000000E+00  0.28615025651E+03  0.28615025651E+03  0.00000000000E+00 0. -1.
         21   -1    0    0  502  503 -0.00000000000E+00 -0.00000000000E+00 -0.15078100996E+03  0.15078100996E+03  0.00000000000E+00 0.  1.
          6    1    1    2  501    0  0.61949709581E+02 -0.68211278348E+02 -0.72150767685E+01  0.19526034504E+03  0.17200000000E+03 0. -1.
         -6    1    1    2    0  503 -0.61949709581E+02  0.68211278348E+02  0.14258432332E+03  0.24167092144E+03  0.17200000000E+03 0.  1.
</event>
<event>
 4    1  0.1211980E+000  0.2961333E+03  0.7818608E-02  0.1087190E+00
         21   -1    0    0  501  502  0.00000000000E+00  0.00000000000E+00  0.19349131145E+03  0.19349131145E+03  0.00000000000E+00 0.  1.
         21   -1    0    0  502  503 -0.00000000000E+00 -0.00000000000E+00 -0.80812532763E+03  0.80812532763E+03  0.00000000000E+00 0. -1.
          6    1    1    2  501    0 -0.31676613329E+01 -0.24104128977E+03  0.24566665564E+02  0.29715056539E+03  0.17200000000E+03 0.  1.
         -6    1    1    2    0  503  0.31676613329E+01  0.24104128977E+03 -0.63920068174E+03  0.70446607370E+03  0.17200000000E+03 0. -1.
</event>
<event>
 4    1  0.1211980E+000  0.2048493E+03  0.7818608E-02  0.1145711E+00
         21   -1    0    0  501  502  0.00000000000E+00  0.00000000000E+00  0.64933872364E+02  0.64933872364E+02  0.00000000000E+00 0.  1.
         21   -1    0    0  502  503 -0.00000000000E+00 -0.00000000000E+00 -0.64912351719E+03  0.64912351719E+03  0.00000000000E+00 0.  1.
          6    1    1    2  501    0  0.10888213075E+03 -0.22889574091E+02 -0.31586614738E+03  0.37647665805E+03  0.17200000000E+03 0.  1.
         -6    1    1    2    0  503 -0.10888213075E+03  0.22889574091E+02 -0.26832349745E+03  0.33758073150E+03  0.17200000000E+03 0.  1.
</event>
<event>
 4    1  0.1211980E+000  0.1850834E+03  0.7818608E-02  0.1162972E+00
         21   -1    0    0  501  502  0.00000000000E+00  0.00000000000E+00  0.73656360118E+03  0.73656360118E+03  0.00000000000E+00 0.  1.
         21   -1    0    0  502  503 -0.00000000000E+00 -0.00000000000E+00 -0.74297877797E+02  0.74297877797E+02  0.00000000000E+00 0.  1.
          6    1    1    2  501    0  0.84554238206E+01 -0.67826095163E+02  0.83177107456E+02  0.20291452531E+03  0.17200000000E+03 0.  1.
         -6    1    1    2    0  503 -0.84554238206E+01  0.67826095163E+02  0.57908861592E+03  0.60794695366E+03  0.17200000000E+03 0.  1.
</event>
<event>
 4    1  0.1211980E+000  0.1846345E+03  0.7818608E-02  0.1163392E+00
         21   -1    0    0  501  502  0.00000000000E+00  0.00000000000E+00  0.47720127371E+03  0.47720127371E+03  0.00000000000E+00 0.  1.
         21   -1    0    0  502  503 -0.00000000000E+00 -0.00000000000E+00 -0.75506109850E+02  0.75506109850E+02  0.00000000000E+00 0.  1.
          6    1    1    2  501    0  0.17346905514E+02  0.64845748213E+02  0.26500063864E+03  0.32297867526E+03  0.17200000000E+03 0.  1.
         -6    1    1    2    0  503 -0.17346905514E+02 -0.64845748213E+02  0.13669452522E+03  0.22972870830E+03  0.17200000000E+03 0.  1.
</event>
<event>
 4    1  0.1211980E+000  0.1729951E+03  0.7818608E-02  0.1174760E+00
         21   -1    0    0  501  502  0.00000000000E+00  0.00000000000E+00  0.12975212993E+03  0.12975212993E+03  0.00000000000E+00 0. -1.
         21   -1    0    0  502  503 -0.00000000000E+00 -0.00000000000E+00 -0.39311964778E+03  0.39311964778E+03  0.00000000000E+00 0. -1.
          6    1    1    2  501    0  0.18183162302E+02 -0.35618644870E+01 -0.29975333295E+03  0.34609157009E+03  0.17200000000E+03 0. -1.
         -6    1    1    2    0  503 -0.18183162302E+02  0.35618644870E+01  0.36385815098E+02  0.17678020763E+03  0.17200000000E+03 0. -1.
</event>
<event>
 4    1  0.1211980E+000  0.2404404E+03  0.7818608E-02  0.1119500E+00
         21   -1    0    0  503  502  0.00000000000E+00  0.00000000000E+00  0.63613590304E+02  0.63613590304E+02  0.00000000000E+00 0. -1.
         21   -1    0    0  501  503 -0.00000000000E+00 -0.00000000000E+00 -0.98504328785E+03  0.98504328785E+03  0.00000000000E+00 0.  1.
          6    1    1    2  501    0 -0.38744123142E+01 -0.16796600812E+03 -0.31483467939E+03  0.39614702612E+03  0.17200000000E+03 0. -1.
         -6    1    1    2    0  502  0.38744123142E+01  0.16796600812E+03 -0.60659501816E+03  0.65250985204E+03  0.17200000000E+03 0.  1.
</event>
<event>
 4    1  0.1211980E+000  0.2643438E+03  0.7818608E-02  0.1104561E+00
         21   -1    0    0  501  502  0.00000000000E+00  0.00000000000E+00  0.45212020895E+03  0.45212020895E+03  0.00000000000E+00 0.  1.
         21   -1    0    0  502  503 -0.00000000000E+00 -0.00000000000E+00 -0.24103703245E+03  0.24103703245E+03  0.00000000000E+00 0.  1.
          6    1    1    2  501    0 -0.14316324455E+03  0.14070505231E+03  0.31313892893E+03  0.40979704141E+03  0.17200000000E+03 0.  1.
         -6    1    1    2    0  503  0.14316324455E+03 -0.14070505231E+03 -0.10205575243E+03  0.28336019999E+03  0.17200000000E+03 0.  1.
</event>
<event>
 4    1  0.1211980E+000  0.1823283E+03  0.7818608E-02  0.1165569E+00
         21   -1    0    0  503  502  0.00000000000E+00  0.00000000000E+00  0.61223560338E+02  0.61223560338E+02  0.00000000000E+00 0. -1.
         21   -1    0    0  501  503 -0.00000000000E+00 -0.00000000000E+00 -0.54302043197E+03  0.54302043197E+03  0.00000000000E+00 0. -1.
          6    1    1    2  501    0  0.28254198372E+02  0.53491331059E+02 -0.24325457506E+03  0.30400067518E+03  0.17200000000E+03 0. -1.
         -6    1    1    2    0  502 -0.28254198372E+02 -0.53491331059E+02 -0.23854229657E+03  0.30024331712E+03  0.17200000000E+03 0. -1.
</event>
<event>
 4    1  0.1211980E+000  0.2678442E+03  0.7818608E-02  0.1102520E+00
         21   -1    0    0  503  502  0.00000000000E+00  0.00000000000E+00  0.14293044357E+04  0.14293044357E+04  0.00000000000E+00 0. -1.
         21   -1    0    0  501  503 -0.00000000000E+00 -0.00000000000E+00 -0.53591072805E+02  0.53591072805E+02  0.00000000000E+00 0. -1.
          6    1    1    2  501    0 -0.19219132985E+03  0.72242654017E+02  0.50114301120E+03  0.56822955397E+03  0.17200000000E+03 0. -1.
         -6    1    1    2    0  502  0.19219132985E+03 -0.72242654017E+02  0.87457035174E+03  0.91466595459E+03  0.17200000000E+03 0. -1.
</event>
<event>
 4    1  0.1211980E+000  0.2033636E+03  0.7818608E-02  0.1146932E+00
         21   -1    0    0  503  502  0.00000000000E+00  0.00000000000E+00  0.38371270337E+03  0.38371270337E+03  0.00000000000E+00 0. -1.
         21   -1    0    0  501  503 -0.00000000000E+00 -0.00000000000E+00 -0.30065135056E+03  0.30065135056E+03  0.00000000000E+00 0.  1.
          6    1    1    2  501    0  0.84310195449E+02 -0.68297442447E+02 -0.23253768614E+03  0.30891831473E+03  0.17200000000E+03 0.  1.
         -6    1    1    2    0  502 -0.84310195449E+02  0.68297442447E+02  0.31559903894E+03  0.37544573920E+03  0.17200000000E+03 0. -1.
</event>
<event>
 4    1  0.1211980E+000  0.2562480E+03  0.7818608E-02  0.1109419E+00
         21   -1    0    0  501  502  0.00000000000E+00  0.00000000000E+00  0.27926152923E+03  0.27926152923E+03  0.00000000000E+00 0. -1.
         21   -1    0    0  502  503 -0.00000000000E+00 -0.00000000000E+00 -0.36489781209E+03  0.36489781209E+03  0.00000000000E+00 0. -1.
          6    1    1    2  501    0 -0.49873020493E+02  0.18328037767E+03  0.14925191639E+03  0.29654535835E+03  0.17200000000E+03 0. -1.
         -6    1    1    2    0  503  0.49873020493E+02 -0.18328037767E+03 -0.23488819925E+03  0.34761398297E+03  0.17200000000E+03 0. -1.
</event>
<event>
 4    1  0.1211980E+000  0.3070132E+03  0.7818608E-02  0.1081786E+00
         21   -1    0    0  501  502  0.00000000000E+00  0.00000000000E+00  0.18206220848E+03  0.18206220848E+03  0.00000000000E+00 0.  1.
         21   -1    0    0  502  503 -0.00000000000E+00 -0.00000000000E+00 -0.70498583967E+03  0.70498583967E+03  0.00000000000E+00 0. -1.
          6    1    1    2  501    0 -0.16997032008E+03  0.18916451842E+03 -0.32871930608E+02  0.30876801738E+03  0.17200000000E+03 0. -1.
         -6    1    1    2    0  503  0.16997032008E+03 -0.18916451842E+03 -0.49005170059E+03  0.57828003077E+03  0.17200000000E+03 0. -1.
</event>
<event>
 4    1  0.1211980E+000  0.2079871E+03  0.7818608E-02  0.1143170E+00
         21   -1    0    0  503  502  0.00000000000E+00  0.00000000000E+00  0.48316107825E+03  0.48316107825E+03  0.00000000000E+00 0. -1.
         21   -1    0    0  501  503 -0.00000000000E+00 -0.00000000000E+00 -0.10854829478E+03  0.10854829478E+03  0.00000000000E+00 0.  1.
          6    1    1    2  501    0 -0.27449449313E+02 -0.11367122222E+03  0.63476869769E+02  0.21745788563E+03  0.17200000000E+03 0.  1.
         -6    1    1    2    0  502  0.27449449313E+02  0.11367122222E+03  0.31113591370E+03  0.37425148740E+03  0.17200000000E+03 0. -1.
</event>
<event>
 4    1  0.1211980E+000  0.1836622E+03  0.7818608E-02  0.1164305E+00
         21   -1    0    0  503  502  0.00000000000E+00  0.00000000000E+00  0.76717828160E+02  0.76717828160E+02  0.00000000000E+00 0. -1.
         21   -1    0    0  501  503 -0.00000000000E+00 -0.00000000000E+00 -0.43990247097E+03  0.43990247097E+03  0.00000000000E+00 0. -1.
          6    1    1    2  501    0  0.20898837038E+01 -0.64369497886E+02 -0.18731468540E+03  0.26233297780E+03  0.17200000000E+03 0.  1.
         -6    1    1    2    0  502 -0.20898837038E+01  0.64369497886E+02 -0.17586995740E+03  0.25428732133E+03  0.17200000000E+03 0.  1.
</event>
<event>
 4    1  0.1211980E+000  0.1834392E+03  0.7818608E-02  0.1164515E+00
         21   -1    0    0  503  502  0.00000000000E+00  0.00000000000E+00  0.13084834687E+04  0.13084834687E+04  0.00000000000E+00 0. -1.
         21   -1    0    0  501  503 -0.00000000000E+00 -0.00000000000E+00 -0.26186571908E+02  0.26186571908E+02  0.00000000000E+00 0. -1.
          6    1    1    2  501    0  0.13567321720E+00 -0.63764663734E+02  0.55176271243E+03  0.58145682692E+03  0.17200000000E+03 0. -1.
         -6    1    1    2    0  502 -0.13567321720E+00  0.63764663734E+02  0.73053418437E+03  0.75321321370E+03  0.17200000000E+03 0. -1.
</event>
<event>
 4    1  0.1211980E+000  0.1845776E+03  0.7818608E-02  0.1163445E+00
         21   -1    0    0  501  502  0.00000000000E+00  0.00000000000E+00  0.86999183551E+02  0.86999183551E+02  0.00000000000E+00 0. -1.
         21   -1    0    0  502  503 -0.00000000000E+00 -0.00000000000E+00 -0.39240055943E+03  0.39240055943E+03  0.00000000000E+00 0. -1.
          6    1    1    2  501    0  0.56469060704E+02 -0.36002031760E+02 -0.16352586055E+03  0.24659604250E+03  0.17200000000E+03 0.  1.
         -6    1    1    2    0  503 -0.56469060704E+02  0.36002031760E+02 -0.14187551533E+03  0.23280370048E+03  0.17200000000E+03 0.  1.
</event>
<event>
 4    1  0.1211980E+000  0.1890657E+03  0.7818608E-02  0.1159307E+00
         21   -1    0    0  503  502  0.00000000000E+00  0.00000000000E+00  0.50732083982E+03  0.50732083982E+03  0.00000000000E+00 0.  1.
         21   -1    0    0  501  503 -0.00000000000E+00 -0.00000000000E+00 -0.78039042080E+02  0.78039042080E+02  0.00000000000E+00 0.  1.
          6    1    1    2  501    0 -0.27104064700E+02 -0.73669706464E+02  0.12343089350E+03  0.22578981696E+03  0.17200000000E+03 0.  1.
         -6    1    1    2    0  502  0.27104064700E+02  0.73669706464E+02  0.30585090425E+03  0.35957006494E+03  0.17200000000E+03 0.  1.
</event>
<event>
 4    1  0.1211980E+000  0.2680221E+03  0.7818608E-02  0.1102417E+00
         21   -1    0    0  501  502  0.00000000000E+00  0.00000000000E+00  0.27287906848E+03  0.27287906848E+03  0.00000000000E+00 0.  1.
         21   -1    0    0  502  503 -0.00000000000E+00 -0.00000000000E+00 -0.27502510858E+03  0.27502510858E+03  0.00000000000E+00 0. -1.
          6    1    1    2  501    0 -0.18559015531E+03 -0.88363645288E+02 -0.57754632318E+02  0.27417410000E+03  0.17200000000E+03 0.  1.
         -6    1    1    2    0  503  0.18559015531E+03  0.88363645288E+02  0.55608592225E+02  0.27373007706E+03  0.17200000000E+03 0. -1.
</event>
<event>
 4    1  0.1211980E+000  0.1728647E+03  0.7818608E-02  0.1174893E+00
         21   -1    0    0  501  502  0.00000000000E+00  0.00000000000E+00  0.10235806600E+03  0.10235806600E+03  0.00000000000E+00 0. -1.
         21   -1    0    0  502  503 -0.00000000000E+00 -0.00000000000E+00 -0.13097300312E+04  0.13097300312E+04  0.00000000000E+00 0. -1.
          6    1    1    2  501    0  0.13752032088E+02 -0.10443713446E+02  0.18715283737E+02  0.17387481526E+03  0.17200000000E+03 0. -1.
         -6    1    1    2    0  503 -0.13752032088E+02  0.10443713446E+02 -0.12260872489E+04  0.12382132819E+04  0.17200000000E+03 0. -1.
</event>
<event>
 4    1  0.1211980E+000  0.2282134E+03  0.7818608E-02  0.1127904E+00
         21   -1    0    0  501  502  0.00000000000E+00  0.00000000000E+00  0.30464725942E+03  0.30464725942E+03  0.00000000000E+00 0.  1.
         21   -1    0    0  502  503 -0.00000000000E+00 -0.00000000000E+00 -0.49442380435E+03  0.49442380435E+03  0.00000000000E+00 0. -1.
          6    1    1    2  501    0 -0.18138523922E+02  0.14889035490E+03 -0.41805088116E+03  0.47628550584E+03  0.17200000000E+03 0. -1.
         -6    1    1    2    0  503  0.18138523922E+02 -0.14889035490E+03  0.22827433623E+03  0.32278555793E+03  0.17200000000E+03 0.  1.
</event>
<event>
 4    1  0.1211980E+000  0.1732855E+03  0.7818608E-02  0.1174464E+00
         21   -1    0    0  503  502  0.00000000000E+00  0.00000000000E+00  0.19189415488E+03  0.19189415488E+03  0.00000000000E+00 0. -1.
         21   -1    0    0  501  503 -0.00000000000E+00 -0.00000000000E+00 -0.20091611123E+03  0.20091611123E+03  0.00000000000E+00 0. -1.
          6    1    1    2  501    0 -0.18784744798E+02  0.95384097977E+01 -0.96875905811E+02  0.19852654489E+03  0.17200000000E+03 0. -1.
         -6    1    1    2    0  502  0.18784744798E+02 -0.95384097977E+01  0.87853949462E+02  0.19428372123E+03  0.17200000000E+03 0. -1.
</event>
<event>
 4    1  0.1211980E+000  0.2050107E+03  0.7818608E-02  0.1145579E+00
         21   -1    0    0  503  502  0.00000000000E+00  0.00000000000E+00  0.85855350233E+03  0.85855350233E+03  0.00000000000E+00 0.  1.
         21   -1    0    0  501  503 -0.00000000000E+00 -0.00000000000E+00 -0.49102003279E+02  0.49102003279E+02  0.00000000000E+00 0.  1.
          6    1    1    2  501    0  0.31320812590E+02  0.10707186987E+03  0.37978536617E+03  0.43158580025E+03  0.17200000000E+03 0.  1.
         -6    1    1    2    0  502 -0.31320812590E+02 -0.10707186987E+03  0.42966613288E+03  0.47606970536E+03  0.17200000000E+03 0.  1.
</event>
<event>
 4    1  0.1211980E+000  0.1933827E+03  0.7818608E-02  0.1155445E+00
         21   -1    0    0  503  502  0.00000000000E+00  0.00000000000E+00  0.41750295591E+02  0.41750295591E+02  0.00000000000E+00 0.  1.
         21   -1    0    0  501  503 -0.00000000000E+00 -0.00000000000E+00 -0.12401124532E+04  0.12401124532E+04  0.00000000000E+00 0.  1.
          6    1    1    2  501    0  0.75097170193E+02 -0.46618283688E+02 -0.93693753803E+03  0.95668636423E+03  0.17200000000E+03 0.  1.
         -6    1    1    2    0  502 -0.75097170193E+02  0.46618283688E+02 -0.26142461954E+03  0.32517638451E+03  0.17200000000E+03 0.  1.
</event>
<event>
 4    1  0.1211980E+000  0.2527209E+03  0.7818608E-02  0.1111597E+00
         21   -1    0    0  503  502  0.00000000000E+00  0.00000000000E+00  0.43317997687E+03  0.43317997687E+03  0.00000000000E+00 0. -1.
         21   -1    0    0  501  503 -0.00000000000E+00 -0.00000000000E+00 -0.27623786424E+03  0.27623786424E+03  0.00000000000E+00 0.  1.
          6    1    1    2  501    0  0.62360743568E+02 -0.17434156151E+03 -0.16373537350E+03  0.30112641024E+03  0.17200000000E+03 0. -1.
         -6    1    1    2    0  502 -0.62360743568E+02  0.17434156151E+03  0.32067748613E+03  0.40829143087E+03  0.17200000000E+03 0. -1.
</event>
<event>
 4    1  0.1211980E+000  0.1849150E+03  0.7818608E-02  0.1163129E+00
         21   -1    0    0  501  502  0.00000000000E+00  0.00000000000E+00  0.50926002662E+03  0.50926002662E+03  0.00000000000E+00 0.  1.
         21   -1    0    0  502  503 -0.00000000000E+00 -0.00000000000E+00 -0.99495248612E+02  0.99495248612E+02  0.00000000000E+00 0. -1.
          6    1    1    2  501    0  0.64451429098E+02  0.21344460368E+02  0.37844632910E+03  0.42120683364E+03  0.17200000000E+03 0.  1.
         -6    1    1    2    0  503 -0.64451429098E+02 -0.21344460368E+02  0.31318448914E+02  0.18754844159E+03  0.17200000000E+03 0. -1.
</event>
<event>
 4    1  0.1211980E+000  0.1897564E+03  0.7818608E-02  0.1158681E+00
         21   -1    0    0  501  502  0.00000000000E+00  0.00000000000E+00  0.80629864247E+03  0.80629864247E+03  0.00000000000E+00 0. -1.
         21   -1    0    0  502  503 -0.00000000000E+00 -0.00000000000E+00 -0.45545364670E+02  0.45545364670E+02  0.00000000000E+00 0. -1.
          6    1    1    2  501    0  0.77082299862E+02  0.21950323157E+02  0.43983539783E+03  0.47902262454E+03  0.17200000000E+03 0.  1.
         -6    1    1    2    0  503 -0.77082299862E+02 -0.21950323157E+02  0.32091787997E+03  0.37282138260E+03  0.17200000000E+03 0.  1.
</event>
<event>
 4    1  0.1211980E+000  0.2005377E+03  0.7818608E-02  0.1149286E+00
         21   -1    0    0  501  502  0.00000000000E+00  0.00000000000E+00  0.17480546440E+03  0.17480546440E+03  0.00000000000E+00 0.  1.
         21   -1    0    0  502  503 -0.00000000000E+00 -0.00000000000E+00 -0.23091794581E+03  0.23091794581E+03  0.00000000000E+00 0. -1.
          6    1    1    2  501    0  0.80708925417E+02 -0.64167411588E+02 -0.15676299475E+02  0.20114953074E+03  0.17200000000E+03 0. -1.
         -6    1    1    2    0  503 -0.80708925417E+02  0.64167411588E+02 -0.40436181927E+02  0.20457387947E+03  0.17200000000E+03 0. -1.
</event>
<event>
 4    1  0.1211980E+000  0.2306282E+03  0.7818608E-02  0.1126198E+00
         21   -1    0    0  501  502  0.00000000000E+00  0.00000000000E+00  0.59721308769E+02  0.59721308769E+02  0.00000000000E+00 0. -1.
         21   -1    0    0  502  503 -0.00000000000E+00 -0.00000000000E+00 -0.93587065678E+03  0.93587065678E+03  0.00000000000E+00 0.  1.
          6    1    1    2  501    0 -0.14219424212E+03  0.58190811120E+02 -0.32862227089E+03  0.40147474381E+03  0.17200000000E+03 0.  1.
         -6    1    1    2    0  503  0.14219424212E+03 -0.58190811120E+02 -0.54752707712E+03  0.59411722174E+03  0.17200000000E+03 0.  1.
</event>
<event>
 4    1  0.1211980E+000  0.2404706E+03  0.7818608E-02  0.1119480E+00
         21   -1    0    0  503  502  0.00000000000E+00  0.00000000000E+00  0.15913097452E+03  0.15913097452E+03  0.00000000000E+00 0.  1.
         21   -1    0    0  501  503 -0.00000000000E+00 -0.00000000000E+00 -0.68200555451E+03  0.68200555451E+03  0.00000000000E+00 0.  1.
          6    1    1    2  501    0 -0.17563493189E+02 -0.16713354263E+03 -0.54889780730E+03  0.59926196294E+03  0.17200000000E+03 0.  1.
         -6    1    1    2    0  502  0.17563493189E+02  0.16713354263E+03  0.26023227308E+02  0.24187456610E+03  0.17200000000E+03 0.  1.
</event>
<event>
 4    1  0.1211980E+000  0.1829130E+03  0.7818608E-02  0.1165013E+00
         21   -1    0    0  501  502  0.00000000000E+00  0.00000000000E+00  0.60769495547E+02  0.60769495547E+02  0.00000000000E+00 0.  1.
         21   -1    0    0  502  503 -0.00000000000E+00 -0.00000000000E+00 -0.56361039777E+03  0.56361039777E+03  0.00000000000E+00 0.  1.
          6    1    1    2  501    0  0.48728238716E+02  0.38713165207E+02 -0.20391214935E+03  0.27392939795E+03  0.17200000000E+03 0.  1.
         -6    1    1    2    0  503 -0.48728238716E+02 -0.38713165207E+02 -0.29892875287E+03  0.35045049536E+03  0.17200000000E+03 0.  1.
</event>
<event>
 4    1  0.1211980E+000  0.1878193E+03  0.7818608E-02  0.1160443E+00
         21   -1    0    0  503  502  0.00000000000E+00  0.00000000000E+00  0.47114627569E+02  0.47114627569E+02  0.00000000000E+00 0.  1.
         21   -1    0    0  501  503 -0.00000000000E+00 -0.00000000000E+00 -0.13348974528E+04  0.13348974528E+04  0.00000000000E+00 0. -1.
          6    1    1    2  501    0 -0.50109552363E+02  0.56401437597E+02 -0.11017897862E+04  0.11176836862E+04  0.17200000000E+03 0. -1.
         -6    1    1    2    0  502  0.50109552363E+02 -0.56401437597E+02 -0.18599303903E+03  0.26432839418E+03  0.17200000000E+03 0.  1.
</event>
<event>
 4    1  0.1211980E+000  0.2156447E+03  0.7818608E-02  0.1137172E+00
         21   -1    0    0  501  502  0.00000000000E+00  0.00000000000E+00  0.22797882802E+03  0.22797882802E+03  0.00000000000E+00 0. -1.
         21   -1    0    0  502  503 -0.00000000000E+00 -0.00000000000E+00 -0.55763590752E+03  0.55763590752E+03  0.00000000000E+00 0. -1.
          6    1    1    2  501    0 -0.11155936856E+02  0.12959240020E+03  0.14799253270E+03  0.26154241501E+03  0.17200000000E+03 0. -1.
         -6    1    1    2    0  503  0.11155936856E+02 -0.12959240020E+03 -0.47764961220E+03  0.52407232053E+03  0.17200000000E+03 0. -1.
</event>
<event>
 4    1  0.1211980E+000  0.1806430E+03  0.7818608E-02  0.1167182E+00
         21   -1    0    0  501  502  0.00000000000E+00  0.00000000000E+00  0.25768414517E+03  0.25768414517E+03  0.00000000000E+00 0.  1.
         21   -1    0    0  502  503 -0.00000000000E+00 -0.00000000000E+00 -0.13603946613E+03  0.13603946613E+03  0.00000000000E+00 0.  1.
          6    1    1    2  501    0  0.46914868841E+02 -0.29101144933E+02  0.90626559050E+01  0.18087015588E+03  0.17200000000E+03 0.  1.
         -6    1    1    2    0  503 -0.46914868841E+02  0.29101144933E+02  0.11258202313E+03  0.21285345543E+03  0.17200000000E+03 0.  1.
</event>
<event>
 4    1  0.1211980E+000  0.2109866E+03  0.7818608E-02  0.1140787E+00
         21   -1    0    0  501  502  0.00000000000E+00  0.00000000000E+00  0.23539513101E+04  0.23539513101E+04  0.00000000000E+00 0. -1.
         21   -1    0    0  502  503 -0.00000000000E+00 -0.00000000000E+00 -0.26821631957E+02  0.26821631957E+02  0.00000000000E+00 0.  1.
          6    1    1    2  501    0 -0.35557207881E+02  0.11690612475E+03  0.51708722095E+03  0.55847520187E+03  0.17200000000E+03 0.  1.
         -6    1    1    2    0  503  0.35557207881E+02 -0.11690612475E+03  0.18100424572E+04  0.18222977402E+04  0.17200000000E+03 0. -1.
</event>
<event>
 4    1  0.1211980E+000  0.1720055E+03  0.7818608E-02  0.1175772E+00
         21   -1    0    0  503  502  0.00000000000E+00  0.00000000000E+00  0.65448591659E+02  0.65448591659E+02  0.00000000000E+00 0.  1.
         21   -1    0    0  501  503 -0.00000000000E+00 -0.00000000000E+00 -0.52373960950E+03  0.52373960950E+03  0.00000000000E+00 0.  1.
          6    1    1    2  501    0  0.13702359996E+01 -0.17687494649E+00 -0.33813893938E+03  0.37937297104E+03  0.17200000000E+03 0.  1.
         -6    1    1    2    0  502 -0.13702359996E+01  0.17687494649E+00 -0.12015207846E+03  0.20981523012E+03  0.17200000000E+03 0.  1.
</event>
<event>
 4    1  0.1211980E+000  0.2483392E+03  0.7818608E-02  0.1114359E+00
         21   -1    0    0  501  502  0.00000000000E+00  0.00000000000E+00  0.12443898470E+04  0.12443898470E+04  0.00000000000E+00 0. -1.
         21   -1    0    0  502  503 -0.00000000000E+00 -0.00000000000E+00 -0.66351874701E+02  0.66351874701E+02  0.00000000000E+00 0.  1.
          6    1    1    2  501    0 -0.17819976853E+03  0.18253875446E+02  0.91870912525E+03  0.95168209939E+03  0.17200000000E+03 0. -1.
         -6    1    1    2    0  503  0.17819976853E+03 -0.18253875446E+02  0.25932884710E+03  0.35905962236E+03  0.17200000000E+03 0.  1.
</event>
<event>
 4    1  0.1211980E+000  0.1763907E+03  0.7818608E-02  0.1171343E+00
         21   -1    0    0  501  502  0.00000000000E+00  0.00000000000E+00  0.95279206648E+03  0.95279206648E+03  0.00000000000E+00 0. -1.
         21   -1    0    0  502  503 -0.00000000000E+00 -0.00000000000E+00 -0.36734436320E+02  0.36734436320E+02  0.00000000000E+00 0. -1.
          6    1    1    2  501    0  0.27675613664E+02  0.27635604051E+02  0.62290098141E+03  0.64739423757E+03  0.17200000000E+03 0.  1.
         -6    1    1    2    0  503 -0.27675613664E+02 -0.27635604051E+02  0.29315664875E+03  0.34213226523E+03  0.17200000000E+03 0.  1.
</event>
<event>
 4    1  0.1211980E+000  0.3530738E+03  0.7818608E-02  0.1061360E+00
         21   -1    0    0  501  502  0.00000000000E+00  0.00000000000E+00  0.25546752054E+03  0.25546752054E+03  0.00000000000E+00 0. -1.
         21   -1    0    0  502  503 -0.00000000000E+00 -0.00000000000E+00 -0.81219396597E+03  0.81219396597E+03  0.00000000000E+00 0.  1.
          6    1    1    2  501    0 -0.28101182397E+03 -0.12692316486E+03  0.58919858999E+02  0.35795626098E+03  0.17200000000E+03 0. -1.
         -6    1    1    2    0  503  0.28101182397E+03  0.12692316486E+03 -0.61564630443E+03  0.70970522553E+03  0.17200000000E+03 0.  1.
</event>
<event>
 4    1  0.1211980E+000  0.1827987E+03  0.7818608E-02  0.1165122E+00
         21   -1    0    0  501  502  0.00000000000E+00  0.00000000000E+00  0.13325713398E+03  0.13325713398E+03  0.00000000000E+00 0.  1.
         21   -1    0    0  502  503 -0.00000000000E+00 -0.00000000000E+00 -0.32372145728E+03  0.32372145728E+03  0.00000000000E+00 0. -1.
          6    1    1    2  501    0 -0.46978251670E+02  0.40304009216E+02 -0.20370752173E+03  0.27370079229E+03  0.17200000000E+03 0. -1.
         -6    1    1    2    0  503  0.46978251670E+02 -0.40304009216E+02  0.13243198434E+02  0.18327779897E+03  0.17200000000E+03 0.  1.
</event>
<event>
 4    1  0.1211980E+000  0.4519058E+03  0.7818608E-02  0.1027155E+00
         21   -1    0    0  503  502  0.00000000000E+00  0.00000000000E+00  0.75865229288E+03  0.75865229288E+03  0.00000000000E+00 0.  1.
         21   -1    0    0  501  503 -0.00000000000E+00 -0.00000000000E+00 -0.59461911782E+03  0.59461911782E+03  0.00000000000E+00 0. -1.
          6    1    1    2  501    0 -0.28715718100E+03 -0.30360438189E+03 -0.41855488379E+03  0.61596027311E+03  0.17200000000E+03 0. -1.
         -6    1    1    2    0  502  0.28715718100E+03  0.30360438189E+03  0.58258805885E+03  0.73731113759E+03  0.17200000000E+03 0.  1.
</event>
<event>
 4    1  0.1211980E+000  0.1947427E+03  0.7818608E-02  0.1154252E+00
         21   -1    0    0  503  502  0.00000000000E+00  0.00000000000E+00  0.16227793005E+03  0.16227793005E+03  0.00000000000E+00 0. -1.
         21   -1    0    0  501  503 -0.00000000000E+00 -0.00000000000E+00 -0.54846618938E+03  0.54846618938E+03  0.00000000000E+00 0.  1.
          6    1    1    2  501    0 -0.57521952873E+02  0.70936271637E+02 -0.46231007740E+03  0.50165260625E+03  0.17200000000E+03 0.  1.
         -6    1    1    2    0  502  0.57521952873E+02 -0.70936271637E+02  0.76121818070E+02  0.20909151318E+03  0.17200000000E+03 0. -1.
</event>
<event>
 4    1  0.1211980E+000  0.2049472E+03  0.7818608E-02  0.1145631E+00
         21   -1    0    0  503  502  0.00000000000E+00  0.00000000000E+00  0.55994981577E+03  0.55994981577E+03  0.00000000000E+00 0. -1.
         21   -1    0    0  501  503 -0.00000000000E+00 -0.00000000000E+00 -0.11088760148E+03  0.11088760148E+03  0.00000000000E+00 0. -1.
          6    1    1    2  501    0 -0.74678439486E+02  0.82719206028E+02  0.33747407183E+02  0.20770706262E+03  0.17200000000E+03 0. -1.
         -6    1    1    2    0  502  0.74678439486E+02 -0.82719206028E+02  0.41531480711E+03  0.46313035462E+03  0.17200000000E+03 0. -1.
</event>
<event>
 4    1  0.1211980E+000  0.4195892E+03  0.7818608E-02  0.1037200E+00
         21   -1    0    0  503  502  0.00000000000E+00  0.00000000000E+00  0.25010774622E+03  0.25010774622E+03  0.00000000000E+00 0.  1.
         21   -1    0    0  501  503 -0.00000000000E+00 -0.00000000000E+00 -0.70820302355E+03  0.70820302355E+03  0.00000000000E+00 0. -1.
          6    1    1    2  501    0  0.11918835954E+03 -0.36368292028E+03 -0.19177267445E+03  0.46133706790E+03  0.17200000000E+03 0.  1.
         -6    1    1    2    0  502 -0.11918835954E+03  0.36368292028E+03 -0.26632260288E+03  0.49697370187E+03  0.17200000000E+03 0.  1.
</event>
<event>
 4    1  0.1211980E+000  0.1783027E+03  0.7818608E-02  0.1169456E+00
         21   -1    0    0  501  502  0.00000000000E+00  0.00000000000E+00  0.22664182447E+03  0.22664182447E+03  0.00000000000E+00 0.  1.
         21   -1    0    0  502  503 -0.00000000000E+00 -0.00000000000E+00 -0.41818208941E+03  0.41818208941E+03  0.00000000000E+00 0.  1.
          6    1    1    2  501    0  0.42536611814E+02 -0.19962266957E+02  0.16706254788E+03  0.24433941628E+03  0.17200000000E+03 0.  1.
         -6    1    1    2    0  503 -0.42536611814E+02  0.19962266957E+02 -0.35860281282E+03  0.40048449759E+03  0.17200000000E+03 0.  1.
</event>
<event>
 4    1  0.1211980E+000  0.2184333E+03  0.7818608E-02  0.1135057E+00
         21   -1    0    0  501  502  0.00000000000E+00  0.00000000000E+00  0.11426238586E+03  0.11426238586E+03  0.00000000000E+00 0.  1.
         21   -1    0    0  502  503 -0.00000000000E+00 -0.00000000000E+00 -0.98215621854E+03  0.98215621854E+03  0.00000000000E+00 0. -1.
          6    1    1    2  501    0 -0.61749839103E+02  0.11964968650E+03 -0.18304926850E+02  0.21919890615E+03  0.17200000000E+03 0.  1.
         -6    1    1    2    0  503  0.61749839103E+02 -0.11964968650E+03 -0.84958890583E+03  0.87721969826E+03  0.17200000000E+03 0. -1.
</event>
<event>
 4    1  0.1211980E+000  0.2061680E+03  0.7818608E-02  0.1144637E+00
         21   -1    0    0  501  502  0.00000000000E+00  0.00000000000E+00  0.27264361794E+03  0.27264361794E+03  0.00000000000E+00 0. -1.
         21   -1    0    0  502  503 -0.00000000000E+00 -0.00000000000E+00 -0.23733110817E+03  0.23733110817E+03  0.00000000000E+00 0.  1.
          6    1    1    2  501    0  0.75514383405E+02 -0.84963718990E+02 -0.13170411001E+03  0.24464510671E+03  0.17200000000E+03 0.  1.
         -6    1    1    2    0  503 -0.75514383405E+02  0.84963718990E+02  0.16701661977E+03  0.26532961939E+03  0.17200000000E+03 0. -1.
</event>
<event>
 4    1  0.1211980E+000  0.3389447E+03  0.7818608E-02  0.1067246E+00
         21   -1    0    0  503  502  0.00000000000E+00  0.00000000000E+00  0.23164553558E+03  0.23164553558E+03  0.00000000000E+00 0.  1.
         21   -1    0    0  501  503 -0.00000000000E+00 -0.00000000000E+00 -0.91080690842E+03  0.91080690842E+03  0.00000000000E+00 0.  1.
          6    1    1    2  501    0  0.68645882929E+02  0.28387889579E+03 -0.72510046901E+03  0.80040875487E+03  0.17200000000E+03 0.  1.
         -6    1    1    2    0  502 -0.68645882929E+02 -0.28387889579E+03  0.45939096164E+02  0.34204368913E+03  0.17200000000E+03 0.  1.
</event>
<event>
 4    1  0.1211980E+000  0.2642441E+03  0.7818608E-02  0.1104620E+00
         21   -1    0    0  501  502  0.00000000000E+00  0.00000000000E+00  0.16878871212E+03  0.16878871212E+03  0.00000000000E+00 0.  1.
         21   -1    0    0  502  503 -0.00000000000E+00 -0.00000000000E+00 -0.96933027057E+03  0.96933027057E+03  0.00000000000E+00 0.  1.
          6    1    1    2  501    0 -0.10496564280E+02 -0.20032671295E+03  0.30574654528E+02  0.26600710382E+03  0.17200000000E+03 0.  1.
         -6    1    1    2    0  503  0.10496564280E+02  0.20032671295E+03 -0.83111621297E+03  0.87211187886E+03  0.17200000000E+03 0.  1.
</event>
<event>
 4    1  0.1211980E+000  0.1787243E+03  0.7818608E-02  0.1169043E+00
         21   -1    0    0  503  502  0.00000000000E+00  0.00000000000E+00  0.40549391751E+03  0.40549391751E+03  0.00000000000E+00 0. -1.
         21   -1    0    0  501  503 -0.00000000000E+00 -0.00000000000E+00 -0.81005899783E+02  0.81005899783E+02  0.00000000000E+00 0. -1.
          6    1    1    2  501    0  0.42690594049E+02  0.23149495595E+02  0.20262061022E+03  0.27018049088E+03  0.17200000000E+03 0.  1.
         -6    1    1    2    0  502 -0.42690594049E+02 -0.23149495595E+02  0.12186740750E+03  0.21631932641E+03  0.17200000000E+03 0.  1.
</event>
<event>
 4    1  0.1211980E+000  0.1737488E+03  0.7818608E-02  0.1173994E+00
         21   -1    0    0  501  502  0.00000000000E+00  0.00000000000E+00  0.78940172512E+02  0.78940172512E+02  0.00000000000E+00 0.  1.
         21   -1    0    0  502  503 -0.00000000000E+00 -0.00000000000E+00 -0.42757190401E+03  0.42757190401E+03  0.00000000000E+00 0.  1.
          6    1    1    2  501    0  0.18130677196E+02  0.16610800458E+02 -0.92021029266E+02  0.19661258855E+03  0.17200000000E+03 0.  1.
         -6    1    1    2    0  503 -0.18130677196E+02 -0.16610800458E+02 -0.25661070223E+03  0.30989948797E+03  0.17200000000E+03 0.  1.
</event>
<event>
 4    1  0.1211980E+000  0.2159141E+03  0.7818608E-02  0.1136966E+00
         21   -1    0    0  503  502  0.00000000000E+00  0.00000000000E+00  0.16167942950E+04  0.16167942950E+04  0.00000000000E+00 0.  1.
         21   -1    0    0  501  503 -0.00000000000E+00 -0.00000000000E+00 -0.29531706462E+02  0.29531706462E+02  0.00000000000E+00 0.  1.
          6    1    1    2  501    0  0.11137809467E+03  0.68042650098E+02  0.66711903716E+03  0.70118948362E+03  0.17200000000E+03 0.  1.
         -6    1    1    2    0  502 -0.11137809467E+03 -0.68042650098E+02  0.92014355137E+03  0.94513651783E+03  0.17200000000E+03 0.  1.
</event>
<event>
 4    1  0.1211980E+000  0.1782554E+03  0.7818608E-02  0.1169502E+00
         21   -1    0    0  503  502  0.00000000000E+00  0.00000000000E+00  0.89808766985E+02  0.89808766985E+02  0.00000000000E+00 0. -1.
         21   -1    0    0  501  503 -0.00000000000E+00 -0.00000000000E+00 -0.44253396757E+03  0.44253396757E+03  0.00000000000E+00 0. -1.
          6    1    1    2  501    0 -0.44948781068E+01 -0.46591774181E+02 -0.29554582048E+03  0.34514102821E+03  0.17200000000E+03 0.  1.
         -6    1    1    2    0  502  0.44948781068E+01  0.46591774181E+02 -0.57179380110E+02  0.18720170635E+03  0.17200000000E+03 0.  1.
</event>
<event>
 4    1  0.1211980E+000  0.1991067E+03  0.7818608E-02  0.1150495E+00
         21   -1    0    0  503  502  0.00000000000E+00  0.00000000000E+00  0.22890600718E+04  0.22890600718E+04  0.00000000000E+00 0. -1.
         21   -1    0    0  501  503 -0.00000000000E+00 -0.00000000000E+00 -0.45339774453E+02  0.45339774453E+02  0.00000000000E+00 0. -1.
          6    1    1    2  501    0 -0.18931086850E+02 -0.98494071439E+02  0.20427109583E+03  0.28525453326E+03  0.17200000000E+03 0. -1.
         -6    1    1    2    0  502  0.18931086850E+02  0.98494071439E+02  0.20394492015E+04  0.20491453130E+04  0.17200000000E+03 0. -1.
</event>
<event>
 4    1  0.1211980E+000  0.2127949E+03  0.7818608E-02  0.1139372E+00
         21   -1    0    0  503  502  0.00000000000E+00  0.00000000000E+00  0.12057304405E+03  0.12057304405E+03  0.00000000000E+00 0. -1.
         21   -1    0    0  501  503 -0.00000000000E+00 -0.00000000000E+00 -0.40865924201E+03  0.40865924201E+03  0.00000000000E+00 0. -1.
          6    1    1    2  501    0  0.11960710502E+03  0.37307233999E+02 -0.21935854284E+03  0.30561390609E+03  0.17200000000E+03 0. -1.
         -6    1    1    2    0  502 -0.11960710502E+03 -0.37307233999E+02 -0.68727655123E+02  0.22361837996E+03  0.17200000000E+03 0. -1.
</event>
<event>
 4    1  0.1211980E+000  0.2776029E+03  0.7818608E-02  0.1097005E+00
         21   -1    0    0  503  502  0.00000000000E+00  0.00000000000E+00  0.13444335155E+04  0.13444335155E+04  0.00000000000E+00 0. -1.
         21   -1    0    0  501  503 -0.00000000000E+00 -0.00000000000E+00 -0.63395201183E+02  0.63395201183E+02  0.00000000000E+00 0.  1.
          6    1    1    2  501    0  0.19228829455E+03  0.10249194890E+03  0.42261788363E+03  0.50563748217E+03  0.17200000000E+03 0.  1.
         -6    1    1    2    0  502 -0.19228829455E+03 -0.10249194890E+03  0.85842043070E+03  0.90219123452E+03  0.17200000000E+03 0.  1.
</event>
<event>
 4    1  0.1211980E+000  0.1851629E+03  0.7818608E-02  0.1162898E+00
         21   -1    0    0  501  502  0.00000000000E+00  0.00000000000E+00  0.57074147697E+02  0.57074147697E+02  0.00000000000E+00 0. -1.
         21   -1    0    0  502  503 -0.00000000000E+00 -0.00000000000E+00 -0.98790297866E+03  0.98790297866E+03  0.00000000000E+00 0. -1.
          6    1    1    2  501    0  0.58250455013E+02  0.36168825239E+02 -0.13831441397E+03  0.23111939888E+03  0.17200000000E+03 0. -1.
         -6    1    1    2    0  503 -0.58250455013E+02 -0.36168825239E+02 -0.79251441700E+03  0.81385772748E+03  0.17200000000E+03 0. -1.
</event>
<event>
 4    1  0.1211980E+000  0.2111576E+03  0.7818608E-02  0.1140653E+00
         21   -1    0    0  503  502  0.00000000000E+00  0.00000000000E+00  0.14175761059E+03  0.14175761059E+03  0.00000000000E+00 0. -1.
         21   -1    0    0  501  503 -0.00000000000E+00 -0.00000000000E+00 -0.33985233342E+03  0.33985233342E+03  0.00000000000E+00 0. -1.
          6    1    1    2  501    0  0.53398481465E+02  0.11023671042E+03 -0.16477399619E+03  0.26783950412E+03  0.17200000000E+03 0. -1.
         -6    1    1    2    0  502 -0.53398481465E+02 -0.11023671042E+03 -0.33320726636E+02  0.21377043989E+03  0.17200000000E+03 0. -1.
</event>
<event>
 4    1  0.1211980E+000  0.2452769E+03  0.7818608E-02  0.1116327E+00
         21   -1    0    0  503  502  0.00000000000E+00  0.00000000000E+00  0.65567098622E+03  0.65567098622E+03  0.00000000000E+00 0.  1.
         21   -1    0    0  501  503 -0.00000000000E+00 -0.00000000000E+00 -0.13711221109E+03  0.13711221109E+03  0.00000000000E+00 0.  1.
          6    1    1    2  501    0  0.17308120892E+03  0.24893106028E+02  0.31291444634E+02  0.24726489059E+03  0.17200000000E+03 0.  1.
         -6    1    1    2    0  502 -0.17308120892E+03 -0.24893106028E+02  0.48726733049E+03  0.54551830672E+03  0.17200000000E+03 0.  1.
</event>
<event>
 4    1  0.1211980E+000  0.1722667E+03  0.7818608E-02  0.1175504E+00
         21   -1    0    0  501  502  0.00000000000E+00  0.00000000000E+00  0.53758875051E+02  0.53758875051E+02  0.00000000000E+00 0.  1.
         21   -1    0    0  502  503 -0.00000000000E+00 -0.00000000000E+00 -0.59659039915E+03  0.59659039915E+03  0.00000000000E+00 0.  1.
          6    1    1    2  501    0 -0.26542000814E+01  0.92075612811E+01 -0.36029808810E+03  0.39936266257E+03  0.17200000000E+03 0.  1.
         -6    1    1    2    0  503  0.26542000814E+01 -0.92075612811E+01 -0.18253343600E+03  0.25098661164E+03  0.17200000000E+03 0.  1.
</event>
<event>
 4    1  0.1211980E+000  0.2737985E+03  0.7818608E-02  0.1099125E+00
         21   -1    0    0  501  502  0.00000000000E+00  0.00000000000E+00  0.33391087885E+03  0.33391087885E+03  0.00000000000E+00 0.  1.
         21   -1    0    0  502  503 -0.00000000000E+00 -0.00000000000E+00 -0.29516585802E+03  0.29516585802E+03  0.00000000000E+00 0.  1.
          6    1    1    2  501    0 -0.18603169316E+03  0.10379714930E+03  0.17326627685E+03  0.32401673067E+03  0.17200000000E+03 0.  1.
         -6    1    1    2    0  503  0.18603169316E+03 -0.10379714930E+03 -0.13452125602E+03  0.30506000620E+03  0.17200000000E+03 0.  1.
</event>
<event>
 4    1  0.1211980E+000  0.2107583E+03  0.7818608E-02  0.1140967E+00
         21   -1    0    0  501  502  0.00000000000E+00  0.00000000000E+00  0.12530100401E+03  0.12530100401E+03  0.00000000000E+00 0. -1.
         21   -1    0    0  502  503 -0.00000000000E+00 -0.00000000000E+00 -0.35463374598E+03  0.35463374598E+03  0.00000000000E+00 0. -1.
          6    1    1    2  501    0  0.50737940799E+01 -0.12169353998E+03 -0.11934664778E+03  0.24220380549E+03  0.17200000000E+03 0.  1.
         -6    1    1    2    0  503 -0.50737940799E+01  0.12169353998E+03 -0.10998609419E+03  0.23773094450E+03  0.17200000000E+03 0.  1.
</event>
<event>
 4    1  0.1211980E+000  0.2258684E+03  0.7818608E-02  0.1129582E+00
         21   -1    0    0  503  502  0.00000000000E+00  0.00000000000E+00  0.15177871865E+03  0.15177871865E+03  0.00000000000E+00 0. -1.
         21   -1    0    0  501  503 -0.00000000000E+00 -0.00000000000E+00 -0.93384708991E+03  0.93384708991E+03  0.00000000000E+00 0.  1.
          6    1    1    2  501    0  0.91860134668E+02  0.11399230403E+03 -0.82530650906E+03  0.85565610125E+03  0.17200000000E+03 0.  1.
         -6    1    1    2    0  502 -0.91860134668E+02 -0.11399230403E+03  0.43238137791E+02  0.22996970731E+03  0.17200000000E+03 0. -1.
</event>
<event>
 4    1  0.1211980E+000  0.1772308E+03  0.7818608E-02  0.1170510E+00
         21   -1    0    0  503  502  0.00000000000E+00  0.00000000000E+00  0.68592175705E+03  0.68592175705E+03  0.00000000000E+00 0.  1.
         21   -1    0    0  501  503 -0.00000000000E+00 -0.00000000000E+00 -0.46157219439E+02  0.46157219439E+02  0.00000000000E+00 0.  1.
          6    1    1    2  501    0 -0.40505526413E+02 -0.13639794174E+02  0.35237644912E+03  0.39443618439E+03  0.17200000000E+03 0.  1.
         -6    1    1    2    0  502  0.40505526413E+02  0.13639794174E+02  0.28738808848E+03  0.33764279210E+03  0.17200000000E+03 0.  1.
</event>
<event>
 4    1  0.1211980E+000  0.1765287E+03  0.7818608E-02  0.1171206E+00
         21   -1    0    0  503  502  0.00000000000E+00  0.00000000000E+00  0.61830175450E+02  0.61830175450E+02  0.00000000000E+00 0.  1.
         21   -1    0    0  501  503 -0.00000000000E+00 -0.00000000000E+00 -0.89532392635E+03  0.89532392635E+03  0.00000000000E+00 0. -1.
          6    1    1    2  501    0 -0.24510645624E+02 -0.31266502056E+02 -0.73314241819E+03  0.75409559822E+03  0.17200000000E+03 0. -1.
         -6    1    1    2    0  502  0.24510645624E+02  0.31266502056E+02 -0.10035133270E+03  0.20305850358E+03  0.17200000000E+03 0.  1.
</event>
<event>
 4    1  0.1211980E+000  0.2340535E+03  0.7818608E-02  0.1123819E+00
         21   -1    0    0  503  502  0.00000000000E+00  0.00000000000E+00  0.35541339616E+03  0.35541339616E+03  0.00000000000E+00 0.  1.
         21   -1    0    0  501  503 -0.00000000000E+00 -0.00000000000E+00 -0.15514028478E+03  0.15514028478E+03  0.00000000000E+00 0. -1.
          6    1    1    2  501    0 -0.17313061255E+02  0.15778872632E+03  0.79569605192E+02  0.24720911454E+03  0.17200000000E+03 0. -1.
         -6    1    1    2    0  502  0.17313061255E+02 -0.15778872632E+03  0.12070350618E+03  0.26334456639E+03  0.17200000000E+03 0.  1.
</event>
<event>
 4    1  0.1211980E+000  0.1730372E+03  0.7818608E-02  0.1174717E+00
         21   -1    0    0  503  502  0.00000000000E+00  0.00000000000E+00  0.50397977957E+03  0.50397977957E+03  0.00000000000E+00 0. -1.
         21   -1    0    0  501  503 -0.00000000000E+00 -0.00000000000E+00 -0.10900938578E+03  0.10900938578E+03  0.00000000000E+00 0. -1.
          6    1    1    2  501    0  0.14815346269E+02 -0.11762784536E+02 -0.92552100501E+01  0.17328449584E+03  0.17200000000E+03 0. -1.
         -6    1    1    2    0  502 -0.14815346269E+02  0.11762784536E+02  0.40422560385E+03  0.43970466951E+03  0.17200000000E+03 0. -1.
</event>
<event>
 4    1  0.1211980E+000  0.1958693E+03  0.7818608E-02  0.1153272E+00
         21   -1    0    0  501  502  0.00000000000E+00  0.00000000000E+00  0.32352277537E+03  0.32352277537E+03  0.00000000000E+00 0.  1.
         21   -1    0    0  502  503 -0.00000000000E+00 -0.00000000000E+00 -0.49224285207E+03  0.49224285207E+03  0.00000000000E+00 0. -1.
          6    1    1    2  501    0 -0.54036284590E+02  0.76556203077E+02  0.27101185004E+03  0.33438330572E+03  0.17200000000E+03 0.  1.
         -6    1    1    2    0  503  0.54036284590E+02 -0.76556203077E+02 -0.43973192673E+03  0.48138232173E+03  0.17200000000E+03 0. -1.
</event>
<event>
 4    1  0.1211980E+000  0.1868042E+03  0.7818608E-02  0.1161376E+00
         21   -1    0    0  503  502  0.00000000000E+00  0.00000000000E+00  0.77422683049E+03  0.77422683049E+03  0.00000000000E+00 0.  1.
         21   -1    0    0  501  503 -0.00000000000E+00 -0.00000000000E+00 -0.91800162538E+02  0.91800162538E+02  0.00000000000E+00 0.  1.
          6    1    1    2  501    0  0.71130107259E+02 -0.15884619255E+02  0.32276358346E+02  0.18957208812E+03  0.17200000000E+03 0.  1.
         -6    1    1    2    0  502 -0.71130107259E+02  0.15884619255E+02  0.65015030961E+03  0.67645490491E+03  0.17200000000E+03 0.  1.
</event>
<event>
 4    1  0.1211980E+000  0.2828159E+03  0.7818608E-02  0.1094161E+00
         21   -1    0    0  503  502  0.00000000000E+00  0.00000000000E+00  0.64685002441E+03  0.64685002441E+03  0.00000000000E+00 0. -1.
         21   -1    0    0  501  503 -0.00000000000E+00 -0.00000000000E+00 -0.12474538743E+03  0.12474538743E+03  0.00000000000E+00 0.  1.
          6    1    1    2  501    0 -0.17021557038E+03  0.14638133786E+03  0.22494714664E+03  0.36136692607E+03  0.17200000000E+03 0. -1.
         -6    1    1    2    0  502  0.17021557038E+03 -0.14638133786E+03  0.29715749034E+03  0.41022848578E+03  0.17200000000E+03 0.  1.
</event>
<event>
 4    1  0.1211980E+000  0.1959839E+03  0.7818608E-02  0.1153172E+00
         21   -1    0    0  503  502  0.00000000000E+00  0.00000000000E+00  0.54652747615E+03  0.54652747615E+03  0.00000000000E+00 0.  1.
         21   -1    0    0  501  503 -0.00000000000E+00 -0.00000000000E+00 -0.72536211817E+03  0.72536211817E+03  0.00000000000E+00 0.  1.
          6    1    1    2  501    0 -0.91267966524E+02  0.22267992053E+02 -0.69376937789E+03  0.72092000588E+03  0.17200000000E+03 0.  1.
         -6    1    1    2    0  502  0.91267966524E+02 -0.22267992053E+02  0.51493473587E+03  0.55096958844E+03  0.17200000000E+03 0.  1.
</event>
<event>
 4    1  0.1211980E+000  0.2249451E+03  0.7818608E-02  0.1130249E+00
         21   -1    0    0  503  502  0.00000000000E+00  0.00000000000E+00  0.15599933200E+04  0.15599933200E+04  0.00000000000E+00 0.  1.
         21   -1    0    0  501  503 -0.00000000000E+00 -0.00000000000E+00 -0.32778994479E+02  0.32778994479E+02  0.00000000000E+00 0. -1.
          6    1    1    2  501    0  0.13268087179E+03 -0.58413055512E+02  0.84504479678E+03  0.87447184481E+03  0.17200000000E+03 0.  1.
         -6    1    1    2    0  502 -0.13268087179E+03  0.58413055512E+02  0.68216952875E+03  0.71830046969E+03  0.17200000000E+03 0.  1.
</event>
<event>
 4    1  0.1211980E+000  0.2246635E+03  0.7818608E-02  0.1130453E+00
         21   -1    0    0  503  502  0.00000000000E+00  0.00000000000E+00  0.38966340994E+03  0.38966340994E+03  0.00000000000E+00 0. -1.
         21   -1    0    0  501  503 -0.00000000000E+00 -0.00000000000E+00 -0.13016872185E+03  0.13016872185E+03  0.00000000000E+00 0.  1.
          6    1    1    2  501    0  0.11713627991E+03  0.84668708754E+02  0.14793238790E+03  0.26899384696E+03  0.17200000000E+03 0. -1.
         -6    1    1    2    0  502 -0.11713627991E+03 -0.84668708754E+02  0.11156230018E+03  0.25083828483E+03  0.17200000000E+03 0.  1.
</event>
<event>
 4    1  0.1211980E+000  0.2635051E+03  0.7818608E-02  0.1105055E+00
         21   -1    0    0  503  502  0.00000000000E+00  0.00000000000E+00  0.10761048328E+04  0.10761048328E+04  0.00000000000E+00 0.  1.
         21   -1    0    0  501  503 -0.00000000000E+00 -0.00000000000E+00 -0.10021026815E+03  0.10021026815E+03  0.00000000000E+00 0.  1.
          6    1    1    2  501    0 -0.11043171306E+03 -0.16630029114E+03  0.83893028547E+03  0.87934007868E+03  0.17200000000E+03 0. -1.
         -6    1    1    2    0  502  0.11043171306E+03  0.16630029114E+03  0.13696427919E+03  0.29697502228E+03  0.17200000000E+03 0. -1.
</event>
<event>
 4    1  0.1211980E+000  0.2070013E+03  0.7818608E-02  0.1143963E+00
         21   -1    0    0  501  502  0.00000000000E+00  0.00000000000E+00  0.11856598545E+03  0.11856598545E+03  0.00000000000E+00 0.  1.
         21   -1    0    0  502  503 -0.00000000000E+00 -0.00000000000E+00 -0.36158111593E+03  0.36158111593E+03  0.00000000000E+00 0. -1.
          6    1    1    2  501    0  0.10308875680E+03  0.51363997518E+02 -0.12690495708E+03  0.24280531326E+03  0.17200000000E+03 0. -1.
         -6    1    1    2    0  503 -0.10308875680E+03 -0.51363997518E+02 -0.11611017341E+03  0.23734178812E+03  0.17200000000E+03 0.  1.
</event>
<event>
 4    1  0.1211980E+000  0.2397820E+03  0.7818608E-02  0.1119938E+00
         21   -1    0    0  501  502  0.00000000000E+00  0.00000000000E+00  0.63319900997E+03  0.63319900997E+03  0.00000000000E+00 0. -1.
         21   -1    0    0  502  503 -0.00000000000E+00 -0.00000000000E+00 -0.95466589624E+02  0.95466589624E+02  0.00000000000E+00 0. -1.
          6    1    1    2  501    0 -0.15923068061E+03 -0.50566676563E+02  0.18832759798E+03  0.30489782319E+03  0.17200000000E+03 0.  1.
         -6    1    1    2    0  503  0.15923068061E+03  0.50566676563E+02  0.34940482237E+03  0.42376777641E+03  0.17200000000E+03 0.  1.
</event>
<event>
 4    1  0.1211980E+000  0.1852039E+03  0.7818608E-02  0.1162860E+00
         21   -1    0    0  503  502  0.00000000000E+00  0.00000000000E+00  0.18115900477E+03  0.18115900477E+03  0.00000000000E+00 0.  1.
         21   -1    0    0  501  503 -0.00000000000E+00 -0.00000000000E+00 -0.29507048684E+03  0.29507048684E+03  0.00000000000E+00 0.  1.
          6    1    1    2  501    0 -0.34569380381E+02  0.59341890732E+02 -0.19949193295E+03  0.27220862104E+03  0.17200000000E+03 0.  1.
         -6    1    1    2    0  502  0.34569380381E+02 -0.59341890732E+02  0.85580450875E+02  0.20402087057E+03  0.17200000000E+03 0.  1.
</event>
<event>
 4    1  0.1211980E+000  0.1720319E+03  0.7818608E-02  0.1175745E+00
         21   -1    0    0  501  502  0.00000000000E+00  0.00000000000E+00  0.95322812199E+02  0.95322812199E+02  0.00000000000E+00 0.  1.
         21   -1    0    0  502  503 -0.00000000000E+00 -0.00000000000E+00 -0.69404294765E+03  0.69404294765E+03  0.00000000000E+00 0.  1.
          6    1    1    2  501    0 -0.28083156503E+01 -0.17545910665E+01 -0.59476054388E+01  0.17213465438E+03  0.17200000000E+03 0.  1.
         -6    1    1    2    0  503  0.28083156503E+01  0.17545910665E+01 -0.59277253002E+03  0.61723110548E+03  0.17200000000E+03 0.  1.
</event>
<event>
 4    1  0.1211980E+000  0.1817658E+03  0.7818608E-02  0.1166105E+00
         21   -1    0    0  503  502  0.00000000000E+00  0.00000000000E+00  0.26818895397E+03  0.26818895397E+03  0.00000000000E+00 0.  1.
         21   -1    0    0  501  503 -0.00000000000E+00 -0.00000000000E+00 -0.21755393625E+03  0.21755393625E+03  0.00000000000E+00 0.  1.
          6    1    1    2  501    0 -0.58771067793E+02 -0.87473312484E+00 -0.13463490772E+03  0.22619761702E+03  0.17200000000E+03 0.  1.
         -6    1    1    2    0  502  0.58771067793E+02  0.87473312484E+00  0.18526992544E+03  0.25954527320E+03  0.17200000000E+03 0.  1.
</event>
<event>
 4    1  0.1211980E+000  0.2388880E+03  0.7818608E-02  0.1120536E+00
         21   -1    0    0  501  502  0.00000000000E+00  0.00000000000E+00  0.53777525486E+03  0.53777525486E+03  0.00000000000E+00 0.  1.
         21   -1    0    0  502  503 -0.00000000000E+00 -0.00000000000E+00 -0.10612314155E+03  0.10612314155E+03  0.00000000000E+00 0. -1.
          6    1    1    2  501    0  0.12163585786E+03 -0.11264184523E+03  0.21351832896E+03  0.32040215981E+03  0.17200000000E+03 0. -1.
         -6    1    1    2    0  503 -0.12163585786E+03  0.11264184523E+03  0.21813378436E+03  0.32349623660E+03  0.17200000000E+03 0. -1.
</event>
<event>
 4    1  0.1211980E+000  0.2435679E+03  0.7818608E-02  0.1117439E+00
         21   -1    0    0  503  502  0.00000000000E+00  0.00000000000E+00  0.21049652768E+03  0.21049652768E+03  0.00000000000E+00 0.  1.
         21   -1    0    0  501  503 -0.00000000000E+00 -0.00000000000E+00 -0.28468773762E+03  0.28468773762E+03  0.00000000000E+00 0. -1.
          6    1    1    2  501    0 -0.45465710706E+01 -0.17239672777E+03 -0.61879995814E+02  0.25130546539E+03  0.17200000000E+03 0. -1.
         -6    1    1    2    0  502  0.45465710706E+01  0.17239672777E+03 -0.12311214121E+02  0.24387879991E+03  0.17200000000E+03 0.  1.
</event>
<event>
 4    1  0.1211980E+000  0.1880864E+03  0.7818608E-02  0.1160199E+00
         21   -1    0    0  501  502  0.00000000000E+00  0.00000000000E+00  0.15841831167E+04  0.15841831167E+04  0.00000000000E+00 0.  1.
         21   -1    0    0  502  503 -0.00000000000E+00 -0.00000000000E+00 -0.52393843315E+02  0.52393843315E+02  0.00000000000E+00 0.  1.
          6    1    1    2  501    0  0.51862611681E+02  0.55702407075E+02  0.13857364936E+04  0.13984427476E+04  0.17200000000E+03 0.  1.
         -6    1    1    2    0  503 -0.51862611681E+02 -0.55702407075E+02  0.14605277984E+03  0.23813421246E+03  0.17200000000E+03 0.  1.
</event>
<event>
 4    1  0.1211980E+000  0.2876863E+03  0.7818608E-02  0.1091563E+00
         21   -1    0    0  501  502  0.00000000000E+00  0.00000000000E+00  0.40073011081E+02  0.40073011081E+02  0.00000000000E+00 0. -1.
         21   -1    0    0  502  503 -0.00000000000E+00 -0.00000000000E+00 -0.31366800431E+04  0.31366800431E+04  0.00000000000E+00 0.  1.
          6    1    1    2  501    0 -0.10977693033E+03  0.20280153204E+03 -0.62000670458E+03  0.68349963391E+03  0.17200000000E+03 0.  1.
         -6    1    1    2    0  503  0.10977693033E+03 -0.20280153204E+03 -0.24766003275E+04  0.24932534203E+04  0.17200000000E+03 0.  1.
</event>
<event>
 4    1  0.1211980E+000  0.2060357E+03  0.7818608E-02  0.1144744E+00
         21   -1    0    0  501  502  0.00000000000E+00  0.00000000000E+00  0.13087355563E+03  0.13087355563E+03  0.00000000000E+00 0.  1.
         21   -1    0    0  502  503 -0.00000000000E+00 -0.00000000000E+00 -0.33384986187E+03  0.33384986187E+03  0.00000000000E+00 0.  1.
          6    1    1    2  501    0 -0.14894588687E+01  0.11342166778E+03 -0.62320883305E+02  0.21525469961E+03  0.17200000000E+03 0.  1.
         -6    1    1    2    0  503  0.14894588687E+01 -0.11342166778E+03 -0.14065542293E+03  0.24946871790E+03  0.17200000000E+03 0.  1.
</event>
<event>
 4    1  0.1211980E+000  0.1872129E+03  0.7818608E-02  0.1160999E+00
         21   -1    0    0  503  502  0.00000000000E+00  0.00000000000E+00  0.40173764660E+03  0.40173764660E+03  0.00000000000E+00 0.  1.
         21   -1    0    0  501  503 -0.00000000000E+00 -0.00000000000E+00 -0.87250189716E+02  0.87250189716E+02  0.00000000000E+00 0.  1.
          6    1    1    2  501    0  0.35628651909E+02 -0.64770799877E+02  0.15497109495E+03  0.24303229749E+03  0.17200000000E+03 0.  1.
         -6    1    1    2    0  502 -0.35628651909E+02  0.64770799877E+02  0.15951636194E+03  0.24595553882E+03  0.17200000000E+03 0.  1.
</event>
<event>
 4    1  0.1211980E+000  0.2114274E+03  0.7818608E-02  0.1140441E+00
         21   -1    0    0  501  502  0.00000000000E+00  0.00000000000E+00  0.56324522406E+02  0.56324522406E+02  0.00000000000E+00 0.  1.
         21   -1    0    0  502  503 -0.00000000000E+00 -0.00000000000E+00 -0.84298862269E+03  0.84298862269E+03  0.00000000000E+00 0.  1.
          6    1    1    2  501    0  0.11933395863E+03  0.29613102254E+02 -0.50212406442E+03  0.54482116844E+03  0.17200000000E+03 0.  1.
         -6    1    1    2    0  503 -0.11933395863E+03 -0.29613102254E+02 -0.28454003586E+03  0.35449197666E+03  0.17200000000E+03 0.  1.
</event>
<event>
 4    1  0.1211980E+000  0.1836510E+03  0.7818608E-02  0.1164316E+00
         21   -1    0    0  503  502  0.00000000000E+00  0.00000000000E+00  0.81361082719E+02  0.81361082719E+02  0.00000000000E+00 0.  1.
         21   -1    0    0  501  503 -0.00000000000E+00 -0.00000000000E+00 -0.64978146178E+03  0.64978146178E+03  0.00000000000E+00 0.  1.
          6    1    1    2  501    0  0.34054889251E+02  0.54625551286E+02 -0.50416950092E+03  0.53657671585E+03  0.17200000000E+03 0.  1.
         -6    1    1    2    0  502 -0.34054889251E+02 -0.54625551286E+02 -0.64250878140E+02  0.19456582865E+03  0.17200000000E+03 0.  1.
</event>
<event>
 4    1  0.1211980E+000  0.1748893E+03  0.7818608E-02  0.1172843E+00
         21   -1    0    0  501  502  0.00000000000E+00  0.00000000000E+00  0.62038761529E+03  0.62038761529E+03  0.00000000000E+00 0.  1.
         21   -1    0    0  502  503 -0.00000000000E+00 -0.00000000000E+00 -0.32082046537E+03  0.32082046537E+03  0.00000000000E+00 0.  1.
          6    1    1    2  501    0  0.23834000761E+02  0.20837884419E+02  0.58272027125E+03  0.60839887536E+03  0.17200000000E+03 0.  1.
         -6    1    1    2    0  503 -0.23834000761E+02 -0.20837884419E+02 -0.28315312132E+03  0.33280920530E+03  0.17200000000E+03 0.  1.
</event>
<event>
 4    1  0.1211980E+000  0.1954914E+03  0.7818608E-02  0.1153600E+00
         21   -1    0    0  501  502  0.00000000000E+00  0.00000000000E+00  0.26244366357E+03  0.26244366357E+03  0.00000000000E+00 0.  1.
         21   -1    0    0  502  503 -0.00000000000E+00 -0.00000000000E+00 -0.38378222393E+03  0.38378222393E+03  0.00000000000E+00 0.  1.
          6    1    1    2  501    0 -0.34401727469E+02  0.86309896547E+02  0.19386656732E+03  0.27532003744E+03  0.17200000000E+03 0.  1.
         -6    1    1    2    0  503  0.34401727469E+02 -0.86309896547E+02 -0.31520512768E+03  0.37090585006E+03  0.17200000000E+03 0.  1.
</event>
<event>
 4    1  0.1211980E+000  0.2453788E+03  0.7818608E-02  0.1116261E+00
         21   -1    0    0  501  502  0.00000000000E+00  0.00000000000E+00  0.79532060295E+03  0.79532060295E+03  0.00000000000E+00 0.  1.
         21   -1    0    0  502  503 -0.00000000000E+00 -0.00000000000E+00 -0.13193599210E+03  0.13193599210E+03  0.00000000000E+00 0. -1.
          6    1    1    2  501    0  0.11049389415E+03  0.13571239917E+03  0.63436361934E+03  0.68016759514E+03  0.17200000000E+03 0.  1.
         -6    1    1    2    0  503 -0.11049389415E+03 -0.13571239917E+03  0.29020991509E+02  0.24708899992E+03  0.17200000000E+03 0. -1.
</event>
<event>
 4    1  0.1211980E+000  0.2474355E+03  0.7818608E-02  0.1114936E+00
         21   -1    0    0  503  502  0.00000000000E+00  0.00000000000E+00  0.67531757839E+03  0.67531757839E+03  0.00000000000E+00 0. -1.
         21   -1    0    0  501  503 -0.00000000000E+00 -0.00000000000E+00 -0.10593505528E+03  0.10593505528E+03  0.00000000000E+00 0. -1.
          6    1    1    2  501    0  0.17351852401E+03  0.39136170742E+02  0.13636006844E+03  0.28252147936E+03  0.17200000000E+03 0. -1.
         -6    1    1    2    0  502 -0.17351852401E+03 -0.39136170742E+02  0.43302245467E+03  0.49873115431E+03  0.17200000000E+03 0. -1.
</event>
<event>
 4    1  0.1211980E+000  0.1915579E+03  0.7818608E-02  0.1157064E+00
         21   -1    0    0  501  502  0.00000000000E+00  0.00000000000E+00  0.90516485022E+03  0.90516485022E+03  0.00000000000E+00 0.  1.
         21   -1    0    0  502  503 -0.00000000000E+00 -0.00000000000E+00 -0.40559314991E+02  0.40559314991E+02  0.00000000000E+00 0.  1.
          6    1    1    2  501    0 -0.53126713472E+02 -0.65482618739E+02  0.42170370466E+03  0.46317214463E+03  0.17200000000E+03 0.  1.
         -6    1    1    2    0  503  0.53126713472E+02  0.65482618739E+02  0.44290183057E+03  0.48255202058E+03  0.17200000000E+03 0.  1.
</event>
<event>
 4    1  0.1211980E+000  0.2034883E+03  0.7818608E-02  0.1146829E+00
         21   -1    0    0  503  502  0.00000000000E+00  0.00000000000E+00  0.11781579281E+03  0.11781579281E+03  0.00000000000E+00 0. -1.
         21   -1    0    0  501  503 -0.00000000000E+00 -0.00000000000E+00 -0.38759229443E+03  0.38759229443E+03  0.00000000000E+00 0. -1.
          6    1    1    2  501    0  0.11194497066E+02 -0.10815807106E+03 -0.57731288641E+02  0.21151923503E+03  0.17200000000E+03 0. -1.
         -6    1    1    2    0  502 -0.11194497066E+02  0.10815807106E+03 -0.21204521298E+03  0.29388885220E+03  0.17200000000E+03 0. -1.
</event>
<event>
 4    1  0.1211980E+000  0.2057026E+03  0.7818608E-02  0.1145015E+00
         21   -1    0    0  501  502  0.00000000000E+00  0.00000000000E+00  0.15947551988E+04  0.15947551988E+04  0.00000000000E+00 0.  1.
         21   -1    0    0  502  503 -0.00000000000E+00 -0.00000000000E+00 -0.13169380645E+03  0.13169380645E+03  0.00000000000E+00 0. -1.
          6    1    1    2  501    0  0.16727102176E+02  0.11157842367E+03  0.15029103265E+04  0.15169222096E+04  0.17200000000E+03 0.  1.
         -6    1    1    2    0  503 -0.16727102176E+02 -0.11157842367E+03 -0.39848934065E+02  0.20952679571E+03  0.17200000000E+03 0. -1.
</event>
<event>
 4    1  0.1211980E+000  0.3179519E+03  0.7818608E-02  0.1076596E+00
         21   -1    0    0  501  502  0.00000000000E+00  0.00000000000E+00  0.76246970146E+02  0.76246970146E+02  0.00000000000E+00 0.  1.
         21   -1    0    0  502  503 -0.00000000000E+00 -0.00000000000E+00 -0.22492895610E+04  0.22492895610E+04  0.00000000000E+00 0. -1.
          6    1    1    2  501    0 -0.29976363616E+02 -0.26572692274E+03 -0.34149670216E+03  0.46659766119E+03  0.17200000000E+03 0. -1.
         -6    1    1    2    0  503  0.29976363616E+02  0.26572692274E+03 -0.18315458887E+04  0.18589388700E+04  0.17200000000E+03 0. -1.
</event>
<event>
 4    1  0.1211980E+000  0.1764985E+03  0.7818608E-02  0.1171236E+00
         21   -1    0    0  503  502  0.00000000000E+00  0.00000000000E+00  0.91914770241E+03  0.91914770241E+03  0.00000000000E+00 0. -1.
         21   -1    0    0  501  503 -0.00000000000E+00 -0.00000000000E+00 -0.42914796354E+02  0.42914796354E+02  0.00000000000E+00 0. -1.
          6    1    1    2  501    0 -0.33077619451E+02 -0.21761851095E+02  0.65868397658E+03  0.68192102774E+03  0.17200000000E+03 0.  1.
         -6    1    1    2    0  502  0.33077619451E+02  0.21761851095E+02  0.21754892948E+03  0.28014147103E+03  0.17200000000E+03 0.  1.
</event>
<event>
 4    1  0.1211980E+000  0.1878635E+03  0.7818608E-02  0.1160403E+00
         21   -1    0    0  501  502  0.00000000000E+00  0.00000000000E+00  0.18164628994E+03  0.18164628994E+03  0.00000000000E+00 0. -1.
         21   -1    0    0  502  503 -0.00000000000E+00 -0.00000000000E+00 -0.20561043678E+03  0.20561043678E+03  0.00000000000E+00 0. -1.
          6    1    1    2  501    0  0.22100448230E+02  0.72251465339E+02 -0.57408619750E+02  0.19643944023E+03  0.17200000000E+03 0. -1.
         -6    1    1    2    0  503 -0.22100448230E+02 -0.72251465339E+02  0.33444472906E+02  0.19081728649E+03  0.17200000000E+03 0. -1.
</event>
<event>
 4    1  0.1211980E+000  0.1924913E+03  0.7818608E-02  0.1156233E+00
         21   -1    0    0  501  502  0.00000000000E+00  0.00000000000E+00  0.32674109210E+03  0.32674109210E+03  0.00000000000E+00 0.  1.
         21   -1    0    0  502  503 -0.00000000000E+00 -0.00000000000E+00 -0.12718114448E+03  0.12718114448E+03  0.00000000000E+00 0.  1.
          6    1    1    2  501    0 -0.75196883059E+02 -0.42594815370E+02  0.17448693219E+03  0.25980488645E+03  0.17200000000E+03 0.  1.
         -6    1    1    2    0  503  0.75196883059E+02  0.42594815370E+02  0.25073015433E+02  0.19411735013E+03  0.17200000000E+03 0.  1.
</event>
<event>
 4    1  0.1211980E+000  0.1726338E+03  0.7818608E-02  0.1175129E+00
         21   -1    0    0  501  502  0.00000000000E+00  0.00000000000E+00  0.47383368704E+02  0.47383368704E+02  0.00000000000E+00 0. -1.
         21   -1    0    0  502  503 -0.00000000000E+00 -0.00000000000E+00 -0.69779255883E+03  0.69779255883E+03  0.00000000000E+00 0. -1.
          6    1    1    2  501    0 -0.11386175571E+02 -0.94233886294E+01 -0.20818753454E+03  0.27045238913E+03  0.17200000000E+03 0.  1.
         -6    1    1    2    0  503  0.11386175571E+02  0.94233886294E+01 -0.44222165559E+03  0.47472353841E+03  0.17200000000E+03 0.  1.
</event>
<event>
 4    1  0.1211980E+000  0.1804190E+03  0.7818608E-02  0.1167398E+00
         21   -1    0    0  501  502  0.00000000000E+00  0.00000000000E+00  0.21527783843E+03  0.21527783843E+03  0.00000000000E+00 0.  1.
         21   -1    0    0  502  503 -0.00000000000E+00 -0.00000000000E+00 -0.17531231735E+03  0.17531231735E+03  0.00000000000E+00 0.  1.
          6    1    1    2  501    0 -0.56929248861E+01 -0.54171952362E+02 -0.52437935427E+02  0.18788492991E+03  0.17200000000E+03 0.  1.
         -6    1    1    2    0  503  0.56929248861E+01  0.54171952362E+02  0.92403456507E+02  0.20270522586E+03  0.17200000000E+03 0.  1.
</event>
<event>
 4    1  0.1211980E+000  0.2127363E+03  0.7818608E-02  0.1139417E+00
         21   -1    0    0  503  502  0.00000000000E+00  0.00000000000E+00  0.37816546701E+03  0.37816546701E+03  0.00000000000E+00 0. -1.
         21   -1    0    0  501  503 -0.00000000000E+00 -0.00000000000E+00 -0.68850362154E+03  0.68850362154E+03  0.00000000000E+00 0. -1.
          6    1    1    2  501    0  0.94132014451E+02 -0.82534156358E+02 -0.63994110369E+03  0.67437477659E+03  0.17200000000E+03 0. -1.
         -6    1    1    2    0  502 -0.94132014451E+02  0.82534156358E+02  0.32960294915E+03  0.39229431196E+03  0.17200000000E+03 0. -1.
</event>
<event>
 4    1  0.1211980E+000  0.1764242E+03  0.7818608E-02  0.1171309E+00
         21   -1    0    0  503  502  0.00000000000E+00  0.00000000000E+00  0.51287236233E+03  0.51287236233E+03  0.00000000000E+00 0.  1.
         21   -1    0    0  501  503 -0.00000000000E+00 -0.00000000000E+00 -0.84870636477E+02  0.84870636477E+02  0.00000000000E+00 0.  1.
          6    1    1    2  501    0  0.29800862293E+02  0.25561713046E+02  0.54467162892E+02  0.18464063583E+03  0.17200000000E+03 0.  1.
         -6    1    1    2    0  502 -0.29800862293E+02 -0.25561713046E+02  0.37353456296E+03  0.41310236297E+03  0.17200000000E+03 0.  1.
</event>
<event>
 4    1  0.1211980E+000  0.1769595E+03  0.7818608E-02  0.1170779E+00
         21   -1    0    0  501  502  0.00000000000E+00  0.00000000000E+00  0.12207341716E+03  0.12207341716E+03  0.00000000000E+00 0. -1.
         21   -1    0    0  502  503 -0.00000000000E+00 -0.00000000000E+00 -0.40789426982E+03  0.40789426982E+03  0.00000000000E+00 0. -1.
          6    1    1    2  501    0 -0.21906749772E+02  0.35365933194E+02 -0.30433406598E+03  0.35204243868E+03  0.17200000000E+03 0. -1.
         -6    1    1    2    0  503  0.21906749772E+02 -0.35365933194E+02  0.18513213322E+02  0.17792524830E+03  0.17200000000E+03 0. -1.
</event>
<event>
 4    1  0.1211980E+000  0.2128093E+03  0.7818608E-02  0.1139360E+00
         21   -1    0    0  501  502  0.00000000000E+00  0.00000000000E+00  0.24789120330E+02  0.24789120330E+02  0.00000000000E+00 0. -1.
         21   -1    0    0  502  503 -0.00000000000E+00 -0.00000000000E+00 -0.21787458890E+04  0.21787458890E+04  0.00000000000E+00 0.  1.
          6    1    1    2  501    0 -0.59332262933E+02  0.11037877215E+03 -0.63423784005E+03  0.66898836202E+03  0.17200000000E+03 0. -1.
         -6    1    1    2    0  503  0.59332262933E+02 -0.11037877215E+03 -0.15197189286E+04  0.15345466473E+04  0.17200000000E+03 0.  1.
</event>
<event>
 4    1  0.1211980E+000  0.1789862E+03  0.7818608E-02  0.1168788E+00
         21   -1    0    0  501  502  0.00000000000E+00  0.00000000000E+00  0.39646941420E+03  0.39646941420E+03  0.00000000000E+00 0. -1.
         21   -1    0    0  502  503 -0.00000000000E+00 -0.00000000000E+00 -0.81292842984E+02  0.81292842984E+02  0.00000000000E+00 0. -1.
          6    1    1    2  501    0 -0.48721475465E+02 -0.88468356552E+01  0.13905134493E+03  0.22665243259E+03  0.17200000000E+03 0.  1.
         -6    1    1    2    0  503  0.48721475465E+02  0.88468356552E+01  0.17612522628E+03  0.25110982459E+03  0.17200000000E+03 0.  1.
</event>
<event>
 4    1  0.1211980E+000  0.2428350E+03  0.7818608E-02  0.1117919E+00
         21   -1    0    0  503  502  0.00000000000E+00  0.00000000000E+00  0.15175276945E+04  0.15175276945E+04  0.00000000000E+00 0. -1.
         21   -1    0    0  501  503 -0.00000000000E+00 -0.00000000000E+00 -0.12234901194E+03  0.12234901194E+03  0.00000000000E+00 0. -1.
          6    1    1    2  501    0 -0.16683250279E+03 -0.39392103117E+02  0.20260484870E+02  0.24367870039E+03  0.17200000000E+03 0. -1.
         -6    1    1    2    0  502  0.16683250279E+03  0.39392103117E+02  0.13749181977E+04  0.13961980060E+04  0.17200000000E+03 0. -1.
</event>
<event>
 4    1  0.1211980E+000  0.2302654E+03  0.7818608E-02  0.1126453E+00
         21   -1    0    0  501  502  0.00000000000E+00  0.00000000000E+00  0.22057459370E+03  0.22057459370E+03  0.00000000000E+00 0.  1.
         21   -1    0    0  502  503 -0.00000000000E+00 -0.00000000000E+00 -0.37661701587E+03  0.37661701587E+03  0.00000000000E+00 0.  1.
          6    1    1    2  501    0 -0.14802470060E+03  0.39075066302E+02  0.10156708417E+03  0.25167050956E+03  0.17200000000E+03 0.  1.
         -6    1    1    2    0  503  0.14802470060E+03 -0.39075066302E+02 -0.25760950635E+03  0.34552110001E+03  0.17200000000E+03 0.  1.
</event>
<event>
 4    1  0.1211980E+000  0.1949456E+03  0.7818608E-02  0.1154075E+00
         21   -1    0    0  503  502  0.00000000000E+00  0.00000000000E+00  0.82802048694E+02  0.82802048694E+02  0.00000000000E+00 0.  1.
         21   -1    0    0  501  503 -0.00000000000E+00 -0.00000000000E+00 -0.52661659993E+03  0.52661659993E+03  0.00000000000E+00 0.  1.
          6    1    1    2  501    0  0.88118701240E+02 -0.25590859312E+02 -0.11269889172E+03  0.22517734740E+03  0.17200000000E+03 0.  1.
         -6    1    1    2    0  502 -0.88118701240E+02  0.25590859312E+02 -0.33111565951E+03  0.38424130122E+03  0.17200000000E+03 0.  1.
</event>
<event>
 4    1  0.1211980E+000  0.2547637E+03  0.7818608E-02  0.1110331E+00
         21   -1    0    0  501  502  0.00000000000E+00  0.00000000000E+00  0.69967028244E+03  0.69967028244E+03  0.00000000000E+00 0. -1.
         21   -1    0    0  502  503 -0.00000000000E+00 -0.00000000000E+00 -0.94883475990E+02  0.94883475990E+02  0.00000000000E+00 0.  1.
          6    1    1    2  501    0  0.18793654208E+03 -0.63963575735E+00  0.24302400918E+03  0.35208695236E+03  0.17200000000E+03 0.  1.
         -6    1    1    2    0  503 -0.18793654208E+03  0.63963575735E+00  0.36176279727E+03  0.44246680607E+03  0.17200000000E+03 0. -1.
</event>
<event>
 4    1  0.1211980E+000  0.2113483E+03  0.7818608E-02  0.1140503E+00
         21   -1    0    0  501  502  0.00000000000E+00  0.00000000000E+00  0.99255427209E+03  0.99255427209E+03  0.00000000000E+00 0.  1.
         21   -1    0    0  502  503 -0.00000000000E+00 -0.00000000000E+00 -0.86049216096E+02  0.86049216096E+02  0.00000000000E+00 0.  1.
          6    1    1    2  501    0  0.20386901625E+02 -0.12111348852E+03  0.82572480522E+03  0.85234356736E+03  0.17200000000E+03 0.  1.
         -6    1    1    2    0  503 -0.20386901625E+02  0.12111348852E+03  0.80780250777E+02  0.22625992083E+03  0.17200000000E+03 0.  1.
</event>
<event>
 4    1  0.1211980E+000  0.1774744E+03  0.7818608E-02  0.1170270E+00
         21   -1    0    0  501  502  0.00000000000E+00  0.00000000000E+00  0.37453256384E+03  0.37453256384E+03  0.00000000000E+00 0.  1.
         21   -1    0    0  502  503 -0.00000000000E+00 -0.00000000000E+00 -0.87411521280E+02  0.87411521280E+02  0.00000000000E+00 0.  1.
          6    1    1    2  501    0 -0.43216009201E+02 -0.67475472900E+01  0.98585630372E+02  0.20301792867E+03  0.17200000000E+03 0.  1.
         -6    1    1    2    0  503  0.43216009201E+02  0.67475472900E+01  0.18853541219E+03  0.25892615645E+03  0.17200000000E+03 0.  1.
</event>
<event>
 4    1  0.1211980E+000  0.1794910E+03  0.7818608E-02  0.1168297E+00
         21   -1    0    0  503  502  0.00000000000E+00  0.00000000000E+00  0.29112641796E+03  0.29112641796E+03  0.00000000000E+00 0. -1.
         21   -1    0    0  501  503 -0.00000000000E+00 -0.00000000000E+00 -0.11805228527E+03  0.11805228527E+03  0.00000000000E+00 0. -1.
          6    1    1    2  501    0  0.44137124706E+02 -0.26171271328E+02  0.35352726369E+02  0.18293943392E+03  0.17200000000E+03 0. -1.
         -6    1    1    2    0  502 -0.44137124706E+02  0.26171271328E+02  0.13772140633E+03  0.22623926932E+03  0.17200000000E+03 0. -1.
</event>
<event>
 4    1  0.1211980E+000  0.1809301E+03  0.7818608E-02  0.1166906E+00
         21   -1    0    0  503  502  0.00000000000E+00  0.00000000000E+00  0.56370931534E+02  0.56370931534E+02  0.00000000000E+00 0. -1.
         21   -1    0    0  501  503 -0.00000000000E+00 -0.00000000000E+00 -0.11098796192E+04  0.11098796192E+04  0.00000000000E+00 0. -1.
          6    1    1    2  501    0  0.56119778994E+02  0.15042761457E+01 -0.92939491156E+03  0.94684243360E+03  0.17200000000E+03 0.  1.
         -6    1    1    2    0  502 -0.56119778994E+02 -0.15042761457E+01 -0.12411377610E+03  0.21940811712E+03  0.17200000000E+03 0.  1.
</event>
<event>
 4    1  0.1211980E+000  0.1919170E+03  0.7818608E-02  0.1156744E+00
         21   -1    0    0  503  502  0.00000000000E+00  0.00000000000E+00  0.12173928792E+04  0.12173928792E+04  0.00000000000E+00 0. -1.
         21   -1    0    0  501  503 -0.00000000000E+00 -0.00000000000E+00 -0.88245901255E+02  0.88245901255E+02  0.00000000000E+00 0. -1.
          6    1    1    2  501    0 -0.42410720385E+02 -0.73820503862E+02  0.35366018311E+02  0.19514838264E+03  0.17200000000E+03 0. -1.
         -6    1    1    2    0  502  0.42410720385E+02  0.73820503862E+02  0.10937809597E+04  0.11104903979E+04  0.17200000000E+03 0. -1.
</event>
<event>
 4    1  0.1211980E+000  0.2098188E+03  0.7818608E-02  0.1141710E+00
         21   -1    0    0  503  502  0.00000000000E+00  0.00000000000E+00  0.68498995943E+03  0.68498995943E+03  0.00000000000E+00 0. -1.
         21   -1    0    0  501  503 -0.00000000000E+00 -0.00000000000E+00 -0.66767937689E+02  0.66767937689E+02  0.00000000000E+00 0. -1.
          6    1    1    2  501    0 -0.88487812832E+02  0.81300791933E+02  0.23639924709E+03  0.31608308372E+03  0.17200000000E+03 0. -1.
         -6    1    1    2    0  502  0.88487812832E+02 -0.81300791933E+02  0.38182277466E+03  0.43567481341E+03  0.17200000000E+03 0. -1.
</event>
<event>
 4    1  0.1211980E+000  0.2281826E+03  0.7818608E-02  0.1127926E+00
         21   -1    0    0  501  502  0.00000000000E+00  0.00000000000E+00  0.11385262418E+03  0.11385262418E+03  0.00000000000E+00 0.  1.
         21   -1    0    0  502  503 -0.00000000000E+00 -0.00000000000E+00 -0.10465247052E+04  0.10465247052E+04  0.00000000000E+00 0. -1.
          6    1    1    2  501    0  0.15044626171E+02 -0.14918759949E+03 -0.30997659763E+02  0.23027838702E+03  0.17200000000E+03 0.  1.
         -6    1    1    2    0  503 -0.15044626171E+02  0.14918759949E+03 -0.90167442129E+03  0.93009894238E+03  0.17200000000E+03 0. -1.
</event>
<event>
 4    1  0.1211980E+000  0.1884051E+03  0.7818608E-02  0.1159908E+00
         21   -1    0    0  503  502  0.00000000000E+00  0.00000000000E+00  0.68530024545E+02  0.68530024545E+02  0.00000000000E+00 0. -1.
         21   -1    0    0  501  503 -0.00000000000E+00 -0.00000000000E+00 -0.55643812785E+03  0.55643812785E+03  0.00000000000E+00 0.  1.
          6    1    1    2  501    0 -0.43783515666E+02  0.63209713220E+02 -0.32611636745E+03  0.37662760017E+03  0.17200000000E+03 0. -1.
         -6    1    1    2    0  502  0.43783515666E+02 -0.63209713220E+02 -0.16179173585E+03  0.24834055223E+03  0.17200000000E+03 0. -1.
</event>
<event>
 4    1  0.1211980E+000  0.1800113E+03  0.7818608E-02  0.1167792E+00
         21   -1    0    0  503  502  0.00000000000E+00  0.00000000000E+00  0.18317688658E+03  0.18317688658E+03  0.00000000000E+00 0. -1.
         21   -1    0    0  501  503 -0.00000000000E+00 -0.00000000000E+00 -0.65047021969E+03  0.65047021969E+03  0.00000000000E+00 0.  1.
          6    1    1    2  501    0 -0.17725346791E+02 -0.50058868667E+02 -0.58930297509E+03  0.61618347486E+03  0.17200000000E+03 0.  1.
         -6    1    1    2    0  502  0.17725346791E+02  0.50058868667E+02  0.12200964197E+03  0.21746363141E+03  0.17200000000E+03 0. -1.
</event>
<event>
 4    1  0.1211980E+000  0.2282741E+03  0.7818608E-02  0.1127860E+00
         21   -1    0    0  503  502  0.00000000000E+00  0.00000000000E+00  0.35627012384E+03  0.35627012384E+03  0.00000000000E+00 0.  1.
         21   -1    0    0  501  503 -0.00000000000E+00 -0.00000000000E+00 -0.17549240193E+03  0.17549240193E+03  0.00000000000E+00 0.  1.
          6    1    1    2  501    0 -0.11677576886E+03  0.94278856408E+02 -0.18121115176E+02  0.22899226575E+03  0.17200000000E+03 0. -1.
         -6    1    1    2    0  502  0.11677576886E+03 -0.94278856408E+02  0.19889883708E+03  0.30277026002E+03  0.17200000000E+03 0. -1.
</event>
<event>
 4    1  0.1211980E+000  0.3063254E+03  0.7818608E-02  0.1082121E+00
         21   -1    0    0  501  502  0.00000000000E+00  0.00000000000E+00  0.18898800930E+03  0.18898800930E+03  0.00000000000E+00 0.  1.
         21   -1    0    0  502  503 -0.00000000000E+00 -0.00000000000E+00 -0.73497400277E+03  0.73497400277E+03  0.00000000000E+00 0.  1.
          6    1    1    2  501    0  0.11292081070E+03 -0.22693645252E+03 -0.98477291985E+01  0.30648367125E+03  0.17200000000E+03 0.  1.
         -6    1    1    2    0  503 -0.11292081070E+03  0.22693645252E+03 -0.53613826427E+03  0.61747834082E+03  0.17200000000E+03 0.  1.
</event>
<event>
 4    1  0.1211980E+000  0.1882186E+03  0.7818608E-02  0.1160078E+00
         21   -1    0    0  503  502  0.00000000000E+00  0.00000000000E+00  0.56886391914E+03  0.56886391914E+03  0.00000000000E+00 0. -1.
         21   -1    0    0  501  503 -0.00000000000E+00 -0.00000000000E+00 -0.66671535018E+02  0.66671535018E+02  0.00000000000E+00 0. -1.
          6    1    1    2  501    0  0.76260878877E+02  0.51499810653E+01  0.16949928519E+03  0.25329084396E+03  0.17200000000E+03 0. -1.
         -6    1    1    2    0  502 -0.76260878877E+02 -0.51499810653E+01  0.33269309893E+03  0.38224461020E+03  0.17200000000E+03 0. -1.
</event>
<event>
 4    1  0.1211980E+000  0.2200592E+03  0.7818608E-02  0.1133839E+00
         21   -1    0    0  503  502  0.00000000000E+00  0.00000000000E+00  0.10517506763E+04  0.10517506763E+04  0.00000000000E+00 0. -1.
         21   -1    0    0  501  503 -0.00000000000E+00 -0.00000000000E+00 -0.88698482665E+02  0.88698482665E+02  0.00000000000E+00 0. -1.
          6    1    1    2  501    0 -0.11428042431E+03  0.76039648304E+02  0.86092214214E+02  0.23630047152E+03  0.17200000000E+03 0.  1.
         -6    1    1    2    0  502  0.11428042431E+03 -0.76039648304E+02  0.87695997944E+03  0.90414868746E+03  0.17200000000E+03 0.  1.
</event>
<event>
 4    1  0.1211980E+000  0.1738339E+03  0.7818608E-02  0.1173908E+00
         21   -1    0    0  503  502  0.00000000000E+00  0.00000000000E+00  0.26142129552E+03  0.26142129552E+03  0.00000000000E+00 0.  1.
         21   -1    0    0  501  503 -0.00000000000E+00 -0.00000000000E+00 -0.11602121253E+03  0.11602121253E+03  0.00000000000E+00 0.  1.
          6    1    1    2  501    0 -0.75367141580E+01  0.24029856507E+02  0.61222770833E+02  0.18429992874E+03  0.17200000000E+03 0. -1.
         -6    1    1    2    0  502  0.75367141580E+01 -0.24029856507E+02  0.84177312158E+02  0.19314257932E+03  0.17200000000E+03 0. -1.
</event>
<event>
 4    1  0.1211980E+000  0.1796045E+03  0.7818608E-02  0.1168186E+00
         21   -1    0    0  503  502  0.00000000000E+00  0.00000000000E+00  0.59488651101E+03  0.59488651101E+03  0.00000000000E+00 0. -1.
         21   -1    0    0  501  503 -0.00000000000E+00 -0.00000000000E+00 -0.85358329540E+02  0.85358329540E+02  0.00000000000E+00 0. -1.
          6    1    1    2  501    0 -0.46830591448E+02 -0.21924328415E+02  0.49352760608E+02  0.18626184647E+03  0.17200000000E+03 0. -1.
         -6    1    1    2    0  502  0.46830591448E+02  0.21924328415E+02  0.46017542086E+03  0.49398299408E+03  0.17200000000E+03 0. -1.
</event>
<event>
 4    1  0.1211980E+000  0.2057343E+03  0.7818608E-02  0.1144989E+00
         21   -1    0    0  501  502  0.00000000000E+00  0.00000000000E+00  0.42430303952E+02  0.42430303952E+02  0.00000000000E+00 0.  1.
         21   -1    0    0  502  503 -0.00000000000E+00 -0.00000000000E+00 -0.11495840778E+04  0.11495840778E+04  0.00000000000E+00 0.  1.
          6    1    1    2  501    0  0.11181793762E+03 -0.15471139837E+02 -0.33683496054E+03  0.39469532298E+03  0.17200000000E+03 0. -1.
         -6    1    1    2    0  503 -0.11181793762E+03  0.15471139837E+02 -0.77031881332E+03  0.79731905878E+03  0.17200000000E+03 0. -1.
</event>
<event>
 4    1  0.1211980E+000  0.2912685E+03  0.7818608E-02  0.1089689E+00
         21   -1    0    0  503  502  0.00000000000E+00  0.00000000000E+00  0.15774729094E+04  0.15774729094E+04  0.00000000000E+00 0. -1.
         21   -1    0    0  501  503 -0.00000000000E+00 -0.00000000000E+00 -0.62581300934E+02  0.62581300934E+02  0.00000000000E+00 0.  1.
          6    1    1    2  501    0 -0.71652534421E+02  0.22387326898E+03  0.10649608137E+04  0.11040737570E+04  0.17200000000E+03 0. -1.
         -6    1    1    2    0  502  0.71652534421E+02 -0.22387326898E+03  0.44993079481E+03  0.53598045335E+03  0.17200000000E+03 0.  1.
</event>
<event>
 4    1  0.1211980E+000  0.1721881E+03  0.7818608E-02  0.1175585E+00
         21   -1    0    0  501  502  0.00000000000E+00  0.00000000000E+00  0.37729526452E+02  0.37729526452E+02  0.00000000000E+00 0. -1.
         21   -1    0    0  502  503 -0.00000000000E+00 -0.00000000000E+00 -0.86059701835E+03  0.86059701835E+03  0.00000000000E+00 0. -1.
          6    1    1    2  501    0  0.49980407162E+01 -0.63054499606E+01 -0.27903649983E+03  0.32788733941E+03  0.17200000000E+03 0. -1.
         -6    1    1    2    0  503 -0.49980407162E+01  0.63054499606E+01 -0.54383099207E+03  0.57043920539E+03  0.17200000000E+03 0. -1.
</event>
<event>
 4    1  0.1211980E+000  0.3034424E+03  0.7818608E-02  0.1083532E+00
         21   -1    0    0  501  502  0.00000000000E+00  0.00000000000E+00  0.18669009969E+03  0.18669009969E+03  0.00000000000E+00 0.  1.
         21   -1    0    0  502  503 -0.00000000000E+00 -0.00000000000E+00 -0.62746807844E+03  0.62746807844E+03  0.00000000000E+00 0. -1.
          6    1    1    2  501    0  0.23670952946E+03  0.80385991357E+02 -0.32087312882E+02  0.30513424028E+03  0.17200000000E+03 0.  1.
         -6    1    1    2    0  503 -0.23670952946E+03 -0.80385991357E+02 -0.40869066587E+03  0.50902393786E+03  0.17200000000E+03 0.  1.
</event>
<event>
 4    1  0.1211980E+000  0.2290447E+03  0.7818608E-02  0.1127314E+00
         21   -1    0    0  501  502  0.00000000000E+00  0.00000000000E+00  0.69153548523E+03  0.69153548523E+03  0.00000000000E+00 0. -1.
         21   -1    0    0  502  503 -0.00000000000E+00 -0.00000000000E+00 -0.80300809284E+02  0.80300809284E+02  0.00000000000E+00 0.  1.
          6    1    1    2  501    0 -0.15092011595E+03  0.10029563402E+02  0.39634792665E+03  0.45776975926E+03  0.17200000000E+03 0. -1.
         -6    1    1    2    0  503  0.15092011595E+03 -0.10029563402E+02  0.21488674930E+03  0.31406653525E+03  0.17200000000E+03 0.  1.
</event>
<event>
 4    1  0.1211980E+000  0.1860647E+03  0.7818608E-02  0.1162059E+00
         21   -1    0    0  501  502  0.00000000000E+00  0.00000000000E+00  0.36446541035E+02  0.36446541035E+02  0.00000000000E+00 0. -1.
         21   -1    0    0  502  503 -0.00000000000E+00 -0.00000000000E+00 -0.95209390599E+03  0.95209390599E+03  0.00000000000E+00 0. -1.
          6    1    1    2  501    0 -0.34955187670E+01  0.70879138016E+02 -0.48162401662E+03  0.51631556654E+03  0.17200000000E+03 0. -1.
         -6    1    1    2    0  503  0.34955187670E+01 -0.70879138016E+02 -0.43402334833E+03  0.47222488049E+03  0.17200000000E+03 0. -1.
</event>
<event>
 4    1  0.1211980E+000  0.2298799E+03  0.7818608E-02  0.1126724E+00
         21   -1    0    0  501  502  0.00000000000E+00  0.00000000000E+00  0.26867187182E+03  0.26867187182E+03  0.00000000000E+00 0. -1.
         21   -1    0    0  502  503 -0.00000000000E+00 -0.00000000000E+00 -0.21408041541E+03  0.21408041541E+03  0.00000000000E+00 0.  1.
          6    1    1    2  501    0 -0.12283571489E+03  0.90399941343E+02  0.96093627471E+02  0.24915607054E+03  0.17200000000E+03 0.  1.
         -6    1    1    2    0  503  0.12283571489E+03 -0.90399941343E+02 -0.41502171069E+02  0.23359621669E+03  0.17200000000E+03 0. -1.
</event>
<event>
 4    1  0.1211980E+000  0.1879563E+03  0.7818608E-02  0.1160318E+00
         21   -1    0    0  503  502  0.00000000000E+00  0.00000000000E+00  0.85119790961E+02  0.85119790961E+02  0.00000000000E+00 0. -1.
         21   -1    0    0  501  503 -0.00000000000E+00 -0.00000000000E+00 -0.43337543896E+03  0.43337543896E+03  0.00000000000E+00 0. -1.
          6    1    1    2  501    0  0.55942120684E+02 -0.51127943655E+02 -0.22746156938E+03  0.29507008156E+03  0.17200000000E+03 0. -1.
         -6    1    1    2    0  502 -0.55942120684E+02  0.51127943655E+02 -0.12079407862E+03  0.22342514836E+03  0.17200000000E+03 0. -1.
</event>
<event>
 4    1  0.1211980E+000  0.2443037E+03  0.7818608E-02  0.1116959E+00
         21   -1    0    0  501  502  0.00000000000E+00  0.00000000000E+00  0.72704518828E+02  0.72704518828E+02  0.00000000000E+00 0. -1.
         21   -1    0    0  502  503 -0.00000000000E+00 -0.00000000000E+00 -0.92778062393E+03  0.92778062393E+03  0.00000000000E+00 0. -1.
          6    1    1    2  501    0  0.13724588127E+03  0.10613132415E+03 -0.59731367835E+03  0.64534325768E+03  0.17200000000E+03 0. -1.
         -6    1    1    2    0  503 -0.13724588127E+03 -0.10613132415E+03 -0.25776242675E+03  0.35514188507E+03  0.17200000000E+03 0. -1.
</event>
<event>
 4    1  0.1211980E+000  0.1866365E+03  0.7818608E-02  0.1161530E+00
         21   -1    0    0  501  502  0.00000000000E+00  0.00000000000E+00  0.93160013276E+03  0.93160013276E+03  0.00000000000E+00 0. -1.
         21   -1    0    0  502  503 -0.00000000000E+00 -0.00000000000E+00 -0.42869737570E+02  0.42869737570E+02  0.00000000000E+00 0. -1.
          6    1    1    2  501    0 -0.71604154280E+02  0.11047466860E+02  0.61855161266E+03  0.64609542558E+03  0.17200000000E+03 0. -1.
         -6    1    1    2    0  503  0.71604154280E+02 -0.11047466860E+02  0.27017878253E+03  0.32837444475E+03  0.17200000000E+03 0. -1.
</event>
<event>
 4    1  0.1211980E+000  0.2240368E+03  0.7818608E-02  0.1130909E+00
         21   -1    0    0  501  502  0.00000000000E+00  0.00000000000E+00  0.55122212437E+03  0.55122212437E+03  0.00000000000E+00 0. -1.
         21   -1    0    0  502  503 -0.00000000000E+00 -0.00000000000E+00 -0.12148605393E+03  0.12148605393E+03  0.00000000000E+00 0.  1.
          6    1    1    2  501    0  0.74079777997E+02  0.12296622226E+03  0.38320495516E+03  0.44389023754E+03  0.17200000000E+03 0. -1.
         -6    1    1    2    0  503 -0.74079777997E+02 -0.12296622226E+03  0.46531115280E+02  0.22881794076E+03  0.17200000000E+03 0.  1.
</event>
<event>
 4    1  0.1211980E+000  0.2270218E+03  0.7818608E-02  0.1128754E+00
         21   -1    0    0  501  502  0.00000000000E+00  0.00000000000E+00  0.15581279684E+04  0.15581279684E+04  0.00000000000E+00 0. -1.
         21   -1    0    0  502  503 -0.00000000000E+00 -0.00000000000E+00 -0.34304091012E+02  0.34304091012E+02  0.00000000000E+00 0. -1.
          6    1    1    2  501    0 -0.20363471604E+02  0.14676590319E+03  0.91247434479E+03  0.94029162031E+03  0.17200000000E+03 0.  1.
         -6    1    1    2    0  503  0.20363471604E+02 -0.14676590319E+03  0.61134953264E+03  0.65214043915E+03  0.17200000000E+03 0.  1.
</event>
<event>
 4    1  0.1211980E+000  0.1864178E+03  0.7818608E-02  0.1161733E+00
         21   -1    0    0  501  502  0.00000000000E+00  0.00000000000E+00  0.35320304093E+03  0.35320304093E+03  0.00000000000E+00 0. -1.
         21   -1    0    0  502  503 -0.00000000000E+00 -0.00000000000E+00 -0.10161837268E+03  0.10161837268E+03  0.00000000000E+00 0. -1.
          6    1    1    2  501    0  0.41748743222E+02  0.58520270191E+02  0.85257397620E+02  0.20498878855E+03  0.17200000000E+03 0. -1.
         -6    1    1    2    0  503 -0.41748743222E+02 -0.58520270191E+02  0.16632727063E+03  0.24983262505E+03  0.17200000000E+03 0. -1.
</event>
<event>
 4    1  0.1211980E+000  0.1840087E+03  0.7818608E-02  0.1163979E+00
         21   -1    0    0  503  502  0.00000000000E+00  0.00000000000E+00  0.16418634916E+02  0.16418634916E+02  0.00000000000E+00 0. -1.
         21   -1    0    0  501  503 -0.00000000000E+00 -0.00000000000E+00 -0.23406170041E+04  0.23406170041E+04  0.00000000000E+00 0. -1.
          6    1    1    2  501    0  0.57164422814E+02  0.31739789077E+02 -0.15685300804E+04  0.15792864840E+04  0.17200000000E+03 0.  1.
         -6    1    1    2    0  502 -0.57164422814E+02 -0.31739789077E+02 -0.75566828881E+03  0.77774915504E+03  0.17200000000E+03 0.  1.
</event>
<event>
 4    1  0.1211980E+000  0.2050014E+03  0.7818608E-02  0.1145587E+00
         21   -1    0    0  503  502  0.00000000000E+00  0.00000000000E+00  0.37894317444E+02  0.37894317444E+02  0.00000000000E+00 0. -1.
         21   -1    0    0  501  503 -0.00000000000E+00 -0.00000000000E+00 -0.11424638043E+04  0.11424638043E+04  0.00000000000E+00 0. -1.
          6    1    1    2  501    0 -0.96191895941E+02  0.56468605189E+02 -0.45130934796E+03  0.49568711076E+03  0.17200000000E+03 0. -1.
         -6    1    1    2    0  502  0.96191895941E+02 -0.56468605189E+02 -0.65326013895E+03  0.68467101104E+03  0.17200000000E+03 0. -1.
</event>
<event>
 4    1  0.1211980E+000  0.2725219E+03  0.7818608E-02  0.1099845E+00
         21   -1    0    0  501  502  0.00000000000E+00  0.00000000000E+00  0.34792864426E+03  0.34792864426E+03  0.00000000000E+00 0.  1.
         21   -1    0    0  502  503 -0.00000000000E+00 -0.00000000000E+00 -0.21776563872E+03  0.21776563872E+03  0.00000000000E+00 0. -1.
          6    1    1    2  501    0 -0.10287564433E+03 -0.18466396787E+03  0.10486224555E+03  0.29200046193E+03  0.17200000000E+03 0. -1.
         -6    1    1    2    0  503  0.10287564433E+03  0.18466396787E+03  0.25300759993E+02  0.27369382105E+03  0.17200000000E+03 0. -1.
</event>
<event>
 4    1  0.1211980E+000  0.1822327E+03  0.7818608E-02  0.1165660E+00
         21   -1    0    0  503  502  0.00000000000E+00  0.00000000000E+00  0.12617375917E+04  0.12617375917E+04  0.00000000000E+00 0. -1.
         21   -1    0    0  501  503 -0.00000000000E+00 -0.00000000000E+00 -0.34202737110E+02  0.34202737110E+02  0.00000000000E+00 0. -1.
          6    1    1    2  501    0  0.60108799623E+02  0.34187252779E+01  0.30269108443E+03  0.35331380962E+03  0.17200000000E+03 0. -1.
         -6    1    1    2    0  502 -0.60108799623E+02 -0.34187252779E+01  0.92484377015E+03  0.94262651918E+03  0.17200000000E+03 0. -1.
</event>
<event>
 4    1  0.1211980E+000  0.1734503E+03  0.7818608E-02  0.1174297E+00
         21   -1    0    0  503  502  0.00000000000E+00  0.00000000000E+00  0.58802140786E+03  0.58802140786E+03  0.00000000000E+00 0.  1.
         21   -1    0    0  501  503 -0.00000000000E+00 -0.00000000000E+00 -0.62793266280E+02  0.62793266280E+02  0.00000000000E+00 0.  1.
          6    1    1    2  501    0 -0.13968171279E+02 -0.17489554184E+02  0.40265787055E+03  0.43842713765E+03  0.17200000000E+03 0. -1.
         -6    1    1    2    0  502  0.13968171279E+02  0.17489554184E+02  0.12257027103E+03  0.21238753649E+03  0.17200000000E+03 0. -1.
</event>
<event>
 4    1  0.1211980E+000  0.2820511E+03  0.7818608E-02  0.1094574E+00
         21   -1    0    0  501  502  0.00000000000E+00  0.00000000000E+00  0.50078431760E+03  0.50078431760E+03  0.00000000000E+00 0. -1.
         21   -1    0    0  502  503 -0.00000000000E+00 -0.00000000000E+00 -0.16227795603E+03  0.16227795603E+03  0.00000000000E+00 0.  1.
          6    1    1    2  501    0  0.21840115369E+03  0.47641830310E+02  0.12111334489E+03  0.30695480162E+03  0.17200000000E+03 0.  1.
         -6    1    1    2    0  503 -0.21840115369E+03 -0.47641830310E+02  0.21739301668E+03  0.35610747202E+03  0.17200000000E+03 0. -1.
</event>
<event>
 4    1  0.1211980E+000  0.2087589E+03  0.7818608E-02  0.1142553E+00
         21   -1    0    0  503  502  0.00000000000E+00  0.00000000000E+00  0.47699276817E+03  0.47699276817E+03  0.00000000000E+00 0. -1.
         21   -1    0    0  501  503 -0.00000000000E+00 -0.00000000000E+00 -0.10573720070E+03  0.10573720070E+03  0.00000000000E+00 0. -1.
          6    1    1    2  501    0  0.48250689656E+02 -0.10801922342E+03  0.78206524213E+02  0.22292721259E+03  0.17200000000E+03 0. -1.
         -6    1    1    2    0  502 -0.48250689656E+02  0.10801922342E+03  0.29304904325E+03  0.35980275629E+03  0.17200000000E+03 0. -1.
</event>
<event>
 4    1  0.1211980E+000  0.2917510E+03  0.7818608E-02  0.1089438E+00
         21   -1    0    0  503  502  0.00000000000E+00  0.00000000000E+00  0.28287214962E+03  0.28287214962E+03  0.00000000000E+00 0. -1.
         21   -1    0    0  501  503 -0.00000000000E+00 -0.00000000000E+00 -0.87233082091E+03  0.87233082091E+03  0.00000000000E+00 0.  1.
          6    1    1    2  501    0 -0.22287727518E+03 -0.76552952671E+02 -0.76221284223E+03  0.81614156322E+03  0.17200000000E+03 0.  1.
         -6    1    1    2    0  502  0.22287727518E+03  0.76552952671E+02  0.17275417094E+03  0.33906140732E+03  0.17200000000E+03 0. -1.
</event>
<event>
 4    1  0.1211980E+000  0.1871960E+03  0.7818608E-02  0.1161015E+00
         21   -1    0    0  501  502  0.00000000000E+00  0.00000000000E+00  0.15201880442E+03  0.15201880442E+03  0.00000000000E+00 0.  1.
         21   -1    0    0  502  503 -0.00000000000E+00 -0.00000000000E+00 -0.23090211824E+03  0.23090211824E+03  0.00000000000E+00 0.  1.
          6    1    1    2  501    0  0.73876714098E+02  0.74571221723E+00 -0.31582908299E+02  0.18984152620E+03  0.17200000000E+03 0.  1.
         -6    1    1    2    0  503 -0.73876714098E+02 -0.74571221723E+00 -0.47300405522E+02  0.19307939645E+03  0.17200000000E+03 0.  1.
</event>
<event>
 4    1  0.1211980E+000  0.2357665E+03  0.7818608E-02  0.1122646E+00
         21   -1    0    0  503  502  0.00000000000E+00  0.00000000000E+00  0.48125089470E+03  0.48125089470E+03  0.00000000000E+00 0. -1.
         21   -1    0    0  501  503 -0.00000000000E+00 -0.00000000000E+00 -0.12970583381E+03  0.12970583381E+03  0.00000000000E+00 0.  1.
          6    1    1    2  501    0 -0.68604004332E+02 -0.14592920760E+03  0.74686599414E+02  0.24731342700E+03  0.17200000000E+03 0. -1.
         -6    1    1    2    0  502  0.68604004332E+02  0.14592920760E+03  0.27685846148E+03  0.36364330151E+03  0.17200000000E+03 0. -1.
</event>
<event>
 4    1  0.1211980E+000  0.2497854E+03  0.7818608E-02  0.1113441E+00
         21   -1    0    0  503  502  0.00000000000E+00  0.00000000000E+00  0.13452357357E+04  0.13452357357E+04  0.00000000000E+00 0.  1.
         21   -1    0    0  501  503 -0.00000000000E+00 -0.00000000000E+00 -0.85006276239E+02  0.85006276239E+02  0.00000000000E+00 0.  1.
          6    1    1    2  501    0  0.12198838969E+03 -0.13389390728E+03  0.14806428942E+03  0.29037179516E+03  0.17200000000E+03 0.  1.
         -6    1    1    2    0  502 -0.12198838969E+03  0.13389390728E+03  0.11121651700E+04  0.11398702167E+04  0.17200000000E+03 0.  1.
</event>
<event>
 4    1  0.1211980E+000  0.2226397E+03  0.7818608E-02  0.1131930E+00
         21   -1    0    0  503  502  0.00000000000E+00  0.00000000000E+00  0.33386801654E+03  0.33386801654E+03  0.00000000000E+00 0.  1.
         21   -1    0    0  501  503 -0.00000000000E+00 -0.00000000000E+00 -0.17236472183E+03  0.17236472183E+03  0.00000000000E+00 0.  1.
          6    1    1    2  501    0 -0.76196716566E+02 -0.11907347303E+03  0.17499982550E+03  0.28318434017E+03  0.17200000000E+03 0.  1.
         -6    1    1    2    0  502  0.76196716566E+02  0.11907347303E+03 -0.13496530786E+02  0.22304839820E+03  0.17200000000E+03 0.  1.
</event>
<event>
 4    1  0.1211980E+000  0.2284294E+03  0.7818608E-02  0.1127750E+00
         21   -1    0    0  501  502  0.00000000000E+00  0.00000000000E+00  0.24391869346E+04  0.24391869346E+04  0.00000000000E+00 0. -1.
         21   -1    0    0  502  503 -0.00000000000E+00 -0.00000000000E+00 -0.21822675530E+02  0.21822675530E+02  0.00000000000E+00 0.  1.
          6    1    1    2  501    0  0.14995360324E+02 -0.14956987397E+03  0.13814702682E+04  0.14002285920E+04  0.17200000000E+03 0.  1.
         -6    1    1    2    0  503 -0.14995360324E+02  0.14956987397E+03  0.10358939909E+04  0.10607810181E+04  0.17200000000E+03 0. -1.
</event>
<event>
 4    1  0.1211980E+000  0.1977027E+03  0.7818608E-02  0.1151692E+00
         21   -1    0    0  503  502  0.00000000000E+00  0.00000000000E+00  0.86881242085E+03  0.86881242085E+03  0.00000000000E+00 0.  1.
         21   -1    0    0  501  503 -0.00000000000E+00 -0.00000000000E+00 -0.51272672131E+02  0.51272672131E+02  0.00000000000E+00 0. -1.
          6    1    1    2  501    0  0.90585848412E+02  0.36007564516E+02  0.24770972941E+03  0.31693288040E+03  0.17200000000E+03 0. -1.
         -6    1    1    2    0  502 -0.90585848412E+02 -0.36007564516E+02  0.56983001931E+03  0.60315221258E+03  0.17200000000E+03 0.  1.
</event>
<event>
 4    1  0.1211980E+000  0.1956049E+03  0.7818608E-02  0.1153501E+00
         21   -1    0    0  501  502  0.00000000000E+00  0.00000000000E+00  0.49962544283E+03  0.49962544283E+03  0.00000000000E+00 0. -1.
         21   -1    0    0  502  503 -0.00000000000E+00 -0.00000000000E+00 -0.16621663155E+03  0.16621663155E+03  0.00000000000E+00 0.  1.
          6    1    1    2  501    0 -0.93138979298E+02 -0.15483404803E+01  0.41118647050E+03  0.45534116917E+03  0.17200000000E+03 0. -1.
         -6    1    1    2    0  503  0.93138979298E+02  0.15483404803E+01 -0.77777659217E+02  0.21050090521E+03  0.17200000000E+03 0.  1.
</event>
<event>
 4    1  0.1211980E+000  0.2145278E+03  0.7818608E-02  0.1138030E+00
         21   -1    0    0  501  502  0.00000000000E+00  0.00000000000E+00  0.65321469631E+03  0.65321469631E+03  0.00000000000E+00 0. -1.
         21   -1    0    0  502  503 -0.00000000000E+00 -0.00000000000E+00 -0.70457146780E+02  0.70457146780E+02  0.00000000000E+00 0. -1.
          6    1    1    2  501    0  0.49952470946E+02  0.11808022856E+03  0.28934499358E+03  0.36019816080E+03  0.17200000000E+03 0. -1.
         -6    1    1    2    0  503 -0.49952470946E+02 -0.11808022856E+03  0.29341255595E+03  0.36347368229E+03  0.17200000000E+03 0. -1.
</event>
<event>
 4    1  0.1211980E+000  0.2482410E+03  0.7818608E-02  0.1114422E+00
         21   -1    0    0  503  502  0.00000000000E+00  0.00000000000E+00  0.70047204249E+02  0.70047204249E+02  0.00000000000E+00 0.  1.
         21   -1    0    0  501  503 -0.00000000000E+00 -0.00000000000E+00 -0.10177527088E+04  0.10177527088E+04  0.00000000000E+00 0. -1.
          6    1    1    2  501    0  0.14721154647E+03  0.10182505977E+03 -0.67413926669E+03  0.71839218614E+03  0.17200000000E+03 0. -1.
         -6    1    1    2    0  502 -0.14721154647E+03 -0.10182505977E+03 -0.27356623789E+03  0.36940772694E+03  0.17200000000E+03 0.  1.
</event>
<event>
 4    1  0.1211980E+000  0.1730230E+03  0.7818608E-02  0.1174732E+00
         21   -1    0    0  501  502  0.00000000000E+00  0.00000000000E+00  0.46731005907E+03  0.46731005907E+03  0.00000000000E+00 0. -1.
         21   -1    0    0  502  503 -0.00000000000E+00 -0.00000000000E+00 -0.64738873435E+02  0.64738873435E+02  0.00000000000E+00 0. -1.
          6    1    1    2  501    0  0.18014841854E+02  0.53299906685E+01  0.22848165392E+03  0.28660217987E+03  0.17200000000E+03 0. -1.
         -6    1    1    2    0  503 -0.18014841854E+02 -0.53299906685E+01  0.17408953172E+03  0.24544675264E+03  0.17200000000E+03 0. -1.
</event>
<event>
 4    1  0.1211980E+000  0.1912910E+03  0.7818608E-02  0.1157302E+00
         21   -1    0    0  501  502  0.00000000000E+00  0.00000000000E+00  0.50838438901E+02  0.50838438901E+02  0.00000000000E+00 0.  1.
         21   -1    0    0  502  503 -0.00000000000E+00 -0.00000000000E+00 -0.92008486620E+03  0.92008486620E+03  0.00000000000E+00 0.  1.
          6    1    1    2  501    0 -0.75176282148E+02  0.36834430184E+02 -0.20811084786E+03  0.28267007914E+03  0.17200000000E+03 0.  1.
         -6    1    1    2    0  503  0.75176282148E+02 -0.36834430184E+02 -0.66113557944E+03  0.68825322596E+03  0.17200000000E+03 0.  1.
</event>
<event>
 4    1  0.1211980E+000  0.3181821E+03  0.7818608E-02  0.1076489E+00
         21   -1    0    0  501  502  0.00000000000E+00  0.00000000000E+00  0.27935872002E+03  0.27935872002E+03  0.00000000000E+00 0. -1.
         21   -1    0    0  502  503 -0.00000000000E+00 -0.00000000000E+00 -0.36784393742E+03  0.36784393742E+03  0.00000000000E+00 0.  1.
          6    1    1    2  501    0  0.14882135876E+03 -0.22250400892E+03 -0.48783462691E+01  0.31821946683E+03  0.17200000000E+03 0. -1.
         -6    1    1    2    0  503 -0.14882135876E+03  0.22250400892E+03 -0.83606871129E+02  0.32898319062E+03  0.17200000000E+03 0.  1.
</event>
<event>
 4    1  0.1211980E+000  0.2050160E+03  0.7818608E-02  0.1145575E+00
         21   -1    0    0  503  502  0.00000000000E+00  0.00000000000E+00  0.61436317206E+03  0.61436317206E+03  0.00000000000E+00 0. -1.
         21   -1    0    0  501  503 -0.00000000000E+00 -0.00000000000E+00 -0.68531525746E+02  0.68531525746E+02  0.00000000000E+00 0.  1.
          6    1    1    2  501    0 -0.49803627019E+02 -0.99835664699E+02  0.28700475548E+03  0.35270850696E+03  0.17200000000E+03 0.  1.
         -6    1    1    2    0  502  0.49803627019E+02  0.99835664699E+02  0.25882689083E+03  0.33018619085E+03  0.17200000000E+03 0. -1.
</event>
<event>
 4    1  0.1211980E+000  0.1825941E+03  0.7818608E-02  0.1165316E+00
         21   -1    0    0  501  502  0.00000000000E+00  0.00000000000E+00  0.17564655641E+04  0.17564655641E+04  0.00000000000E+00 0. -1.
         21   -1    0    0  502  503 -0.00000000000E+00 -0.00000000000E+00 -0.19130994383E+02  0.19130994383E+02  0.00000000000E+00 0. -1.
          6    1    1    2  501    0  0.11060157939E+02  0.60284953004E+02  0.94710949883E+03  0.96455015703E+03  0.17200000000E+03 0.  1.
         -6    1    1    2    0  503 -0.11060157939E+02 -0.60284953004E+02  0.79022507087E+03  0.81104640144E+03  0.17200000000E+03 0.  1.
</event>
<event>
 4    1  0.1211980E+000  0.1781331E+03  0.7818608E-02  0.1169622E+00
         21   -1    0    0  501  502  0.00000000000E+00  0.00000000000E+00  0.18119651002E+03  0.18119651002E+03  0.00000000000E+00 0.  1.
         21   -1    0    0  502  503 -0.00000000000E+00 -0.00000000000E+00 -0.33491561154E+03  0.33491561154E+03  0.00000000000E+00 0.  1.
          6    1    1    2  501    0  0.26729368743E+02 -0.37854313801E+02  0.10138929498E+03  0.20496633227E+03  0.17200000000E+03 0.  1.
         -6    1    1    2    0  503 -0.26729368743E+02  0.37854313801E+02 -0.25510839650E+03  0.31114578929E+03  0.17200000000E+03 0.  1.
</event>
<event>
 4    1  0.1211980E+000  0.2160041E+03  0.7818608E-02  0.1136898E+00
         21   -1    0    0  503  502  0.00000000000E+00  0.00000000000E+00  0.37866982883E+03  0.37866982883E+03  0.00000000000E+00 0.  1.
         21   -1    0    0  501  503 -0.00000000000E+00 -0.00000000000E+00 -0.15059166864E+03  0.15059166864E+03  0.00000000000E+00 0. -1.
          6    1    1    2  501    0  0.34147256440E+02  0.12612595471E+03  0.12075777128E+01  0.21600752260E+03  0.17200000000E+03 0. -1.
         -6    1    1    2    0  502 -0.34147256440E+02 -0.12612595471E+03  0.22687058248E+03  0.31325397486E+03  0.17200000000E+03 0.  1.
</event>
<event>
 4    1  0.1211980E+000  0.1817567E+03  0.7818608E-02  0.1166114E+00
         21   -1    0    0  501  502  0.00000000000E+00  0.00000000000E+00  0.81393466731E+03  0.81393466731E+03  0.00000000000E+00 0.  1.
         21   -1    0    0  502  503 -0.00000000000E+00 -0.00000000000E+00 -0.54090398230E+02  0.54090398230E+02  0.00000000000E+00 0.  1.
          6    1    1    2  501    0 -0.39616721212E+02  0.43382036580E+02  0.59677112739E+03  0.62383592729E+03  0.17200000000E+03 0.  1.
         -6    1    1    2    0  503  0.39616721212E+02 -0.43382036580E+02  0.16307314170E+03  0.24418913825E+03  0.17200000000E+03 0.  1.
</event>
<event>
 4    1  0.1211980E+000  0.2158765E+03  0.7818608E-02  0.1136995E+00
         21   -1    0    0  501  502  0.00000000000E+00  0.00000000000E+00  0.23791290675E+02  0.23791290675E+02  0.00000000000E+00 0. -1.
         21   -1    0    0  502  503 -0.00000000000E+00 -0.00000000000E+00 -0.19601455934E+04  0.19601455934E+04  0.00000000000E+00 0. -1.
          6    1    1    2  501    0  0.95127592813E+02  0.89271540660E+02 -0.94230353850E+03  0.96671537981E+03  0.17200000000E+03 0. -1.
         -6    1    1    2    0  503 -0.95127592813E+02 -0.89271540660E+02 -0.99405076418E+03  0.10172215042E+04  0.17200000000E+03 0. -1.
</event>
<event>
 4    1  0.1211980E+000  0.2053417E+03  0.7818608E-02  0.1145309E+00
         21   -1    0    0  501  502  0.00000000000E+00  0.00000000000E+00  0.10958300896E+04  0.10958300896E+04  0.00000000000E+00 0. -1.
         21   -1    0    0  502  503 -0.00000000000E+00 -0.00000000000E+00 -0.42417516108E+02  0.42417516108E+02  0.00000000000E+00 0. -1.
          6    1    1    2  501    0 -0.10029480607E+03  0.50221067479E+02  0.70015174788E+03  0.72964215462E+03  0.17200000000E+03 0. -1.
         -6    1    1    2    0  503  0.10029480607E+03 -0.50221067479E+02  0.35326082562E+03  0.40860545109E+03  0.17200000000E+03 0. -1.
</event>
<event>
 4    1  0.1211980E+000  0.2204455E+03  0.7818608E-02  0.1133551E+00
         21   -1    0    0  503  502  0.00000000000E+00  0.00000000000E+00  0.44041784669E+02  0.44041784669E+02  0.00000000000E+00 0.  1.
         21   -1    0    0  501  503 -0.00000000000E+00 -0.00000000000E+00 -0.13671956224E+04  0.13671956224E+04  0.00000000000E+00 0.  1.
          6    1    1    2  501    0  0.47634077743E+02 -0.12939559727E+03 -0.97151776416E+03  0.99621433037E+03  0.17200000000E+03 0.  1.
         -6    1    1    2    0  502 -0.47634077743E+02  0.12939559727E+03 -0.35163607357E+03  0.41502307670E+03  0.17200000000E+03 0.  1.
</event>
<event>
 4    1  0.1211980E+000  0.2024435E+03  0.7818608E-02  0.1147694E+00
         21   -1    0    0  503  502  0.00000000000E+00  0.00000000000E+00  0.35901008869E+03  0.35901008869E+03  0.00000000000E+00 0.  1.
         21   -1    0    0  501  503 -0.00000000000E+00 -0.00000000000E+00 -0.14820518442E+03  0.14820518442E+03  0.00000000000E+00 0.  1.
          6    1    1    2  501    0 -0.10428000417E+03  0.22913963533E+02 -0.16154610281E+02  0.20308702673E+03  0.17200000000E+03 0. -1.
         -6    1    1    2    0  502  0.10428000417E+03 -0.22913963533E+02  0.22695951456E+03  0.30412824637E+03  0.17200000000E+03 0. -1.
</event>
<event>
 4    1  0.1211980E+000  0.2140568E+03  0.7818608E-02  0.1138393E+00
         21   -1    0    0  501  502  0.00000000000E+00  0.00000000000E+00  0.73744919484E+03  0.73744919484E+03  0.00000000000E+00 0.  1.
         21   -1    0    0  502  503 -0.00000000000E+00 -0.00000000000E+00 -0.17131771416E+03  0.17131771416E+03  0.00000000000E+00 0.  1.
          6    1    1    2  501    0  0.11505643622E+03  0.54756870570E+02  0.64581063006E+03  0.68036142475E+03  0.17200000000E+03 0.  1.
         -6    1    1    2    0  503 -0.11505643622E+03 -0.54756870570E+02 -0.79679149383E+02  0.22840548425E+03  0.17200000000E+03 0.  1.
</event>
<event>
 4    1  0.1211980E+000  0.1730627E+03  0.7818608E-02  0.1174691E+00
         21   -1    0    0  501  502  0.00000000000E+00  0.00000000000E+00  0.69542566510E+03  0.69542566510E+03  0.00000000000E+00 0. -1.
         21   -1    0    0  502  503 -0.00000000000E+00 -0.00000000000E+00 -0.43867146089E+02  0.43867146089E+02  0.00000000000E+00 0. -1.
          6    1    1    2  501    0 -0.18977089441E+02 -0.25657437205E+01  0.27589278315E+03  0.32568012030E+03  0.17200000000E+03 0.  1.
         -6    1    1    2    0  503  0.18977089441E+02  0.25657437205E+01  0.37566573587E+03  0.41361269089E+03  0.17200000000E+03 0.  1.
</event>
<event>
 4    1  0.1211980E+000  0.1727875E+03  0.7818608E-02  0.1174972E+00
         21   -1    0    0  501  502  0.00000000000E+00  0.00000000000E+00  0.16959174336E+03  0.16959174336E+03  0.00000000000E+00 0.  1.
         21   -1    0    0  502  503 -0.00000000000E+00 -0.00000000000E+00 -0.53644452548E+03  0.53644452548E+03  0.00000000000E+00 0.  1.
          6    1    1    2  501    0  0.58417786323E+00 -0.16467767892E+02  0.10592634912E+03  0.20267195189E+03  0.17200000000E+03 0.  1.
         -6    1    1    2    0  503 -0.58417786323E+00  0.16467767892E+02 -0.47277913124E+03  0.50336431695E+03  0.17200000000E+03 0.  1.
</event>
<event>
 4    1  0.1211980E+000  0.1896085E+03  0.7818608E-02  0.1158815E+00
         21   -1    0    0  503  502  0.00000000000E+00  0.00000000000E+00  0.35621347380E+03  0.35621347380E+03  0.00000000000E+00 0. -1.
         21   -1    0    0  501  503 -0.00000000000E+00 -0.00000000000E+00 -0.10286199986E+03  0.10286199986E+03  0.00000000000E+00 0. -1.
          6    1    1    2  501    0  0.15014545549E+02  0.78370669200E+02  0.15816171126E+03  0.24691400381E+03  0.17200000000E+03 0. -1.
         -6    1    1    2    0  502 -0.15014545549E+02 -0.78370669200E+02  0.95189762690E+02  0.21216146985E+03  0.17200000000E+03 0. -1.
</event>
<event>
 4    1  0.1211980E+000  0.1919101E+03  0.7818608E-02  0.1156750E+00
         21   -1    0    0  503  502  0.00000000000E+00  0.00000000000E+00  0.69954269356E+02  0.69954269356E+02  0.00000000000E+00 0.  1.
         21   -1    0    0  501  503 -0.00000000000E+00 -0.00000000000E+00 -0.56777549358E+03  0.56777549358E+03  0.00000000000E+00 0.  1.
          6    1    1    2  501    0 -0.47228649945E+02  0.70816223577E+02 -0.16291569769E+03  0.25173598759E+03  0.17200000000E+03 0.  1.
         -6    1    1    2    0  502  0.47228649945E+02 -0.70816223577E+02 -0.33490552654E+03  0.38599377534E+03  0.17200000000E+03 0.  1.
</event>
<event>
 4    1  0.1211980E+000  0.2123698E+03  0.7818608E-02  0.1139703E+00
         21   -1    0    0  501  502  0.00000000000E+00  0.00000000000E+00  0.33979579884E+02  0.33979579884E+02  0.00000000000E+00 0. -1.
         21   -1    0    0  502  503 -0.00000000000E+00 -0.00000000000E+00 -0.15312134594E+04  0.15312134594E+04  0.00000000000E+00 0.  1.
          6    1    1    2  501    0 -0.27382288904E+02  0.12152013205E+03 -0.46302356166E+03  0.50940332831E+03  0.17200000000E+03 0. -1.
         -6    1    1    2    0  503  0.27382288904E+02 -0.12152013205E+03 -0.10342103179E+04  0.10557897110E+04  0.17200000000E+03 0.  1.
</event>
<event>
 4    1  0.1211980E+000  0.2704103E+03  0.7818608E-02  0.1101045E+00
         21   -1    0    0  501  502  0.00000000000E+00  0.00000000000E+00  0.40461236451E+03  0.40461236451E+03  0.00000000000E+00 0. -1.
         21   -1    0    0  502  503 -0.00000000000E+00 -0.00000000000E+00 -0.18242779144E+03  0.18242779144E+03  0.00000000000E+00 0.  1.
          6    1    1    2  501    0  0.30376320218E+02 -0.20643398368E+03  0.82696218592E+02  0.28277265607E+03  0.17200000000E+03 0. -1.
         -6    1    1    2    0  503 -0.30376320218E+02  0.20643398368E+03  0.13948835449E+03  0.30426749989E+03  0.17200000000E+03 0.  1.
</event>
<event>
 4    1  0.1211980E+000  0.1754249E+03  0.7818608E-02  0.1172306E+00
         21   -1    0    0  501  502  0.00000000000E+00  0.00000000000E+00  0.48083523858E+02  0.48083523858E+02  0.00000000000E+00 0. -1.
         21   -1    0    0  502  503 -0.00000000000E+00 -0.00000000000E+00 -0.80026195730E+03  0.80026195730E+03  0.00000000000E+00 0. -1.
          6    1    1    2  501    0 -0.34346740834E+02 -0.31951044839E+01 -0.56590361489E+03  0.59247009093E+03  0.17200000000E+03 0. -1.
         -6    1    1    2    0  503  0.34346740834E+02  0.31951044839E+01 -0.18627481855E+03  0.25587539023E+03  0.17200000000E+03 0. -1.
</event>
<event>
 4    1  0.1211980E+000  0.1884965E+03  0.7818608E-02  0.1159824E+00
         21   -1    0    0  501  502  0.00000000000E+00  0.00000000000E+00  0.14638606325E+03  0.14638606325E+03  0.00000000000E+00 0.  1.
         21   -1    0    0  502  503 -0.00000000000E+00 -0.00000000000E+00 -0.74504703765E+03  0.74504703765E+03  0.00000000000E+00 0.  1.
          6    1    1    2  501    0  0.75746926035E+02  0.14468736884E+02  0.66651616922E+02  0.19993343690E+03  0.17200000000E+03 0.  1.
         -6    1    1    2    0  503 -0.75746926035E+02 -0.14468736884E+02 -0.66531259132E+03  0.69149966400E+03  0.17200000000E+03 0.  1.
</event>
<event>
 4    1  0.1211980E+000  0.1837314E+03  0.7818608E-02  0.1164240E+00
         21   -1    0    0  501  502  0.00000000000E+00  0.00000000000E+00  0.62637788599E+02  0.62637788599E+02  0.00000000000E+00 0. -1.
         21   -1    0    0  502  503 -0.00000000000E+00 -0.00000000000E+00 -0.61049605215E+03  0.61049605215E+03  0.00000000000E+00 0. -1.
          6    1    1    2  501    0 -0.53771050213E+02  0.35803430169E+02 -0.15869215428E+03  0.24277646361E+03  0.17200000000E+03 0. -1.
         -6    1    1    2    0  503  0.53771050213E+02 -0.35803430169E+02 -0.38916610927E+03  0.43035737714E+03  0.17200000000E+03 0. -1.
</event>
<event>
 4    1  0.1211980E+000  0.1799238E+03  0.7818608E-02  0.1167877E+00
         21   -1    0    0  501  502  0.00000000000E+00  0.00000000000E+00  0.19766244078E+03  0.19766244078E+03  0.00000000000E+00 0.  1.
         21   -1    0    0  502  503 -0.00000000000E+00 -0.00000000000E+00 -0.31114475951E+03  0.31114475951E+03  0.00000000000E+00 0.  1.
          6    1    1    2  501    0  0.42884505273E+02 -0.30813570845E+02  0.11834155958E+03  0.21535385222E+03  0.17200000000E+03 0.  1.
         -6    1    1    2    0  503 -0.42884505273E+02  0.30813570845E+02 -0.23182387832E+03  0.29345334808E+03  0.17200000000E+03 0.  1.
</event>
<event>
 4    1  0.1211980E+000  0.1867385E+03  0.7818608E-02  0.1161436E+00
         21   -1    0    0  503  502  0.00000000000E+00  0.00000000000E+00  0.53656574882E+03  0.53656574882E+03  0.00000000000E+00 0. -1.
         21   -1    0    0  501  503 -0.00000000000E+00 -0.00000000000E+00 -0.80316557249E+02  0.80316557249E+02  0.00000000000E+00 0. -1.
          6    1    1    2  501    0  0.52662411151E+02  0.50139229051E+02  0.36286432724E+03  0.40809532198E+03  0.17200000000E+03 0. -1.
         -6    1    1    2    0  502 -0.52662411151E+02 -0.50139229051E+02  0.93384864326E+02  0.20878698408E+03  0.17200000000E+03 0. -1.
</event>
<event>
 4    1  0.1211980E+000  0.2461984E+03  0.7818608E-02  0.1115731E+00
         21   -1    0    0  503  502  0.00000000000E+00  0.00000000000E+00  0.45410451328E+02  0.45410451328E+02  0.00000000000E+00 0.  1.
         21   -1    0    0  501  503 -0.00000000000E+00 -0.00000000000E+00 -0.16817403464E+04  0.16817403464E+04  0.00000000000E+00 0. -1.
          6    1    1    2  501    0  0.30753693261E+01  0.17612552946E+03 -0.12104042375E+04  0.12351890860E+04  0.17200000000E+03 0. -1.
         -6    1    1    2    0  502 -0.30753693261E+01 -0.17612552946E+03 -0.42592565756E+03  0.49196171171E+03  0.17200000000E+03 0.  1.
</event>
<event>
 4    1  0.1211980E+000  0.1925591E+03  0.7818608E-02  0.1156173E+00
         21   -1    0    0  501  502  0.00000000000E+00  0.00000000000E+00  0.35033202562E+03  0.35033202562E+03  0.00000000000E+00 0. -1.
         21   -1    0    0  502  503 -0.00000000000E+00 -0.00000000000E+00 -0.15289618514E+03  0.15289618514E+03  0.00000000000E+00 0. -1.
          6    1    1    2  501    0  0.73743320636E+02  0.45353301333E+02 -0.40869696216E+02  0.19684849847E+03  0.17200000000E+03 0. -1.
         -6    1    1    2    0  503 -0.73743320636E+02 -0.45353301333E+02  0.23830553670E+03  0.30637971229E+03  0.17200000000E+03 0. -1.
</event>
<event>
 4    1  0.1211980E+000  0.2719703E+03  0.7818608E-02  0.1100157E+00
         21   -1    0    0  503  502  0.00000000000E+00  0.00000000000E+00  0.11935722638E+04  0.11935722638E+04  0.00000000000E+00 0.  1.
         21   -1    0    0  501  503 -0.00000000000E+00 -0.00000000000E+00 -0.12019658836E+03  0.12019658836E+03  0.00000000000E+00 0. -1.
          6    1    1    2  501    0  0.20402231790E+03  0.52523878384E+02  0.79497838551E+02  0.28335096671E+03  0.17200000000E+03 0. -1.
         -6    1    1    2    0  502 -0.20402231790E+03 -0.52523878384E+02  0.99387783685E+03  0.10304178854E+04  0.17200000000E+03 0.  1.
</event>
<event>
 4    1  0.1211980E+000  0.1790097E+03  0.7818608E-02  0.1168765E+00
         21   -1    0    0  503  502  0.00000000000E+00  0.00000000000E+00  0.33931039116E+03  0.33931039116E+03  0.00000000000E+00 0.  1.
         21   -1    0    0  501  503 -0.00000000000E+00 -0.00000000000E+00 -0.13612900368E+03  0.13612900368E+03  0.00000000000E+00 0.  1.
          6    1    1    2  501    0  0.37682106252E+02  0.32257236462E+02 -0.29962270531E+02  0.18149988455E+03  0.17200000000E+03 0.  1.
         -6    1    1    2    0  502 -0.37682106252E+02 -0.32257236462E+02  0.23314365802E+03  0.29393951029E+03  0.17200000000E+03 0.  1.
</event>
<event>
 4    1  0.1211980E+000  0.1919828E+03  0.7818608E-02  0.1156685E+00
         21   -1    0    0  503  502  0.00000000000E+00  0.00000000000E+00  0.12116494993E+03  0.12116494993E+03  0.00000000000E+00 0.  1.
         21   -1    0    0  501  503 -0.00000000000E+00 -0.00000000000E+00 -0.33308773759E+03  0.33308773759E+03  0.00000000000E+00 0.  1.
          6    1    1    2  501    0  0.12608715729E+02  0.84346974791E+02 -0.17285831155E+03  0.25833580422E+03  0.17200000000E+03 0.  1.
         -6    1    1    2    0  502 -0.12608715729E+02 -0.84346974791E+02 -0.39064476114E+02  0.19591688330E+03  0.17200000000E+03 0.  1.
</event>
<event>
 4    1  0.1211980E+000  0.2102431E+03  0.7818608E-02  0.1141374E+00
         21   -1    0    0  503  502  0.00000000000E+00  0.00000000000E+00  0.21548833698E+02  0.21548833698E+02  0.00000000000E+00 0. -1.
         21   -1    0    0  501  503 -0.00000000000E+00 -0.00000000000E+00 -0.20532716112E+04  0.20532716112E+04  0.00000000000E+00 0.  1.
          6    1    1    2  501    0 -0.11805148653E+03 -0.26114988204E+02 -0.98334724538E+03  0.10055714550E+04  0.17200000000E+03 0.  1.
         -6    1    1    2    0  502  0.11805148653E+03  0.26114988204E+02 -0.10483755321E+04  0.10692489899E+04  0.17200000000E+03 0.  1.
</event>
<event>
 4    1  0.1211980E+000  0.1812424E+03  0.7818608E-02  0.1166606E+00
         21   -1    0    0  503  502  0.00000000000E+00  0.00000000000E+00  0.10519098966E+03  0.10519098966E+03  0.00000000000E+00 0.  1.
         21   -1    0    0  501  503 -0.00000000000E+00 -0.00000000000E+00 -0.43743565515E+03  0.43743565515E+03  0.00000000000E+00 0.  1.
          6    1    1    2  501    0  0.51959283145E+02 -0.23770273754E+02 -0.31124771604E+03  0.36017208909E+03  0.17200000000E+03 0.  1.
         -6    1    1    2    0  502 -0.51959283145E+02  0.23770273754E+02 -0.20996949449E+02  0.18245455573E+03  0.17200000000E+03 0.  1.
</event>
<event>
 4    1  0.1211980E+000  0.1754095E+03  0.7818608E-02  0.1172321E+00
         21   -1    0    0  503  502  0.00000000000E+00  0.00000000000E+00  0.17834371037E+03  0.17834371037E+03  0.00000000000E+00 0.  1.
         21   -1    0    0  501  503 -0.00000000000E+00 -0.00000000000E+00 -0.18764560451E+03  0.18764560451E+03  0.00000000000E+00 0.  1.
          6    1    1    2  501    0 -0.34396541080E+02  0.11713564986E+01 -0.56599599205E+02  0.18431497157E+03  0.17200000000E+03 0.  1.
         -6    1    1    2    0  502  0.34396541080E+02 -0.11713564986E+01  0.47297705060E+02  0.18167434331E+03  0.17200000000E+03 0.  1.
</event>
<event>
 4    1  0.1211980E+000  0.2065528E+03  0.7818608E-02  0.1144325E+00
         21   -1    0    0  501  502  0.00000000000E+00  0.00000000000E+00  0.20191528446E+03  0.20191528446E+03  0.00000000000E+00 0. -1.
         21   -1    0    0  502  503 -0.00000000000E+00 -0.00000000000E+00 -0.25245360938E+03  0.25245360938E+03  0.00000000000E+00 0. -1.
          6    1    1    2  501    0 -0.37680423645E+02  0.10798262859E+03  0.66460209602E+02  0.21698161642E+03  0.17200000000E+03 0. -1.
         -6    1    1    2    0  503  0.37680423645E+02 -0.10798262859E+03 -0.11699853453E+03  0.23738727743E+03  0.17200000000E+03 0. -1.
</event>
<event>
 4    1  0.1211980E+000  0.2257986E+03  0.7818608E-02  0.1129632E+00
         21   -1    0    0  501  502  0.00000000000E+00  0.00000000000E+00  0.92978199308E+02  0.92978199308E+02  0.00000000000E+00 0. -1.
         21   -1    0    0  502  503 -0.00000000000E+00 -0.00000000000E+00 -0.55442654351E+03  0.55442654351E+03  0.00000000000E+00 0. -1.
          6    1    1    2  501    0  0.13972477381E+03  0.43335734899E+02 -0.19684776582E+03  0.29955640745E+03  0.17200000000E+03 0. -1.
         -6    1    1    2    0  503 -0.13972477381E+03 -0.43335734899E+02 -0.26460057839E+03  0.34784833537E+03  0.17200000000E+03 0. -1.
</event>
<event>
 4    1  0.1211980E+000  0.2968987E+03  0.7818608E-02  0.1086801E+00
         21   -1    0    0  503  502  0.00000000000E+00  0.00000000000E+00  0.47363673398E+04  0.47363673398E+04  0.00000000000E+00 0.  1.
         21   -1    0    0  501  503 -0.00000000000E+00 -0.00000000000E+00 -0.57642320403E+02  0.57642320403E+02  0.00000000000E+00 0. -1.
          6    1    1    2  501    0 -0.66884252818E+01  0.24190932839E+03  0.36691969556E+03  0.47199461987E+03  0.17200000000E+03 0. -1.
         -6    1    1    2    0  502  0.66884252818E+01 -0.24190932839E+03  0.43118053238E+04  0.43220150403E+04  0.17200000000E+03 0.  1.
</event>
<event>
 4    1  0.1211980E+000  0.1963658E+03  0.7818608E-02  0.1152842E+00
         21   -1    0    0  503  502  0.00000000000E+00  0.00000000000E+00  0.25918403945E+03  0.25918403945E+03  0.00000000000E+00 0. -1.
         21   -1    0    0  501  503 -0.00000000000E+00 -0.00000000000E+00 -0.16427820416E+03  0.16427820416E+03  0.00000000000E+00 0. -1.
          6    1    1    2  501    0  0.92995717293E+02  0.18092595768E+02 -0.17595347755E+02  0.19715258487E+03  0.17200000000E+03 0. -1.
         -6    1    1    2    0  502 -0.92995717293E+02 -0.18092595768E+02  0.11250118304E+03  0.22630965874E+03  0.17200000000E+03 0. -1.
</event>
<event>
 4    1  0.1211980E+000  0.2379394E+03  0.7818608E-02  0.1121173E+00
         21   -1    0    0  503  502  0.00000000000E+00  0.00000000000E+00  0.12384867524E+03  0.12384867524E+03  0.00000000000E+00 0.  1.
         21   -1    0    0  501  503 -0.00000000000E+00 -0.00000000000E+00 -0.46800453712E+03  0.46800453712E+03  0.00000000000E+00 0. -1.
          6    1    1    2  501    0 -0.32745560355E+02  0.16111767198E+03 -0.12697267847E+03  0.26969841865E+03  0.17200000000E+03 0.  1.
         -6    1    1    2    0  502  0.32745560355E+02 -0.16111767198E+03 -0.21718318341E+03  0.32215479370E+03  0.17200000000E+03 0. -1.
</event>
<event>
 4    1  0.1211980E+000  0.1722605E+03  0.7818608E-02  0.1175511E+00
         21   -1    0    0  501  502  0.00000000000E+00  0.00000000000E+00  0.15475179891E+03  0.15475179891E+03  0.00000000000E+00 0.  1.
         21   -1    0    0  502  503 -0.00000000000E+00 -0.00000000000E+00 -0.32400442867E+03  0.32400442867E+03  0.00000000000E+00 0.  1.
          6    1    1    2  501    0 -0.58039040880E+00  0.94527720397E+01  0.68311089506E+02  0.18531081108E+03  0.17200000000E+03 0.  1.
         -6    1    1    2    0  503  0.58039040880E+00 -0.94527720397E+01 -0.23756371927E+03  0.29344541650E+03  0.17200000000E+03 0.  1.
</event>
<event>
 4    1  0.1211980E+000  0.2035794E+03  0.7818608E-02  0.1146754E+00
         21   -1    0    0  501  502  0.00000000000E+00  0.00000000000E+00  0.11431117968E+04  0.11431117968E+04  0.00000000000E+00 0. -1.
         21   -1    0    0  502  503 -0.00000000000E+00 -0.00000000000E+00 -0.36262791738E+02  0.36262791738E+02  0.00000000000E+00 0.  1.
          6    1    1    2  501    0  0.10753286835E+03 -0.17240819648E+02  0.54530374946E+03  0.58206592651E+03  0.17200000000E+03 0.  1.
         -6    1    1    2    0  503 -0.10753286835E+03  0.17240819648E+02  0.56154525562E+03  0.59730866204E+03  0.17200000000E+03 0.  1.
</event>
<event>
 4    1  0.1211980E+000  0.2295909E+03  0.7818608E-02  0.1126928E+00
         21   -1    0    0  503  502  0.00000000000E+00  0.00000000000E+00  0.49942101108E+03  0.49942101108E+03  0.00000000000E+00 0.  1.
         21   -1    0    0  501  503 -0.00000000000E+00 -0.00000000000E+00 -0.11979338186E+03  0.11979338186E+03  0.00000000000E+00 0.  1.
          6    1    1    2  501    0  0.12825921602E+03 -0.81716255945E+02  0.83041259671E+02  0.24414713553E+03  0.17200000000E+03 0. -1.
         -6    1    1    2    0  502 -0.12825921602E+03  0.81716255945E+02  0.29658636955E+03  0.37506725741E+03  0.17200000000E+03 0. -1.
</event>
<event>
 4    1  0.1211980E+000  0.1838466E+03  0.7818608E-02  0.1164131E+00
         21   -1    0    0  501  502  0.00000000000E+00  0.00000000000E+00  0.10245046266E+04  0.10245046266E+04  0.00000000000E+00 0. -1.
         21   -1    0    0  502  503 -0.00000000000E+00 -0.00000000000E+00 -0.33309331587E+02  0.33309331587E+02  0.00000000000E+00 0. -1.
          6    1    1    2  501    0  0.31995049670E+02 -0.56496838290E+02  0.44390361200E+03  0.48046851373E+03  0.17200000000E+03 0. -1.
         -6    1    1    2    0  503 -0.31995049670E+02  0.56496838290E+02  0.54729168304E+03  0.57734544448E+03  0.17200000000E+03 0. -1.
</event>
<event>
 4    1  0.1211980E+000  0.2011894E+03  0.7818608E-02  0.1148739E+00
         21   -1    0    0  503  502  0.00000000000E+00  0.00000000000E+00  0.34523226100E+03  0.34523226100E+03  0.00000000000E+00 0. -1.
         21   -1    0    0  501  503 -0.00000000000E+00 -0.00000000000E+00 -0.19318415874E+03  0.19318415874E+03  0.00000000000E+00 0. -1.
          6    1    1    2  501    0  0.10434999838E+03 -0.20613840449E+01 -0.92760229820E+02  0.22154374670E+03  0.17200000000E+03 0. -1.
         -6    1    1    2    0  502 -0.10434999838E+03  0.20613840449E+01  0.24480833207E+03  0.31687267304E+03  0.17200000000E+03 0. -1.
</event>
<event>
 4    1  0.1211980E+000  0.1887559E+03  0.7818608E-02  0.1159588E+00
         21   -1    0    0  501  502  0.00000000000E+00  0.00000000000E+00  0.17259943087E+03  0.17259943087E+03  0.00000000000E+00 0. -1.
         21   -1    0    0  502  503 -0.00000000000E+00 -0.00000000000E+00 -0.44332358965E+03  0.44332358965E+03  0.00000000000E+00 0. -1.
          6    1    1    2  501    0  0.41697503956E+02  0.65620943037E+02  0.89759698620E+02  0.20901098894E+03  0.17200000000E+03 0. -1.
         -6    1    1    2    0  503 -0.41697503956E+02 -0.65620943037E+02 -0.36048385740E+03  0.40691203158E+03  0.17200000000E+03 0. -1.
</event>
<event>
 4    1  0.1211980E+000  0.1976712E+03  0.7818608E-02  0.1151719E+00
         21   -1    0    0  503  502  0.00000000000E+00  0.00000000000E+00  0.21186475851E+02  0.21186475851E+02  0.00000000000E+00 0. -1.
         21   -1    0    0  501  503 -0.00000000000E+00 -0.00000000000E+00 -0.18632258891E+04  0.18632258891E+04  0.00000000000E+00 0. -1.
          6    1    1    2  501    0  0.59069042011E+02  0.77464501564E+02 -0.10160173372E+04  0.10350676936E+04  0.17200000000E+03 0.  1.
         -6    1    1    2    0  502 -0.59069042011E+02 -0.77464501564E+02 -0.82602207597E+03  0.84934467133E+03  0.17200000000E+03 0.  1.
</event>
<event>
 4    1  0.1211980E+000  0.1797957E+03  0.7818608E-02  0.1168001E+00
         21   -1    0    0  503  502  0.00000000000E+00  0.00000000000E+00  0.72863174587E+02  0.72863174587E+02  0.00000000000E+00 0.  1.
         21   -1    0    0  501  503 -0.00000000000E+00 -0.00000000000E+00 -0.56398009415E+03  0.56398009415E+03  0.00000000000E+00 0.  1.
          6    1    1    2  501    0  0.13418697059E+02  0.50620365051E+02 -0.39263370921E+03  0.43184223091E+03  0.17200000000E+03 0.  1.
         -6    1    1    2    0  502 -0.13418697059E+02 -0.50620365051E+02 -0.98483210351E+02  0.20500103783E+03  0.17200000000E+03 0.  1.
</event>
<event>
 4    1  0.1211980E+000  0.2064127E+03  0.7818608E-02  0.1144439E+00
         21   -1    0    0  503  502  0.00000000000E+00  0.00000000000E+00  0.18333267615E+03  0.18333267615E+03  0.00000000000E+00 0. -1.
         21   -1    0    0  501  503 -0.00000000000E+00 -0.00000000000E+00 -0.25750758595E+03  0.25750758595E+03  0.00000000000E+00 0. -1.
          6    1    1    2  501    0  0.98862060941E+02 -0.56995535170E+02 -0.10591679717E+03  0.23200121992E+03  0.17200000000E+03 0.  1.
         -6    1    1    2    0  502 -0.98862060941E+02  0.56995535170E+02  0.31741887373E+02  0.20883904218E+03  0.17200000000E+03 0.  1.
</event>
<event>
 4    1  0.1211980E+000  0.2094813E+03  0.7818608E-02  0.1141977E+00
         21   -1    0    0  501  502  0.00000000000E+00  0.00000000000E+00  0.82454042216E+03  0.82454042216E+03  0.00000000000E+00 0.  1.
         21   -1    0    0  502  503 -0.00000000000E+00 -0.00000000000E+00 -0.65426782067E+02  0.65426782067E+02  0.00000000000E+00 0.  1.
          6    1    1    2  501    0 -0.67169918688E+02 -0.98927388720E+02  0.57175909211E+03  0.60892600997E+03  0.17200000000E+03 0.  1.
         -6    1    1    2    0  503  0.67169918688E+02  0.98927388720E+02  0.18735454798E+03  0.28104119425E+03  0.17200000000E+03 0.  1.
</event>
<event>
 4    1  0.1211980E+000  0.1818920E+03  0.7818608E-02  0.1165984E+00
         21   -1    0    0  503  502  0.00000000000E+00  0.00000000000E+00  0.96266566766E+02  0.96266566766E+02  0.00000000000E+00 0.  1.
         21   -1    0    0  501  503 -0.00000000000E+00 -0.00000000000E+00 -0.38314748640E+03  0.38314748640E+03  0.00000000000E+00 0.  1.
          6    1    1    2  501    0 -0.51427795228E+02  0.29255242486E+02 -0.22037640623E+03  0.28574542474E+03  0.17200000000E+03 0.  1.
         -6    1    1    2    0  502  0.51427795228E+02 -0.29255242486E+02 -0.66504513405E+02  0.19366862843E+03  0.17200000000E+03 0.  1.
</event>
<event>
 4    1  0.1211980E+000  0.1843401E+03  0.7818608E-02  0.1163668E+00
         21   -1    0    0  503  502  0.00000000000E+00  0.00000000000E+00  0.41233830232E+03  0.41233830232E+03  0.00000000000E+00 0. -1.
         21   -1    0    0  501  503 -0.00000000000E+00 -0.00000000000E+00 -0.82584186427E+02  0.82584186427E+02  0.00000000000E+00 0.  1.
          6    1    1    2  501    0 -0.66305796665E+02 -0.90800265259E+00  0.17620363620E+03  0.25500785194E+03  0.17200000000E+03 0. -1.
         -6    1    1    2    0  502  0.66305796665E+02  0.90800265259E+00  0.15355047969E+03  0.23991463680E+03  0.17200000000E+03 0.  1.
</event>
<event>
 4    1  0.1211980E+000  0.1913283E+03  0.7818608E-02  0.1157269E+00
         21   -1    0    0  501  502  0.00000000000E+00  0.00000000000E+00  0.14036016841E+03  0.14036016841E+03  0.00000000000E+00 0.  1.
         21   -1    0    0  502  503 -0.00000000000E+00 -0.00000000000E+00 -0.26732976577E+03  0.26732976577E+03  0.00000000000E+00 0.  1.
          6    1    1    2  501    0 -0.37136210574E+02 -0.75122671577E+02 -0.95333168023E+02  0.21376371733E+03  0.17200000000E+03 0. -1.
         -6    1    1    2    0  503  0.37136210574E+02  0.75122671577E+02 -0.31636429333E+02  0.19392621685E+03  0.17200000000E+03 0. -1.
</event>
<event>
 4    1  0.1211980E+000  0.2168381E+03  0.7818608E-02  0.1136263E+00
         21   -1    0    0  503  502  0.00000000000E+00  0.00000000000E+00  0.47876409545E+02  0.47876409545E+02  0.00000000000E+00 0. -1.
         21   -1    0    0  501  503 -0.00000000000E+00 -0.00000000000E+00 -0.10037402865E+04  0.10037402865E+04  0.00000000000E+00 0.  1.
          6    1    1    2  501    0 -0.59014711631E+02  0.11811876397E+03 -0.40070246513E+03  0.45561084728E+03  0.17200000000E+03 0. -1.
         -6    1    1    2    0  502  0.59014711631E+02 -0.11811876397E+03 -0.55516141185E+03  0.59600584879E+03  0.17200000000E+03 0.  1.
</event>
<event>
 4    1  0.1211980E+000  0.2167420E+03  0.7818608E-02  0.1136336E+00
         21   -1    0    0  501  502  0.00000000000E+00  0.00000000000E+00  0.38482082533E+02  0.38482082533E+02  0.00000000000E+00 0.  1.
         21   -1    0    0  502  503 -0.00000000000E+00 -0.00000000000E+00 -0.12677295357E+04  0.12677295357E+04  0.00000000000E+00 0.  1.
          6    1    1    2  501    0  0.53905883148E+02  0.12036302545E+03 -0.74034610989E+03  0.77142042011E+03  0.17200000000E+03 0.  1.
         -6    1    1    2    0  503 -0.53905883148E+02 -0.12036302545E+03 -0.48890134329E+03  0.53479119813E+03  0.17200000000E+03 0.  1.
</event>
<event>
 4    1  0.1211980E+000  0.2335181E+03  0.7818608E-02  0.1124188E+00
         21   -1    0    0  503  502  0.00000000000E+00  0.00000000000E+00  0.23017696247E+03  0.23017696247E+03  0.00000000000E+00 0.  1.
         21   -1    0    0  501  503 -0.00000000000E+00 -0.00000000000E+00 -0.34694145360E+03  0.34694145360E+03  0.00000000000E+00 0.  1.
          6    1    1    2  501    0  0.13801328166E+03  0.76805067742E+02 -0.22088843026E+03  0.32143799241E+03  0.17200000000E+03 0.  1.
         -6    1    1    2    0  502 -0.13801328166E+03 -0.76805067742E+02  0.10412393913E+03  0.25568042366E+03  0.17200000000E+03 0.  1.
</event>
<event>
 4    1  0.1211980E+000  0.2130027E+03  0.7818608E-02  0.1139210E+00
         21   -1    0    0  503  502  0.00000000000E+00  0.00000000000E+00  0.67699120377E+03  0.67699120377E+03  0.00000000000E+00 0.  1.
         21   -1    0    0  501  503 -0.00000000000E+00 -0.00000000000E+00 -0.10268278805E+03  0.10268278805E+03  0.00000000000E+00 0. -1.
          6    1    1    2  501    0  0.12486911929E+03 -0.13923332330E+02  0.57402890780E+02  0.22060201270E+03  0.17200000000E+03 0. -1.
         -6    1    1    2    0  502 -0.12486911929E+03  0.13923332330E+02  0.51690552494E+03  0.55907197913E+03  0.17200000000E+03 0.  1.
</event>
<event>
 4    1  0.1211980E+000  0.1979442E+03  0.7818608E-02  0.1151485E+00
         21   -1    0    0  503  502  0.00000000000E+00  0.00000000000E+00  0.76694419127E+03  0.76694419127E+03  0.00000000000E+00 0. -1.
         21   -1    0    0  501  503 -0.00000000000E+00 -0.00000000000E+00 -0.98326228693E+02  0.98326228693E+02  0.00000000000E+00 0.  1.
          6    1    1    2  501    0 -0.67464512130E+02 -0.71038439759E+02  0.34439463309E+02  0.20091788610E+03  0.17200000000E+03 0.  1.
         -6    1    1    2    0  502  0.67464512130E+02  0.71038439759E+02  0.63417849927E+03  0.66435253387E+03  0.17200000000E+03 0. -1.
</event>
<event>
 4    1  0.1211980E+000  0.1812834E+03  0.7818608E-02  0.1166567E+00
         21   -1    0    0  501  502  0.00000000000E+00  0.00000000000E+00  0.71220653856E+03  0.71220653856E+03  0.00000000000E+00 0. -1.
         21   -1    0    0  502  503 -0.00000000000E+00 -0.00000000000E+00 -0.46207456899E+02  0.46207456899E+02  0.00000000000E+00 0. -1.
          6    1    1    2  501    0 -0.53123062555E+02  0.21391836687E+02  0.31888663924E+03  0.36681379355E+03  0.17200000000E+03 0.  1.
         -6    1    1    2    0  503  0.53123062555E+02 -0.21391836687E+02  0.34711244242E+03  0.39160020191E+03  0.17200000000E+03 0.  1.
</event>
<event>
 4    1  0.1211980E+000  0.2173215E+03  0.7818608E-02  0.1135896E+00
         21   -1    0    0  503  502  0.00000000000E+00  0.00000000000E+00  0.88283282822E+02  0.88283282822E+02  0.00000000000E+00 0. -1.
         21   -1    0    0  501  503 -0.00000000000E+00 -0.00000000000E+00 -0.63478493207E+03  0.63478493207E+03  0.00000000000E+00 0. -1.
          6    1    1    2  501    0 -0.27365714919E+02  0.12998372862E+03 -0.41661479852E+03  0.46988992583E+03  0.17200000000E+03 0. -1.
         -6    1    1    2    0  502  0.27365714919E+02 -0.12998372862E+03 -0.12988685074E+03  0.25317828906E+03  0.17200000000E+03 0. -1.
</event>
<event>
 4    1  0.1211980E+000  0.1840485E+03  0.7818608E-02  0.1163941E+00
         21   -1    0    0  501  502  0.00000000000E+00  0.00000000000E+00  0.56970736169E+03  0.56970736169E+03  0.00000000000E+00 0.  1.
         21   -1    0    0  502  503 -0.00000000000E+00 -0.00000000000E+00 -0.80288624880E+02  0.80288624880E+02  0.00000000000E+00 0. -1.
          6    1    1    2  501    0  0.51440646784E+02 -0.40542732154E+02  0.41024873452E+03  0.44964194360E+03  0.17200000000E+03 0.  1.
         -6    1    1    2    0  503 -0.51440646784E+02  0.40542732154E+02  0.79170002295E+02  0.20035404297E+03  0.17200000000E+03 0. -1.
</event>
<event>
 4    1  0.1211980E+000  0.1894875E+03  0.7818608E-02  0.1158924E+00
         21   -1    0    0  503  502  0.00000000000E+00  0.00000000000E+00  0.37907822498E+03  0.37907822498E+03  0.00000000000E+00 0. -1.
         21   -1    0    0  501  503 -0.00000000000E+00 -0.00000000000E+00 -0.12571935479E+03  0.12571935479E+03  0.00000000000E+00 0. -1.
          6    1    1    2  501    0 -0.56587640324E+01  0.79306194809E+02  0.13430340309E+01  0.18949221062E+03  0.17200000000E+03 0. -1.
         -6    1    1    2    0  502  0.56587640324E+01 -0.79306194809E+02  0.25201583616E+03  0.31530536916E+03  0.17200000000E+03 0. -1.
</event>
<event>
 4    1  0.1211980E+000  0.2889384E+03  0.7818608E-02  0.1090905E+00
         21   -1    0    0  503  502  0.00000000000E+00  0.00000000000E+00  0.32413351374E+03  0.32413351374E+03  0.00000000000E+00 0.  1.
         21   -1    0    0  501  503 -0.00000000000E+00 -0.00000000000E+00 -0.27308449915E+03  0.27308449915E+03  0.00000000000E+00 0. -1.
          6    1    1    2  501    0  0.93089154336E+02  0.21268704772E+03 -0.45661818170E+02  0.29252414013E+03  0.17200000000E+03 0. -1.
         -6    1    1    2    0  502 -0.93089154336E+02 -0.21268704772E+03  0.96710832756E+02  0.30469387275E+03  0.17200000000E+03 0.  1.
</event>
<event>
 4    1  0.1211980E+000  0.2519902E+03  0.7818608E-02  0.1112054E+00
         21   -1    0    0  503  502  0.00000000000E+00  0.00000000000E+00  0.51572570306E+02  0.51572570306E+02  0.00000000000E+00 0.  1.
         21   -1    0    0  501  503 -0.00000000000E+00 -0.00000000000E+00 -0.14306940715E+04  0.14306940715E+04  0.00000000000E+00 0.  1.
          6    1    1    2  501    0 -0.65894326890E+02 -0.17196795386E+03 -0.96627206890E+03  0.99858938038E+03  0.17200000000E+03 0. -1.
         -6    1    1    2    0  502  0.65894326890E+02  0.17196795386E+03 -0.41284943226E+03  0.48367726139E+03  0.17200000000E+03 0. -1.
</event>
<event>
 4    1  0.1211980E+000  0.1779722E+03  0.7818608E-02  0.1169780E+00
         21   -1    0    0  501  502  0.00000000000E+00  0.00000000000E+00  0.13179312287E+03  0.13179312287E+03  0.00000000000E+00 0. -1.
         21   -1    0    0  502  503 -0.00000000000E+00 -0.00000000000E+00 -0.26902718746E+03  0.26902718746E+03  0.00000000000E+00 0. -1.
          6    1    1    2  501    0  0.41757520597E+02 -0.18611721044E+02 -0.31643856973E+01  0.17800028096E+03  0.17200000000E+03 0. -1.
         -6    1    1    2    0  503 -0.41757520597E+02  0.18611721044E+02 -0.13406967889E+03  0.22282002936E+03  0.17200000000E+03 0. -1.
</event>
<event>
 4    1  0.1211980E+000  0.1848689E+03  0.7818608E-02  0.1163172E+00
         21   -1    0    0  501  502  0.00000000000E+00  0.00000000000E+00  0.16679886351E+02  0.16679886351E+02  0.00000000000E+00 0.  1.
         21   -1    0    0  502  503 -0.00000000000E+00 -0.00000000000E+00 -0.21656548111E+04  0.21656548111E+04  0.00000000000E+00 0.  1.
          6    1    1    2  501    0  0.66685886911E+02 -0.12063178402E+02 -0.82120187063E+03  0.84175355070E+03  0.17200000000E+03 0. -1.
         -6    1    1    2    0  503 -0.66685886911E+02  0.12063178402E+02 -0.13277730542E+04  0.13405811468E+04  0.17200000000E+03 0. -1.
</event>
<event>
 4    1  0.1211980E+000  0.1824597E+03  0.7818608E-02  0.1165444E+00
         21   -1    0    0  501  502  0.00000000000E+00  0.00000000000E+00  0.12225553706E+03  0.12225553706E+03  0.00000000000E+00 0.  1.
         21   -1    0    0  502  503 -0.00000000000E+00 -0.00000000000E+00 -0.28433831057E+03  0.28433831057E+03  0.00000000000E+00 0.  1.
          6    1    1    2  501    0 -0.29298328776E+02  0.53377375252E+02 -0.39229853374E+02  0.18662935903E+03  0.17200000000E+03 0.  1.
         -6    1    1    2    0  503  0.29298328776E+02 -0.53377375252E+02 -0.12285292014E+03  0.21996448860E+03  0.17200000000E+03 0.  1.
</event>
<event>
 4    1  0.1211980E+000  0.1820772E+03  0.7818608E-02  0.1165808E+00
         21   -1    0    0  503  502  0.00000000000E+00  0.00000000000E+00  0.36875925965E+02  0.36875925965E+02  0.00000000000E+00 0. -1.
         21   -1    0    0  501  503 -0.00000000000E+00 -0.00000000000E+00 -0.92062955386E+03  0.92062955386E+03  0.00000000000E+00 0. -1.
          6    1    1    2  501    0 -0.27931440354E+02  0.52801000916E+02 -0.51522925634E+03  0.54645521101E+03  0.17200000000E+03 0. -1.
         -6    1    1    2    0  502  0.27931440354E+02 -0.52801000916E+02 -0.36852437156E+03  0.41105026881E+03  0.17200000000E+03 0. -1.
</event>
<event>
 4    1  0.1211980E+000  0.2381378E+03  0.7818608E-02  0.1121040E+00
         21   -1    0    0  501  502  0.00000000000E+00  0.00000000000E+00  0.15991594794E+04  0.15991594794E+04  0.00000000000E+00 0.  1.
         21   -1    0    0  502  503 -0.00000000000E+00 -0.00000000000E+00 -0.37890323266E+02  0.37890323266E+02  0.00000000000E+00 0. -1.
          6    1    1    2  501    0 -0.15728686837E+03 -0.48851575424E+02  0.98784302837E+03  0.10161414685E+04  0.17200000000E+03 0.  1.
         -6    1    1    2    0  503  0.15728686837E+03  0.48851575424E+02  0.57342612773E+03  0.62090833409E+03  0.17200000000E+03 0. -1.
</event>
<event>
 4    1  0.1211980E+000  0.1759974E+03  0.7818608E-02  0.1171734E+00
         21   -1    0    0  503  502  0.00000000000E+00  0.00000000000E+00  0.76586894807E+03  0.76586894807E+03  0.00000000000E+00 0. -1.
         21   -1    0    0  501  503 -0.00000000000E+00 -0.00000000000E+00 -0.40647540107E+02  0.40647540107E+02  0.00000000000E+00 0. -1.
          6    1    1    2  501    0 -0.34499920282E+02  0.14171845189E+02  0.39112075508E+03  0.42889454502E+03  0.17200000000E+03 0.  1.
         -6    1    1    2    0  502  0.34499920282E+02 -0.14171845189E+02  0.33410065289E+03  0.37762194316E+03  0.17200000000E+03 0.  1.
</event>
<event>
 4    1  0.1211980E+000  0.3534024E+03  0.7818608E-02  0.1061227E+00
         21   -1    0    0  501  502  0.00000000000E+00  0.00000000000E+00  0.29357815932E+03  0.29357815932E+03  0.00000000000E+00 0. -1.
         21   -1    0    0  502  503 -0.00000000000E+00 -0.00000000000E+00 -0.77132528743E+03  0.77132528743E+03  0.00000000000E+00 0.  1.
          6    1    1    2  501    0 -0.29006406277E+03 -0.10569819493E+03  0.11769385682E+03  0.37248505051E+03  0.17200000000E+03 0.  1.
         -6    1    1    2    0  503  0.29006406277E+03  0.10569819493E+03 -0.59544098492E+03  0.69241839624E+03  0.17200000000E+03 0. -1.
</event>
<event>
 4    1  0.1211980E+000  0.1939865E+03  0.7818608E-02  0.1154914E+00
         21   -1    0    0  501  502  0.00000000000E+00  0.00000000000E+00  0.15641746025E+03  0.15641746025E+03  0.00000000000E+00 0. -1.
         21   -1    0    0  502  503 -0.00000000000E+00 -0.00000000000E+00 -0.16094014783E+04  0.16094014783E+04  0.00000000000E+00 0. -1.
          6    1    1    2  501    0 -0.83400253790E+02  0.33032737697E+02  0.87757551634E+02  0.21291348469E+03  0.17200000000E+03 0. -1.
         -6    1    1    2    0  503  0.83400253790E+02 -0.33032737697E+02 -0.15407415697E+04  0.15529054539E+04  0.17200000000E+03 0. -1.
</event>
<event>
 4    1  0.1211980E+000  0.2959260E+03  0.7818608E-02  0.1087295E+00
         21   -1    0    0  503  502  0.00000000000E+00  0.00000000000E+00  0.37886097347E+03  0.37886097347E+03  0.00000000000E+00 0.  1.
         21   -1    0    0  501  503 -0.00000000000E+00 -0.00000000000E+00 -0.27752839743E+03  0.27752839743E+03  0.00000000000E+00 0.  1.
          6    1    1    2  501    0  0.13185858427E+03 -0.20149814067E+03 -0.83503449569E+02  0.30748172796E+03  0.17200000000E+03 0.  1.
         -6    1    1    2    0  502 -0.13185858427E+03  0.20149814067E+03  0.18483602560E+03  0.34890764294E+03  0.17200000000E+03 0.  1.
</event>
<event>
 4    1  0.1211980E+000  0.1794543E+03  0.7818608E-02  0.1168332E+00
         21   -1    0    0  501  502  0.00000000000E+00  0.00000000000E+00  0.16219637710E+03  0.16219637710E+03  0.00000000000E+00 0. -1.
         21   -1    0    0  502  503 -0.00000000000E+00 -0.00000000000E+00 -0.21147844839E+03  0.21147844839E+03  0.00000000000E+00 0. -1.
          6    1    1    2  501    0  0.42748105112E+02  0.28150278969E+02  0.21557699123E+02  0.18074449670E+03  0.17200000000E+03 0. -1.
         -6    1    1    2    0  503 -0.42748105112E+02 -0.28150278969E+02 -0.70839770410E+02  0.19293032879E+03  0.17200000000E+03 0. -1.
</event>
<event>
 4    1  0.1211980E+000  0.2263667E+03  0.7818608E-02  0.1129223E+00
         21   -1    0    0  501  502  0.00000000000E+00  0.00000000000E+00  0.60648923282E+02  0.60648923282E+02  0.00000000000E+00 0. -1.
         21   -1    0    0  502  503 -0.00000000000E+00 -0.00000000000E+00 -0.84902224444E+03  0.84902224444E+03  0.00000000000E+00 0. -1.
          6    1    1    2  501    0  0.29131330114E+01  0.14713738187E+03 -0.36246971245E+03  0.42734785355E+03  0.17200000000E+03 0.  1.
         -6    1    1    2    0  503 -0.29131330114E+01 -0.14713738187E+03 -0.42590360870E+03  0.48232331417E+03  0.17200000000E+03 0.  1.
</event>
<event>
 4    1  0.1211980E+000  0.1798512E+03  0.7818608E-02  0.1167947E+00
         21   -1    0    0  501  502  0.00000000000E+00  0.00000000000E+00  0.73472966800E+03  0.73472966800E+03  0.00000000000E+00 0. -1.
         21   -1    0    0  502  503 -0.00000000000E+00 -0.00000000000E+00 -0.94646113270E+02  0.94646113270E+02  0.00000000000E+00 0. -1.
          6    1    1    2  501    0 -0.50900480114E+02  0.13099009210E+02  0.62331634134E+03  0.64874471427E+03  0.17200000000E+03 0. -1.
         -6    1    1    2    0  503  0.50900480114E+02 -0.13099009210E+02  0.16767213388E+02  0.18063106699E+03  0.17200000000E+03 0. -1.
</event>
<event>
 4    1  0.1211980E+000  0.2086101E+03  0.7818608E-02  0.1142671E+00
         21   -1    0    0  501  502  0.00000000000E+00  0.00000000000E+00  0.25244582997E+03  0.25244582997E+03  0.00000000000E+00 0.  1.
         21   -1    0    0  502  503 -0.00000000000E+00 -0.00000000000E+00 -0.22276648794E+03  0.22276648794E+03  0.00000000000E+00 0.  1.
          6    1    1    2  501    0 -0.11759137754E+03  0.10316068921E+02  0.12783578210E+03  0.24466332078E+03  0.17200000000E+03 0.  1.
         -6    1    1    2    0  503  0.11759137754E+03 -0.10316068921E+02 -0.98156440068E+02  0.23054899713E+03  0.17200000000E+03 0.  1.
</event>
<event>
 4    1  0.1211980E+000  0.1793704E+03  0.7818608E-02  0.1168414E+00
         21   -1    0    0  501  502  0.00000000000E+00  0.00000000000E+00  0.57987505258E+03  0.57987505258E+03  0.00000000000E+00 0.  1.
         21   -1    0    0  502  503 -0.00000000000E+00 -0.00000000000E+00 -0.60845291217E+02  0.60845291217E+02  0.00000000000E+00 0.  1.
          6    1    1    2  501    0 -0.16678653115E+02  0.48078688418E+02  0.35461108859E+03  0.39739496964E+03  0.17200000000E+03 0.  1.
         -6    1    1    2    0  503  0.16678653115E+02 -0.48078688418E+02  0.16441867278E+03  0.24332537416E+03  0.17200000000E+03 0.  1.
</event>
<event>
 4    1  0.1211980E+000  0.1937502E+03  0.7818608E-02  0.1155122E+00
         21   -1    0    0  501  502  0.00000000000E+00  0.00000000000E+00  0.53963424995E+03  0.53963424995E+03  0.00000000000E+00 0.  1.
         21   -1    0    0  502  503 -0.00000000000E+00 -0.00000000000E+00 -0.70697663381E+02  0.70697663381E+02  0.00000000000E+00 0.  1.
          6    1    1    2  501    0  0.52235864776E+02  0.72295014728E+02  0.19582606078E+03  0.27547595322E+03  0.17200000000E+03 0. -1.
         -6    1    1    2    0  503 -0.52235864776E+02 -0.72295014728E+02  0.27311052579E+03  0.33485596011E+03  0.17200000000E+03 0. -1.
</event>
<event>
 4    1  0.1211980E+000  0.3319866E+03  0.7818608E-02  0.1070261E+00
         21   -1    0    0  503  502  0.00000000000E+00  0.00000000000E+00  0.24337616841E+03  0.24337616841E+03  0.00000000000E+00 0.  1.
         21   -1    0    0  501  503 -0.00000000000E+00 -0.00000000000E+00 -0.46057143562E+03  0.46057143562E+03  0.00000000000E+00 0. -1.
          6    1    1    2  501    0 -0.27788119375E+03  0.58421964207E+02 -0.63050805553E+02  0.33792083070E+03  0.17200000000E+03 0.  1.
         -6    1    1    2    0  502  0.27788119375E+03 -0.58421964207E+02 -0.15414446166E+03  0.36602677334E+03  0.17200000000E+03 0.  1.
</event>
<event>
 4    1  0.1211980E+000  0.2007515E+03  0.7818608E-02  0.1149107E+00
         21   -1    0    0  503  502  0.00000000000E+00  0.00000000000E+00  0.12781537157E+04  0.12781537157E+04  0.00000000000E+00 0. -1.
         21   -1    0    0  501  503 -0.00000000000E+00 -0.00000000000E+00 -0.16493944404E+03  0.16493944404E+03  0.00000000000E+00 0. -1.
          6    1    1    2  501    0  0.87997145053E+02  0.54531173496E+02 -0.92317368772E+02  0.22096072727E+03  0.17200000000E+03 0. -1.
         -6    1    1    2    0  502 -0.87997145053E+02 -0.54531173496E+02  0.12055316404E+04  0.12221324325E+04  0.17200000000E+03 0. -1.
</event>
<event>
 4    1  0.1211980E+000  0.1866710E+03  0.7818608E-02  0.1161499E+00
         21   -1    0    0  503  502  0.00000000000E+00  0.00000000000E+00  0.53992667596E+03  0.53992667596E+03  0.00000000000E+00 0. -1.
         21   -1    0    0  501  503 -0.00000000000E+00 -0.00000000000E+00 -0.55419004745E+03  0.55419004745E+03  0.00000000000E+00 0. -1.
          6    1    1    2  501    0  0.49759221957E+02  0.52783235984E+02 -0.52135039204E+03  0.55376193572E+03  0.17200000000E+03 0. -1.
         -6    1    1    2    0  502 -0.49759221957E+02 -0.52783235984E+02  0.50708702055E+03  0.54035478769E+03  0.17200000000E+03 0. -1.
</event>
<event>
 4    1  0.1211980E+000  0.2006232E+03  0.7818608E-02  0.1149214E+00
         21   -1    0    0  501  502  0.00000000000E+00  0.00000000000E+00  0.89419375332E+02  0.89419375332E+02  0.00000000000E+00 0. -1.
         21   -1    0    0  502  503 -0.00000000000E+00 -0.00000000000E+00 -0.53917346959E+03  0.53917346959E+03  0.00000000000E+00 0. -1.
          6    1    1    2  501    0  0.18830619767E+02 -0.10154342711E+03 -0.97146474360E+02  0.22290602798E+03  0.17200000000E+03 0. -1.
         -6    1    1    2    0  503 -0.18830619767E+02  0.10154342711E+03 -0.35260761990E+03  0.40568681694E+03  0.17200000000E+03 0. -1.
</event>
<event>
 4    1  0.1211980E+000  0.2007681E+03  0.7818608E-02  0.1149093E+00
         21   -1    0    0  501  502  0.00000000000E+00  0.00000000000E+00  0.17136071608E+04  0.17136071608E+04  0.00000000000E+00 0. -1.
         21   -1    0    0  502  503 -0.00000000000E+00 -0.00000000000E+00 -0.25560342487E+02  0.25560342487E+02  0.00000000000E+00 0. -1.
          6    1    1    2  501    0 -0.89598590763E+02 -0.51922392641E+02  0.10895753468E+04  0.11079179928E+04  0.17200000000E+03 0.  1.
         -6    1    1    2    0  503  0.89598590763E+02  0.51922392641E+02  0.59847147145E+03  0.63124951046E+03  0.17200000000E+03 0.  1.
</event>
<event>
 4    1  0.1211980E+000  0.1809995E+03  0.7818608E-02  0.1166839E+00
         21   -1    0    0  501  502  0.00000000000E+00  0.00000000000E+00  0.14410872326E+03  0.14410872326E+03  0.00000000000E+00 0. -1.
         21   -1    0    0  502  503 -0.00000000000E+00 -0.00000000000E+00 -0.44326321529E+03  0.44326321529E+03  0.00000000000E+00 0. -1.
          6    1    1    2  501    0 -0.21149213167E+02  0.52245033906E+02  0.55401066852E+02  0.18928843333E+03  0.17200000000E+03 0. -1.
         -6    1    1    2    0  503  0.21149213167E+02 -0.52245033906E+02 -0.35455555889E+03  0.39808350521E+03  0.17200000000E+03 0. -1.
</event>
<event>
 4    1  0.1211980E+000  0.2707857E+03  0.7818608E-02  0.1100831E+00
         21   -1    0    0  503  502  0.00000000000E+00  0.00000000000E+00  0.72973923700E+02  0.72973923700E+02  0.00000000000E+00 0.  1.
         21   -1    0    0  501  503 -0.00000000000E+00 -0.00000000000E+00 -0.14625944905E+04  0.14625944905E+04  0.00000000000E+00 0. -1.
          6    1    1    2  501    0 -0.20341521091E+03 -0.48612235148E+02 -0.11243545692E+04  0.11565025269E+04  0.17200000000E+03 0.  1.
         -6    1    1    2    0  502  0.20341521091E+03  0.48612235148E+02 -0.26526599761E+03  0.37906588731E+03  0.17200000000E+03 0.  1.
</event>
<event>
 4    1  0.1211980E+000  0.1780809E+03  0.7818608E-02  0.1169673E+00
         21   -1    0    0  501  502  0.00000000000E+00  0.00000000000E+00  0.44483547423E+02  0.44483547423E+02  0.00000000000E+00 0.  1.
         21   -1    0    0  502  503 -0.00000000000E+00 -0.00000000000E+00 -0.80464934497E+03  0.80464934497E+03  0.00000000000E+00 0.  1.
          6    1    1    2  501    0  0.40623857122E+02 -0.21874946945E+02 -0.23672628114E+03  0.29622988244E+03  0.17200000000E+03 0.  1.
         -6    1    1    2    0  503 -0.40623857122E+02  0.21874946945E+02 -0.52343951641E+03  0.55290300995E+03  0.17200000000E+03 0.  1.
</event>
<event>
 4    1  0.1211980E+000  0.1817948E+03  0.7818608E-02  0.1166077E+00
         21   -1    0    0  503  502  0.00000000000E+00  0.00000000000E+00  0.11420076530E+03  0.11420076530E+03  0.00000000000E+00 0. -1.
         21   -1    0    0  501  503 -0.00000000000E+00 -0.00000000000E+00 -0.42486228179E+03  0.42486228179E+03  0.00000000000E+00 0. -1.
          6    1    1    2  501    0  0.32952892462E+02  0.48779788276E+02 -0.30752543130E+03  0.35724116751E+03  0.17200000000E+03 0. -1.
         -6    1    1    2    0  502 -0.32952892462E+02 -0.48779788276E+02 -0.31360851882E+01  0.18182187959E+03  0.17200000000E+03 0. -1.
</event>
<event>
 4    1  0.1211980E+000  0.1911230E+03  0.7818608E-02  0.1157452E+00
         21   -1    0    0  503  502  0.00000000000E+00  0.00000000000E+00  0.11573271575E+04  0.11573271575E+04  0.00000000000E+00 0.  1.
         21   -1    0    0  501  503 -0.00000000000E+00 -0.00000000000E+00 -0.40070108139E+02  0.40070108139E+02  0.00000000000E+00 0.  1.
          6    1    1    2  501    0  0.83250790059E+02 -0.36478081877E+01  0.28275832544E+03  0.34129206138E+03  0.17200000000E+03 0.  1.
         -6    1    1    2    0  502 -0.83250790059E+02  0.36478081877E+01  0.83449872393E+03  0.85610520428E+03  0.17200000000E+03 0.  1.
</event>
<event>
 4    1  0.1211980E+000  0.2350432E+03  0.7818608E-02  0.1123140E+00
         21   -1    0    0  503  502  0.00000000000E+00  0.00000000000E+00  0.73927964171E+03  0.73927964171E+03  0.00000000000E+00 0.  1.
         21   -1    0    0  501  503 -0.00000000000E+00 -0.00000000000E+00 -0.80889888634E+02  0.80889888634E+02  0.00000000000E+00 0.  1.
          6    1    1    2  501    0 -0.10066798440E+03  0.12460846304E+03  0.21601654937E+03  0.31923104759E+03  0.17200000000E+03 0.  1.
         -6    1    1    2    0  502  0.10066798440E+03 -0.12460846304E+03  0.44237320371E+03  0.50093848276E+03  0.17200000000E+03 0.  1.
</event>
<event>
 4    1  0.1211980E+000  0.1926766E+03  0.7818608E-02  0.1156069E+00
         21   -1    0    0  503  502  0.00000000000E+00  0.00000000000E+00  0.27308667045E+03  0.27308667045E+03  0.00000000000E+00 0.  1.
         21   -1    0    0  501  503 -0.00000000000E+00 -0.00000000000E+00 -0.13612661526E+03  0.13612661526E+03  0.00000000000E+00 0.  1.
          6    1    1    2  501    0  0.60660378813E+02 -0.62133739993E+02  0.60970128694E+02  0.20209314634E+03  0.17200000000E+03 0. -1.
         -6    1    1    2    0  502 -0.60660378813E+02  0.62133739993E+02  0.75989926503E+02  0.20712013937E+03  0.17200000000E+03 0. -1.
</event>
<event>
 4    1  0.1211980E+000  0.1889294E+03  0.7818608E-02  0.1159430E+00
         21   -1    0    0  503  502  0.00000000000E+00  0.00000000000E+00  0.20099705538E+03  0.20099705538E+03  0.00000000000E+00 0.  1.
         21   -1    0    0  501  503 -0.00000000000E+00 -0.00000000000E+00 -0.18043971635E+03  0.18043971635E+03  0.00000000000E+00 0. -1.
          6    1    1    2  501    0  0.61724017083E+02  0.47963323280E+02  0.34261740525E+02  0.19201094117E+03  0.17200000000E+03 0.  1.
         -6    1    1    2    0  502 -0.61724017083E+02 -0.47963323280E+02 -0.13704401494E+02  0.18942583057E+03  0.17200000000E+03 0. -1.
</event>
<event>
 4    1  0.1211980E+000  0.1780084E+03  0.7818608E-02  0.1169745E+00
         21   -1    0    0  501  502  0.00000000000E+00  0.00000000000E+00  0.39396023237E+03  0.39396023237E+03  0.00000000000E+00 0. -1.
         21   -1    0    0  502  503 -0.00000000000E+00 -0.00000000000E+00 -0.12667410275E+03  0.12667410275E+03  0.00000000000E+00 0. -1.
          6    1    1    2  501    0 -0.32019621276E+02 -0.32828770046E+02  0.29092468650E+03  0.34106327493E+03  0.17200000000E+03 0. -1.
         -6    1    1    2    0  503  0.32019621276E+02  0.32828770046E+02 -0.23638556883E+02  0.17957106020E+03  0.17200000000E+03 0. -1.
</event>
<event>
 4    1  0.1211980E+000  0.1900107E+03  0.7818608E-02  0.1158452E+00
         21   -1    0    0  503  502  0.00000000000E+00  0.00000000000E+00  0.52497781874E+03  0.52497781874E+03  0.00000000000E+00 0. -1.
         21   -1    0    0  501  503 -0.00000000000E+00 -0.00000000000E+00 -0.17698338114E+03  0.17698338114E+03  0.00000000000E+00 0. -1.
          6    1    1    2  501    0 -0.36304238765E+02 -0.72125305181E+02 -0.10044584373E+03  0.21492655704E+03  0.17200000000E+03 0. -1.
         -6    1    1    2    0  502  0.36304238765E+02  0.72125305181E+02  0.44844028133E+03  0.48703464283E+03  0.17200000000E+03 0. -1.
</event>
<event>
 4    1  0.1211980E+000  0.2230856E+03  0.7818608E-02  0.1131603E+00
         21   -1    0    0  501  502  0.00000000000E+00  0.00000000000E+00  0.10272355701E+03  0.10272355701E+03  0.00000000000E+00 0.  1.
         21   -1    0    0  502  503 -0.00000000000E+00 -0.00000000000E+00 -0.48904394464E+03  0.48904394464E+03  0.00000000000E+00 0. -1.
          6    1    1    2  501    0 -0.12961567817E+03  0.58163056930E+02 -0.16456609053E+03  0.27721681654E+03  0.17200000000E+03 0. -1.
         -6    1    1    2    0  503  0.12961567817E+03 -0.58163056930E+02 -0.22175429710E+03  0.31455068511E+03  0.17200000000E+03 0.  1.
</event>
<event>
 4    1  0.1211980E+000  0.1907720E+03  0.7818608E-02  0.1157767E+00
         21   -1    0    0  503  502  0.00000000000E+00  0.00000000000E+00  0.74959535056E+02  0.74959535056E+02  0.00000000000E+00 0. -1.
         21   -1    0    0  501  503 -0.00000000000E+00 -0.00000000000E+00 -0.56110835074E+03  0.56110835074E+03  0.00000000000E+00 0. -1.
          6    1    1    2  501    0  0.77394734858E+02  0.28635893094E+02 -0.35980713865E+03  0.40725316006E+03  0.17200000000E+03 0. -1.
         -6    1    1    2    0  502 -0.77394734858E+02 -0.28635893094E+02 -0.12634167703E+03  0.22881472573E+03  0.17200000000E+03 0. -1.
</event>
<event>
 4    1  0.1211980E+000  0.1968281E+03  0.7818608E-02  0.1152443E+00
         21   -1    0    0  501  502  0.00000000000E+00  0.00000000000E+00  0.87896251395E+03  0.87896251395E+03  0.00000000000E+00 0. -1.
         21   -1    0    0  502  503 -0.00000000000E+00 -0.00000000000E+00 -0.91404003778E+02  0.91404003778E+02  0.00000000000E+00 0.  1.
          6    1    1    2  501    0  0.76342359065E+02  0.57698727268E+02  0.74290471659E+03  0.76853673747E+03  0.17200000000E+03 0. -1.
         -6    1    1    2    0  503 -0.76342359065E+02 -0.57698727268E+02  0.44653793583E+02  0.20182978025E+03  0.17200000000E+03 0.  1.
</event>
<event>
 4    1  0.1211980E+000  0.3477945E+03  0.7818608E-02  0.1063524E+00
         21   -1    0    0  503  502  0.00000000000E+00  0.00000000000E+00  0.83711493233E+03  0.83711493233E+03  0.00000000000E+00 0. -1.
         21   -1    0    0  501  503 -0.00000000000E+00 -0.00000000000E+00 -0.19449494322E+03  0.19449494322E+03  0.00000000000E+00 0.  1.
          6    1    1    2  501    0 -0.67370672241E+02  0.29468328350E+03  0.59789890839E+02  0.35289640987E+03  0.17200000000E+03 0.  1.
         -6    1    1    2    0  502  0.67370672241E+02 -0.29468328350E+03  0.58283009827E+03  0.67871346568E+03  0.17200000000E+03 0. -1.
</event>
<event>
 4    1  0.1211980E+000  0.2165731E+03  0.7818608E-02  0.1136464E+00
         21   -1    0    0  503  502  0.00000000000E+00  0.00000000000E+00  0.34007893181E+03  0.34007893181E+03  0.00000000000E+00 0. -1.
         21   -1    0    0  501  503 -0.00000000000E+00 -0.00000000000E+00 -0.14399535747E+03  0.14399535747E+03  0.00000000000E+00 0.  1.
          6    1    1    2  501    0  0.12977720048E+03  0.21858022837E+02  0.14775499222E+03  0.26217443173E+03  0.17200000000E+03 0.  1.
         -6    1    1    2    0  502 -0.12977720048E+03 -0.21858022837E+02  0.48328582122E+02  0.22189985754E+03  0.17200000000E+03 0.  1.
</event>
<event>
 4    1  0.1211980E+000  0.1776499E+03  0.7818608E-02  0.1170097E+00
         21   -1    0    0  503  502  0.00000000000E+00  0.00000000000E+00  0.46754805939E+03  0.46754805939E+03  0.00000000000E+00 0.  1.
         21   -1    0    0  501  503 -0.00000000000E+00 -0.00000000000E+00 -0.20201541369E+03  0.20201541369E+03  0.00000000000E+00 0.  1.
          6    1    1    2  501    0  0.42016458422E+02 -0.14494802102E+02 -0.14041787307E+03  0.22644350541E+03  0.17200000000E+03 0.  1.
         -6    1    1    2    0  502 -0.42016458422E+02  0.14494802102E+02  0.40595051876E+03  0.44311996767E+03  0.17200000000E+03 0.  1.
</event>
<event>
 4    1  0.1211980E+000  0.1935459E+03  0.7818608E-02  0.1155301E+00
         21   -1    0    0  503  502  0.00000000000E+00  0.00000000000E+00  0.68690340211E+03  0.68690340211E+03  0.00000000000E+00 0.  1.
         21   -1    0    0  501  503 -0.00000000000E+00 -0.00000000000E+00 -0.65235055746E+02  0.65235055746E+02  0.00000000000E+00 0.  1.
          6    1    1    2  501    0 -0.45630304980E+02  0.76117733671E+02  0.15852450299E+03  0.25018003949E+03  0.17200000000E+03 0.  1.
         -6    1    1    2    0  502  0.45630304980E+02 -0.76117733671E+02  0.46314384337E+03  0.50195841836E+03  0.17200000000E+03 0.  1.
</event>
<event>
 4    1  0.1211980E+000  0.1837721E+03  0.7818608E-02  0.1164202E+00
         21   -1    0    0  503  502  0.00000000000E+00  0.00000000000E+00  0.53120233961E+03  0.53120233961E+03  0.00000000000E+00 0.  1.
         21   -1    0    0  501  503 -0.00000000000E+00 -0.00000000000E+00 -0.10955760582E+03  0.10955760582E+03  0.00000000000E+00 0. -1.
          6    1    1    2  501    0  0.54345222483E+02 -0.35139551229E+02  0.32679545280E+01  0.18380117191E+03  0.17200000000E+03 0. -1.
         -6    1    1    2    0  502 -0.54345222483E+02  0.35139551229E+02  0.41837677927E+03  0.45695877352E+03  0.17200000000E+03 0. -1.
</event>
<event>
 4    1  0.1211980E+000  0.1797291E+03  0.7818608E-02  0.1168065E+00
         21   -1    0    0  501  502  0.00000000000E+00  0.00000000000E+00  0.22670059740E+03  0.22670059740E+03  0.00000000000E+00 0.  1.
         21   -1    0    0  502  503 -0.00000000000E+00 -0.00000000000E+00 -0.19035647332E+03  0.19035647332E+03  0.00000000000E+00 0. -1.
          6    1    1    2  501    0  0.12426661105E+02 -0.50637186038E+02  0.12273982465E+03  0.21764101422E+03  0.17200000000E+03 0.  1.
         -6    1    1    2    0  503 -0.12426661105E+02  0.50637186038E+02 -0.86395700558E+02  0.19941605650E+03  0.17200000000E+03 0. -1.
</event>
<event>
 4    1  0.1211980E+000  0.2417364E+03  0.7818608E-02  0.1118641E+00
         21   -1    0    0  501  502  0.00000000000E+00  0.00000000000E+00  0.25052683227E+03  0.25052683227E+03  0.00000000000E+00 0. -1.
         21   -1    0    0  502  503 -0.00000000000E+00 -0.00000000000E+00 -0.37950414112E+03  0.37950414112E+03  0.00000000000E+00 0.  1.
          6    1    1    2  501    0 -0.14134830681E+03  0.94197385551E+02 -0.26004466402E+03  0.35504889603E+03  0.17200000000E+03 0. -1.
         -6    1    1    2    0  503  0.14134830681E+03 -0.94197385551E+02  0.13106735517E+03  0.27498207737E+03  0.17200000000E+03 0. -1.
</event>
<event>
 4    1  0.1211980E+000  0.3164840E+03  0.7818608E-02  0.1077279E+00
         21   -1    0    0  501  502  0.00000000000E+00  0.00000000000E+00  0.72958870300E+02  0.72958870300E+02  0.00000000000E+00 0. -1.
         21   -1    0    0  502  503 -0.00000000000E+00 -0.00000000000E+00 -0.13741601121E+04  0.13741601121E+04  0.00000000000E+00 0. -1.
          6    1    1    2  501    0  0.34793418216E+02  0.26337716425E+03 -0.62832098461E+03  0.70352638352E+03  0.17200000000E+03 0.  1.
         -6    1    1    2    0  503 -0.34793418216E+02 -0.26337716425E+03 -0.67288025719E+03  0.74359259889E+03  0.17200000000E+03 0.  1.
</event>
<event>
 4    1  0.1211980E+000  0.1786570E+03  0.7818608E-02  0.1169109E+00
         21   -1    0    0  503  502  0.00000000000E+00  0.00000000000E+00  0.24828174873E+03  0.24828174873E+03  0.00000000000E+00 0. -1.
         21   -1    0    0  501  503 -0.00000000000E+00 -0.00000000000E+00 -0.16298200781E+03  0.16298200781E+03  0.00000000000E+00 0. -1.
          6    1    1    2  501    0  0.47507759260E+02 -0.87946515319E+01 -0.51855880216E+02  0.18603054964E+03  0.17200000000E+03 0. -1.
         -6    1    1    2    0  502 -0.47507759260E+02  0.87946515319E+01  0.13715562113E+03  0.22523320691E+03  0.17200000000E+03 0. -1.
</event>
<event>
 4    1  0.1211980E+000  0.2138048E+03  0.7818608E-02  0.1138588E+00
         21   -1    0    0  503  502  0.00000000000E+00  0.00000000000E+00  0.95709948481E+02  0.95709948481E+02  0.00000000000E+00 0.  1.
         21   -1    0    0  501  503 -0.00000000000E+00 -0.00000000000E+00 -0.51014985515E+03  0.51014985515E+03  0.00000000000E+00 0.  1.
          6    1    1    2  501    0  0.95761083109E+02 -0.83416581423E+02 -0.13071889972E+03  0.25059916568E+03  0.17200000000E+03 0.  1.
         -6    1    1    2    0  502 -0.95761083109E+02  0.83416581423E+02 -0.28372100695E+03  0.35526063796E+03  0.17200000000E+03 0.  1.
</event>
<event>
 4    1  0.1211980E+000  0.2584239E+03  0.7818608E-02  0.1108094E+00
         21   -1    0    0  503  502  0.00000000000E+00  0.00000000000E+00  0.13424206903E+03  0.13424206903E+03  0.00000000000E+00 0.  1.
         21   -1    0    0  501  503 -0.00000000000E+00 -0.00000000000E+00 -0.49757694124E+03  0.49757694124E+03  0.00000000000E+00 0. -1.
          6    1    1    2  501    0 -0.18921155542E+03  0.37388460969E+02 -0.18604883094E+03  0.31842907721E+03  0.17200000000E+03 0.  1.
         -6    1    1    2    0  502  0.18921155542E+03 -0.37388460969E+02 -0.17728604127E+03  0.31338993307E+03  0.17200000000E+03 0.  1.
</event>
<event>
 4    1  0.1211980E+000  0.1797632E+03  0.7818608E-02  0.1168032E+00
         21   -1    0    0  503  502  0.00000000000E+00  0.00000000000E+00  0.55637081028E+02  0.55637081028E+02  0.00000000000E+00 0.  1.
         21   -1    0    0  501  503 -0.00000000000E+00 -0.00000000000E+00 -0.58614545573E+03  0.58614545573E+03  0.00000000000E+00 0.  1.
          6    1    1    2  501    0 -0.51978396787E+02  0.53887731841E+01 -0.23465004047E+03  0.29559335936E+03  0.17200000000E+03 0. -1.
         -6    1    1    2    0  502  0.51978396787E+02 -0.53887731841E+01 -0.29585833424E+03  0.34618917740E+03  0.17200000000E+03 0. -1.
</event>
<event>
 4    1  0.1211980E+000  0.1896649E+03  0.7818608E-02  0.1158764E+00
         21   -1    0    0  503  502  0.00000000000E+00  0.00000000000E+00  0.26036868224E+03  0.26036868224E+03  0.00000000000E+00 0.  1.
         21   -1    0    0  501  503 -0.00000000000E+00 -0.00000000000E+00 -0.20330663408E+03  0.20330663408E+03  0.00000000000E+00 0.  1.
          6    1    1    2  501    0 -0.14411311704E+02 -0.78619997685E+02  0.15976641243E+03  0.24798809746E+03  0.17200000000E+03 0.  1.
         -6    1    1    2    0  502  0.14411311704E+02  0.78619997685E+02 -0.10270436427E+03  0.21568721886E+03  0.17200000000E+03 0.  1.
</event>
<event>
 4    1  0.1211980E+000  0.1973652E+03  0.7818608E-02  0.1151981E+00
         21   -1    0    0  501  502  0.00000000000E+00  0.00000000000E+00  0.36832280742E+03  0.36832280742E+03  0.00000000000E+00 0. -1.
         21   -1    0    0  502  503 -0.00000000000E+00 -0.00000000000E+00 -0.10948230622E+03  0.10948230622E+03  0.00000000000E+00 0. -1.
          6    1    1    2  501    0  0.65329578081E+02  0.71421738605E+02  0.85356465403E+02  0.21503196205E+03  0.17200000000E+03 0. -1.
         -6    1    1    2    0  503 -0.65329578081E+02 -0.71421738605E+02  0.17348403580E+03  0.26277315159E+03  0.17200000000E+03 0. -1.
</event>
<event>
 4    1  0.1211980E+000  0.1957829E+03  0.7818608E-02  0.1153347E+00
         21   -1    0    0  501  502  0.00000000000E+00  0.00000000000E+00  0.42135198952E+03  0.42135198952E+03  0.00000000000E+00 0. -1.
         21   -1    0    0  502  503 -0.00000000000E+00 -0.00000000000E+00 -0.11899922347E+03  0.11899922347E+03  0.00000000000E+00 0. -1.
          6    1    1    2  501    0  0.38194107787E+02  0.85370641042E+02  0.28229657308E+03  0.34354372559E+03  0.17200000000E+03 0.  1.
         -6    1    1    2    0  503 -0.38194107787E+02 -0.85370641042E+02  0.20056192978E+02  0.19680748740E+03  0.17200000000E+03 0.  1.
</event>
<event>
 4    1  0.1211980E+000  0.2028574E+03  0.7818608E-02  0.1147350E+00
         21   -1    0    0  503  502  0.00000000000E+00  0.00000000000E+00  0.17539709501E+03  0.17539709501E+03  0.00000000000E+00 0. -1.
         21   -1    0    0  501  503 -0.00000000000E+00 -0.00000000000E+00 -0.23926041690E+03  0.23926041690E+03  0.00000000000E+00 0. -1.
          6    1    1    2  501    0  0.22243922439E+02  0.10522510949E+03 -0.60815138565E+02  0.21177723398E+03  0.17200000000E+03 0.  1.
         -6    1    1    2    0  502 -0.22243922439E+02 -0.10522510949E+03 -0.30481833180E+01  0.20288027793E+03  0.17200000000E+03 0.  1.
</event>
<event>
 4    1  0.1211980E+000  0.2464755E+03  0.7818608E-02  0.1115553E+00
         21   -1    0    0  503  502  0.00000000000E+00  0.00000000000E+00  0.22024179257E+03  0.22024179257E+03  0.00000000000E+00 0.  1.
         21   -1    0    0  501  503 -0.00000000000E+00 -0.00000000000E+00 -0.27640146469E+03  0.27640146469E+03  0.00000000000E+00 0. -1.
          6    1    1    2  501    0  0.35026031063E+02 -0.17302997588E+03 -0.39330487518E+02  0.24959383536E+03  0.17200000000E+03 0. -1.
         -6    1    1    2    0  502 -0.35026031063E+02  0.17302997588E+03 -0.16829184600E+02  0.24704942189E+03  0.17200000000E+03 0. -1.
</event>
<event>
 4    1  0.1211980E+000  0.2157513E+03  0.7818608E-02  0.1137091E+00
         21   -1    0    0  501  502  0.00000000000E+00  0.00000000000E+00  0.11240228013E+04  0.11240228013E+04  0.00000000000E+00 0.  1.
         21   -1    0    0  502  503 -0.00000000000E+00 -0.00000000000E+00 -0.42995710998E+02  0.42995710998E+02  0.00000000000E+00 0. -1.
          6    1    1    2  501    0 -0.69437785983E+02 -0.11019530745E+03  0.65248373843E+03  0.68722895808E+03  0.17200000000E+03 0. -1.
         -6    1    1    2    0  503  0.69437785983E+02  0.11019530745E+03  0.42854335190E+03  0.47978955424E+03  0.17200000000E+03 0. -1.
</event>
<event>
 4    1  0.1211980E+000  0.2205139E+03  0.7818608E-02  0.1133500E+00
         21   -1    0    0  503  502  0.00000000000E+00  0.00000000000E+00  0.18519052573E+03  0.18519052573E+03  0.00000000000E+00 0. -1.
         21   -1    0    0  501  503 -0.00000000000E+00 -0.00000000000E+00 -0.33972314536E+03  0.33972314536E+03  0.00000000000E+00 0. -1.
          6    1    1    2  501    0 -0.13141328352E+03  0.42106242754E+02 -0.20233779331E+03  0.29927741205E+03  0.17200000000E+03 0.  1.
         -6    1    1    2    0  502  0.13141328352E+03 -0.42106242754E+02  0.47805173676E+02  0.22563625904E+03  0.17200000000E+03 0.  1.
</event>
<event>
 4    1  0.1211980E+000  0.2636727E+03  0.7818608E-02  0.1104956E+00
         21   -1    0    0  501  502  0.00000000000E+00  0.00000000000E+00  0.12906814011E+03  0.12906814011E+03  0.00000000000E+00 0.  1.
         21   -1    0    0  502  503 -0.00000000000E+00 -0.00000000000E+00 -0.67272389766E+03  0.67272389766E+03  0.00000000000E+00 0.  1.
          6    1    1    2  501    0 -0.18547707869E+03 -0.74414540649E+02 -0.92859445249E+02  0.27954632380E+03  0.17200000000E+03 0. -1.
         -6    1    1    2    0  503  0.18547707869E+03  0.74414540649E+02 -0.45079631230E+03  0.52224571398E+03  0.17200000000E+03 0. -1.
</event>
<event>
 4    1  0.1211980E+000  0.1788808E+03  0.7818608E-02  0.1168891E+00
         21   -1    0    0  503  502  0.00000000000E+00  0.00000000000E+00  0.18467717977E+03  0.18467717977E+03  0.00000000000E+00 0. -1.
         21   -1    0    0  501  503 -0.00000000000E+00 -0.00000000000E+00 -0.21599093937E+03  0.21599093937E+03  0.00000000000E+00 0. -1.
          6    1    1    2  501    0  0.37640192105E+01 -0.48991485362E+02 -0.10475656652E+03  0.20729754390E+03  0.17200000000E+03 0. -1.
         -6    1    1    2    0  502 -0.37640192105E+01  0.48991485362E+02  0.73442806929E+02  0.19337057524E+03  0.17200000000E+03 0. -1.
</event>
<event>
 4    1  0.1211980E+000  0.2221469E+03  0.7818608E-02  0.1132293E+00
         21   -1    0    0  503  502  0.00000000000E+00  0.00000000000E+00  0.24039007647E+02  0.24039007647E+02  0.00000000000E+00 0.  1.
         21   -1    0    0  501  503 -0.00000000000E+00 -0.00000000000E+00 -0.22809010180E+04  0.22809010180E+04  0.00000000000E+00 0.  1.
          6    1    1    2  501    0  0.39804447879E+02  0.13483633303E+03 -0.14928177386E+04  0.15092561186E+04  0.17200000000E+03 0.  1.
         -6    1    1    2    0  502 -0.39804447879E+02 -0.13483633303E+03 -0.76404427176E+03  0.79568390708E+03  0.17200000000E+03 0.  1.
</event>
<event>
 4    1  0.1211980E+000  0.3115789E+03  0.7818608E-02  0.1079592E+00
         21   -1    0    0  503  502  0.00000000000E+00  0.00000000000E+00  0.14984511339E+03  0.14984511339E+03  0.00000000000E+00 0.  1.
         21   -1    0    0  501  503 -0.00000000000E+00 -0.00000000000E+00 -0.11465758188E+04  0.11465758188E+04  0.00000000000E+00 0. -1.
          6    1    1    2  501    0 -0.49244621374E+02  0.25509291223E+03 -0.92586244827E+03  0.97688417927E+03  0.17200000000E+03 0. -1.
         -6    1    1    2    0  502  0.49244621374E+02 -0.25509291223E+03 -0.70868257166E+02  0.31953675294E+03  0.17200000000E+03 0.  1.
</event>
<event>
 4    1  0.1211980E+000  0.1731335E+03  0.7818608E-02  0.1174619E+00
         21   -1    0    0  503  502  0.00000000000E+00  0.00000000000E+00  0.60397075484E+02  0.60397075484E+02  0.00000000000E+00 0. -1.
         21   -1    0    0  501  503 -0.00000000000E+00 -0.00000000000E+00 -0.79959831884E+03  0.79959831884E+03  0.00000000000E+00 0. -1.
          6    1    1    2  501    0  0.29294436345E+00 -0.19776669942E+02 -0.63442844287E+03  0.65762804960E+03  0.17200000000E+03 0. -1.
         -6    1    1    2    0  502 -0.29294436345E+00  0.19776669942E+02 -0.10477280048E+03  0.20236734472E+03  0.17200000000E+03 0. -1.
</event>
<event>
 4    1  0.1211980E+000  0.1962820E+03  0.7818608E-02  0.1152914E+00
         21   -1    0    0  501  502  0.00000000000E+00  0.00000000000E+00  0.12385854564E+03  0.12385854564E+03  0.00000000000E+00 0.  1.
         21   -1    0    0  502  503 -0.00000000000E+00 -0.00000000000E+00 -0.32483074678E+03  0.32483074678E+03  0.00000000000E+00 0.  1.
          6    1    1    2  501    0  0.87771765631E+02 -0.35195481847E+02 -0.54282896116E+02  0.20364979154E+03  0.17200000000E+03 0.  1.
         -6    1    1    2    0  503 -0.87771765631E+02  0.35195481847E+02 -0.14668930502E+03  0.24503950088E+03  0.17200000000E+03 0.  1.
</event>
<event>
 4    1  0.1211980E+000  0.1921830E+03  0.7818608E-02  0.1156507E+00
         21   -1    0    0  501  502  0.00000000000E+00  0.00000000000E+00  0.10631816202E+04  0.10631816202E+04  0.00000000000E+00 0.  1.
         21   -1    0    0  502  503 -0.00000000000E+00 -0.00000000000E+00 -0.48428389633E+02  0.48428389633E+02  0.00000000000E+00 0.  1.
          6    1    1    2  501    0  0.23826561048E+02  0.82356498722E+02  0.80287699436E+03  0.82555785137E+03  0.17200000000E+03 0.  1.
         -6    1    1    2    0  503 -0.23826561048E+02 -0.82356498722E+02  0.21187623623E+03  0.28605215848E+03  0.17200000000E+03 0.  1.
</event>
<event>
 4    1  0.1211980E+000  0.1834845E+03  0.7818608E-02  0.1164473E+00
         21   -1    0    0  501  502  0.00000000000E+00  0.00000000000E+00  0.69761280770E+03  0.69761280770E+03  0.00000000000E+00 0.  1.
         21   -1    0    0  502  503 -0.00000000000E+00 -0.00000000000E+00 -0.88378258526E+02  0.88378258526E+02  0.00000000000E+00 0.  1.
          6    1    1    2  501    0 -0.18079176331E+02  0.61283817834E+02  0.56939882700E+03  0.59823205124E+03  0.17200000000E+03 0.  1.
         -6    1    1    2    0  503  0.18079176331E+02 -0.61283817834E+02  0.39835722169E+02  0.18775901498E+03  0.17200000000E+03 0.  1.
</event>
<event>
 4    1  0.1211980E+000  0.1945417E+03  0.7818608E-02  0.1154428E+00
         21   -1    0    0  503  502  0.00000000000E+00  0.00000000000E+00  0.44963664606E+03  0.44963664606E+03  0.00000000000E+00 0. -1.
         21   -1    0    0  501  503 -0.00000000000E+00 -0.00000000000E+00 -0.93755963167E+02  0.93755963167E+02  0.00000000000E+00 0. -1.
          6    1    1    2  501    0  0.77373169230E+02  0.47705910827E+02  0.91069362877E+02  0.21480244435E+03  0.17200000000E+03 0. -1.
         -6    1    1    2    0  502 -0.77373169230E+02 -0.47705910827E+02  0.26481132002E+03  0.32859016488E+03  0.17200000000E+03 0. -1.
</event>
<event>
 4    1  0.1211980E+000  0.1934846E+03  0.7818608E-02  0.1155355E+00
         21   -1    0    0  503  502  0.00000000000E+00  0.00000000000E+00  0.16480779560E+03  0.16480779560E+03  0.00000000000E+00 0. -1.
         21   -1    0    0  501  503 -0.00000000000E+00 -0.00000000000E+00 -0.60882620533E+03  0.60882620533E+03  0.00000000000E+00 0. -1.
          6    1    1    2  501    0 -0.88451859567E+02  0.53430443139E+01 -0.52828013352E+03  0.56259770623E+03  0.17200000000E+03 0. -1.
         -6    1    1    2    0  502  0.88451859567E+02 -0.53430443139E+01  0.84261723788E+02  0.21103629470E+03  0.17200000000E+03 0. -1.
</event>
<event>
 4    1  0.1211980E+000  0.2922326E+03  0.7818608E-02  0.1089189E+00
         21   -1    0    0  501  502  0.00000000000E+00  0.00000000000E+00  0.10431259878E+04  0.10431259878E+04  0.00000000000E+00 0. -1.
         21   -1    0    0  502  503 -0.00000000000E+00 -0.00000000000E+00 -0.90549732288E+02  0.90549732288E+02  0.00000000000E+00 0. -1.
          6    1    1    2  501    0  0.23169137271E+03 -0.46206083823E+02  0.30078359362E+03  0.41936936531E+03  0.17200000000E+03 0. -1.
         -6    1    1    2    0  503 -0.23169137271E+03  0.46206083823E+02  0.65179266188E+03  0.71430635476E+03  0.17200000000E+03 0. -1.
</event>
<event>
 4    1  0.1211980E+000  0.2476391E+03  0.7818608E-02  0.1114806E+00
         21   -1    0    0  501  502  0.00000000000E+00  0.00000000000E+00  0.34229333886E+02  0.34229333886E+02  0.00000000000E+00 0. -1.
         21   -1    0    0  502  503 -0.00000000000E+00 -0.00000000000E+00 -0.23556173460E+04  0.23556173460E+04  0.00000000000E+00 0. -1.
          6    1    1    2  501    0 -0.16550962736E+03 -0.65936973470E+02 -0.57599059474E+03  0.62696912719E+03  0.17200000000E+03 0. -1.
         -6    1    1    2    0  503  0.16550962736E+03  0.65936973470E+02 -0.17453974174E+04  0.17628775527E+04  0.17200000000E+03 0. -1.
</event>
<event>
 4    1  0.1211980E+000  0.2149051E+03  0.7818608E-02  0.1137739E+00
         21   -1    0    0  501  502  0.00000000000E+00  0.00000000000E+00  0.10877166217E+04  0.10877166217E+04  0.00000000000E+00 0.  1.
         21   -1    0    0  502  503 -0.00000000000E+00 -0.00000000000E+00 -0.47676658903E+02  0.47676658903E+02  0.00000000000E+00 0.  1.
          6    1    1    2  501    0 -0.11841055620E+03 -0.50785376085E+02  0.70780830022E+03  0.73971400156E+03  0.17200000000E+03 0.  1.
         -6    1    1    2    0  503  0.11841055620E+03  0.50785376085E+02  0.33223166258E+03  0.39567927904E+03  0.17200000000E+03 0.  1.
</event>
<event>
 4    1  0.1211980E+000  0.2119364E+03  0.7818608E-02  0.1140042E+00
         21   -1    0    0  501  502  0.00000000000E+00  0.00000000000E+00  0.34757744209E+02  0.34757744209E+02  0.00000000000E+00 0. -1.
         21   -1    0    0  502  503 -0.00000000000E+00 -0.00000000000E+00 -0.13841216949E+04  0.13841216949E+04  0.00000000000E+00 0. -1.
          6    1    1    2  501    0  0.19120720509E+01  0.12381184709E+03 -0.49194414868E+03  0.53565480948E+03  0.17200000000E+03 0. -1.
         -6    1    1    2    0  503 -0.19120720509E+01 -0.12381184709E+03 -0.85741980197E+03  0.88322462958E+03  0.17200000000E+03 0. -1.
</event>
<event>
 4    1  0.1211980E+000  0.1812141E+03  0.7818608E-02  0.1166633E+00
         21   -1    0    0  501  502  0.00000000000E+00  0.00000000000E+00  0.21954753002E+04  0.21954753002E+04  0.00000000000E+00 0. -1.
         21   -1    0    0  502  503 -0.00000000000E+00 -0.00000000000E+00 -0.57514665916E+02  0.57514665916E+02  0.00000000000E+00 0. -1.
          6    1    1    2  501    0 -0.40957435967E+02 -0.39711720834E+02  0.20379874707E+04  0.20460282166E+04  0.17200000000E+03 0. -1.
         -6    1    1    2    0  503  0.40957435967E+02  0.39711720834E+02  0.99973163589E+02  0.20696174954E+03  0.17200000000E+03 0. -1.
</event>
<event>
 4    1  0.1211980E+000  0.1809816E+03  0.7818608E-02  0.1166856E+00
         21   -1    0    0  503  502  0.00000000000E+00  0.00000000000E+00  0.40911516818E+03  0.40911516818E+03  0.00000000000E+00 0.  1.
         21   -1    0    0  501  503 -0.00000000000E+00 -0.00000000000E+00 -0.41576196908E+03  0.41576196908E+03  0.00000000000E+00 0.  1.
          6    1    1    2  501    0 -0.94588991294E+01  0.55505618535E+02 -0.37392979752E+03  0.41542488844E+03  0.17200000000E+03 0.  1.
         -6    1    1    2    0  502  0.94588991294E+01 -0.55505618535E+02  0.36728299661E+03  0.40945224882E+03  0.17200000000E+03 0.  1.
</event>
<event>
 4    1  0.1211980E+000  0.1722351E+03  0.7818608E-02  0.1175537E+00
         21   -1    0    0  501  502  0.00000000000E+00  0.00000000000E+00  0.10681330557E+03  0.10681330557E+03  0.00000000000E+00 0. -1.
         21   -1    0    0  502  503 -0.00000000000E+00 -0.00000000000E+00 -0.36166910397E+03  0.36166910397E+03  0.00000000000E+00 0. -1.
          6    1    1    2  501    0  0.89322438669E+01  0.10733341234E+01 -0.14578939751E+02  0.17285104139E+03  0.17200000000E+03 0. -1.
         -6    1    1    2    0  503 -0.89322438669E+01 -0.10733341234E+01 -0.24027685865E+03  0.29563136814E+03  0.17200000000E+03 0. -1.
</event>
<event>
 4    1  0.1211980E+000  0.1869004E+03  0.7818608E-02  0.1161287E+00
         21   -1    0    0  503  502  0.00000000000E+00  0.00000000000E+00  0.22043907439E+03  0.22043907439E+03  0.00000000000E+00 0.  1.
         21   -1    0    0  501  503 -0.00000000000E+00 -0.00000000000E+00 -0.17979241615E+03  0.17979241615E+03  0.00000000000E+00 0.  1.
          6    1    1    2  501    0 -0.73027530961E+02  0.38405686900E+01 -0.48600543514E+02  0.19311598348E+03  0.17200000000E+03 0.  1.
         -6    1    1    2    0  502  0.73027530961E+02 -0.38405686900E+01  0.89247201753E+02  0.20711550707E+03  0.17200000000E+03 0.  1.
</event>
<event>
 4    1  0.1211980E+000  0.2299911E+03  0.7818608E-02  0.1126646E+00
         21   -1    0    0  501  502  0.00000000000E+00  0.00000000000E+00  0.39242287572E+03  0.39242287572E+03  0.00000000000E+00 0. -1.
         21   -1    0    0  502  503 -0.00000000000E+00 -0.00000000000E+00 -0.26809078483E+03  0.26809078483E+03  0.00000000000E+00 0. -1.
          6    1    1    2  501    0  0.95420573691E+02  0.11919227857E+03  0.29504069441E+03  0.37409209629E+03  0.17200000000E+03 0.  1.
         -6    1    1    2    0  503 -0.95420573691E+02 -0.11919227857E+03 -0.17070860351E+03  0.28642156425E+03  0.17200000000E+03 0.  1.
</event>
<event>
 4    1  0.1211980E+000  0.4159756E+03  0.7818608E-02  0.1038384E+00
         21   -1    0    0  501  502  0.00000000000E+00  0.00000000000E+00  0.43865632963E+03  0.43865632963E+03  0.00000000000E+00 0. -1.
         21   -1    0    0  502  503 -0.00000000000E+00 -0.00000000000E+00 -0.40144895235E+03  0.40144895235E+03  0.00000000000E+00 0. -1.
          6    1    1    2  501    0  0.37539116595E+03  0.50330680486E+02  0.73997170856E+02  0.42250595992E+03  0.17200000000E+03 0. -1.
         -6    1    1    2    0  503 -0.37539116595E+03 -0.50330680486E+02 -0.36789793582E+02  0.41759932206E+03  0.17200000000E+03 0. -1.
</event>
<event>
 4    1  0.1211980E+000  0.2046697E+03  0.7818608E-02  0.1145858E+00
         21   -1    0    0  503  502  0.00000000000E+00  0.00000000000E+00  0.97924140729E+03  0.97924140729E+03  0.00000000000E+00 0.  1.
         21   -1    0    0  501  503 -0.00000000000E+00 -0.00000000000E+00 -0.43287607505E+02  0.43287607505E+02  0.00000000000E+00 0.  1.
          6    1    1    2  501    0 -0.10479391929E+03  0.36385903067E+02  0.52346599966E+03  0.56205547080E+03  0.17200000000E+03 0. -1.
         -6    1    1    2    0  502  0.10479391929E+03 -0.36385903067E+02  0.41248780013E+03  0.46047354399E+03  0.17200000000E+03 0. -1.
</event>
<event>
 4    1  0.1211980E+000  0.2025909E+03  0.7818608E-02  0.1147571E+00
         21   -1    0    0  503  502  0.00000000000E+00  0.00000000000E+00  0.55815026274E+02  0.55815026274E+02  0.00000000000E+00 0.  1.
         21   -1    0    0  501  503 -0.00000000000E+00 -0.00000000000E+00 -0.21705207773E+04  0.21705207773E+04  0.00000000000E+00 0. -1.
          6    1    1    2  501    0  0.66044714278E+02  0.84244651953E+02 -0.19625264895E+04  0.19729554703E+04  0.17200000000E+03 0. -1.
         -6    1    1    2    0  502 -0.66044714278E+02 -0.84244651953E+02 -0.15217926152E+03  0.25338033330E+03  0.17200000000E+03 0.  1.
</event>
<event>
 4    1  0.1211980E+000  0.2128081E+03  0.7818608E-02  0.1139361E+00
         21   -1    0    0  501  502  0.00000000000E+00  0.00000000000E+00  0.46252114899E+02  0.46252114899E+02  0.00000000000E+00 0.  1.
         21   -1    0    0  502  503 -0.00000000000E+00 -0.00000000000E+00 -0.98744912072E+03  0.98744912072E+03  0.00000000000E+00 0. -1.
          6    1    1    2  501    0  0.11445507766E+03 -0.51022627093E+02 -0.51801155638E+03  0.56002075481E+03  0.17200000000E+03 0.  1.
         -6    1    1    2    0  503 -0.11445507766E+03  0.51022627093E+02 -0.42318544944E+03  0.47368048080E+03  0.17200000000E+03 0.  1.
</event>
<event>
 4    1  0.1211980E+000  0.2027175E+03  0.7818608E-02  0.1147466E+00
         21   -1    0    0  503  502  0.00000000000E+00  0.00000000000E+00  0.28104058296E+03  0.28104058296E+03  0.00000000000E+00 0. -1.
         21   -1    0    0  501  503 -0.00000000000E+00 -0.00000000000E+00 -0.15734422608E+03  0.15734422608E+03  0.00000000000E+00 0. -1.
          6    1    1    2  501    0  0.10671636721E+03  0.11044835080E+02  0.12012449769E+03  0.23563587664E+03  0.17200000000E+03 0. -1.
         -6    1    1    2    0  502 -0.10671636721E+03 -0.11044835080E+02  0.35718591791E+01  0.20274893240E+03  0.17200000000E+03 0. -1.
</event>
<event>
 4    1  0.1211980E+000  0.1744402E+03  0.7818608E-02  0.1173295E+00
         21   -1    0    0  503  502  0.00000000000E+00  0.00000000000E+00  0.81758294405E+02  0.81758294405E+02  0.00000000000E+00 0.  1.
         21   -1    0    0  501  503 -0.00000000000E+00 -0.00000000000E+00 -0.56206594471E+03  0.56206594471E+03  0.00000000000E+00 0.  1.
          6    1    1    2  501    0 -0.23287904173E+02  0.17408051035E+02 -0.42725745043E+03  0.46149571576E+03  0.17200000000E+03 0.  1.
         -6    1    1    2    0  502  0.23287904173E+02 -0.17408051035E+02 -0.53050199880E+02  0.18232852336E+03  0.17200000000E+03 0.  1.
</event>
<event>
 4    1  0.1211980E+000  0.2511902E+03  0.7818608E-02  0.1112555E+00
         21   -1    0    0  501  502  0.00000000000E+00  0.00000000000E+00  0.18049754602E+03  0.18049754602E+03  0.00000000000E+00 0. -1.
         21   -1    0    0  502  503 -0.00000000000E+00 -0.00000000000E+00 -0.44118048316E+03  0.44118048316E+03  0.00000000000E+00 0.  1.
          6    1    1    2  501    0 -0.70643307799E+02  0.16888473494E+03  0.11303097652E+02  0.25144440867E+03  0.17200000000E+03 0.  1.
         -6    1    1    2    0  503  0.70643307799E+02 -0.16888473494E+03 -0.27198603480E+03  0.37023362051E+03  0.17200000000E+03 0.  1.
</event>
<event>
 4    1  0.1211980E+000  0.2162447E+03  0.7818608E-02  0.1136714E+00
         21   -1    0    0  503  502  0.00000000000E+00  0.00000000000E+00  0.28884914224E+03  0.28884914224E+03  0.00000000000E+00 0.  1.
         21   -1    0    0  501  503 -0.00000000000E+00 -0.00000000000E+00 -0.22217965131E+03  0.22217965131E+03  0.00000000000E+00 0. -1.
          6    1    1    2  501    0 -0.13086371449E+03 -0.72424163389E+01 -0.99767355588E+02  0.23814972098E+03  0.17200000000E+03 0. -1.
         -6    1    1    2    0  502  0.13086371449E+03  0.72424163389E+01  0.16643684653E+03  0.27287907257E+03  0.17200000000E+03 0.  1.
</event>
<event>
 4    1  0.1211980E+000  0.2323260E+03  0.7818608E-02  0.1125013E+00
         21   -1    0    0  501  502  0.00000000000E+00  0.00000000000E+00  0.14211708633E+02  0.14211708633E+02  0.00000000000E+00 0. -1.
         21   -1    0    0  502  503 -0.00000000000E+00 -0.00000000000E+00 -0.38000235706E+04  0.38000235706E+04  0.00000000000E+00 0.  1.
          6    1    1    2  501    0  0.10822744102E+02 -0.15580198378E+03 -0.18483798791E+04  0.18629233928E+04  0.17200000000E+03 0.  1.
         -6    1    1    2    0  503 -0.10822744102E+02  0.15580198378E+03 -0.19374319829E+04  0.19513118864E+04  0.17200000000E+03 0.  1.
</event>
<event>
 4    1  0.1211980E+000  0.1962153E+03  0.7818608E-02  0.1152972E+00
         21   -1    0    0  503  502  0.00000000000E+00  0.00000000000E+00  0.62867301521E+03  0.62867301521E+03  0.00000000000E+00 0. -1.
         21   -1    0    0  501  503 -0.00000000000E+00 -0.00000000000E+00 -0.65116300341E+02  0.65116300341E+02  0.00000000000E+00 0. -1.
          6    1    1    2  501    0  0.53612622160E+02 -0.77731152135E+02  0.19714997700E+03  0.27815204241E+03  0.17200000000E+03 0. -1.
         -6    1    1    2    0  502 -0.53612622160E+02  0.77731152135E+02  0.36640673787E+03  0.41563727314E+03  0.17200000000E+03 0. -1.
</event>
<event>
 4    1  0.1211980E+000  0.1975119E+03  0.7818608E-02  0.1151855E+00
         21   -1    0    0  501  502  0.00000000000E+00  0.00000000000E+00  0.16827119563E+03  0.16827119563E+03  0.00000000000E+00 0.  1.
         21   -1    0    0  502  503 -0.00000000000E+00 -0.00000000000E+00 -0.23311007817E+03  0.23311007817E+03  0.00000000000E+00 0.  1.
          6    1    1    2  501    0  0.36581881802E+02  0.89937379408E+02 -0.17570225885E+02  0.19829190384E+03  0.17200000000E+03 0.  1.
         -6    1    1    2    0  503 -0.36581881802E+02 -0.89937379408E+02 -0.47268656650E+02  0.20308936996E+03  0.17200000000E+03 0.  1.
</event>
<event>
 4    1  0.1211980E+000  0.3161413E+03  0.7818608E-02  0.1077439E+00
         21   -1    0    0  503  502  0.00000000000E+00  0.00000000000E+00  0.11712687344E+04  0.11712687344E+04  0.00000000000E+00 0. -1.
         21   -1    0    0  501  503 -0.00000000000E+00 -0.00000000000E+00 -0.99490897367E+02  0.99490897367E+02  0.00000000000E+00 0.  1.
          6    1    1    2  501    0 -0.21009246062E+03 -0.16193352543E+03  0.29618522708E+03  0.43321010769E+03  0.17200000000E+03 0.  1.
         -6    1    1    2    0  502  0.21009246062E+03  0.16193352543E+03  0.77559261000E+03  0.83754952412E+03  0.17200000000E+03 0. -1.
</event>
<event>
 4    1  0.1211980E+000  0.1910522E+03  0.7818608E-02  0.1157516E+00
         21   -1    0    0  503  502  0.00000000000E+00  0.00000000000E+00  0.81617823251E+02  0.81617823251E+02  0.00000000000E+00 0. -1.
         21   -1    0    0  501  503 -0.00000000000E+00 -0.00000000000E+00 -0.10562481693E+04  0.10562481693E+04  0.00000000000E+00 0. -1.
          6    1    1    2  501    0 -0.77705024503E+02  0.29645723304E+02 -0.91932898111E+03  0.93897109394E+03  0.17200000000E+03 0. -1.
         -6    1    1    2    0  502  0.77705024503E+02 -0.29645723304E+02 -0.55301364985E+02  0.19889489866E+03  0.17200000000E+03 0. -1.
</event>
<event>
 4    1  0.1211980E+000  0.2381487E+03  0.7818608E-02  0.1121032E+00
         21   -1    0    0  503  502  0.00000000000E+00  0.00000000000E+00  0.18048270747E+04  0.18048270747E+04  0.00000000000E+00 0. -1.
         21   -1    0    0  501  503 -0.00000000000E+00 -0.00000000000E+00 -0.31430224584E+02  0.31430224584E+02  0.00000000000E+00 0.  1.
          6    1    1    2  501    0  0.16096805828E+03 -0.34929640664E+02  0.89967098166E+03  0.93065711776E+03  0.17200000000E+03 0.  1.
         -6    1    1    2    0  502 -0.16096805828E+03  0.34929640664E+02  0.87372586847E+03  0.90560018154E+03  0.17200000000E+03 0. -1.
</event>
<event>
 4    1  0.1211980E+000  0.3956974E+03  0.7818608E-02  0.1045280E+00
         21   -1    0    0  503  502  0.00000000000E+00  0.00000000000E+00  0.27152527125E+04  0.27152527125E+04  0.00000000000E+00 0. -1.
         21   -1    0    0  501  503 -0.00000000000E+00 -0.00000000000E+00 -0.59447001488E+02  0.59447001488E+02  0.00000000000E+00 0. -1.
          6    1    1    2  501    0  0.34009516407E+03 -0.10643177757E+03  0.10877363834E+04  0.11574743555E+04  0.17200000000E+03 0. -1.
         -6    1    1    2    0  502 -0.34009516407E+03  0.10643177757E+03  0.15680693277E+04  0.16172253585E+04  0.17200000000E+03 0. -1.
</event>
<event>
 4    1  0.1211980E+000  0.2167987E+03  0.7818608E-02  0.1136292E+00
         21   -1    0    0  503  502  0.00000000000E+00  0.00000000000E+00  0.14252954999E+03  0.14252954999E+03  0.00000000000E+00 0.  1.
         21   -1    0    0  501  503 -0.00000000000E+00 -0.00000000000E+00 -0.76198398931E+03  0.76198398931E+03  0.00000000000E+00 0.  1.
          6    1    1    2  501    0 -0.12617036845E+03 -0.38713498430E+02 -0.65034124348E+03  0.68552565949E+03  0.17200000000E+03 0.  1.
         -6    1    1    2    0  502  0.12617036845E+03  0.38713498430E+02  0.30886804159E+02  0.21898787982E+03  0.17200000000E+03 0.  1.
</event>
<event>
 4    1  0.1211980E+000  0.2248829E+03  0.7818608E-02  0.1130294E+00
         21   -1    0    0  501  502  0.00000000000E+00  0.00000000000E+00  0.64764570882E+03  0.64764570882E+03  0.00000000000E+00 0.  1.
         21   -1    0    0  502  503 -0.00000000000E+00 -0.00000000000E+00 -0.91315050006E+02  0.91315050006E+02  0.00000000000E+00 0.  1.
          6    1    1    2  501    0  0.22730887193E+02 -0.14307913588E+03  0.41879523909E+03  0.47535437795E+03  0.17200000000E+03 0.  1.
         -6    1    1    2    0  503 -0.22730887193E+02  0.14307913588E+03  0.13753541973E+03  0.26360638088E+03  0.17200000000E+03 0.  1.
</event>
<event>
 4    1  0.1211980E+000  0.1750163E+03  0.7818608E-02  0.1172715E+00
         21   -1    0    0  503  502  0.00000000000E+00  0.00000000000E+00  0.33568707251E+03  0.33568707251E+03  0.00000000000E+00 0.  1.
         21   -1    0    0  501  503 -0.00000000000E+00 -0.00000000000E+00 -0.53935208486E+03  0.53935208486E+03  0.00000000000E+00 0.  1.
          6    1    1    2  501    0 -0.17429829823E+01  0.32305741097E+02 -0.50062857733E+03  0.53033920404E+03  0.17200000000E+03 0.  1.
         -6    1    1    2    0  502  0.17429829823E+01 -0.32305741097E+02  0.29696356499E+03  0.34469995333E+03  0.17200000000E+03 0.  1.
</event>
<event>
 4    1  0.1211980E+000  0.1756078E+03  0.7818608E-02  0.1172123E+00
         21   -1    0    0  501  502  0.00000000000E+00  0.00000000000E+00  0.10755230056E+03  0.10755230056E+03  0.00000000000E+00 0. -1.
         21   -1    0    0  502  503 -0.00000000000E+00 -0.00000000000E+00 -0.38436450481E+03  0.38436450481E+03  0.00000000000E+00 0. -1.
          6    1    1    2  501    0 -0.35287098257E+02 -0.29838183034E+01 -0.14440918610E+02  0.17620051818E+03  0.17200000000E+03 0.  1.
         -6    1    1    2    0  503  0.35287098257E+02  0.29838183034E+01 -0.26237128564E+03  0.31571628720E+03  0.17200000000E+03 0.  1.
</event>
<event>
 4    1  0.1211980E+000  0.2771170E+03  0.7818608E-02  0.1097274E+00
         21   -1    0    0  501  502  0.00000000000E+00  0.00000000000E+00  0.27758220940E+03  0.27758220940E+03  0.00000000000E+00 0.  1.
         21   -1    0    0  502  503 -0.00000000000E+00 -0.00000000000E+00 -0.29327910965E+03  0.29327910965E+03  0.00000000000E+00 0.  1.
          6    1    1    2  501    0 -0.98658448723E+01  0.21705407420E+03 -0.75809831370E+02  0.28729938488E+03  0.17200000000E+03 0.  1.
         -6    1    1    2    0  503  0.98658448723E+01 -0.21705407420E+03  0.60112931114E+02  0.28356193417E+03  0.17200000000E+03 0.  1.
</event>
<event>
 4    1  0.1211980E+000  0.1777953E+03  0.7818608E-02  0.1169954E+00
         21   -1    0    0  501  502  0.00000000000E+00  0.00000000000E+00  0.19255340621E+04  0.19255340621E+04  0.00000000000E+00 0.  1.
         21   -1    0    0  502  503 -0.00000000000E+00 -0.00000000000E+00 -0.41997435896E+02  0.41997435896E+02  0.00000000000E+00 0.  1.
          6    1    1    2  501    0 -0.38895846786E+02  0.22677973041E+02  0.17095463254E+04  0.17187669464E+04  0.17200000000E+03 0.  1.
         -6    1    1    2    0  503  0.38895846786E+02 -0.22677973041E+02  0.17399030082E+03  0.24876455161E+03  0.17200000000E+03 0.  1.
</event>
<event>
 4    1  0.1211980E+000  0.2196052E+03  0.7818608E-02  0.1134178E+00
         21   -1    0    0  501  502  0.00000000000E+00  0.00000000000E+00  0.25782215794E+03  0.25782215794E+03  0.00000000000E+00 0. -1.
         21   -1    0    0  502  503 -0.00000000000E+00 -0.00000000000E+00 -0.32192829654E+03  0.32192829654E+03  0.00000000000E+00 0.  1.
          6    1    1    2  501    0 -0.11563800902E+03 -0.72596883145E+02  0.15557483595E+03  0.26912819651E+03  0.17200000000E+03 0. -1.
         -6    1    1    2    0  503  0.11563800902E+03  0.72596883145E+02 -0.21968097454E+03  0.31062225797E+03  0.17200000000E+03 0.  1.
</event>
<event>
 4    1  0.1211980E+000  0.2012618E+03  0.7818608E-02  0.1148679E+00
         21   -1    0    0  503  502  0.00000000000E+00  0.00000000000E+00  0.10822330339E+03  0.10822330339E+03  0.00000000000E+00 0. -1.
         21   -1    0    0  501  503 -0.00000000000E+00 -0.00000000000E+00 -0.39286225424E+03  0.39286225424E+03  0.00000000000E+00 0.  1.
          6    1    1    2  501    0  0.10059914863E+03 -0.28321870532E+02 -0.87836973557E+02  0.21959428722E+03  0.17200000000E+03 0. -1.
         -6    1    1    2    0  502 -0.10059914863E+03  0.28321870532E+02 -0.19680197729E+03  0.28149127042E+03  0.17200000000E+03 0.  1.
</event>
<event>
 4    1  0.1211980E+000  0.2108739E+03  0.7818608E-02  0.1140876E+00
         21   -1    0    0  503  502  0.00000000000E+00  0.00000000000E+00  0.21133427056E+04  0.21133427056E+04  0.00000000000E+00 0. -1.
         21   -1    0    0  501  503 -0.00000000000E+00 -0.00000000000E+00 -0.23394878201E+02  0.23394878201E+02  0.00000000000E+00 0. -1.
          6    1    1    2  501    0 -0.11031198816E+03  0.52106482153E+02  0.13838260043E+04  0.13998007824E+04  0.17200000000E+03 0. -1.
         -6    1    1    2    0  502  0.11031198816E+03 -0.52106482153E+02  0.70612182313E+03  0.73693680144E+03  0.17200000000E+03 0. -1.
</event>
<event>
 4    1  0.1211980E+000  0.2037245E+03  0.7818608E-02  0.1146634E+00
         21   -1    0    0  503  502  0.00000000000E+00  0.00000000000E+00  0.85411976814E+02  0.85411976814E+02  0.00000000000E+00 0. -1.
         21   -1    0    0  501  503 -0.00000000000E+00 -0.00000000000E+00 -0.77087094874E+03  0.77087094874E+03  0.00000000000E+00 0. -1.
          6    1    1    2  501    0 -0.87064607841E+02 -0.65874258544E+02 -0.60303240554E+03  0.63651531483E+03  0.17200000000E+03 0. -1.
         -6    1    1    2    0  502  0.87064607841E+02  0.65874258544E+02 -0.82426566380E+02  0.21976761072E+03  0.17200000000E+03 0. -1.
</event>
<event>
 4    1  0.1211980E+000  0.2125855E+03  0.7818608E-02  0.1139535E+00
         21   -1    0    0  503  502  0.00000000000E+00  0.00000000000E+00  0.21077385553E+04  0.21077385553E+04  0.00000000000E+00 0. -1.
         21   -1    0    0  501  503 -0.00000000000E+00 -0.00000000000E+00 -0.23367417353E+02  0.23367417353E+02  0.00000000000E+00 0. -1.
          6    1    1    2  501    0 -0.60871911074E+02 -0.10910184996E+03  0.73626137985E+03  0.76633766884E+03  0.17200000000E+03 0. -1.
         -6    1    1    2    0  502  0.60871911074E+02  0.10910184996E+03  0.13481097581E+04  0.13647683039E+04  0.17200000000E+03 0. -1.
</event>
<event>
 4    1  0.1211980E+000  0.3491811E+03  0.7818608E-02  0.1062952E+00
         21   -1    0    0  501  502  0.00000000000E+00  0.00000000000E+00  0.13971282784E+03  0.13971282784E+03  0.00000000000E+00 0. -1.
         21   -1    0    0  502  503 -0.00000000000E+00 -0.00000000000E+00 -0.98138658082E+03  0.98138658082E+03  0.00000000000E+00 0.  1.
          6    1    1    2  501    0  0.29580754646E+03  0.69579522476E+02 -0.60738101597E+03  0.70059911009E+03  0.17200000000E+03 0. -1.
         -6    1    1    2    0  503 -0.29580754646E+03 -0.69579522476E+02 -0.23429273701E+03  0.42050029858E+03  0.17200000000E+03 0. -1.
</event>
<event>
 4    1  0.1211980E+000  0.1756994E+03  0.7818608E-02  0.1172031E+00
         21   -1    0    0  503  502  0.00000000000E+00  0.00000000000E+00  0.12793982077E+04  0.12793982077E+04  0.00000000000E+00 0.  1.
         21   -1    0    0  501  503 -0.00000000000E+00 -0.00000000000E+00 -0.35946176504E+02  0.35946176504E+02  0.00000000000E+00 0.  1.
          6    1    1    2  501    0  0.71562575813E+01  0.35143432919E+02  0.24463630879E+03  0.30119295556E+03  0.17200000000E+03 0.  1.
         -6    1    1    2    0  502 -0.71562575813E+01 -0.35143432919E+02  0.99881572243E+03  0.10141514287E+04  0.17200000000E+03 0.  1.
</event>
<event>
 4    1  0.1211980E+000  0.1847974E+03  0.7818608E-02  0.1163239E+00
         21   -1    0    0  503  502  0.00000000000E+00  0.00000000000E+00  0.41545756334E+03  0.41545756334E+03  0.00000000000E+00 0. -1.
         21   -1    0    0  501  503 -0.00000000000E+00 -0.00000000000E+00 -0.18722324733E+03  0.18722324733E+03  0.00000000000E+00 0.  1.
          6    1    1    2  501    0  0.60904714664E+02 -0.29269453164E+02 -0.11157830197E+03  0.21586987429E+03  0.17200000000E+03 0.  1.
         -6    1    1    2    0  502 -0.60904714664E+02  0.29269453164E+02  0.33981261798E+03  0.38681093637E+03  0.17200000000E+03 0. -1.
</event>
<event>
 4    1  0.1211980E+000  0.2122367E+03  0.7818608E-02  0.1139807E+00
         21   -1    0    0  503  502  0.00000000000E+00  0.00000000000E+00  0.26547979224E+03  0.26547979224E+03  0.00000000000E+00 0. -1.
         21   -1    0    0  501  503 -0.00000000000E+00 -0.00000000000E+00 -0.34216541896E+03  0.34216541896E+03  0.00000000000E+00 0.  1.
          6    1    1    2  501    0  0.51864455452E+02  0.11300669367E+03 -0.25406188451E+03  0.33104663676E+03  0.17200000000E+03 0.  1.
         -6    1    1    2    0  502 -0.51864455452E+02 -0.11300669367E+03  0.17737625778E+03  0.27659857443E+03  0.17200000000E+03 0. -1.
</event>
<event>
 4    1  0.1211980E+000  0.1903812E+03  0.7818608E-02  0.1158118E+00
         21   -1    0    0  503  502  0.00000000000E+00  0.00000000000E+00  0.13435863864E+03  0.13435863864E+03  0.00000000000E+00 0.  1.
         21   -1    0    0  501  503 -0.00000000000E+00 -0.00000000000E+00 -0.42114234961E+03  0.42114234961E+03  0.00000000000E+00 0. -1.
          6    1    1    2  501    0  0.35846933170E+02 -0.73321136133E+02 -0.30991464466E+03  0.36371978032E+03  0.17200000000E+03 0. -1.
         -6    1    1    2    0  502 -0.35846933170E+02  0.73321136133E+02  0.23130933688E+02  0.19178120793E+03  0.17200000000E+03 0.  1.
</event>
<event>
 4    1  0.1211980E+000  0.1753254E+03  0.7818608E-02  0.1172405E+00
         21   -1    0    0  501  502  0.00000000000E+00  0.00000000000E+00  0.76727541822E+03  0.76727541822E+03  0.00000000000E+00 0.  1.
         21   -1    0    0  502  503 -0.00000000000E+00 -0.00000000000E+00 -0.96975399022E+02  0.96975399022E+02  0.00000000000E+00 0.  1.
          6    1    1    2  501    0 -0.13582663171E+02  0.31153216662E+02  0.66619282722E+03  0.68887727113E+03  0.17200000000E+03 0.  1.
         -6    1    1    2    0  503  0.13582663171E+02 -0.31153216662E+02  0.41071919752E+01  0.17537354610E+03  0.17200000000E+03 0.  1.
</event>
<event>
 4    1  0.1211980E+000  0.1775642E+03  0.7818608E-02  0.1170181E+00
         21   -1    0    0  503  502  0.00000000000E+00  0.00000000000E+00  0.35159119936E+03  0.35159119936E+03  0.00000000000E+00 0. -1.
         21   -1    0    0  501  503 -0.00000000000E+00 -0.00000000000E+00 -0.24939739673E+03  0.24939739673E+03  0.00000000000E+00 0. -1.
          6    1    1    2  501    0 -0.14253535291E+02 -0.41736035243E+02 -0.18937964515E+03  0.25960298516E+03  0.17200000000E+03 0. -1.
         -6    1    1    2    0  502  0.14253535291E+02  0.41736035243E+02  0.29157344778E+03  0.34138561094E+03  0.17200000000E+03 0. -1.
</event>
<event>
 4    1  0.1211980E+000  0.2295299E+03  0.7818608E-02  0.1126971E+00
         21   -1    0    0  501  502  0.00000000000E+00  0.00000000000E+00  0.45035827935E+02  0.45035827935E+02  0.00000000000E+00 0.  1.
         21   -1    0    0  502  503 -0.00000000000E+00 -0.00000000000E+00 -0.13612541409E+04  0.13612541409E+04  0.00000000000E+00 0. -1.
          6    1    1    2  501    0  0.12145984369E+03  0.91364562868E+02 -0.39442695028E+03  0.45635139540E+03  0.17200000000E+03 0. -1.
         -6    1    1    2    0  503 -0.12145984369E+03 -0.91364562868E+02 -0.92179136265E+03  0.94993857340E+03  0.17200000000E+03 0.  1.
</event>
<event>
 4    1  0.1211980E+000  0.2982791E+03  0.7818608E-02  0.1086104E+00
         21   -1    0    0  501  502  0.00000000000E+00  0.00000000000E+00  0.12606530192E+03  0.12606530192E+03  0.00000000000E+00 0. -1.
         21   -1    0    0  502  503 -0.00000000000E+00 -0.00000000000E+00 -0.91617430500E+03  0.91617430500E+03  0.00000000000E+00 0. -1.
          6    1    1    2  501    0 -0.13356963831E+03 -0.20382727340E+03 -0.14530883719E+03  0.33179069279E+03  0.17200000000E+03 0. -1.
         -6    1    1    2    0  503  0.13356963831E+03  0.20382727340E+03 -0.64480016589E+03  0.71044891413E+03  0.17200000000E+03 0. -1.
</event>
<event>
 4    1  0.1211980E+000  0.1998692E+03  0.7818608E-02  0.1149849E+00
         21   -1    0    0  501  502  0.00000000000E+00  0.00000000000E+00  0.11264825166E+03  0.11264825166E+03  0.00000000000E+00 0.  1.
         21   -1    0    0  502  503 -0.00000000000E+00 -0.00000000000E+00 -0.64602089474E+03  0.64602089474E+03  0.00000000000E+00 0.  1.
          6    1    1    2  501    0  0.38001256030E+02 -0.94443665460E+02 -0.11919961798E+02  0.20022434141E+03  0.17200000000E+03 0.  1.
         -6    1    1    2    0  503 -0.38001256030E+02  0.94443665460E+02 -0.52145268128E+03  0.55844480499E+03  0.17200000000E+03 0.  1.
</event>
<event>
 4    1  0.1211980E+000  0.1743384E+03  0.7818608E-02  0.1173398E+00
         21   -1    0    0  503  502  0.00000000000E+00  0.00000000000E+00  0.63743606277E+03  0.63743606277E+03  0.00000000000E+00 0.  1.
         21   -1    0    0  501  503 -0.00000000000E+00 -0.00000000000E+00 -0.54822320515E+02  0.54822320515E+02  0.00000000000E+00 0.  1.
          6    1    1    2  501    0 -0.20209602110E+02  0.20036004267E+02  0.16638588637E+03  0.24099405110E+03  0.17200000000E+03 0. -1.
         -6    1    1    2    0  502  0.20209602110E+02 -0.20036004267E+02  0.41622785589E+03  0.45126433218E+03  0.17200000000E+03 0. -1.
</event>
<event>
 4    1  0.1211980E+000  0.2413928E+03  0.7818608E-02  0.1118868E+00
         21   -1    0    0  503  502  0.00000000000E+00  0.00000000000E+00  0.52869119685E+02  0.52869119685E+02  0.00000000000E+00 0.  1.
         21   -1    0    0  501  503 -0.00000000000E+00 -0.00000000000E+00 -0.11023079293E+04  0.11023079293E+04  0.00000000000E+00 0.  1.
          6    1    1    2  501    0 -0.13620194127E+03  0.10067539766E+03 -0.53129152449E+03  0.58355907027E+03  0.17200000000E+03 0. -1.
         -6    1    1    2    0  502  0.13620194127E+03 -0.10067539766E+03 -0.51814728509E+03  0.57161797868E+03  0.17200000000E+03 0. -1.
</event>
<event>
 4    1  0.1211980E+000  0.2286783E+03  0.7818608E-02  0.1127573E+00
         21   -1    0    0  503  502  0.00000000000E+00  0.00000000000E+00  0.31708523939E+03  0.31708523939E+03  0.00000000000E+00 0.  1.
         21   -1    0    0  501  503 -0.00000000000E+00 -0.00000000000E+00 -0.28016463425E+03  0.28016463425E+03  0.00000000000E+00 0. -1.
          6    1    1    2  501    0 -0.11562013362E+03  0.96652769346E+02 -0.17306639629E+03  0.28678519949E+03  0.17200000000E+03 0. -1.
         -6    1    1    2    0  502  0.11562013362E+03 -0.96652769346E+02  0.20998700143E+03  0.31046467415E+03  0.17200000000E+03 0.  1.
</event>
<event>
 4    1  0.1211980E+000  0.1867306E+03  0.7818608E-02  0.1161444E+00
         21   -1    0    0  501  502  0.00000000000E+00  0.00000000000E+00  0.18080355308E+03  0.18080355308E+03  0.00000000000E+00 0.  1.
         21   -1    0    0  502  503 -0.00000000000E+00 -0.00000000000E+00 -0.17760694122E+04  0.17760694122E+04  0.00000000000E+00 0.  1.
          6    1    1    2  501    0  0.65913873907E+02 -0.30653943899E+02  0.12615645448E+03  0.22535251065E+03  0.17200000000E+03 0.  1.
         -6    1    1    2    0  503 -0.65913873907E+02  0.30653943899E+02 -0.17214223136E+04  0.17315204547E+04  0.17200000000E+03 0.  1.
</event>
<event>
 4    1  0.1211980E+000  0.1777286E+03  0.7818608E-02  0.1170020E+00
         21   -1    0    0  503  502  0.00000000000E+00  0.00000000000E+00  0.15046150898E+03  0.15046150898E+03  0.00000000000E+00 0. -1.
         21   -1    0    0  501  503 -0.00000000000E+00 -0.00000000000E+00 -0.52183697971E+03  0.52183697971E+03  0.00000000000E+00 0. -1.
          6    1    1    2  501    0 -0.25431055688E+02  0.36833802500E+02 -0.44556737074E+03  0.47970589893E+03  0.17200000000E+03 0. -1.
         -6    1    1    2    0  502  0.25431055688E+02 -0.36833802500E+02  0.74191900010E+02  0.19259258975E+03  0.17200000000E+03 0. -1.
</event>
<event>
 4    1  0.1211980E+000  0.3324002E+03  0.7818608E-02  0.1070080E+00
         21   -1    0    0  501  502  0.00000000000E+00  0.00000000000E+00  0.94056976082E+02  0.94056976082E+02  0.00000000000E+00 0. -1.
         21   -1    0    0  502  503 -0.00000000000E+00 -0.00000000000E+00 -0.12982401168E+04  0.12982401168E+04  0.00000000000E+00 0.  1.
          6    1    1    2  501    0 -0.28438313179E+03 -0.56661285903E+01 -0.81682867397E+03  0.88187241327E+03  0.17200000000E+03 0. -1.
         -6    1    1    2    0  503  0.28438313179E+03  0.56661285903E+01 -0.38735446679E+03  0.51042467966E+03  0.17200000000E+03 0. -1.
</event>
<event>
 4    1  0.1211980E+000  0.3057326E+03  0.7818608E-02  0.1082410E+00
         21   -1    0    0  503  502  0.00000000000E+00  0.00000000000E+00  0.23430974431E+03  0.23430974431E+03  0.00000000000E+00 0. -1.
         21   -1    0    0  501  503 -0.00000000000E+00 -0.00000000000E+00 -0.10235779722E+04  0.10235779722E+04  0.00000000000E+00 0. -1.
          6    1    1    2  501    0 -0.14819850170E+03 -0.20475746532E+03 -0.88596065585E+03  0.93722926716E+03  0.17200000000E+03 0.  1.
         -6    1    1    2    0  502  0.14819850170E+03  0.20475746532E+03  0.96692427966E+02  0.32065844934E+03  0.17200000000E+03 0.  1.
</event>
<event>
 4    1  0.1211980E+000  0.2129080E+03  0.7818608E-02  0.1139284E+00
         21   -1    0    0  503  502  0.00000000000E+00  0.00000000000E+00  0.66700560426E+03  0.66700560426E+03  0.00000000000E+00 0.  1.
         21   -1    0    0  501  503 -0.00000000000E+00 -0.00000000000E+00 -0.69153296710E+02  0.69153296710E+02  0.00000000000E+00 0.  1.
          6    1    1    2  501    0 -0.77427039489E+02 -0.98746518614E+02  0.34727392596E+03  0.40734383638E+03  0.17200000000E+03 0.  1.
         -6    1    1    2    0  502  0.77427039489E+02  0.98746518614E+02  0.25057838158E+03  0.32881506459E+03  0.17200000000E+03 0.  1.
</event>
<event>
 4    1  0.1211980E+000  0.3157879E+03  0.7818608E-02  0.1077604E+00
         21   -1    0    0  503  502  0.00000000000E+00  0.00000000000E+00  0.18224744685E+04  0.18224744685E+04  0.00000000000E+00 0. -1.
         21   -1    0    0  501  503 -0.00000000000E+00 -0.00000000000E+00 -0.85531979814E+02  0.85531979814E+02  0.00000000000E+00 0.  1.
          6    1    1    2  501    0 -0.26482974933E+03  0.17845676455E+01  0.29585961770E+03  0.43272958553E+03  0.17200000000E+03 0.  1.
         -6    1    1    2    0  502  0.26482974933E+03 -0.17845676455E+01  0.14410828710E+04  0.14752768628E+04  0.17200000000E+03 0. -1.
</event>
<event>
 4    1  0.1211980E+000  0.1919996E+03  0.7818608E-02  0.1156670E+00
         21   -1    0    0  503  502  0.00000000000E+00  0.00000000000E+00  0.24325739842E+03  0.24325739842E+03  0.00000000000E+00 0.  1.
         21   -1    0    0  501  503 -0.00000000000E+00 -0.00000000000E+00 -0.38581399100E+03  0.38581399100E+03  0.00000000000E+00 0.  1.
          6    1    1    2  501    0 -0.99789868227E+01 -0.84736445593E+02 -0.31637678320E+03  0.37007852455E+03  0.17200000000E+03 0.  1.
         -6    1    1    2    0  502  0.99789868227E+01  0.84736445593E+02  0.17382019061E+03  0.25899286487E+03  0.17200000000E+03 0.  1.
</event>
<event>
 4    1  0.1211980E+000  0.2132673E+03  0.7818608E-02  0.1139004E+00
         21   -1    0    0  501  502  0.00000000000E+00  0.00000000000E+00  0.49938834714E+03  0.49938834714E+03  0.00000000000E+00 0.  1.
         21   -1    0    0  502  503 -0.00000000000E+00 -0.00000000000E+00 -0.12389810001E+03  0.12389810001E+03  0.00000000000E+00 0.  1.
          6    1    1    2  501    0  0.84392259811E+02  0.93684957849E+02  0.34814357737E+03  0.40827304014E+03  0.17200000000E+03 0.  1.
         -6    1    1    2    0  503 -0.84392259811E+02 -0.93684957849E+02  0.27346669759E+02  0.21501340700E+03  0.17200000000E+03 0.  1.
</event>
<event>
 4    1  0.1211980E+000  0.3326644E+03  0.7818608E-02  0.1069964E+00
         21   -1    0    0  501  502  0.00000000000E+00  0.00000000000E+00  0.68521006095E+03  0.68521006095E+03  0.00000000000E+00 0. -1.
         21   -1    0    0  502  503 -0.00000000000E+00 -0.00000000000E+00 -0.26054540664E+03  0.26054540664E+03  0.00000000000E+00 0.  1.
          6    1    1    2  501    0  0.28445836447E+03  0.12847138412E+02  0.50388090861E+03  0.60378935081E+03  0.17200000000E+03 0. -1.
         -6    1    1    2    0  503 -0.28445836447E+03 -0.12847138412E+02 -0.79216254304E+02  0.34196611679E+03  0.17200000000E+03 0.  1.
</event>
<event>
 4    1  0.1211980E+000  0.2177870E+03  0.7818608E-02  0.1135544E+00
         21   -1    0    0  503  502  0.00000000000E+00  0.00000000000E+00  0.11494226903E+03  0.11494226903E+03  0.00000000000E+00 0. -1.
         21   -1    0    0  501  503 -0.00000000000E+00 -0.00000000000E+00 -0.41389743218E+03  0.41389743218E+03  0.00000000000E+00 0. -1.
          6    1    1    2  501    0 -0.12888784238E+03  0.35144074151E+02 -0.16398099811E+03  0.27261868902E+03  0.17200000000E+03 0. -1.
         -6    1    1    2    0  502  0.12888784238E+03 -0.35144074151E+02 -0.13497416504E+03  0.25622101219E+03  0.17200000000E+03 0. -1.
</event>
<event>
 4    1  0.1211980E+000  0.1901078E+03  0.7818608E-02  0.1158364E+00
         21   -1    0    0  501  502  0.00000000000E+00  0.00000000000E+00  0.85839225759E+03  0.85839225759E+03  0.00000000000E+00 0. -1.
         21   -1    0    0  502  503 -0.00000000000E+00 -0.00000000000E+00 -0.17911928465E+03  0.17911928465E+03  0.00000000000E+00 0. -1.
          6    1    1    2  501    0 -0.74004151376E+02  0.32868683012E+02  0.79334582912E+03  0.81580547272E+03  0.17200000000E+03 0. -1.
         -6    1    1    2    0  503  0.74004151376E+02 -0.32868683012E+02 -0.11407285618E+03  0.22170606952E+03  0.17200000000E+03 0. -1.
</event>
<event>
 4    1  0.1211980E+000  0.2286326E+03  0.7818608E-02  0.1127606E+00
         21   -1    0    0  501  502  0.00000000000E+00  0.00000000000E+00  0.85623708727E+02  0.85623708727E+02  0.00000000000E+00 0.  1.
         21   -1    0    0  502  503 -0.00000000000E+00 -0.00000000000E+00 -0.61738168816E+03  0.61738168816E+03  0.00000000000E+00 0.  1.
          6    1    1    2  501    0 -0.27311338861E+02 -0.14813158423E+03 -0.22875572456E+03  0.32342241263E+03  0.17200000000E+03 0. -1.
         -6    1    1    2    0  503  0.27311338861E+02  0.14813158423E+03 -0.30300225488E+03  0.37958298426E+03  0.17200000000E+03 0. -1.
</event>
<event>
 4    1  0.1211980E+000  0.3317787E+03  0.7818608E-02  0.1070353E+00
         21   -1    0    0  503  502  0.00000000000E+00  0.00000000000E+00  0.12206027996E+03  0.12206027996E+03  0.00000000000E+00 0. -1.
         21   -1    0    0  501  503 -0.00000000000E+00 -0.00000000000E+00 -0.12259479137E+04  0.12259479137E+04  0.00000000000E+00 0.  1.
          6    1    1    2  501    0  0.55979895500E+02  0.27813544622E+03 -0.20538173220E+03  0.39020344830E+03  0.17200000000E+03 0. -1.
         -6    1    1    2    0  502 -0.55979895500E+02 -0.27813544622E+03 -0.89850590158E+03  0.95780474541E+03  0.17200000000E+03 0.  1.
</event>
<event>
 4    1  0.1211980E+000  0.2334118E+03  0.7818608E-02  0.1124261E+00
         21   -1    0    0  501  502  0.00000000000E+00  0.00000000000E+00  0.27052037288E+03  0.27052037288E+03  0.00000000000E+00 0.  1.
         21   -1    0    0  502  503 -0.00000000000E+00 -0.00000000000E+00 -0.30348185965E+03  0.30348185965E+03  0.00000000000E+00 0.  1.
          6    1    1    2  501    0 -0.12816685123E+03  0.92034446236E+02  0.14997739937E+03  0.27744242893E+03  0.17200000000E+03 0.  1.
         -6    1    1    2    0  503  0.12816685123E+03 -0.92034446236E+02 -0.18293888614E+03  0.29655980360E+03  0.17200000000E+03 0.  1.
</event>
<event>
 4    1  0.1211980E+000  0.1972453E+03  0.7818608E-02  0.1152084E+00
         21   -1    0    0  503  502  0.00000000000E+00  0.00000000000E+00  0.17225121976E+02  0.17225121976E+02  0.00000000000E+00 0. -1.
         21   -1    0    0  501  503 -0.00000000000E+00 -0.00000000000E+00 -0.22658659501E+04  0.22658659501E+04  0.00000000000E+00 0.  1.
          6    1    1    2  501    0 -0.65255063741E+01 -0.96328220057E+02 -0.10599484297E+04  0.10781448798E+04  0.17200000000E+03 0.  1.
         -6    1    1    2    0  502  0.65255063741E+01  0.96328220057E+02 -0.11886923983E+04  0.12049461922E+04  0.17200000000E+03 0. -1.
</event>
<event>
 4    1  0.1211980E+000  0.1989255E+03  0.7818608E-02  0.1150649E+00
         21   -1    0    0  501  502  0.00000000000E+00  0.00000000000E+00  0.40166351214E+03  0.40166351214E+03  0.00000000000E+00 0.  1.
         21   -1    0    0  502  503 -0.00000000000E+00 -0.00000000000E+00 -0.12133300194E+03  0.12133300194E+03  0.00000000000E+00 0. -1.
          6    1    1    2  501    0 -0.95136590682E+02  0.30600557189E+02  0.26773110676E+02  0.20071911828E+03  0.17200000000E+03 0. -1.
         -6    1    1    2    0  503  0.95136590682E+02 -0.30600557189E+02  0.25355739952E+03  0.32227739579E+03  0.17200000000E+03 0.  1.
</event>
<event>
 4    1  0.1211980E+000  0.1857916E+03  0.7818608E-02  0.1162313E+00
         21   -1    0    0  503  502  0.00000000000E+00  0.00000000000E+00  0.38700982636E+02  0.38700982636E+02  0.00000000000E+00 0. -1.
         21   -1    0    0  501  503 -0.00000000000E+00 -0.00000000000E+00 -0.11662590040E+04  0.11662590040E+04  0.00000000000E+00 0. -1.
          6    1    1    2  501    0  0.63476036198E+02 -0.30088300429E+02 -0.85598028249E+03  0.87591138651E+03  0.17200000000E+03 0. -1.
         -6    1    1    2    0  502 -0.63476036198E+02  0.30088300429E+02 -0.27157773884E+03  0.32904860010E+03  0.17200000000E+03 0. -1.
</event>
<event>
 4    1  0.1211980E+000  0.1721604E+03  0.7818608E-02  0.1175613E+00
         21   -1    0    0  501  502  0.00000000000E+00  0.00000000000E+00  0.11430715215E+04  0.11430715215E+04  0.00000000000E+00 0.  1.
         21   -1    0    0  502  503 -0.00000000000E+00 -0.00000000000E+00 -0.27017918231E+02  0.27017918231E+02  0.00000000000E+00 0.  1.
          6    1    1    2  501    0 -0.57510484200E+01  0.47025759816E+01  0.44059770267E+03  0.47303860770E+03  0.17200000000E+03 0.  1.
         -6    1    1    2    0  503  0.57510484200E+01 -0.47025759816E+01  0.67545590061E+03  0.69705083204E+03  0.17200000000E+03 0.  1.
</event>
<event>
 4    1  0.1211980E+000  0.1946529E+03  0.7818608E-02  0.1154330E+00
         21   -1    0    0  503  502  0.00000000000E+00  0.00000000000E+00  0.92922020423E+03  0.92922020423E+03  0.00000000000E+00 0.  1.
         21   -1    0    0  501  503 -0.00000000000E+00 -0.00000000000E+00 -0.63159432930E+02  0.63159432930E+02  0.00000000000E+00 0.  1.
          6    1    1    2  501    0  0.27099060342E+02 -0.87013836816E+02  0.13764207988E+03  0.23840115147E+03  0.17200000000E+03 0.  1.
         -6    1    1    2    0  502 -0.27099060342E+02  0.87013836816E+02  0.72841869143E+03  0.75397848569E+03  0.17200000000E+03 0.  1.
</event>
<event>
 4    1  0.1211980E+000  0.2232731E+03  0.7818608E-02  0.1131466E+00
         21   -1    0    0  503  502  0.00000000000E+00  0.00000000000E+00  0.22700447899E+03  0.22700447899E+03  0.00000000000E+00 0. -1.
         21   -1    0    0  501  503 -0.00000000000E+00 -0.00000000000E+00 -0.40975961078E+03  0.40975961078E+03  0.00000000000E+00 0.  1.
          6    1    1    2  501    0  0.83872086989E+00 -0.14235930628E+03 -0.30826762773E+03  0.38063079991E+03  0.17200000000E+03 0. -1.
         -6    1    1    2    0  502 -0.83872086989E+00  0.14235930628E+03  0.12551249593E+03  0.25613328986E+03  0.17200000000E+03 0. -1.
</event>
<event>
 4    1  0.1211980E+000  0.2004891E+03  0.7818608E-02  0.1149327E+00
         21   -1    0    0  501  502  0.00000000000E+00  0.00000000000E+00  0.49624633802E+03  0.49624633802E+03  0.00000000000E+00 0. -1.
         21   -1    0    0  502  503 -0.00000000000E+00 -0.00000000000E+00 -0.13105551523E+03  0.13105551523E+03  0.00000000000E+00 0. -1.
          6    1    1    2  501    0  0.91789682342E+02  0.46760574314E+02  0.37643629636E+03  0.42649757598E+03  0.17200000000E+03 0.  1.
         -6    1    1    2    0  503 -0.91789682342E+02 -0.46760574314E+02 -0.11245473566E+02  0.20080427727E+03  0.17200000000E+03 0.  1.
</event>
<event>
 4    1  0.1211980E+000  0.1867034E+03  0.7818608E-02  0.1161469E+00
         21   -1    0    0  501  502  0.00000000000E+00  0.00000000000E+00  0.78381102498E+02  0.78381102498E+02  0.00000000000E+00 0.  1.
         21   -1    0    0  502  503 -0.00000000000E+00 -0.00000000000E+00 -0.44892514331E+03  0.44892514331E+03  0.00000000000E+00 0.  1.
          6    1    1    2  501    0  0.72613542781E+02 -0.11924032117E+01 -0.15977416126E+03  0.24573548996E+03  0.17200000000E+03 0.  1.
         -6    1    1    2    0  503 -0.72613542781E+02  0.11924032117E+01 -0.21076987955E+03  0.28157075584E+03  0.17200000000E+03 0.  1.
</event>
<event>
 4    1  0.1211980E+000  0.1884230E+03  0.7818608E-02  0.1159891E+00
         21   -1    0    0  501  502  0.00000000000E+00  0.00000000000E+00  0.95198837810E+03  0.95198837810E+03  0.00000000000E+00 0. -1.
         21   -1    0    0  502  503 -0.00000000000E+00 -0.00000000000E+00 -0.43594102834E+02  0.43594102834E+02  0.00000000000E+00 0. -1.
          6    1    1    2  501    0  0.54730476297E+02  0.54072114511E+02  0.64343835815E+03  0.67045964781E+03  0.17200000000E+03 0.  1.
         -6    1    1    2    0  503 -0.54730476297E+02 -0.54072114511E+02  0.26495591712E+03  0.32512283313E+03  0.17200000000E+03 0.  1.
</event>
<event>
 4    1  0.1211980E+000  0.1783639E+03  0.7818608E-02  0.1169396E+00
         21   -1    0    0  503  502  0.00000000000E+00  0.00000000000E+00  0.10315358074E+03  0.10315358074E+03  0.00000000000E+00 0.  1.
         21   -1    0    0  501  503 -0.00000000000E+00 -0.00000000000E+00 -0.98970942606E+03  0.98970942606E+03  0.00000000000E+00 0.  1.
          6    1    1    2  501    0  0.12638488211E+02  0.45496749137E+02 -0.89664565923E+03  0.91421393765E+03  0.17200000000E+03 0.  1.
         -6    1    1    2    0  502 -0.12638488211E+02 -0.45496749137E+02  0.10089813914E+02  0.17864906916E+03  0.17200000000E+03 0.  1.
</event>
<event>
 4    1  0.1211980E+000  0.1796994E+03  0.7818608E-02  0.1168094E+00
         21   -1    0    0  503  502  0.00000000000E+00  0.00000000000E+00  0.13661559499E+04  0.13661559499E+04  0.00000000000E+00 0. -1.
         21   -1    0    0  501  503 -0.00000000000E+00 -0.00000000000E+00 -0.23911779624E+02  0.23911779624E+02  0.00000000000E+00 0. -1.
          6    1    1    2  501    0  0.34153837150E+02 -0.39260332946E+02  0.59661890023E+03  0.62309386969E+03  0.17200000000E+03 0.  1.
         -6    1    1    2    0  502 -0.34153837150E+02  0.39260332946E+02  0.74562527002E+03  0.76697385981E+03  0.17200000000E+03 0.  1.
</event>
<event>
 4    1  0.1211980E+000  0.1814540E+03  0.7818608E-02  0.1166403E+00
         21   -1    0    0  501  502  0.00000000000E+00  0.00000000000E+00  0.35565370617E+02  0.35565370617E+02  0.00000000000E+00 0.  1.
         21   -1    0    0  502  503 -0.00000000000E+00 -0.00000000000E+00 -0.13952460463E+04  0.13952460463E+04  0.00000000000E+00 0.  1.
          6    1    1    2  501    0  0.14105870269E+02  0.56058544657E+02 -0.10948243280E+04  0.11097593636E+04  0.17200000000E+03 0. -1.
         -6    1    1    2    0  503 -0.14105870269E+02 -0.56058544657E+02 -0.26485634768E+03  0.32105205327E+03  0.17200000000E+03 0. -1.
</event>
<event>
 4    1  0.1211980E+000  0.2467368E+03  0.7818608E-02  0.1115385E+00
         21   -1    0    0  503  502  0.00000000000E+00  0.00000000000E+00  0.13745452781E+03  0.13745452781E+03  0.00000000000E+00 0.  1.
         21   -1    0    0  501  503 -0.00000000000E+00 -0.00000000000E+00 -0.45300069774E+03  0.45300069774E+03  0.00000000000E+00 0. -1.
          6    1    1    2  501    0  0.17325388713E+03 -0.35750910746E+02 -0.20185053747E+03  0.31878311828E+03  0.17200000000E+03 0.  1.
         -6    1    1    2    0  502 -0.17325388713E+03  0.35750910746E+02 -0.11369563247E+03  0.27167210727E+03  0.17200000000E+03 0.  1.
</event>
<event>
 4    1  0.1211980E+000  0.3999479E+03  0.7818608E-02  0.1043798E+00
         21   -1    0    0  501  502  0.00000000000E+00  0.00000000000E+00  0.47408871678E+03  0.47408871678E+03  0.00000000000E+00 0. -1.
         21   -1    0    0  502  503 -0.00000000000E+00 -0.00000000000E+00 -0.33756703833E+03  0.33756703833E+03  0.00000000000E+00 0.  1.
          6    1    1    2  501    0  0.71350948387E+02 -0.35395385422E+03  0.77245212283E+02  0.40733906217E+03  0.17200000000E+03 0.  1.
         -6    1    1    2    0  503 -0.71350948387E+02  0.35395385422E+03  0.59276466163E+02  0.40431669294E+03  0.17200000000E+03 0. -1.
</event>
<event>
 4    1  0.1211980E+000  0.2460029E+03  0.7818608E-02  0.1115857E+00
         21   -1    0    0  503  502  0.00000000000E+00  0.00000000000E+00  0.73852674361E+02  0.73852674361E+02  0.00000000000E+00 0. -1.
         21   -1    0    0  501  503 -0.00000000000E+00 -0.00000000000E+00 -0.84291416817E+03  0.84291416817E+03  0.00000000000E+00 0.  1.
          6    1    1    2  501    0  0.10327223167E+02 -0.17557559085E+03 -0.46103435291E+03  0.52256111050E+03  0.17200000000E+03 0. -1.
         -6    1    1    2    0  502 -0.10327223167E+02  0.17557559085E+03 -0.30802714089E+03  0.39420573203E+03  0.17200000000E+03 0. -1.
</event>
<event>
 4    1  0.1211980E+000  0.2493612E+03  0.7818608E-02  0.1113709E+00
         21   -1    0    0  503  502  0.00000000000E+00  0.00000000000E+00  0.52418769169E+03  0.52418769169E+03  0.00000000000E+00 0. -1.
         21   -1    0    0  501  503 -0.00000000000E+00 -0.00000000000E+00 -0.23117628653E+03  0.23117628653E+03  0.00000000000E+00 0. -1.
          6    1    1    2  501    0 -0.12945500662E+03 -0.12585065835E+03 -0.11702591532E+03  0.27545607963E+03  0.17200000000E+03 0. -1.
         -6    1    1    2    0  502  0.12945500662E+03  0.12585065835E+03  0.41003732048E+03  0.47990789860E+03  0.17200000000E+03 0. -1.
</event>
<event>
 4    1  0.1211980E+000  0.3851123E+03  0.7818608E-02  0.1049060E+00
         21   -1    0    0  501  502  0.00000000000E+00  0.00000000000E+00  0.11281905506E+04  0.11281905506E+04  0.00000000000E+00 0.  1.
         21   -1    0    0  502  503 -0.00000000000E+00 -0.00000000000E+00 -0.13368303514E+03  0.13368303514E+03  0.00000000000E+00 0.  1.
          6    1    1    2  501    0  0.34351028236E+03  0.26983937317E+02  0.41588406631E+03  0.56680773069E+03  0.17200000000E+03 0.  1.
         -6    1    1    2    0  503 -0.34351028236E+03 -0.26983937317E+02  0.57862344918E+03  0.69506585508E+03  0.17200000000E+03 0.  1.
</event>
<event>
 4    1  0.1211980E+000  0.1812015E+03  0.7818608E-02  0.1166645E+00
         21   -1    0    0  503  502  0.00000000000E+00  0.00000000000E+00  0.11262766926E+03  0.11262766926E+03  0.00000000000E+00 0.  1.
         21   -1    0    0  501  503 -0.00000000000E+00 -0.00000000000E+00 -0.37427759483E+03  0.37427759483E+03  0.00000000000E+00 0.  1.
          6    1    1    2  501    0  0.54129686882E+02  0.17887236125E+02 -0.24529816394E+03  0.30496748262E+03  0.17200000000E+03 0.  1.
         -6    1    1    2    0  502 -0.54129686882E+02 -0.17887236125E+02 -0.16351761623E+02  0.18193778147E+03  0.17200000000E+03 0.  1.
</event>
<event>
 4    1  0.1211980E+000  0.2025101E+03  0.7818608E-02  0.1147638E+00
         21   -1    0    0  503  502  0.00000000000E+00  0.00000000000E+00  0.14100798239E+03  0.14100798239E+03  0.00000000000E+00 0.  1.
         21   -1    0    0  501  503 -0.00000000000E+00 -0.00000000000E+00 -0.35522940356E+03  0.35522940356E+03  0.00000000000E+00 0.  1.
          6    1    1    2  501    0 -0.10079162015E+03  0.35600377076E+02 -0.21274924668E+03  0.29372194250E+03  0.17200000000E+03 0.  1.
         -6    1    1    2    0  502  0.10079162015E+03 -0.35600377076E+02 -0.14721744876E+01  0.20251544345E+03  0.17200000000E+03 0.  1.
</event>
<event>
 4    1  0.1211980E+000  0.2030425E+03  0.7818608E-02  0.1147197E+00
         21   -1    0    0  503  502  0.00000000000E+00  0.00000000000E+00  0.49428730419E+03  0.49428730419E+03  0.00000000000E+00 0. -1.
         21   -1    0    0  501  503 -0.00000000000E+00 -0.00000000000E+00 -0.10930363635E+03  0.10930363635E+03  0.00000000000E+00 0. -1.
          6    1    1    2  501    0  0.66542134140E+02  0.84937738577E+02  0.45589144048E+02  0.20809768164E+03  0.17200000000E+03 0. -1.
         -6    1    1    2    0  502 -0.66542134140E+02 -0.84937738577E+02  0.33939452379E+03  0.39549325889E+03  0.17200000000E+03 0. -1.
</event>
<event>
 4    1  0.1211980E+000  0.2025591E+03  0.7818608E-02  0.1147598E+00
         21   -1    0    0  503  502  0.00000000000E+00  0.00000000000E+00  0.46538045585E+03  0.46538045585E+03  0.00000000000E+00 0.  1.
         21   -1    0    0  501  503 -0.00000000000E+00 -0.00000000000E+00 -0.15233986158E+03  0.15233986158E+03  0.00000000000E+00 0.  1.
          6    1    1    2  501    0 -0.10529781163E+03  0.18935983866E+02 -0.43944478099E+02  0.20727112142E+03  0.17200000000E+03 0.  1.
         -6    1    1    2    0  502  0.10529781163E+03 -0.18935983866E+02  0.35698507237E+03  0.41044919602E+03  0.17200000000E+03 0.  1.
</event>
<event>
 4    1  0.1211980E+000  0.1887132E+03  0.7818608E-02  0.1159627E+00
         21   -1    0    0  503  502  0.00000000000E+00  0.00000000000E+00  0.24349592276E+03  0.24349592276E+03  0.00000000000E+00 0.  1.
         21   -1    0    0  501  503 -0.00000000000E+00 -0.00000000000E+00 -0.37904741296E+03  0.37904741296E+03  0.00000000000E+00 0.  1.
          6    1    1    2  501    0  0.91740206513E+01  0.77100634422E+02 -0.31171212112E+03  0.36438594503E+03  0.17200000000E+03 0.  1.
         -6    1    1    2    0  502 -0.91740206513E+01 -0.77100634422E+02  0.17616063091E+03  0.25815739069E+03  0.17200000000E+03 0.  1.
</event>
<event>
 4    1  0.1211980E+000  0.1865828E+03  0.7818608E-02  0.1161580E+00
         21   -1    0    0  503  502  0.00000000000E+00  0.00000000000E+00  0.15005760493E+04  0.15005760493E+04  0.00000000000E+00 0.  1.
         21   -1    0    0  501  503 -0.00000000000E+00 -0.00000000000E+00 -0.37748977729E+02  0.37748977729E+02  0.00000000000E+00 0.  1.
          6    1    1    2  501    0  0.63318970855E+02 -0.34926392596E+02  0.25390192728E+03  0.31508623208E+03  0.17200000000E+03 0.  1.
         -6    1    1    2    0  502 -0.63318970855E+02  0.34926392596E+02  0.12089251443E+04  0.12232387950E+04  0.17200000000E+03 0.  1.
</event>
<event>
 4    1  0.1211980E+000  0.1965724E+03  0.7818608E-02  0.1152664E+00
         21   -1    0    0  501  502  0.00000000000E+00  0.00000000000E+00  0.30314863471E+03  0.30314863471E+03  0.00000000000E+00 0.  1.
         21   -1    0    0  502  503 -0.00000000000E+00 -0.00000000000E+00 -0.18240986322E+03  0.18240986322E+03  0.00000000000E+00 0.  1.
          6    1    1    2  501    0  0.76515715709E+02  0.56586762210E+02  0.19361489276E+03  0.27591202059E+03  0.17200000000E+03 0.  1.
         -6    1    1    2    0  503 -0.76515715709E+02 -0.56586762210E+02 -0.72876121269E+02  0.20964647734E+03  0.17200000000E+03 0.  1.
</event>
<event>
 4    1  0.1211980E+000  0.1756658E+03  0.7818608E-02  0.1172065E+00
         21   -1    0    0  501  502  0.00000000000E+00  0.00000000000E+00  0.38400275013E+03  0.38400275013E+03  0.00000000000E+00 0.  1.
         21   -1    0    0  502  503 -0.00000000000E+00 -0.00000000000E+00 -0.28252640168E+03  0.28252640168E+03  0.00000000000E+00 0.  1.
          6    1    1    2  501    0 -0.33668756686E+02  0.11869595820E+02  0.33265051817E+03  0.37618458198E+03  0.17200000000E+03 0.  1.
         -6    1    1    2    0  503  0.33668756686E+02 -0.11869595820E+02 -0.23117416972E+03  0.29034456982E+03  0.17200000000E+03 0.  1.
</event>
<event>
 4    1  0.1211980E+000  0.2611259E+03  0.7818608E-02  0.1106469E+00
         21   -1    0    0  501  502  0.00000000000E+00  0.00000000000E+00  0.42967835551E+03  0.42967835551E+03  0.00000000000E+00 0. -1.
         21   -1    0    0  502  503 -0.00000000000E+00 -0.00000000000E+00 -0.17965111243E+03  0.17965111243E+03  0.00000000000E+00 0.  1.
          6    1    1    2  501    0 -0.48462083052E+02 -0.19040527774E+03  0.22907467839E+03  0.34736429230E+03  0.17200000000E+03 0. -1.
         -6    1    1    2    0  503  0.48462083052E+02  0.19040527774E+03  0.20952564692E+02  0.26196517565E+03  0.17200000000E+03 0.  1.
</event>
<event>
 4    1  0.1211980E+000  0.1794471E+03  0.7818608E-02  0.1168339E+00
         21   -1    0    0  501  502  0.00000000000E+00  0.00000000000E+00  0.25229244236E+03  0.25229244236E+03  0.00000000000E+00 0. -1.
         21   -1    0    0  502  503 -0.00000000000E+00 -0.00000000000E+00 -0.13580874199E+03  0.13580874199E+03  0.00000000000E+00 0. -1.
          6    1    1    2  501    0  0.34093497624E+02 -0.38142984599E+02  0.10584889917E+03  0.20833925053E+03  0.17200000000E+03 0. -1.
         -6    1    1    2    0  503 -0.34093497624E+02  0.38142984599E+02  0.10634801202E+02  0.17976193382E+03  0.17200000000E+03 0. -1.
</event>
<event>
 4    1  0.1211980E+000  0.2121446E+03  0.7818608E-02  0.1139879E+00
         21   -1    0    0  501  502  0.00000000000E+00  0.00000000000E+00  0.10553895156E+04  0.10553895156E+04  0.00000000000E+00 0.  1.
         21   -1    0    0  502  503 -0.00000000000E+00 -0.00000000000E+00 -0.43503804259E+02  0.43503804259E+02  0.00000000000E+00 0.  1.
          6    1    1    2  501    0 -0.12867368616E+02  0.12351419386E+03  0.58321632554E+03  0.62060181086E+03  0.17200000000E+03 0.  1.
         -6    1    1    2    0  503  0.12867368616E+02 -0.12351419386E+03  0.42866938579E+03  0.47829150899E+03  0.17200000000E+03 0.  1.
</event>
<event>
 4    1  0.1211980E+000  0.1904454E+03  0.7818608E-02  0.1158060E+00
         21   -1    0    0  501  502  0.00000000000E+00  0.00000000000E+00  0.34728060117E+03  0.34728060117E+03  0.00000000000E+00 0.  1.
         21   -1    0    0  502  503 -0.00000000000E+00 -0.00000000000E+00 -0.13651934507E+03  0.13651934507E+03  0.00000000000E+00 0.  1.
          6    1    1    2  501    0 -0.10544485762E+02  0.81081938448E+02  0.22264378601E+03  0.29298416744E+03  0.17200000000E+03 0.  1.
         -6    1    1    2    0  503  0.10544485762E+02 -0.81081938448E+02 -0.11882529916E+02  0.19081577880E+03  0.17200000000E+03 0.  1.
</event>
<event>
 4    1  0.1211980E+000  0.2531737E+03  0.7818608E-02  0.1111315E+00
         21   -1    0    0  501  502  0.00000000000E+00  0.00000000000E+00  0.26951419478E+03  0.26951419478E+03  0.00000000000E+00 0. -1.
         21   -1    0    0  502  503 -0.00000000000E+00 -0.00000000000E+00 -0.31581484265E+03  0.31581484265E+03  0.00000000000E+00 0.  1.
          6    1    1    2  501    0  0.18022678754E+03 -0.45069043137E+02  0.12228701653E+03  0.28116014655E+03  0.17200000000E+03 0.  1.
         -6    1    1    2    0  503 -0.18022678754E+03  0.45069043137E+02 -0.16858766439E+03  0.30416889088E+03  0.17200000000E+03 0. -1.
</event>
<event>
 4    1  0.1211980E+000  0.1834283E+03  0.7818608E-02  0.1164526E+00
         21   -1    0    0  503  502  0.00000000000E+00  0.00000000000E+00  0.45219206374E+03  0.45219206374E+03  0.00000000000E+00 0. -1.
         21   -1    0    0  501  503 -0.00000000000E+00 -0.00000000000E+00 -0.17401543130E+03  0.17401543130E+03  0.00000000000E+00 0. -1.
          6    1    1    2  501    0 -0.17782600816E+02 -0.61202264219E+02 -0.97800175279E+02  0.20787210568E+03  0.17200000000E+03 0. -1.
         -6    1    1    2    0  502  0.17782600816E+02  0.61202264219E+02  0.37597680772E+03  0.41833538935E+03  0.17200000000E+03 0. -1.
</event>
<event>
 4    1  0.1211980E+000  0.2308130E+03  0.7818608E-02  0.1126069E+00
         21   -1    0    0  501  502  0.00000000000E+00  0.00000000000E+00  0.10646386515E+04  0.10646386515E+04  0.00000000000E+00 0. -1.
         21   -1    0    0  502  503 -0.00000000000E+00 -0.00000000000E+00 -0.54938693362E+02  0.54938693362E+02  0.00000000000E+00 0. -1.
          6    1    1    2  501    0 -0.12179398769E+03 -0.94111003392E+02  0.67200495645E+03  0.71053875186E+03  0.17200000000E+03 0. -1.
         -6    1    1    2    0  503  0.12179398769E+03  0.94111003392E+02  0.33769500166E+03  0.40903859298E+03  0.17200000000E+03 0. -1.
</event>
<event>
 4    1  0.1211980E+000  0.1956652E+03  0.7818608E-02  0.1153449E+00
         21   -1    0    0  501  502  0.00000000000E+00  0.00000000000E+00  0.85586513338E+02  0.85586513338E+02  0.00000000000E+00 0.  1.
         21   -1    0    0  502  503 -0.00000000000E+00 -0.00000000000E+00 -0.45577190907E+03  0.45577190907E+03  0.00000000000E+00 0.  1.
          6    1    1    2  501    0 -0.88730699473E+02  0.28770253196E+02 -0.22194518903E+03  0.29587925144E+03  0.17200000000E+03 0. -1.
         -6    1    1    2    0  503  0.88730699473E+02 -0.28770253196E+02 -0.14824020671E+03  0.24547917098E+03  0.17200000000E+03 0. -1.
</event>
<event>
 4    1  0.1211980E+000  0.2110511E+03  0.7818608E-02  0.1140736E+00
         21   -1    0    0  503  502  0.00000000000E+00  0.00000000000E+00  0.21493226944E+02  0.21493226944E+02  0.00000000000E+00 0.  1.
         21   -1    0    0  501  503 -0.00000000000E+00 -0.00000000000E+00 -0.27884942730E+04  0.27884942730E+04  0.00000000000E+00 0.  1.
          6    1    1    2  501    0  0.11544440262E+03 -0.40387713286E+02 -0.20954913807E+04  0.21060927577E+04  0.17200000000E+03 0.  1.
         -6    1    1    2    0  502 -0.11544440262E+03  0.40387713286E+02 -0.67150966534E+03  0.70389474222E+03  0.17200000000E+03 0.  1.
</event>
<event>
 4    1  0.1211980E+000  0.4750741E+03  0.7818608E-02  0.1020498E+00
         21   -1    0    0  503  502  0.00000000000E+00  0.00000000000E+00  0.93728348932E+03  0.93728348932E+03  0.00000000000E+00 0.  1.
         21   -1    0    0  501  503 -0.00000000000E+00 -0.00000000000E+00 -0.61038039632E+03  0.61038039632E+03  0.00000000000E+00 0. -1.
          6    1    1    2  501    0  0.41237222614E+01  0.44282551185E+03 -0.43869520558E+03  0.64664435544E+03  0.17200000000E+03 0. -1.
         -6    1    1    2    0  502 -0.41237222614E+01 -0.44282551185E+03  0.76559829857E+03  0.90101953020E+03  0.17200000000E+03 0.  1.
</event>
<event>
 4    1  0.1211980E+000  0.1850756E+03  0.7818608E-02  0.1162979E+00
         21   -1    0    0  503  502  0.00000000000E+00  0.00000000000E+00  0.25902203390E+03  0.25902203390E+03  0.00000000000E+00 0. -1.
         21   -1    0    0  501  503 -0.00000000000E+00 -0.00000000000E+00 -0.21170233881E+03  0.21170233881E+03  0.00000000000E+00 0. -1.
          6    1    1    2  501    0  0.67949030705E+02  0.72048879782E+01 -0.12053691510E+03  0.22086676773E+03  0.17200000000E+03 0.  1.
         -6    1    1    2    0  502 -0.67949030705E+02 -0.72048879782E+01  0.16785661019E+03  0.24985760498E+03  0.17200000000E+03 0.  1.
</event>
<event>
 4    1  0.1211980E+000  0.1854177E+03  0.7818608E-02  0.1162660E+00
         21   -1    0    0  503  502  0.00000000000E+00  0.00000000000E+00  0.50856026628E+03  0.50856026628E+03  0.00000000000E+00 0. -1.
         21   -1    0    0  501  503 -0.00000000000E+00 -0.00000000000E+00 -0.12544230489E+03  0.12544230489E+03  0.00000000000E+00 0. -1.
          6    1    1    2  501    0  0.51067260663E+02 -0.46774562863E+02 -0.23696416118E+02  0.18692577398E+03  0.17200000000E+03 0. -1.
         -6    1    1    2    0  502 -0.51067260663E+02  0.46774562863E+02  0.40681437750E+03  0.44707679719E+03  0.17200000000E+03 0. -1.
</event>
<event>
 4    1  0.1211980E+000  0.1730955E+03  0.7818608E-02  0.1174658E+00
         21   -1    0    0  503  502  0.00000000000E+00  0.00000000000E+00  0.63224712801E+03  0.63224712801E+03  0.00000000000E+00 0.  1.
         21   -1    0    0  501  503 -0.00000000000E+00 -0.00000000000E+00 -0.55834766025E+02  0.55834766025E+02  0.00000000000E+00 0.  1.
          6    1    1    2  501    0  0.38946022015E+01 -0.19049300003E+02  0.15440572321E+03  0.23195510583E+03  0.17200000000E+03 0.  1.
         -6    1    1    2    0  502 -0.38946022015E+01  0.19049300003E+02  0.42200663877E+03  0.45612678821E+03  0.17200000000E+03 0.  1.
</event>
<event>
 4    1  0.1211980E+000  0.1765766E+03  0.7818608E-02  0.1171158E+00
         21   -1    0    0  501  502  0.00000000000E+00  0.00000000000E+00  0.11346623250E+03  0.11346623250E+03  0.00000000000E+00 0. -1.
         21   -1    0    0  502  503 -0.00000000000E+00 -0.00000000000E+00 -0.69193981750E+03  0.69193981750E+03  0.00000000000E+00 0. -1.
          6    1    1    2  501    0 -0.23565557825E+02  0.32248181401E+02  0.23441147937E+02  0.17812570880E+03  0.17200000000E+03 0. -1.
         -6    1    1    2    0  503  0.23565557825E+02 -0.32248181401E+02 -0.60191473294E+03  0.62728034120E+03  0.17200000000E+03 0. -1.
</event>
<event>
 4    1  0.1211980E+000  0.2225885E+03  0.7818608E-02  0.1131968E+00
         21   -1    0    0  503  502  0.00000000000E+00  0.00000000000E+00  0.24270359817E+04  0.24270359817E+04  0.00000000000E+00 0. -1.
         21   -1    0    0  501  503 -0.00000000000E+00 -0.00000000000E+00 -0.27691909259E+02  0.27691909259E+02  0.00000000000E+00 0. -1.
          6    1    1    2  501    0 -0.35414022098E+02  0.13677526668E+03  0.57045738254E+03  0.61234569635E+03  0.17200000000E+03 0. -1.
         -6    1    1    2    0  502  0.35414022098E+02 -0.13677526668E+03  0.18288866899E+04  0.18423821946E+04  0.17200000000E+03 0. -1.
</event>
<event>
 4    1  0.1211980E+000  0.2128476E+03  0.7818608E-02  0.1139331E+00
         21   -1    0    0  503  502  0.00000000000E+00  0.00000000000E+00  0.25685205865E+03  0.25685205865E+03  0.00000000000E+00 0. -1.
         21   -1    0    0  501  503 -0.00000000000E+00 -0.00000000000E+00 -0.27729376140E+03  0.27729376140E+03  0.00000000000E+00 0. -1.
          6    1    1    2  501    0 -0.10967582484E+03  0.60756312156E+02 -0.17133377518E+03  0.27323868419E+03  0.17200000000E+03 0. -1.
         -6    1    1    2    0  502  0.10967582484E+03 -0.60756312156E+02  0.15089207242E+03  0.26090713586E+03  0.17200000000E+03 0. -1.
</event>
<event>
 4    1  0.1211980E+000  0.2790315E+03  0.7818608E-02  0.1096219E+00
         21   -1    0    0  501  502  0.00000000000E+00  0.00000000000E+00  0.26869966324E+03  0.26869966324E+03  0.00000000000E+00 0.  1.
         21   -1    0    0  502  503 -0.00000000000E+00 -0.00000000000E+00 -0.44685243445E+03  0.44685243445E+03  0.00000000000E+00 0. -1.
          6    1    1    2  501    0  0.17990866677E+03  0.12612469529E+03  0.12305554708E+03  0.30496103818E+03  0.17200000000E+03 0. -1.
         -6    1    1    2    0  503 -0.17990866677E+03 -0.12612469529E+03 -0.30120831829E+03  0.41059105951E+03  0.17200000000E+03 0. -1.
</event>
<event>
 4    1  0.1211980E+000  0.1771407E+03  0.7818608E-02  0.1170599E+00
         21   -1    0    0  503  502  0.00000000000E+00  0.00000000000E+00  0.49270661466E+03  0.49270661466E+03  0.00000000000E+00 0.  1.
         21   -1    0    0  501  503 -0.00000000000E+00 -0.00000000000E+00 -0.78742654689E+02  0.78742654689E+02  0.00000000000E+00 0.  1.
          6    1    1    2  501    0 -0.40873210256E+02 -0.11144887610E+02  0.82043072824E+02  0.19521755463E+03  0.17200000000E+03 0.  1.
         -6    1    1    2    0  502  0.40873210256E+02  0.11144887610E+02  0.33192088714E+03  0.37623171472E+03  0.17200000000E+03 0.  1.
</event>
<event>
 4    1  0.1211980E+000  0.1866614E+03  0.7818608E-02  0.1161507E+00
         21   -1    0    0  503  502  0.00000000000E+00  0.00000000000E+00  0.12895696935E+04  0.12895696935E+04  0.00000000000E+00 0. -1.
         21   -1    0    0  501  503 -0.00000000000E+00 -0.00000000000E+00 -0.27718396179E+02  0.27718396179E+02  0.00000000000E+00 0. -1.
          6    1    1    2  501    0 -0.69959314507E+02  0.19083060158E+02  0.52627831597E+03  0.55840069371E+03  0.17200000000E+03 0.  1.
         -6    1    1    2    0  502  0.69959314507E+02 -0.19083060158E+02  0.73557298132E+03  0.75888739594E+03  0.17200000000E+03 0.  1.
</event>
<event>
 4    1  0.1211980E+000  0.1772362E+03  0.7818608E-02  0.1170505E+00
         21   -1    0    0  503  502  0.00000000000E+00  0.00000000000E+00  0.52540747251E+03  0.52540747251E+03  0.00000000000E+00 0. -1.
         21   -1    0    0  501  503 -0.00000000000E+00 -0.00000000000E+00 -0.10060124887E+03  0.10060124887E+03  0.00000000000E+00 0. -1.
          6    1    1    2  501    0 -0.34085585438E+02 -0.25823496985E+02  0.13036167606E+02  0.17771500161E+03  0.17200000000E+03 0.  1.
         -6    1    1    2    0  502  0.34085585438E+02  0.25823496985E+02  0.41177005604E+03  0.44829371976E+03  0.17200000000E+03 0.  1.
</event>
<event>
 4    1  0.1211980E+000  0.1839341E+03  0.7818608E-02  0.1164049E+00
         21   -1    0    0  503  502  0.00000000000E+00  0.00000000000E+00  0.81578303802E+03  0.81578303802E+03  0.00000000000E+00 0.  1.
         21   -1    0    0  501  503 -0.00000000000E+00 -0.00000000000E+00 -0.56028135376E+02  0.56028135376E+02  0.00000000000E+00 0.  1.
          6    1    1    2  501    0  0.45104899290E+02 -0.47045778166E+02  0.15768993590E+03  0.24227643936E+03  0.17200000000E+03 0.  1.
         -6    1    1    2    0  502 -0.45104899290E+02  0.47045778166E+02  0.60206496674E+03  0.62953473403E+03  0.17200000000E+03 0.  1.
</event>
<event>
 4    1  0.1211980E+000  0.1924480E+03  0.7818608E-02  0.1156272E+00
         21   -1    0    0  503  502  0.00000000000E+00  0.00000000000E+00  0.59343973047E+03  0.59343973047E+03  0.00000000000E+00 0.  1.
         21   -1    0    0  501  503 -0.00000000000E+00 -0.00000000000E+00 -0.44666089108E+03  0.44666089108E+03  0.00000000000E+00 0.  1.
          6    1    1    2  501    0 -0.52618811029E+02  0.68435931016E+02 -0.40896268568E+03  0.45198085602E+03  0.17200000000E+03 0.  1.
         -6    1    1    2    0  502  0.52618811029E+02 -0.68435931016E+02  0.55574152507E+03  0.58811976554E+03  0.17200000000E+03 0.  1.
</event>
<event>
 4    1  0.1211980E+000  0.2150798E+03  0.7818608E-02  0.1137605E+00
         21   -1    0    0  501  502  0.00000000000E+00  0.00000000000E+00  0.36492555120E+03  0.36492555120E+03  0.00000000000E+00 0.  1.
         21   -1    0    0  502  503 -0.00000000000E+00 -0.00000000000E+00 -0.14723261389E+03  0.14723261389E+03  0.00000000000E+00 0. -1.
          6    1    1    2  501    0  0.11267976839E+03  0.63076091861E+02  0.20432795896E+03  0.29666351037E+03  0.17200000000E+03 0.  1.
         -6    1    1    2    0  503 -0.11267976839E+03 -0.63076091861E+02  0.13364978354E+02  0.21549465473E+03  0.17200000000E+03 0.  1.
</event>
<event>
 4    1  0.1211980E+000  0.1730233E+03  0.7818608E-02  0.1174731E+00
         21   -1    0    0  501  502  0.00000000000E+00  0.00000000000E+00  0.47332844284E+03  0.47332844284E+03  0.00000000000E+00 0. -1.
         21   -1    0    0  502  503 -0.00000000000E+00 -0.00000000000E+00 -0.81734998592E+02  0.81734998592E+02  0.00000000000E+00 0. -1.
          6    1    1    2  501    0  0.13608430530E+02  0.12955971663E+02  0.32778718936E+03  0.37065008848E+03  0.17200000000E+03 0.  1.
         -6    1    1    2    0  503 -0.13608430530E+02 -0.12955971663E+02  0.63806254887E+02  0.18441335295E+03  0.17200000000E+03 0.  1.
</event>
<event>
 4    1  0.1211980E+000  0.2374867E+03  0.7818608E-02  0.1121479E+00
         21   -1    0    0  501  502  0.00000000000E+00  0.00000000000E+00  0.50317699846E+03  0.50317699846E+03  0.00000000000E+00 0.  1.
         21   -1    0    0  502  503 -0.00000000000E+00 -0.00000000000E+00 -0.11231067439E+03  0.11231067439E+03  0.00000000000E+00 0.  1.
          6    1    1    2  501    0 -0.38708506202E+02 -0.15911501905E+03  0.18172008819E+03  0.29903532933E+03  0.17200000000E+03 0.  1.
         -6    1    1    2    0  503  0.38708506202E+02  0.15911501905E+03  0.20914623588E+03  0.31645234352E+03  0.17200000000E+03 0.  1.
</event>
<event>
 4    1  0.1211980E+000  0.1829032E+03  0.7818608E-02  0.1165023E+00
         21   -1    0    0  503  502  0.00000000000E+00  0.00000000000E+00  0.31111502511E+03  0.31111502511E+03  0.00000000000E+00 0. -1.
         21   -1    0    0  501  503 -0.00000000000E+00 -0.00000000000E+00 -0.10925864335E+03  0.10925864335E+03  0.00000000000E+00 0. -1.
          6    1    1    2  501    0 -0.50860584893E+02  0.35816094988E+02  0.74475173876E+02  0.19748453934E+03  0.17200000000E+03 0.  1.
         -6    1    1    2    0  502  0.50860584893E+02 -0.35816094988E+02  0.12738120789E+03  0.22288912912E+03  0.17200000000E+03 0.  1.
</event>
<event>
 4    1  0.1211980E+000  0.1963388E+03  0.7818608E-02  0.1152865E+00
         21   -1    0    0  503  502  0.00000000000E+00  0.00000000000E+00  0.34810186551E+03  0.34810186551E+03  0.00000000000E+00 0. -1.
         21   -1    0    0  501  503 -0.00000000000E+00 -0.00000000000E+00 -0.12371059652E+03  0.12371059652E+03  0.00000000000E+00 0.  1.
          6    1    1    2  501    0 -0.33329882988E+02 -0.88623099866E+02  0.35810389611E+02  0.19957785181E+03  0.17200000000E+03 0.  1.
         -6    1    1    2    0  502  0.33329882988E+02  0.88623099866E+02  0.18858087938E+03  0.27223461021E+03  0.17200000000E+03 0. -1.
</event>
<event>
 4    1  0.1211980E+000  0.1956570E+03  0.7818608E-02  0.1153456E+00
         21   -1    0    0  503  502  0.00000000000E+00  0.00000000000E+00  0.16828950576E+04  0.16828950576E+04  0.00000000000E+00 0.  1.
         21   -1    0    0  501  503 -0.00000000000E+00 -0.00000000000E+00 -0.33839549846E+02  0.33839549846E+02  0.00000000000E+00 0.  1.
          6    1    1    2  501    0  0.85745522215E+02 -0.36679190886E+02  0.33309199154E+03  0.38630549110E+03  0.17200000000E+03 0. -1.
         -6    1    1    2    0  502 -0.85745522215E+02  0.36679190886E+02  0.13159635163E+04  0.13304291164E+04  0.17200000000E+03 0. -1.
</event>
<event>
 4    1  0.1211980E+000  0.1874698E+03  0.7818608E-02  0.1160763E+00
         21   -1    0    0  503  502  0.00000000000E+00  0.00000000000E+00  0.16134340907E+04  0.16134340907E+04  0.00000000000E+00 0.  1.
         21   -1    0    0  501  503 -0.00000000000E+00 -0.00000000000E+00 -0.22324662160E+02  0.22324662160E+02  0.00000000000E+00 0.  1.
          6    1    1    2  501    0 -0.66233879610E+02 -0.34263621912E+02  0.66811984193E+03  0.69392293937E+03  0.17200000000E+03 0.  1.
         -6    1    1    2    0  502  0.66233879610E+02  0.34263621912E+02  0.92298958662E+03  0.94183581350E+03  0.17200000000E+03 0.  1.
</event>
<event>
 4    1  0.1211980E+000  0.1832006E+03  0.7818608E-02  0.1164741E+00
         21   -1    0    0  501  502  0.00000000000E+00  0.00000000000E+00  0.59820382407E+03  0.59820382407E+03  0.00000000000E+00 0.  1.
         21   -1    0    0  502  503 -0.00000000000E+00 -0.00000000000E+00 -0.61642446278E+02  0.61642446278E+02  0.00000000000E+00 0.  1.
          6    1    1    2  501    0 -0.62885573975E+02  0.48839799699E+01  0.36716171711E+03  0.41032934965E+03  0.17200000000E+03 0.  1.
         -6    1    1    2    0  503  0.62885573975E+02 -0.48839799699E+01  0.16939966068E+03  0.24951692070E+03  0.17200000000E+03 0.  1.
</event>
<event>
 4    1  0.1211980E+000  0.2676377E+03  0.7818608E-02  0.1102639E+00
         21   -1    0    0  501  502  0.00000000000E+00  0.00000000000E+00  0.14400199652E+03  0.14400199652E+03  0.00000000000E+00 0.  1.
         21   -1    0    0  502  503 -0.00000000000E+00 -0.00000000000E+00 -0.64490293630E+03  0.64490293630E+03  0.00000000000E+00 0. -1.
          6    1    1    2  501    0 -0.20501659397E+03  0.37615140593E+01 -0.61819289712E+02  0.27468450516E+03  0.17200000000E+03 0.  1.
         -6    1    1    2    0  503  0.20501659397E+03 -0.37615140593E+01 -0.43908165007E+03  0.51422042766E+03  0.17200000000E+03 0. -1.
</event>
<event>
 4    1  0.1211980E+000  0.1927250E+03  0.7818608E-02  0.1156026E+00
         21   -1    0    0  501  502  0.00000000000E+00  0.00000000000E+00  0.10720058377E+03  0.10720058377E+03  0.00000000000E+00 0.  1.
         21   -1    0    0  502  503 -0.00000000000E+00 -0.00000000000E+00 -0.47741720305E+03  0.47741720305E+03  0.00000000000E+00 0.  1.
          6    1    1    2  501    0  0.75150965925E+02 -0.43717784119E+02 -0.32026463788E+02  0.19536787533E+03  0.17200000000E+03 0.  1.
         -6    1    1    2    0  503 -0.75150965925E+02  0.43717784119E+02 -0.33819015549E+03  0.38924991150E+03  0.17200000000E+03 0.  1.
</event>
<event>
 4    1  0.1211980E+000  0.1842599E+03  0.7818608E-02  0.1163743E+00
         21   -1    0    0  503  502  0.00000000000E+00  0.00000000000E+00  0.40158586172E+03  0.40158586172E+03  0.00000000000E+00 0.  1.
         21   -1    0    0  501  503 -0.00000000000E+00 -0.00000000000E+00 -0.88753249526E+02  0.88753249526E+02  0.00000000000E+00 0.  1.
          6    1    1    2  501    0 -0.59616567855E+02 -0.28523448492E+02  0.20980762915E+03  0.27923281241E+03  0.17200000000E+03 0.  1.
         -6    1    1    2    0  502  0.59616567855E+02  0.28523448492E+02  0.10302498304E+03  0.21110629884E+03  0.17200000000E+03 0.  1.
</event>
<event>
 4    1  0.1211980E+000  0.1820501E+03  0.7818608E-02  0.1165834E+00
         21   -1    0    0  501  502  0.00000000000E+00  0.00000000000E+00  0.47071845254E+03  0.47071845254E+03  0.00000000000E+00 0. -1.
         21   -1    0    0  502  503 -0.00000000000E+00 -0.00000000000E+00 -0.74884296434E+02  0.74884296434E+02  0.00000000000E+00 0.  1.
          6    1    1    2  501    0  0.58652377872E+02 -0.10869118119E+02  0.26461641002E+03  0.32119166180E+03  0.17200000000E+03 0.  1.
         -6    1    1    2    0  503 -0.58652377872E+02  0.10869118119E+02  0.13121774609E+03  0.22441108717E+03  0.17200000000E+03 0.  1.
</event>
<event>
 4    1  0.1211980E+000  0.2091464E+03  0.7818608E-02  0.1142244E+00
         21   -1    0    0  503  502  0.00000000000E+00  0.00000000000E+00  0.43449222742E+02  0.43449222742E+02  0.00000000000E+00 0. -1.
         21   -1    0    0  501  503 -0.00000000000E+00 -0.00000000000E+00 -0.10710469810E+04  0.10710469810E+04  0.00000000000E+00 0. -1.
          6    1    1    2  501    0 -0.11736646472E+03  0.19579065738E+02 -0.65033930280E+03  0.68314232457E+03  0.17200000000E+03 0. -1.
         -6    1    1    2    0  502  0.11736646472E+03 -0.19579065738E+02 -0.37725845543E+03  0.43135387914E+03  0.17200000000E+03 0. -1.
</event>
<event>
 4    1  0.1211980E+000  0.3108678E+03  0.7818608E-02  0.1079931E+00
         21   -1    0    0  501  502  0.00000000000E+00  0.00000000000E+00  0.84612815204E+02  0.84612815204E+02  0.00000000000E+00 0.  1.
         21   -1    0    0  502  503 -0.00000000000E+00 -0.00000000000E+00 -0.20093630601E+04  0.20093630601E+04  0.00000000000E+00 0. -1.
          6    1    1    2  501    0 -0.25834359496E+03  0.17703185107E+02 -0.27454619033E+03  0.41474621933E+03  0.17200000000E+03 0.  1.
         -6    1    1    2    0  503  0.25834359496E+03 -0.17703185107E+02 -0.16502040546E+04  0.16792296560E+04  0.17200000000E+03 0. -1.
</event>
<event>
 4    1  0.1211980E+000  0.2817573E+03  0.7818608E-02  0.1094733E+00
         21   -1    0    0  503  502  0.00000000000E+00  0.00000000000E+00  0.18081966129E+03  0.18081966129E+03  0.00000000000E+00 0.  1.
         21   -1    0    0  501  503 -0.00000000000E+00 -0.00000000000E+00 -0.78298017218E+03  0.78298017218E+03  0.00000000000E+00 0. -1.
          6    1    1    2  501    0 -0.10476578427E+03 -0.19704649024E+03 -0.62047111677E+03  0.68144816063E+03  0.17200000000E+03 0. -1.
         -6    1    1    2    0  502  0.10476578427E+03  0.19704649024E+03  0.18310605882E+02  0.28235167284E+03  0.17200000000E+03 0.  1.
</event>
<event>
 4    1  0.1211980E+000  0.1862113E+03  0.7818608E-02  0.1161924E+00
         21   -1    0    0  501  502  0.00000000000E+00  0.00000000000E+00  0.11308726670E+04  0.11308726670E+04  0.00000000000E+00 0. -1.
         21   -1    0    0  502  503 -0.00000000000E+00 -0.00000000000E+00 -0.33236573181E+02  0.33236573181E+02  0.00000000000E+00 0. -1.
          6    1    1    2  501    0 -0.70204772680E+02  0.12726055984E+02  0.71081983540E+03  0.73480575733E+03  0.17200000000E+03 0.  1.
         -6    1    1    2    0  503  0.70204772680E+02 -0.12726055984E+02  0.38681625839E+03  0.42930348282E+03  0.17200000000E+03 0.  1.
</event>
<event>
 4    1  0.1211980E+000  0.1848875E+03  0.7818608E-02  0.1163155E+00
         21   -1    0    0  503  502  0.00000000000E+00  0.00000000000E+00  0.57294804439E+03  0.57294804439E+03  0.00000000000E+00 0.  1.
         21   -1    0    0  501  503 -0.00000000000E+00 -0.00000000000E+00 -0.90416552373E+02  0.90416552373E+02  0.00000000000E+00 0.  1.
          6    1    1    2  501    0 -0.50892008069E+02 -0.44826213212E+02  0.47823618353E+02  0.19097247013E+03  0.17200000000E+03 0.  1.
         -6    1    1    2    0  502  0.50892008069E+02  0.44826213212E+02  0.43470787366E+03  0.47239212663E+03  0.17200000000E+03 0.  1.
</event>
<event>
 4    1  0.1211980E+000  0.1890355E+03  0.7818608E-02  0.1159334E+00
         21   -1    0    0  503  502  0.00000000000E+00  0.00000000000E+00  0.30239106752E+03  0.30239106752E+03  0.00000000000E+00 0.  1.
         21   -1    0    0  501  503 -0.00000000000E+00 -0.00000000000E+00 -0.22966412118E+03  0.22966412118E+03  0.00000000000E+00 0.  1.
          6    1    1    2  501    0 -0.61640246388E+02  0.48486268195E+02 -0.14898985557E+03  0.24069153546E+03  0.17200000000E+03 0.  1.
         -6    1    1    2    0  502  0.61640246388E+02 -0.48486268195E+02  0.22171680191E+03  0.29136365324E+03  0.17200000000E+03 0.  1.
</event>
<event>
 4    1  0.1211980E+000  0.2855163E+03  0.7818608E-02  0.1092714E+00
         21   -1    0    0  501  502  0.00000000000E+00  0.00000000000E+00  0.88738659292E+02  0.88738659292E+02  0.00000000000E+00 0. -1.
         21   -1    0    0  502  503 -0.00000000000E+00 -0.00000000000E+00 -0.95780769546E+03  0.95780769546E+03  0.00000000000E+00 0.  1.
          6    1    1    2  501    0  0.13089933605E+03  0.18655000012E+03 -0.32872803304E+03  0.43540975923E+03  0.17200000000E+03 0. -1.
         -6    1    1    2    0  503 -0.13089933605E+03 -0.18655000012E+03 -0.54034100312E+03  0.61113659552E+03  0.17200000000E+03 0.  1.
</event>
<event>
 4    1  0.1211980E+000  0.2562249E+03  0.7818608E-02  0.1109433E+00
         21   -1    0    0  503  502  0.00000000000E+00  0.00000000000E+00  0.91447258431E+03  0.91447258431E+03  0.00000000000E+00 0. -1.
         21   -1    0    0  501  503 -0.00000000000E+00 -0.00000000000E+00 -0.97791317858E+02  0.97791317858E+02  0.00000000000E+00 0.  1.
          6    1    1    2  501    0  0.29004703365E+02  0.18768577596E+03  0.14736498040E+03  0.29558021037E+03  0.17200000000E+03 0.  1.
         -6    1    1    2    0  502 -0.29004703365E+02 -0.18768577596E+03  0.66931628605E+03  0.71668369179E+03  0.17200000000E+03 0. -1.
</event>
<event>
 4    1  0.1211980E+000  0.1988081E+03  0.7818608E-02  0.1150749E+00
         21   -1    0    0  501  502  0.00000000000E+00  0.00000000000E+00  0.24099530370E+03  0.24099530370E+03  0.00000000000E+00 0. -1.
         21   -1    0    0  502  503 -0.00000000000E+00 -0.00000000000E+00 -0.18743768016E+03  0.18743768016E+03  0.00000000000E+00 0. -1.
          6    1    1    2  501    0 -0.97351428040E+02  0.21525397618E+02  0.10251918091E+03  0.22368465692E+03  0.17200000000E+03 0. -1.
         -6    1    1    2    0  503  0.97351428040E+02 -0.21525397618E+02 -0.48961557378E+02  0.20474832694E+03  0.17200000000E+03 0. -1.
</event>
<event>
 4    1  0.1211980E+000  0.2645173E+03  0.7818608E-02  0.1104459E+00
         21   -1    0    0  503  502  0.00000000000E+00  0.00000000000E+00  0.10051268684E+04  0.10051268684E+04  0.00000000000E+00 0. -1.
         21   -1    0    0  501  503 -0.00000000000E+00 -0.00000000000E+00 -0.91912070638E+02  0.91912070638E+02  0.00000000000E+00 0.  1.
          6    1    1    2  501    0 -0.19897738836E+03  0.28167558631E+02  0.18642699573E+03  0.32361155290E+03  0.17200000000E+03 0.  1.
         -6    1    1    2    0  502  0.19897738836E+03 -0.28167558631E+02  0.72678780201E+03  0.77342738611E+03  0.17200000000E+03 0. -1.
</event>
<event>
 4    1  0.1211980E+000  0.1775648E+03  0.7818608E-02  0.1170181E+00
         21   -1    0    0  503  502  0.00000000000E+00  0.00000000000E+00  0.54324823218E+03  0.54324823218E+03  0.00000000000E+00 0.  1.
         21   -1    0    0  501  503 -0.00000000000E+00 -0.00000000000E+00 -0.75349948462E+02  0.75349948462E+02  0.00000000000E+00 0.  1.
          6    1    1    2  501    0 -0.41657519535E+02  0.14487709097E+02  0.85695462713E+02  0.19716225546E+03  0.17200000000E+03 0.  1.
         -6    1    1    2    0  502  0.41657519535E+02 -0.14487709097E+02  0.38220282100E+03  0.42143592518E+03  0.17200000000E+03 0.  1.
</event>
<event>
 4    1  0.1211980E+000  0.1957650E+03  0.7818608E-02  0.1153362E+00
         21   -1    0    0  503  502  0.00000000000E+00  0.00000000000E+00  0.62907850028E+03  0.62907850028E+03  0.00000000000E+00 0.  1.
         21   -1    0    0  501  503 -0.00000000000E+00 -0.00000000000E+00 -0.10029752022E+03  0.10029752022E+03  0.00000000000E+00 0. -1.
          6    1    1    2  501    0 -0.27148271907E+02 -0.89458908339E+02  0.35885066175E+02  0.19902678946E+03  0.17200000000E+03 0. -1.
         -6    1    1    2    0  502  0.27148271907E+02  0.89458908339E+02  0.49289591388E+03  0.53034923104E+03  0.17200000000E+03 0.  1.
</event>
<event>
 4    1  0.1211980E+000  0.2290918E+03  0.7818608E-02  0.1127281E+00
         21   -1    0    0  503  502  0.00000000000E+00  0.00000000000E+00  0.45445126003E+03  0.45445126003E+03  0.00000000000E+00 0.  1.
         21   -1    0    0  501  503 -0.00000000000E+00 -0.00000000000E+00 -0.27912947009E+03  0.27912947009E+03  0.00000000000E+00 0.  1.
          6    1    1    2  501    0 -0.14903234829E+03 -0.26237909857E+02 -0.19318204247E+03  0.29967043611E+03  0.17200000000E+03 0.  1.
         -6    1    1    2    0  502  0.14903234829E+03  0.26237909857E+02  0.36850383240E+03  0.43391029401E+03  0.17200000000E+03 0.  1.
</event>
<event>
 4    1  0.1211980E+000  0.1910786E+03  0.7818608E-02  0.1157492E+00
         21   -1    0    0  501  502  0.00000000000E+00  0.00000000000E+00  0.94999740338E+02  0.94999740338E+02  0.00000000000E+00 0. -1.
         21   -1    0    0  502  503 -0.00000000000E+00 -0.00000000000E+00 -0.84680333465E+03  0.84680333465E+03  0.00000000000E+00 0. -1.
          6    1    1    2  501    0 -0.12772348962E+02  0.82242950118E+02 -0.27898597351E+02  0.19310455064E+03  0.17200000000E+03 0.  1.
         -6    1    1    2    0  503  0.12772348962E+02 -0.82242950118E+02 -0.72390499696E+03  0.74869852435E+03  0.17200000000E+03 0.  1.
</event>
<event>
 4    1  0.1211980E+000  0.1793474E+03  0.7818608E-02  0.1168436E+00
         21   -1    0    0  503  502  0.00000000000E+00  0.00000000000E+00  0.28679215791E+03  0.28679215791E+03  0.00000000000E+00 0.  1.
         21   -1    0    0  501  503 -0.00000000000E+00 -0.00000000000E+00 -0.12973393869E+03  0.12973393869E+03  0.00000000000E+00 0.  1.
          6    1    1    2  501    0 -0.49518564777E+02  0.11375156575E+02  0.18691688518E+01  0.17935711928E+03  0.17200000000E+03 0.  1.
         -6    1    1    2    0  502  0.49518564777E+02 -0.11375156575E+02  0.15518905037E+03  0.23716897731E+03  0.17200000000E+03 0.  1.
</event>
<event>
 4    1  0.1211980E+000  0.2205660E+03  0.7818608E-02  0.1133462E+00
         21   -1    0    0  503  502  0.00000000000E+00  0.00000000000E+00  0.10655373036E+03  0.10655373036E+03  0.00000000000E+00 0. -1.
         21   -1    0    0  501  503 -0.00000000000E+00 -0.00000000000E+00 -0.53055299407E+03  0.53055299407E+03  0.00000000000E+00 0. -1.
          6    1    1    2  501    0  0.41181126043E+02  0.13179325734E+03 -0.33095408319E+03  0.39771843432E+03  0.17200000000E+03 0.  1.
         -6    1    1    2    0  502 -0.41181126043E+02 -0.13179325734E+03 -0.93045180521E+02  0.23938829011E+03  0.17200000000E+03 0.  1.
</event>
<event>
 4    1  0.1211980E+000  0.2011109E+03  0.7818608E-02  0.1148805E+00
         21   -1    0    0  501  502  0.00000000000E+00  0.00000000000E+00  0.17790784946E+03  0.17790784946E+03  0.00000000000E+00 0.  1.
         21   -1    0    0  502  503 -0.00000000000E+00 -0.00000000000E+00 -0.76231972344E+03  0.76231972344E+03  0.00000000000E+00 0. -1.
          6    1    1    2  501    0 -0.49379255704E+02 -0.91778417389E+02  0.10161883334E+03  0.22532637680E+03  0.17200000000E+03 0.  1.
         -6    1    1    2    0  503  0.49379255704E+02  0.91778417389E+02 -0.68603070733E+03  0.71490119610E+03  0.17200000000E+03 0. -1.
</event>
<event>
 4    1  0.1211980E+000  0.1950092E+03  0.7818608E-02  0.1154019E+00
         21   -1    0    0  501  502  0.00000000000E+00  0.00000000000E+00  0.17824222902E+03  0.17824222902E+03  0.00000000000E+00 0. -1.
         21   -1    0    0  502  503 -0.00000000000E+00 -0.00000000000E+00 -0.23290014589E+03  0.23290014589E+03  0.00000000000E+00 0. -1.
          6    1    1    2  501    0 -0.91567478936E+02  0.77444343602E+01 -0.86883512822E+02  0.21348846400E+03  0.17200000000E+03 0. -1.
         -6    1    1    2    0  503  0.91567478936E+02 -0.77444343602E+01  0.32225595945E+02  0.19765391091E+03  0.17200000000E+03 0. -1.
</event>
<event>
 4    1  0.1211980E+000  0.1979371E+03  0.7818608E-02  0.1151491E+00
         21   -1    0    0  503  502  0.00000000000E+00  0.00000000000E+00  0.60031080042E+03  0.60031080042E+03  0.00000000000E+00 0. -1.
         21   -1    0    0  501  503 -0.00000000000E+00 -0.00000000000E+00 -0.99807246728E+02  0.99807246728E+02  0.00000000000E+00 0. -1.
          6    1    1    2  501    0 -0.97705277160E+02 -0.69838904841E+01  0.44313296313E+02  0.20283679188E+03  0.17200000000E+03 0. -1.
         -6    1    1    2    0  502  0.97705277160E+02  0.69838904841E+01  0.45619025738E+03  0.49728125527E+03  0.17200000000E+03 0. -1.
</event>
<event>
 4    1  0.1211980E+000  0.2020593E+03  0.7818608E-02  0.1148013E+00
         21   -1    0    0  503  502  0.00000000000E+00  0.00000000000E+00  0.97533172723E+02  0.97533172723E+02  0.00000000000E+00 0. -1.
         21   -1    0    0  501  503 -0.00000000000E+00 -0.00000000000E+00 -0.48467835940E+03  0.48467835940E+03  0.00000000000E+00 0. -1.
          6    1    1    2  501    0 -0.63673366568E+02  0.84791984099E+02 -0.30105408107E+03  0.36257625116E+03  0.17200000000E+03 0.  1.
         -6    1    1    2    0  502  0.63673366568E+02 -0.84791984099E+02 -0.86091105603E+02  0.21963528096E+03  0.17200000000E+03 0.  1.
</event>
<event>
 4    1  0.1211980E+000  0.2051977E+03  0.7818608E-02  0.1145426E+00
         21   -1    0    0  503  502  0.00000000000E+00  0.00000000000E+00  0.53168520651E+02  0.53168520651E+02  0.00000000000E+00 0.  1.
         21   -1    0    0  501  503 -0.00000000000E+00 -0.00000000000E+00 -0.79449990641E+03  0.79449990641E+03  0.00000000000E+00 0.  1.
          6    1    1    2  501    0  0.19568823575E+02  0.11017790068E+03 -0.39473876577E+03  0.44488740357E+03  0.17200000000E+03 0.  1.
         -6    1    1    2    0  502 -0.19568823575E+02 -0.11017790068E+03 -0.34659261999E+03  0.40278102349E+03  0.17200000000E+03 0.  1.
</event>
<event>
 4    1  0.1211980E+000  0.3125825E+03  0.7818608E-02  0.1079115E+00
         21   -1    0    0  503  502  0.00000000000E+00  0.00000000000E+00  0.59958017157E+03  0.59958017157E+03  0.00000000000E+00 0.  1.
         21   -1    0    0  501  503 -0.00000000000E+00 -0.00000000000E+00 -0.18688988171E+03  0.18688988171E+03  0.00000000000E+00 0. -1.
          6    1    1    2  501    0 -0.25902048909E+03  0.32127886449E+02  0.65634778596E+02  0.31939902789E+03  0.17200000000E+03 0.  1.
         -6    1    1    2    0  502  0.25902048909E+03 -0.32127886449E+02  0.34705551126E+03  0.46707102538E+03  0.17200000000E+03 0.  1.
</event>
<event>
 4    1  0.1211980E+000  0.2049154E+03  0.7818608E-02  0.1145657E+00
         21   -1    0    0  501  502  0.00000000000E+00  0.00000000000E+00  0.21494742856E+03  0.21494742856E+03  0.00000000000E+00 0. -1.
         21   -1    0    0  502  503 -0.00000000000E+00 -0.00000000000E+00 -0.20717948666E+04  0.20717948666E+04  0.00000000000E+00 0. -1.
          6    1    1    2  501    0  0.57140952556E+02  0.95609872516E+02  0.15970823785E+03  0.25980195807E+03  0.17200000000E+03 0. -1.
         -6    1    1    2    0  503 -0.57140952556E+02 -0.95609872516E+02 -0.20165556759E+04  0.20269403371E+04  0.17200000000E+03 0. -1.
</event>
<event>
 4    1  0.1211980E+000  0.1953311E+03  0.7818608E-02  0.1153739E+00
         21   -1    0    0  501  502  0.00000000000E+00  0.00000000000E+00  0.65747881058E+02  0.65747881058E+02  0.00000000000E+00 0. -1.
         21   -1    0    0  502  503 -0.00000000000E+00 -0.00000000000E+00 -0.82808782310E+03  0.82808782310E+03  0.00000000000E+00 0. -1.
          6    1    1    2  501    0  0.25529373965E+02 -0.88985853222E+02 -0.13670328886E+03  0.23841564587E+03  0.17200000000E+03 0. -1.
         -6    1    1    2    0  503 -0.25529373965E+02  0.88985853222E+02 -0.62563665318E+03  0.65542005829E+03  0.17200000000E+03 0. -1.
</event>
<event>
 4    1  0.1211980E+000  0.2071860E+03  0.7818608E-02  0.1143814E+00
         21   -1    0    0  501  502  0.00000000000E+00  0.00000000000E+00  0.34983141380E+02  0.34983141380E+02  0.00000000000E+00 0. -1.
         21   -1    0    0  502  503 -0.00000000000E+00 -0.00000000000E+00 -0.12344433311E+04  0.12344433311E+04  0.00000000000E+00 0. -1.
          6    1    1    2  501    0 -0.23032495389E+02 -0.11318812606E+03 -0.64885202314E+03  0.68112773813E+03  0.17200000000E+03 0. -1.
         -6    1    1    2    0  503  0.23032495389E+02  0.11318812606E+03 -0.55060816654E+03  0.58829873430E+03  0.17200000000E+03 0. -1.
</event>
<event>
 4    1  0.1211980E+000  0.1765427E+03  0.7818608E-02  0.1171192E+00
         21   -1    0    0  503  502  0.00000000000E+00  0.00000000000E+00  0.95331739254E+03  0.95331739254E+03  0.00000000000E+00 0. -1.
         21   -1    0    0  501  503 -0.00000000000E+00 -0.00000000000E+00 -0.37517276361E+02  0.37517276361E+02  0.00000000000E+00 0. -1.
          6    1    1    2  501    0  0.24244760546E+02 -0.31552021441E+02  0.63554239229E+03  0.65960705793E+03  0.17200000000E+03 0. -1.
         -6    1    1    2    0  502 -0.24244760546E+02  0.31552021441E+02  0.28025772389E+03  0.33122761097E+03  0.17200000000E+03 0. -1.
</event>
<event>
 4    1  0.1211980E+000  0.1914066E+03  0.7818608E-02  0.1157199E+00
         21   -1    0    0  503  502  0.00000000000E+00  0.00000000000E+00  0.17245570500E+03  0.17245570500E+03  0.00000000000E+00 0.  1.
         21   -1    0    0  501  503 -0.00000000000E+00 -0.00000000000E+00 -0.35400697680E+03  0.35400697680E+03  0.00000000000E+00 0.  1.
          6    1    1    2  501    0 -0.57452864523E+02  0.61250766486E+02 -0.25723670574E+03  0.32063563560E+03  0.17200000000E+03 0.  1.
         -6    1    1    2    0  502  0.57452864523E+02 -0.61250766486E+02  0.75685433945E+02  0.20582704620E+03  0.17200000000E+03 0.  1.
</event>
<event>
 4    1  0.1211980E+000  0.2153359E+03  0.7818608E-02  0.1137409E+00
         21   -1    0    0  503  502  0.00000000000E+00  0.00000000000E+00  0.75976316230E+03  0.75976316230E+03  0.00000000000E+00 0. -1.
         21   -1    0    0  501  503 -0.00000000000E+00 -0.00000000000E+00 -0.62056420955E+02  0.62056420955E+02  0.00000000000E+00 0.  1.
          6    1    1    2  501    0  0.78757066215E+02  0.10287311967E+03  0.29604787410E+03  0.36607908707E+03  0.17200000000E+03 0.  1.
         -6    1    1    2    0  502 -0.78757066215E+02 -0.10287311967E+03  0.40165886724E+03  0.45574049618E+03  0.17200000000E+03 0. -1.
</event>
<event>
 4    1  0.1211980E+000  0.1723901E+03  0.7818608E-02  0.1175378E+00
         21   -1    0    0  501  502  0.00000000000E+00  0.00000000000E+00  0.96979306136E+02  0.96979306136E+02  0.00000000000E+00 0.  1.
         21   -1    0    0  502  503 -0.00000000000E+00 -0.00000000000E+00 -0.33174299685E+03  0.33174299685E+03  0.00000000000E+00 0.  1.
          6    1    1    2  501    0 -0.10896509017E+02  0.39510879288E+01 -0.58180631570E+02  0.18194320788E+03  0.17200000000E+03 0.  1.
         -6    1    1    2    0  503  0.10896509017E+02 -0.39510879288E+01 -0.17658305915E+03  0.24677909511E+03  0.17200000000E+03 0.  1.
</event>
<event>
 4    1  0.1211980E+000  0.1930537E+03  0.7818608E-02  0.1155736E+00
         21   -1    0    0  503  502  0.00000000000E+00  0.00000000000E+00  0.14901157468E+03  0.14901157468E+03  0.00000000000E+00 0. -1.
         21   -1    0    0  501  503 -0.00000000000E+00 -0.00000000000E+00 -0.25199423165E+03  0.25199423165E+03  0.00000000000E+00 0. -1.
          6    1    1    2  501    0 -0.13783641650E+02  0.86578057258E+02 -0.34167914208E+02  0.19605406177E+03  0.17200000000E+03 0. -1.
         -6    1    1    2    0  502  0.13783641650E+02 -0.86578057258E+02 -0.68814742760E+02  0.20495174456E+03  0.17200000000E+03 0. -1.
</event>
<event>
 4    1  0.1211980E+000  0.2261252E+03  0.7818608E-02  0.1129397E+00
         21   -1    0    0  503  502  0.00000000000E+00  0.00000000000E+00  0.12508402758E+03  0.12508402758E+03  0.00000000000E+00 0. -1.
         21   -1    0    0  501  503 -0.00000000000E+00 -0.00000000000E+00 -0.47223982601E+03  0.47223982601E+03  0.00000000000E+00 0. -1.
          6    1    1    2  501    0 -0.13430463832E+03 -0.59252533005E+02 -0.28305605805E+03  0.36228901521E+03  0.17200000000E+03 0. -1.
         -6    1    1    2    0  502  0.13430463832E+03  0.59252533005E+02 -0.64099740382E+02  0.23503483839E+03  0.17200000000E+03 0. -1.
</event>
<event>
 4    1  0.1211980E+000  0.2321702E+03  0.7818608E-02  0.1125122E+00
         21   -1    0    0  501  502  0.00000000000E+00  0.00000000000E+00  0.38032260787E+03  0.38032260787E+03  0.00000000000E+00 0.  1.
         21   -1    0    0  502  503 -0.00000000000E+00 -0.00000000000E+00 -0.14202141170E+03  0.14202141170E+03  0.00000000000E+00 0.  1.
          6    1    1    2  501    0  0.15378969800E+03  0.25840780735E+02  0.10731443617E+03  0.25577217474E+03  0.17200000000E+03 0.  1.
         -6    1    1    2    0  503 -0.15378969800E+03 -0.25840780735E+02  0.13098676000E+03  0.26657184483E+03  0.17200000000E+03 0.  1.
</event>
<event>
 4    1  0.1211980E+000  0.2620294E+03  0.7818608E-02  0.1105930E+00
         21   -1    0    0  503  502  0.00000000000E+00  0.00000000000E+00  0.13870810967E+03  0.13870810967E+03  0.00000000000E+00 0. -1.
         21   -1    0    0  501  503 -0.00000000000E+00 -0.00000000000E+00 -0.77103173169E+03  0.77103173169E+03  0.00000000000E+00 0. -1.
          6    1    1    2  501    0 -0.17039206061E+03  0.10020954217E+03 -0.58832969695E+03  0.64404288598E+03  0.17200000000E+03 0. -1.
         -6    1    1    2    0  502  0.17039206061E+03 -0.10020954217E+03 -0.43993925069E+02  0.26569695539E+03  0.17200000000E+03 0. -1.
</event>
<event>
 4    1  0.1211980E+000  0.2624629E+03  0.7818608E-02  0.1105672E+00
         21   -1    0    0  501  502  0.00000000000E+00  0.00000000000E+00  0.40502922283E+03  0.40502922283E+03  0.00000000000E+00 0. -1.
         21   -1    0    0  502  503 -0.00000000000E+00 -0.00000000000E+00 -0.47586007374E+03  0.47586007374E+03  0.00000000000E+00 0. -1.
          6    1    1    2  501    0  0.30694272855E+02 -0.19585865298E+03  0.31765178069E+03  0.41205509839E+03  0.17200000000E+03 0. -1.
         -6    1    1    2    0  503 -0.30694272855E+02  0.19585865298E+03 -0.38848263160E+03  0.46883419818E+03  0.17200000000E+03 0. -1.
</event>
<event>
 4    1  0.1211980E+000  0.1774687E+03  0.7818608E-02  0.1170276E+00
         21   -1    0    0  501  502  0.00000000000E+00  0.00000000000E+00  0.42339146107E+03  0.42339146107E+03  0.00000000000E+00 0.  1.
         21   -1    0    0  502  503 -0.00000000000E+00 -0.00000000000E+00 -0.10751290180E+03  0.10751290180E+03  0.00000000000E+00 0.  1.
          6    1    1    2  501    0  0.23266135714E+02 -0.37010965825E+02  0.30528419522E+03  0.35311975945E+03  0.17200000000E+03 0.  1.
         -6    1    1    2    0  503 -0.23266135714E+02  0.37010965825E+02  0.10594364051E+02  0.17778460342E+03  0.17200000000E+03 0.  1.
</event>
<event>
 4    1  0.1211980E+000  0.1821287E+03  0.7818608E-02  0.1165759E+00
         21   -1    0    0  501  502  0.00000000000E+00  0.00000000000E+00  0.27466556539E+03  0.27466556539E+03  0.00000000000E+00 0. -1.
         21   -1    0    0  502  503 -0.00000000000E+00 -0.00000000000E+00 -0.12357142143E+03  0.12357142143E+03  0.00000000000E+00 0. -1.
          6    1    1    2  501    0 -0.41085695852E+02 -0.43575574258E+02  0.10553742108E+03  0.21049706013E+03  0.17200000000E+03 0. -1.
         -6    1    1    2    0  503  0.41085695852E+02  0.43575574258E+02  0.45556722877E+02  0.18773992669E+03  0.17200000000E+03 0. -1.
</event>
<event>
 4    1  0.1211980E+000  0.2524013E+03  0.7818608E-02  0.1111797E+00
         21   -1    0    0  501  502  0.00000000000E+00  0.00000000000E+00  0.87652850315E+02  0.87652850315E+02  0.00000000000E+00 0.  1.
         21   -1    0    0  502  503 -0.00000000000E+00 -0.00000000000E+00 -0.72851123177E+03  0.72851123177E+03  0.00000000000E+00 0. -1.
          6    1    1    2  501    0  0.17032617661E+03 -0.71494227120E+02 -0.30067351201E+03  0.39256972855E+03  0.17200000000E+03 0.  1.
         -6    1    1    2    0  503 -0.17032617661E+03  0.71494227120E+02 -0.34018486945E+03  0.42359435354E+03  0.17200000000E+03 0. -1.
</event>
<event>
 4    1  0.1211980E+000  0.3084513E+03  0.7818608E-02  0.1081091E+00
         21   -1    0    0  503  502  0.00000000000E+00  0.00000000000E+00  0.13112480490E+03  0.13112480490E+03  0.00000000000E+00 0.  1.
         21   -1    0    0  501  503 -0.00000000000E+00 -0.00000000000E+00 -0.73446202958E+03  0.73446202958E+03  0.00000000000E+00 0. -1.
          6    1    1    2  501    0  0.21453505094E+03 -0.13976020262E+03 -0.34924898067E+03  0.46595820931E+03  0.17200000000E+03 0. -1.
         -6    1    1    2    0  502 -0.21453505094E+03  0.13976020262E+03 -0.25408824400E+03  0.39962862517E+03  0.17200000000E+03 0. -1.
</event>
<event>
 4    1  0.1211980E+000  0.2837489E+03  0.7818608E-02  0.1093659E+00
         21   -1    0    0  501  502  0.00000000000E+00  0.00000000000E+00  0.12405872917E+04  0.12405872917E+04  0.00000000000E+00 0. -1.
         21   -1    0    0  502  503 -0.00000000000E+00 -0.00000000000E+00 -0.70509577854E+02  0.70509577854E+02  0.00000000000E+00 0. -1.
          6    1    1    2  501    0 -0.10652329375E+03 -0.19895277463E+03  0.40012581124E+03  0.49052429447E+03  0.17200000000E+03 0. -1.
         -6    1    1    2    0  503  0.10652329375E+03  0.19895277463E+03  0.76995190258E+03  0.82057257506E+03  0.17200000000E+03 0. -1.
</event>
<event>
 4    1  0.1211980E+000  0.1725970E+03  0.7818608E-02  0.1175166E+00
         21   -1    0    0  501  502  0.00000000000E+00  0.00000000000E+00  0.13624033605E+03  0.13624033605E+03  0.00000000000E+00 0.  1.
         21   -1    0    0  502  503 -0.00000000000E+00 -0.00000000000E+00 -0.28926340681E+03  0.28926340681E+03  0.00000000000E+00 0.  1.
          6    1    1    2  501    0  0.23200363111E+01 -0.14154803367E+02  0.28600478222E+02  0.17495064556E+03  0.17200000000E+03 0.  1.
         -6    1    1    2    0  503 -0.23200363111E+01  0.14154803367E+02 -0.18162354898E+03  0.25055309731E+03  0.17200000000E+03 0.  1.
</event>
<event>
 4    1  0.1211980E+000  0.1743661E+03  0.7818608E-02  0.1173370E+00
         21   -1    0    0  503  502  0.00000000000E+00  0.00000000000E+00  0.10072194426E+03  0.10072194426E+03  0.00000000000E+00 0.  1.
         21   -1    0    0  501  503 -0.00000000000E+00 -0.00000000000E+00 -0.31221998785E+03  0.31221998785E+03  0.00000000000E+00 0.  1.
          6    1    1    2  501    0  0.23548450323E+02  0.16279427666E+02 -0.14336623881E+03  0.22573751950E+03  0.17200000000E+03 0. -1.
         -6    1    1    2    0  502 -0.23548450323E+02 -0.16279427666E+02 -0.68131804775E+02  0.18720441261E+03  0.17200000000E+03 0. -1.
</event>
<event>
 4    1  0.1211980E+000  0.1826501E+03  0.7818608E-02  0.1165263E+00
         21   -1    0    0  503  502  0.00000000000E+00  0.00000000000E+00  0.37007580642E+02  0.37007580642E+02  0.00000000000E+00 0. -1.
         21   -1    0    0  501  503 -0.00000000000E+00 -0.00000000000E+00 -0.10307464799E+04  0.10307464799E+04  0.00000000000E+00 0.  1.
          6    1    1    2  501    0 -0.50184522702E+02 -0.35476218100E+02 -0.68594397714E+03  0.70984518604E+03  0.17200000000E+03 0.  1.
         -6    1    1    2    0  502  0.50184522702E+02  0.35476218100E+02 -0.30779492216E+03  0.35790887455E+03  0.17200000000E+03 0. -1.
</event>
<event>
 4    1  0.1211980E+000  0.2223766E+03  0.7818608E-02  0.1132124E+00
         21   -1    0    0  503  502  0.00000000000E+00  0.00000000000E+00  0.14370004236E+03  0.14370004236E+03  0.00000000000E+00 0. -1.
         21   -1    0    0  501  503 -0.00000000000E+00 -0.00000000000E+00 -0.37592736051E+03  0.37592736051E+03  0.00000000000E+00 0. -1.
          6    1    1    2  501    0  0.44298687876E+01 -0.14088194159E+03 -0.40550037566E+02  0.22604347093E+03  0.17200000000E+03 0. -1.
         -6    1    1    2    0  502 -0.44298687876E+01  0.14088194159E+03 -0.19167728059E+03  0.29358393194E+03  0.17200000000E+03 0. -1.
</event>
<event>
 4    1  0.1211980E+000  0.2014715E+03  0.7818608E-02  0.1148503E+00
         21   -1    0    0  501  502  0.00000000000E+00  0.00000000000E+00  0.69495792610E+03  0.69495792610E+03  0.00000000000E+00 0.  1.
         21   -1    0    0  502  503 -0.00000000000E+00 -0.00000000000E+00 -0.58426713255E+02  0.58426713255E+02  0.00000000000E+00 0.  1.
          6    1    1    2  501    0 -0.97978523589E+02 -0.37509825824E+02  0.32509066438E+03  0.38245877972E+03  0.17200000000E+03 0. -1.
         -6    1    1    2    0  503  0.97978523589E+02  0.37509825824E+02  0.31144054847E+03  0.37092585964E+03  0.17200000000E+03 0. -1.
</event>
<event>
 4    1  0.1211980E+000  0.2613532E+03  0.7818608E-02  0.1106333E+00
         21   -1    0    0  503  502  0.00000000000E+00  0.00000000000E+00  0.30061159358E+03  0.30061159358E+03  0.00000000000E+00 0.  1.
         21   -1    0    0  501  503 -0.00000000000E+00 -0.00000000000E+00 -0.22728803787E+03  0.22728803787E+03  0.00000000000E+00 0. -1.
          6    1    1    2  501    0  0.11945373949E+03  0.15637224699E+03  0.41171333189E+02  0.26457617841E+03  0.17200000000E+03 0.  1.
         -6    1    1    2    0  502 -0.11945373949E+03 -0.15637224699E+03  0.32152222517E+02  0.26332345304E+03  0.17200000000E+03 0.  1.
</event>
<event>
 4    1  0.1211980E+000  0.2548889E+03  0.7818608E-02  0.1110254E+00
         21   -1    0    0  501  502  0.00000000000E+00  0.00000000000E+00  0.20198917379E+03  0.20198917379E+03  0.00000000000E+00 0.  1.
         21   -1    0    0  502  503 -0.00000000000E+00 -0.00000000000E+00 -0.45217232585E+03  0.45217232585E+03  0.00000000000E+00 0. -1.
          6    1    1    2  501    0  0.18558548371E+03  0.30698343588E+02  0.50643074943E+02  0.25987127795E+03  0.17200000000E+03 0.  1.
         -6    1    1    2    0  503 -0.18558548371E+03 -0.30698343588E+02 -0.30082622701E+03  0.39429022169E+03  0.17200000000E+03 0. -1.
</event>
<event>
 4    1  0.1211980E+000  0.2157199E+03  0.7818608E-02  0.1137115E+00
         21   -1    0    0  501  502  0.00000000000E+00  0.00000000000E+00  0.20288547842E+03  0.20288547842E+03  0.00000000000E+00 0. -1.
         21   -1    0    0  502  503 -0.00000000000E+00 -0.00000000000E+00 -0.23787174848E+03  0.23787174848E+03  0.00000000000E+00 0. -1.
          6    1    1    2  501    0 -0.10923354224E+03 -0.70845702287E+02  0.24179219188E+02  0.21707076017E+03  0.17200000000E+03 0. -1.
         -6    1    1    2    0  503  0.10923354224E+03  0.70845702287E+02 -0.59165489249E+02  0.22368646673E+03  0.17200000000E+03 0. -1.
</event>
<event>
 4    1  0.1211980E+000  0.2309908E+03  0.7818608E-02  0.1125944E+00
         21   -1    0    0  503  502  0.00000000000E+00  0.00000000000E+00  0.89205915805E+02  0.89205915805E+02  0.00000000000E+00 0.  1.
         21   -1    0    0  501  503 -0.00000000000E+00 -0.00000000000E+00 -0.16341565154E+04  0.16341565154E+04  0.00000000000E+00 0. -1.
          6    1    1    2  501    0  0.98191459236E+02  0.11887462058E+03 -0.14585718369E+04  0.14767493158E+04  0.17200000000E+03 0. -1.
         -6    1    1    2    0  502 -0.98191459236E+02 -0.11887462058E+03 -0.86378762699E+02  0.24661311549E+03  0.17200000000E+03 0.  1.
</event>
<event>
 4    1  0.1211980E+000  0.1727646E+03  0.7818608E-02  0.1174995E+00
         21   -1    0    0  503  502  0.00000000000E+00  0.00000000000E+00  0.10700764449E+04  0.10700764449E+04  0.00000000000E+00 0.  1.
         21   -1    0    0  501  503 -0.00000000000E+00 -0.00000000000E+00 -0.95704924802E+02  0.95704924802E+02  0.00000000000E+00 0.  1.
          6    1    1    2  501    0 -0.13988878911E+02  0.82415992977E+01 -0.34657007173E+01  0.17279937434E+03  0.17200000000E+03 0.  1.
         -6    1    1    2    0  502  0.13988878911E+02 -0.82415992977E+01  0.97783722079E+03  0.99298199533E+03  0.17200000000E+03 0.  1.
</event>
<event>
 4    1  0.1211980E+000  0.1892534E+03  0.7818608E-02  0.1159136E+00
         21   -1    0    0  503  502  0.00000000000E+00  0.00000000000E+00  0.10758683662E+04  0.10758683662E+04  0.00000000000E+00 0. -1.
         21   -1    0    0  501  503 -0.00000000000E+00 -0.00000000000E+00 -0.67515302322E+02  0.67515302322E+02  0.00000000000E+00 0. -1.
          6    1    1    2  501    0 -0.77636370321E+02 -0.14333816781E+02  0.97145601440E+02  0.21273018634E+03  0.17200000000E+03 0. -1.
         -6    1    1    2    0  502  0.77636370321E+02  0.14333816781E+02  0.91120746248E+03  0.93065348222E+03  0.17200000000E+03 0. -1.
</event>
<event>
 4    1  0.1211980E+000  0.2215935E+03  0.7818608E-02  0.1132701E+00
         21   -1    0    0  503  502  0.00000000000E+00  0.00000000000E+00  0.39971985288E+03  0.39971985288E+03  0.00000000000E+00 0. -1.
         21   -1    0    0  501  503 -0.00000000000E+00 -0.00000000000E+00 -0.17414326740E+03  0.17414326740E+03  0.00000000000E+00 0.  1.
          6    1    1    2  501    0 -0.51991287656E+02 -0.12967882527E+03  0.26851933753E+03  0.34814698956E+03  0.17200000000E+03 0. -1.
         -6    1    1    2    0  502  0.51991287656E+02  0.12967882527E+03 -0.42942752042E+02  0.22571613072E+03  0.17200000000E+03 0.  1.
</event>
<event>
 4    1  0.1211980E+000  0.1845746E+03  0.7818608E-02  0.1163448E+00
         21   -1    0    0  501  502  0.00000000000E+00  0.00000000000E+00  0.18395077699E+04  0.18395077699E+04  0.00000000000E+00 0. -1.
         21   -1    0    0  502  503 -0.00000000000E+00 -0.00000000000E+00 -0.29308759637E+02  0.29308759637E+02  0.00000000000E+00 0. -1.
          6    1    1    2  501    0  0.63096381770E+02 -0.22419070375E+02  0.14720208241E+04  0.14835474629E+04  0.17200000000E+03 0. -1.
         -6    1    1    2    0  503 -0.63096381770E+02  0.22419070375E+02  0.33817818619E+03  0.38526906666E+03  0.17200000000E+03 0. -1.
</event>
<event>
 4    1  0.1211980E+000  0.1787177E+03  0.7818608E-02  0.1169050E+00
         21   -1    0    0  501  502  0.00000000000E+00  0.00000000000E+00  0.16226511949E+04  0.16226511949E+04  0.00000000000E+00 0.  1.
         21   -1    0    0  502  503 -0.00000000000E+00 -0.00000000000E+00 -0.21152603124E+02  0.21152603124E+02  0.00000000000E+00 0.  1.
          6    1    1    2  501    0  0.30827012362E+02 -0.37492905052E+02  0.10173263711E+04  0.10329051108E+04  0.17200000000E+03 0. -1.
         -6    1    1    2    0  503 -0.30827012362E+02  0.37492905052E+02  0.58417222072E+03  0.61089868724E+03  0.17200000000E+03 0. -1.
</event>
<event>
 4    1  0.1211980E+000  0.1961029E+03  0.7818608E-02  0.1153069E+00
         21   -1    0    0  503  502  0.00000000000E+00  0.00000000000E+00  0.47793651990E+03  0.47793651990E+03  0.00000000000E+00 0.  1.
         21   -1    0    0  501  503 -0.00000000000E+00 -0.00000000000E+00 -0.92728171908E+02  0.92728171908E+02  0.00000000000E+00 0. -1.
          6    1    1    2  501    0  0.86488251696E+02 -0.37311322317E+02  0.88833040618E+02  0.21528507045E+03  0.17200000000E+03 0. -1.
         -6    1    1    2    0  502 -0.86488251696E+02  0.37311322317E+02  0.29637530738E+03  0.35537962136E+03  0.17200000000E+03 0.  1.
</event>
<event>
 4    1  0.1211980E+000  0.1779227E+03  0.7818608E-02  0.1169829E+00
         21   -1    0    0  503  502  0.00000000000E+00  0.00000000000E+00  0.37173361190E+03  0.37173361190E+03  0.00000000000E+00 0. -1.
         21   -1    0    0  501  503 -0.00000000000E+00 -0.00000000000E+00 -0.17140948271E+03  0.17140948271E+03  0.00000000000E+00 0. -1.
          6    1    1    2  501    0  0.44657561618E+02 -0.88417774619E+01 -0.92478405440E+02  0.20052114679E+03  0.17200000000E+03 0. -1.
         -6    1    1    2    0  502 -0.44657561618E+02  0.88417774619E+01  0.29280253463E+03  0.34262194781E+03  0.17200000000E+03 0. -1.
</event>
<event>
 4    1  0.1211980E+000  0.1744592E+03  0.7818608E-02  0.1173276E+00
         21   -1    0    0  501  502  0.00000000000E+00  0.00000000000E+00  0.11919822247E+03  0.11919822247E+03  0.00000000000E+00 0. -1.
         21   -1    0    0  502  503 -0.00000000000E+00 -0.00000000000E+00 -0.26816082991E+03  0.26816082991E+03  0.00000000000E+00 0. -1.
          6    1    1    2  501    0  0.32178990962E+01 -0.29011443154E+02 -0.32131442961E+02  0.17739348448E+03  0.17200000000E+03 0. -1.
         -6    1    1    2    0  503 -0.32178990962E+01  0.29011443154E+02 -0.11683116448E+03  0.20996556790E+03  0.17200000000E+03 0. -1.
</event>
<event>
 4    1  0.1211980E+000  0.2634536E+03  0.7818608E-02  0.1105086E+00
         21   -1    0    0  503  502  0.00000000000E+00  0.00000000000E+00  0.69429443862E+03  0.69429443862E+03  0.00000000000E+00 0. -1.
         21   -1    0    0  501  503 -0.00000000000E+00 -0.00000000000E+00 -0.21789458539E+03  0.21789458539E+03  0.00000000000E+00 0.  1.
          6    1    1    2  501    0  0.13508890250E+03  0.14688362546E+03 -0.97333613385E+02  0.28085876042E+03  0.17200000000E+03 0.  1.
         -6    1    1    2    0  502 -0.13508890250E+03 -0.14688362546E+03  0.57373346662E+03  0.63133026359E+03  0.17200000000E+03 0. -1.
</event>
<event>
 4    1  0.1211980E+000  0.2652455E+03  0.7818608E-02  0.1104032E+00
         21   -1    0    0  503  502  0.00000000000E+00  0.00000000000E+00  0.13219631238E+03  0.13219631238E+03  0.00000000000E+00 0. -1.
         21   -1    0    0  501  503 -0.00000000000E+00 -0.00000000000E+00 -0.17488029030E+04  0.17488029030E+04  0.00000000000E+00 0. -1.
          6    1    1    2  501    0  0.88578648553E+02  0.18145246561E+03 -0.15927477719E+04  0.16146828293E+04  0.17200000000E+03 0. -1.
         -6    1    1    2    0  502 -0.88578648553E+02 -0.18145246561E+03 -0.23858818662E+02  0.26631638606E+03  0.17200000000E+03 0. -1.
</event>
<event>
 4    1  0.1211980E+000  0.1852766E+03  0.7818608E-02  0.1162792E+00
         21   -1    0    0  503  502  0.00000000000E+00  0.00000000000E+00  0.49119083695E+03  0.49119083695E+03  0.00000000000E+00 0. -1.
         21   -1    0    0  501  503 -0.00000000000E+00 -0.00000000000E+00 -0.11258591919E+03  0.11258591919E+03  0.00000000000E+00 0. -1.
          6    1    1    2  501    0 -0.23614330978E+02  0.64697490907E+02  0.33861550671E+01  0.18530749581E+03  0.17200000000E+03 0. -1.
         -6    1    1    2    0  502  0.23614330978E+02 -0.64697490907E+02  0.37521876269E+03  0.41846926032E+03  0.17200000000E+03 0. -1.
</event>
<event>
 4    1  0.1211980E+000  0.1926335E+03  0.7818608E-02  0.1156107E+00
         21   -1    0    0  503  502  0.00000000000E+00  0.00000000000E+00  0.85203199464E+02  0.85203199464E+02  0.00000000000E+00 0.  1.
         21   -1    0    0  501  503 -0.00000000000E+00 -0.00000000000E+00 -0.11620248189E+04  0.11620248189E+04  0.00000000000E+00 0.  1.
          6    1    1    2  501    0 -0.86628215272E+02  0.43844280845E+01 -0.10315022955E+04  0.10493353403E+04  0.17200000000E+03 0.  1.
         -6    1    1    2    0  502  0.86628215272E+02 -0.43844280845E+01 -0.45319323946E+02  0.19789267802E+03  0.17200000000E+03 0.  1.
</event>
<event>
 4    1  0.1211980E+000  0.2287286E+03  0.7818608E-02  0.1127538E+00
         21   -1    0    0  501  502  0.00000000000E+00  0.00000000000E+00  0.14760925548E+04  0.14760925548E+04  0.00000000000E+00 0.  1.
         21   -1    0    0  502  503 -0.00000000000E+00 -0.00000000000E+00 -0.61004142128E+02  0.61004142128E+02  0.00000000000E+00 0. -1.
          6    1    1    2  501    0  0.38216395737E+02  0.14585018000E+03  0.12050336262E+04  0.12265491463E+04  0.17200000000E+03 0.  1.
         -6    1    1    2    0  503 -0.38216395737E+02 -0.14585018000E+03  0.21005478647E+03  0.31054755067E+03  0.17200000000E+03 0. -1.
</event>
<event>
 4    1  0.1211980E+000  0.2741754E+03  0.7818608E-02  0.1098913E+00
         21   -1    0    0  501  502  0.00000000000E+00  0.00000000000E+00  0.29668153090E+03  0.29668153090E+03  0.00000000000E+00 0.  1.
         21   -1    0    0  502  503 -0.00000000000E+00 -0.00000000000E+00 -0.54449921972E+03  0.54449921972E+03  0.00000000000E+00 0. -1.
          6    1    1    2  501    0  0.19714350457E+03 -0.81991441180E+02  0.18362907652E+03  0.32998756880E+03  0.17200000000E+03 0.  1.
         -6    1    1    2    0  503 -0.19714350457E+03  0.81991441180E+02 -0.43144676533E+03  0.51119318182E+03  0.17200000000E+03 0. -1.
</event>
<event>
 4    1  0.1211980E+000  0.2861706E+03  0.7818608E-02  0.1092366E+00
         21   -1    0    0  501  502  0.00000000000E+00  0.00000000000E+00  0.77076323250E+03  0.77076323250E+03  0.00000000000E+00 0.  1.
         21   -1    0    0  502  503 -0.00000000000E+00 -0.00000000000E+00 -0.18311741754E+03  0.18311741754E+03  0.00000000000E+00 0. -1.
          6    1    1    2  501    0 -0.87340415534E+02  0.21137939302E+03  0.60283135485E+03  0.66730745416E+03  0.17200000000E+03 0.  1.
         -6    1    1    2    0  503  0.87340415534E+02 -0.21137939302E+03 -0.15185539891E+02  0.28657319589E+03  0.17200000000E+03 0.  1.
</event>
<event>
 4    1  0.1211980E+000  0.2090071E+03  0.7818608E-02  0.1142355E+00
         21   -1    0    0  501  502  0.00000000000E+00  0.00000000000E+00  0.24542794285E+03  0.24542794285E+03  0.00000000000E+00 0.  1.
         21   -1    0    0  502  503 -0.00000000000E+00 -0.00000000000E+00 -0.22256214229E+03  0.22256214229E+03  0.00000000000E+00 0.  1.
          6    1    1    2  501    0 -0.43955899779E+02 -0.11030795963E+03  0.11614764793E+03  0.23911136151E+03  0.17200000000E+03 0.  1.
         -6    1    1    2    0  503  0.43955899779E+02  0.11030795963E+03 -0.93281847373E+02  0.22887872363E+03  0.17200000000E+03 0.  1.
</event>
<event>
 4    1  0.1211980E+000  0.1806555E+03  0.7818608E-02  0.1167170E+00
         21   -1    0    0  501  502  0.00000000000E+00  0.00000000000E+00  0.38628396684E+03  0.38628396684E+03  0.00000000000E+00 0.  1.
         21   -1    0    0  502  503 -0.00000000000E+00 -0.00000000000E+00 -0.33724055350E+03  0.33724055350E+03  0.00000000000E+00 0.  1.
          6    1    1    2  501    0  0.50882198310E+02  0.21526853189E+02  0.33770676939E+03  0.38299120826E+03  0.17200000000E+03 0.  1.
         -6    1    1    2    0  503 -0.50882198310E+02 -0.21526853189E+02 -0.28866335605E+03  0.34053331209E+03  0.17200000000E+03 0.  1.
</event>
<event>
 4    1  0.1211980E+000  0.2088895E+03  0.7818608E-02  0.1142448E+00
         21   -1    0    0  501  502  0.00000000000E+00  0.00000000000E+00  0.19398484679E+03  0.19398484679E+03  0.00000000000E+00 0. -1.
         21   -1    0    0  502  503 -0.00000000000E+00 -0.00000000000E+00 -0.23366510989E+03  0.23366510989E+03  0.00000000000E+00 0. -1.
          6    1    1    2  501    0 -0.21323784386E+02 -0.11660244925E+03 -0.61160282446E+02  0.21765894215E+03  0.17200000000E+03 0. -1.
         -6    1    1    2    0  503  0.21323784386E+02  0.11660244925E+03  0.21480019337E+02  0.20999101453E+03  0.17200000000E+03 0. -1.
</event>
<event>
 4    1  0.1211980E+000  0.1790559E+03  0.7818608E-02  0.1168720E+00
         21   -1    0    0  501  502  0.00000000000E+00  0.00000000000E+00  0.10657911593E+04  0.10657911593E+04  0.00000000000E+00 0.  1.
         21   -1    0    0  502  503 -0.00000000000E+00 -0.00000000000E+00 -0.73689618788E+02  0.73689618788E+02  0.00000000000E+00 0.  1.
          6    1    1    2  501    0 -0.33491095280E+02  0.36815360969E+02  0.93433468439E+03  0.95133712569E+03  0.17200000000E+03 0. -1.
         -6    1    1    2    0  503  0.33491095280E+02 -0.36815360969E+02  0.57766856106E+02  0.18814365238E+03  0.17200000000E+03 0. -1.
</event>
<event>
 4    1  0.1211980E+000  0.2087634E+03  0.7818608E-02  0.1142549E+00
         21   -1    0    0  501  502  0.00000000000E+00  0.00000000000E+00  0.25667026611E+02  0.25667026611E+02  0.00000000000E+00 0.  1.
         21   -1    0    0  502  503 -0.00000000000E+00 -0.00000000000E+00 -0.17037568373E+04  0.17037568373E+04  0.00000000000E+00 0.  1.
          6    1    1    2  501    0 -0.11298035661E+03 -0.35122765973E+02 -0.88938424349E+03  0.91355706019E+03  0.17200000000E+03 0.  1.
         -6    1    1    2    0  503  0.11298035661E+03  0.35122765973E+02 -0.78870556721E+03  0.81586680372E+03  0.17200000000E+03 0.  1.
</event>
<event>
 4    1  0.1211980E+000  0.2402953E+03  0.7818608E-02  0.1119596E+00
         21   -1    0    0  503  502  0.00000000000E+00  0.00000000000E+00  0.12871372578E+04  0.12871372578E+04  0.00000000000E+00 0. -1.
         21   -1    0    0  501  503 -0.00000000000E+00 -0.00000000000E+00 -0.53882846891E+03  0.53882846891E+03  0.00000000000E+00 0. -1.
          6    1    1    2  501    0  0.28867417128E+01 -0.16777815537E+03 -0.49999704600E+03  0.55474218219E+03  0.17200000000E+03 0. -1.
         -6    1    1    2    0  502 -0.28867417128E+01  0.16777815537E+03  0.12483058349E+04  0.12712235446E+04  0.17200000000E+03 0. -1.
</event>
<event>
 4    1  0.1211980E+000  0.2089908E+03  0.7818608E-02  0.1142368E+00
         21   -1    0    0  501  502  0.00000000000E+00  0.00000000000E+00  0.11188444541E+03  0.11188444541E+03  0.00000000000E+00 0.  1.
         21   -1    0    0  502  503 -0.00000000000E+00 -0.00000000000E+00 -0.65976750952E+03  0.65976750952E+03  0.00000000000E+00 0. -1.
          6    1    1    2  501    0  0.80163492146E+02 -0.87561307635E+02 -0.27401890561E+02  0.21077958078E+03  0.17200000000E+03 0.  1.
         -6    1    1    2    0  503 -0.80163492146E+02  0.87561307635E+02 -0.52048117355E+03  0.56087237415E+03  0.17200000000E+03 0. -1.
</event>
<event>
 4    1  0.1211980E+000  0.2244943E+03  0.7818608E-02  0.1130576E+00
         21   -1    0    0  501  502  0.00000000000E+00  0.00000000000E+00  0.64445065004E+03  0.64445065004E+03  0.00000000000E+00 0. -1.
         21   -1    0    0  502  503 -0.00000000000E+00 -0.00000000000E+00 -0.36357308941E+03  0.36357308941E+03  0.00000000000E+00 0.  1.
          6    1    1    2  501    0 -0.13987034332E+03  0.35355261565E+02  0.58696754400E+03  0.62843345325E+03  0.17200000000E+03 0. -1.
         -6    1    1    2    0  503  0.13987034332E+03 -0.35355261565E+02 -0.30608998337E+03  0.37959028620E+03  0.17200000000E+03 0.  1.
</event>
<event>
 4    1  0.1211980E+000  0.1789872E+03  0.7818608E-02  0.1168787E+00
         21   -1    0    0  501  502  0.00000000000E+00  0.00000000000E+00  0.83322143468E+02  0.83322143468E+02  0.00000000000E+00 0. -1.
         21   -1    0    0  502  503 -0.00000000000E+00 -0.00000000000E+00 -0.44139019567E+03  0.44139019567E+03  0.00000000000E+00 0. -1.
          6    1    1    2  501    0 -0.49305067178E+02  0.46279857205E+01 -0.84835858281E+02  0.19807455857E+03  0.17200000000E+03 0.  1.
         -6    1    1    2    0  503  0.49305067178E+02 -0.46279857205E+01 -0.27323219392E+03  0.32663778057E+03  0.17200000000E+03 0.  1.
</event>
<event>
 4    1  0.1211980E+000  0.3059317E+03  0.7818608E-02  0.1082312E+00
         21   -1    0    0  503  502  0.00000000000E+00  0.00000000000E+00  0.13850433789E+04  0.13850433789E+04  0.00000000000E+00 0. -1.
         21   -1    0    0  501  503 -0.00000000000E+00 -0.00000000000E+00 -0.14857673531E+03  0.14857673531E+03  0.00000000000E+00 0. -1.
          6    1    1    2  501    0 -0.19806756226E+03  0.15741484487E+03  0.11844201688E+04  0.12232928222E+04  0.17200000000E+03 0. -1.
         -6    1    1    2    0  502  0.19806756226E+03 -0.15741484487E+03  0.52046474753E+02  0.31032729197E+03  0.17200000000E+03 0. -1.
</event>
<event>
 4    1  0.1211980E+000  0.1929767E+03  0.7818608E-02  0.1155804E+00
         21   -1    0    0  503  502  0.00000000000E+00  0.00000000000E+00  0.12203524904E+03  0.12203524904E+03  0.00000000000E+00 0. -1.
         21   -1    0    0  501  503 -0.00000000000E+00 -0.00000000000E+00 -0.48232861282E+03  0.48232861282E+03  0.00000000000E+00 0. -1.
          6    1    1    2  501    0  0.70093536855E+02  0.52372809551E+02 -0.36329080947E+03  0.41136386245E+03  0.17200000000E+03 0. -1.
         -6    1    1    2    0  502 -0.70093536855E+02 -0.52372809551E+02  0.29974456972E+01  0.19299999940E+03  0.17200000000E+03 0. -1.
</event>
<event>
 4    1  0.1211980E+000  0.2189364E+03  0.7818608E-02  0.1134679E+00
         21   -1    0    0  501  502  0.00000000000E+00  0.00000000000E+00  0.14495379241E+03  0.14495379241E+03  0.00000000000E+00 0. -1.
         21   -1    0    0  502  503 -0.00000000000E+00 -0.00000000000E+00 -0.35715971061E+03  0.35715971061E+03  0.00000000000E+00 0. -1.
          6    1    1    2  501    0  0.12107510436E+03  0.60745065041E+02 -0.37742139318E+02  0.22216573296E+03  0.17200000000E+03 0.  1.
         -6    1    1    2    0  503 -0.12107510436E+03 -0.60745065041E+02 -0.17446377888E+03  0.27994777006E+03  0.17200000000E+03 0.  1.
</event>
<event>
 4    1  0.1211980E+000  0.1923124E+03  0.7818608E-02  0.1156392E+00
         21   -1    0    0  501  502  0.00000000000E+00  0.00000000000E+00  0.33411495138E+02  0.33411495138E+02  0.00000000000E+00 0. -1.
         21   -1    0    0  502  503 -0.00000000000E+00 -0.00000000000E+00 -0.11847033337E+04  0.11847033337E+04  0.00000000000E+00 0. -1.
          6    1    1    2  501    0  0.22553459870E+01  0.85993924369E+02 -0.41958977288E+03  0.46156215088E+03  0.17200000000E+03 0. -1.
         -6    1    1    2    0  503 -0.22553459870E+01 -0.85993924369E+02 -0.73170206571E+03  0.75655267799E+03  0.17200000000E+03 0. -1.
</event>
<event>
 4    1  0.1211980E+000  0.1763382E+03  0.7818608E-02  0.1171395E+00
         21   -1    0    0  501  502  0.00000000000E+00  0.00000000000E+00  0.12399803625E+03  0.12399803625E+03  0.00000000000E+00 0. -1.
         21   -1    0    0  502  503 -0.00000000000E+00 -0.00000000000E+00 -0.46421677125E+03  0.46421677125E+03  0.00000000000E+00 0. -1.
          6    1    1    2  501    0 -0.35180500695E+02  0.16537496397E+02  0.29319927284E+02  0.17875909642E+03  0.17200000000E+03 0. -1.
         -6    1    1    2    0  503  0.35180500695E+02 -0.16537496397E+02 -0.36953866228E+03  0.40945571108E+03  0.17200000000E+03 0. -1.
</event>
<event>
 4    1  0.1211980E+000  0.1915093E+03  0.7818608E-02  0.1157107E+00
         21   -1    0    0  501  502  0.00000000000E+00  0.00000000000E+00  0.16191620781E+03  0.16191620781E+03  0.00000000000E+00 0. -1.
         21   -1    0    0  502  503 -0.00000000000E+00 -0.00000000000E+00 -0.42020797464E+03  0.42020797464E+03  0.00000000000E+00 0.  1.
          6    1    1    2  501    0  0.36770293462E+02  0.75761097709E+02  0.68466858876E+02  0.20338020841E+03  0.17200000000E+03 0. -1.
         -6    1    1    2    0  503 -0.36770293462E+02 -0.75761097709E+02 -0.32675862570E+03  0.37874397405E+03  0.17200000000E+03 0.  1.
</event>
<event>
 4    1  0.1211980E+000  0.2137909E+03  0.7818608E-02  0.1138599E+00
         21   -1    0    0  503  502  0.00000000000E+00  0.00000000000E+00  0.34389172277E+03  0.34389172277E+03  0.00000000000E+00 0.  1.
         21   -1    0    0  501  503 -0.00000000000E+00 -0.00000000000E+00 -0.13618609678E+03  0.13618609678E+03  0.00000000000E+00 0.  1.
          6    1    1    2  501    0  0.52125972770E+02  0.11578184255E+03  0.66621163981E+02  0.22393064013E+03  0.17200000000E+03 0.  1.
         -6    1    1    2    0  502 -0.52125972770E+02 -0.11578184255E+03  0.14108446202E+03  0.25614717942E+03  0.17200000000E+03 0.  1.
</event>
<event>
 4    1  0.1211980E+000  0.1730464E+03  0.7818608E-02  0.1174708E+00
         21   -1    0    0  501  502  0.00000000000E+00  0.00000000000E+00  0.22222615045E+03  0.22222615045E+03  0.00000000000E+00 0.  1.
         21   -1    0    0  502  503 -0.00000000000E+00 -0.00000000000E+00 -0.13541661813E+03  0.13541661813E+03  0.00000000000E+00 0.  1.
          6    1    1    2  501    0 -0.11017037118E+02  0.15482123215E+02  0.55947121623E+02  0.18186575176E+03  0.17200000000E+03 0.  1.
         -6    1    1    2    0  503  0.11017037118E+02 -0.15482123215E+02  0.30862410703E+02  0.17577701682E+03  0.17200000000E+03 0.  1.
</event>
<event>
 4    1  0.1211980E+000  0.1750754E+03  0.7818608E-02  0.1172656E+00
         21   -1    0    0  501  502  0.00000000000E+00  0.00000000000E+00  0.10219817942E+04  0.10219817942E+04  0.00000000000E+00 0. -1.
         21   -1    0    0  502  503 -0.00000000000E+00 -0.00000000000E+00 -0.29997426182E+02  0.29997426182E+02  0.00000000000E+00 0. -1.
          6    1    1    2  501    0  0.28650793177E+02 -0.15701478236E+02  0.48899898886E+03  0.51939524013E+03  0.17200000000E+03 0. -1.
         -6    1    1    2    0  503 -0.28650793177E+02  0.15701478236E+02  0.50298537916E+03  0.53258398025E+03  0.17200000000E+03 0. -1.
</event>
<event>
 4    1  0.1211980E+000  0.1783286E+03  0.7818608E-02  0.1169430E+00
         21   -1    0    0  503  502  0.00000000000E+00  0.00000000000E+00  0.27850646347E+03  0.27850646347E+03  0.00000000000E+00 0.  1.
         21   -1    0    0  501  503 -0.00000000000E+00 -0.00000000000E+00 -0.11479554860E+03  0.11479554860E+03  0.00000000000E+00 0.  1.
          6    1    1    2  501    0  0.39038820633E+02  0.26326229910E+02  0.67507211713E+02  0.19067858698E+03  0.17200000000E+03 0. -1.
         -6    1    1    2    0  502 -0.39038820633E+02 -0.26326229910E+02  0.96203703153E+02  0.20262342510E+03  0.17200000000E+03 0. -1.
</event>
<event>
 4    1  0.1211980E+000  0.2268692E+03  0.7818608E-02  0.1128863E+00
         21   -1    0    0  503  502  0.00000000000E+00  0.00000000000E+00  0.90594334732E+03  0.90594334732E+03  0.00000000000E+00 0.  1.
         21   -1    0    0  501  503 -0.00000000000E+00 -0.00000000000E+00 -0.96996177529E+02  0.96996177529E+02  0.00000000000E+00 0. -1.
          6    1    1    2  501    0  0.89799320647E+02  0.11756577714E+03  0.81707447162E+02  0.24113427144E+03  0.17200000000E+03 0. -1.
         -6    1    1    2    0  502 -0.89799320647E+02 -0.11756577714E+03  0.72723972263E+03  0.76180525340E+03  0.17200000000E+03 0.  1.
</event>
<event>
 4    1  0.1211980E+000  0.2798519E+03  0.7818608E-02  0.1095770E+00
         21   -1    0    0  503  502  0.00000000000E+00  0.00000000000E+00  0.94802115043E+03  0.94802115043E+03  0.00000000000E+00 0.  1.
         21   -1    0    0  501  503 -0.00000000000E+00 -0.00000000000E+00 -0.94211891943E+02  0.94211891943E+02  0.00000000000E+00 0.  1.
          6    1    1    2  501    0 -0.84100625979E+02 -0.20410825198E+03  0.24404184446E+03  0.37131323120E+03  0.17200000000E+03 0.  1.
         -6    1    1    2    0  502  0.84100625979E+02  0.20410825198E+03  0.60976741402E+03  0.67091981117E+03  0.17200000000E+03 0.  1.
</event>
<event>
 4    1  0.1211980E+000  0.2046136E+03  0.7818608E-02  0.1145904E+00
         21   -1    0    0  503  502  0.00000000000E+00  0.00000000000E+00  0.91319416721E+03  0.91319416721E+03  0.00000000000E+00 0. -1.
         21   -1    0    0  501  503 -0.00000000000E+00 -0.00000000000E+00 -0.53831531279E+02  0.53831531279E+02  0.00000000000E+00 0. -1.
          6    1    1    2  501    0 -0.49609177133E+02 -0.99104307413E+02  0.24346033086E+03  0.31802463254E+03  0.17200000000E+03 0. -1.
         -6    1    1    2    0  502  0.49609177133E+02  0.99104307413E+02  0.61590230508E+03  0.64900106595E+03  0.17200000000E+03 0. -1.
</event>
<event>
 4    1  0.1211980E+000  0.2684152E+03  0.7818608E-02  0.1102190E+00
         21   -1    0    0  501  502  0.00000000000E+00  0.00000000000E+00  0.55320541915E+03  0.55320541915E+03  0.00000000000E+00 0. -1.
         21   -1    0    0  502  503 -0.00000000000E+00 -0.00000000000E+00 -0.24149122803E+03  0.24149122803E+03  0.00000000000E+00 0. -1.
          6    1    1    2  501    0 -0.77013302004E+02 -0.19113255493E+03  0.42555830280E+03  0.50313673223E+03  0.17200000000E+03 0. -1.
         -6    1    1    2    0  503  0.77013302004E+02  0.19113255493E+03 -0.11384411167E+03  0.29155991495E+03  0.17200000000E+03 0. -1.
</event>
<event>
 4    1  0.1211980E+000  0.1749654E+03  0.7818608E-02  0.1172766E+00
         21   -1    0    0  501  502  0.00000000000E+00  0.00000000000E+00  0.23353039027E+03  0.23353039027E+03  0.00000000000E+00 0.  1.
         21   -1    0    0  502  503 -0.00000000000E+00 -0.00000000000E+00 -0.21451611522E+03  0.21451611522E+03  0.00000000000E+00 0.  1.
          6    1    1    2  501    0 -0.34470349632E+00 -0.32074409371E+02  0.14921503987E+03  0.22995220086E+03  0.17200000000E+03 0.  1.
         -6    1    1    2    0  503  0.34470349632E+00  0.32074409371E+02 -0.13020076481E+03  0.21809430464E+03  0.17200000000E+03 0.  1.
</event>
<event>
 4    1  0.1211980E+000  0.2441711E+03  0.7818608E-02  0.1117045E+00
         21   -1    0    0  501  502  0.00000000000E+00  0.00000000000E+00  0.12196547242E+03  0.12196547242E+03  0.00000000000E+00 0. -1.
         21   -1    0    0  502  503 -0.00000000000E+00 -0.00000000000E+00 -0.61257180845E+03  0.61257180845E+03  0.00000000000E+00 0. -1.
          6    1    1    2  501    0 -0.17122467939E+03  0.26789006382E+02 -0.80230313243E+02  0.25701448375E+03  0.17200000000E+03 0. -1.
         -6    1    1    2    0  503  0.17122467939E+03 -0.26789006382E+02 -0.41037602278E+03  0.47752279712E+03  0.17200000000E+03 0. -1.
</event>
<event>
 4    1  0.1211980E+000  0.2069280E+03  0.7818608E-02  0.1144022E+00
         21   -1    0    0  501  502  0.00000000000E+00  0.00000000000E+00  0.46263963776E+03  0.46263963776E+03  0.00000000000E+00 0. -1.
         21   -1    0    0  502  503 -0.00000000000E+00 -0.00000000000E+00 -0.12449161005E+03  0.12449161005E+03  0.00000000000E+00 0. -1.
          6    1    1    2  501    0 -0.11488621054E+03  0.60312525042E+01  0.31776524578E+03  0.37920175211E+03  0.17200000000E+03 0. -1.
         -6    1    1    2    0  503  0.11488621054E+03 -0.60312525042E+01  0.20382781926E+02  0.20792949569E+03  0.17200000000E+03 0. -1.
</event>
<event>
 4    1  0.1211980E+000  0.2643744E+03  0.7818608E-02  0.1104543E+00
         21   -1    0    0  503  502  0.00000000000E+00  0.00000000000E+00  0.38583859767E+03  0.38583859767E+03  0.00000000000E+00 0. -1.
         21   -1    0    0  501  503 -0.00000000000E+00 -0.00000000000E+00 -0.52361059161E+03  0.52361059161E+03  0.00000000000E+00 0.  1.
          6    1    1    2  501    0  0.34172238443E+02  0.19784358305E+03 -0.43663449648E+03  0.51043462731E+03  0.17200000000E+03 0.  1.
         -6    1    1    2    0  502 -0.34172238443E+02 -0.19784358305E+03  0.29886250254E+03  0.39901456197E+03  0.17200000000E+03 0. -1.
</event>
<event>
 4    1  0.1211980E+000  0.1849915E+03  0.7818608E-02  0.1163058E+00
         21   -1    0    0  501  502  0.00000000000E+00  0.00000000000E+00  0.74375738274E+02  0.74375738274E+02  0.00000000000E+00 0. -1.
         21   -1    0    0  502  503 -0.00000000000E+00 -0.00000000000E+00 -0.46016046483E+03  0.46016046483E+03  0.00000000000E+00 0. -1.
          6    1    1    2  501    0 -0.61926675977E+02 -0.28336088183E+02 -0.19042061967E+03  0.26548419818E+03  0.17200000000E+03 0. -1.
         -6    1    1    2    0  503  0.61926675977E+02  0.28336088183E+02 -0.19536410689E+03  0.26905200492E+03  0.17200000000E+03 0. -1.
</event>
<event>
 4    1  0.1211980E+000  0.1762171E+03  0.7818608E-02  0.1171515E+00
         21   -1    0    0  503  502  0.00000000000E+00  0.00000000000E+00  0.21340632093E+03  0.21340632093E+03  0.00000000000E+00 0. -1.
         21   -1    0    0  501  503 -0.00000000000E+00 -0.00000000000E+00 -0.35095437531E+03  0.35095437531E+03  0.00000000000E+00 0. -1.
          6    1    1    2  501    0  0.73963753880E+01  0.37599997049E+02 -0.28467270697E+03  0.33479996452E+03  0.17200000000E+03 0. -1.
         -6    1    1    2    0  502 -0.73963753880E+01 -0.37599997049E+02  0.14712465259E+03  0.22956073172E+03  0.17200000000E+03 0. -1.
</event>
<event>
 4    1  0.1211980E+000  0.2570443E+03  0.7818608E-02  0.1108932E+00
         21   -1    0    0  503  502  0.00000000000E+00  0.00000000000E+00  0.21390262283E+03  0.21390262283E+03  0.00000000000E+00 0. -1.
         21   -1    0    0  501  503 -0.00000000000E+00 -0.00000000000E+00 -0.40176145498E+03  0.40176145498E+03  0.00000000000E+00 0. -1.
          6    1    1    2  501    0 -0.30606184253E+01  0.19099318787E+03 -0.24193480978E+03  0.35299322569E+03  0.17200000000E+03 0. -1.
         -6    1    1    2    0  502  0.30606184253E+01 -0.19099318787E+03  0.54075977633E+02  0.26267085212E+03  0.17200000000E+03 0. -1.
</event>
<event>
 4    1  0.1211980E+000  0.3037920E+03  0.7818608E-02  0.1083360E+00
         21   -1    0    0  503  502  0.00000000000E+00  0.00000000000E+00  0.22093769827E+03  0.22093769827E+03  0.00000000000E+00 0.  1.
         21   -1    0    0  501  503 -0.00000000000E+00 -0.00000000000E+00 -0.42228522183E+03  0.42228522183E+03  0.00000000000E+00 0. -1.
          6    1    1    2  501    0 -0.21455924068E+03  0.12911212070E+03 -0.67226195690E+02  0.31114139689E+03  0.17200000000E+03 0.  1.
         -6    1    1    2    0  502  0.21455924068E+03 -0.12911212070E+03 -0.13412132787E+03  0.33208152321E+03  0.17200000000E+03 0. -1.
</event>
<event>
 4    1  0.1211980E+000  0.1949325E+03  0.7818608E-02  0.1154086E+00
         21   -1    0    0  503  502  0.00000000000E+00  0.00000000000E+00  0.30845714123E+02  0.30845714123E+02  0.00000000000E+00 0. -1.
         21   -1    0    0  501  503 -0.00000000000E+00 -0.00000000000E+00 -0.12985686514E+04  0.12985686514E+04  0.00000000000E+00 0. -1.
          6    1    1    2  501    0  0.81828614957E+02 -0.41457934176E+02 -0.48324416354E+03  0.52107926856E+03  0.17200000000E+03 0. -1.
         -6    1    1    2    0  502 -0.81828614957E+02  0.41457934176E+02 -0.78447877376E+03  0.80833509698E+03  0.17200000000E+03 0. -1.
</event>
<event>
 4    1  0.1211980E+000  0.3009428E+03  0.7818608E-02  0.1084770E+00
         21   -1    0    0  501  502  0.00000000000E+00  0.00000000000E+00  0.18334036299E+03  0.18334036299E+03  0.00000000000E+00 0.  1.
         21   -1    0    0  502  503 -0.00000000000E+00 -0.00000000000E+00 -0.56182522814E+03  0.56182522814E+03  0.00000000000E+00 0. -1.
          6    1    1    2  501    0  0.68900557121E+02 -0.23713981921E+03 -0.31871565130E+03  0.43834489504E+03  0.17200000000E+03 0. -1.
         -6    1    1    2    0  503 -0.68900557121E+02  0.23713981921E+03 -0.59769213859E+02  0.30682069610E+03  0.17200000000E+03 0.  1.
</event>
<event>
 4    1  0.1211980E+000  0.2642626E+03  0.7818608E-02  0.1104609E+00
         21   -1    0    0  503  502  0.00000000000E+00  0.00000000000E+00  0.23429154346E+03  0.23429154346E+03  0.00000000000E+00 0. -1.
         21   -1    0    0  501  503 -0.00000000000E+00 -0.00000000000E+00 -0.70243393552E+03  0.70243393552E+03  0.00000000000E+00 0.  1.
          6    1    1    2  501    0 -0.10088074084E+03 -0.17341793452E+03 -0.58943003628E+03  0.64595856799E+03  0.17200000000E+03 0.  1.
         -6    1    1    2    0  502  0.10088074084E+03  0.17341793452E+03  0.12128764422E+03  0.29076691099E+03  0.17200000000E+03 0. -1.
</event>
<event>
 4    1  0.1211980E+000  0.3345725E+03  0.7818608E-02  0.1069131E+00
         21   -1    0    0  503  502  0.00000000000E+00  0.00000000000E+00  0.14730513819E+04  0.14730513819E+04  0.00000000000E+00 0.  1.
         21   -1    0    0  501  503 -0.00000000000E+00 -0.00000000000E+00 -0.81397344816E+02  0.81397344816E+02  0.00000000000E+00 0. -1.
          6    1    1    2  501    0  0.24384873737E+03  0.15130279997E+03  0.89613143638E+03  0.95655125072E+03  0.17200000000E+03 0.  1.
         -6    1    1    2    0  502 -0.24384873737E+03 -0.15130279997E+03  0.49552260074E+03  0.59789747603E+03  0.17200000000E+03 0.  1.
</event>
<event>
 4    1  0.1211980E+000  0.2435915E+03  0.7818608E-02  0.1117423E+00
         21   -1    0    0  501  502  0.00000000000E+00  0.00000000000E+00  0.72195892382E+02  0.72195892382E+02  0.00000000000E+00 0.  1.
         21   -1    0    0  502  503 -0.00000000000E+00 -0.00000000000E+00 -0.11294058119E+04  0.11294058119E+04  0.00000000000E+00 0. -1.
          6    1    1    2  501    0  0.15423287973E+03  0.77233523087E+02 -0.21510172130E+03  0.32497007367E+03  0.17200000000E+03 0.  1.
         -6    1    1    2    0  503 -0.15423287973E+03 -0.77233523087E+02 -0.84210819817E+03  0.87663163056E+03  0.17200000000E+03 0. -1.
</event>
<event>
 4    1  0.1211980E+000  0.1761737E+03  0.7818608E-02  0.1171558E+00
         21   -1    0    0  503  502  0.00000000000E+00  0.00000000000E+00  0.19459231461E+03  0.19459231461E+03  0.00000000000E+00 0. -1.
         21   -1    0    0  501  503 -0.00000000000E+00 -0.00000000000E+00 -0.19436089390E+03  0.19436089390E+03  0.00000000000E+00 0. -1.
          6    1    1    2  501    0  0.36684296683E+02 -0.10364305117E+02 -0.82249222538E+02  0.19442759848E+03  0.17200000000E+03 0. -1.
         -6    1    1    2    0  502 -0.36684296683E+02  0.10364305117E+02  0.82480643250E+02  0.19452561002E+03  0.17200000000E+03 0. -1.
</event>
<event>
 4    1  0.1211980E+000  0.1804763E+03  0.7818608E-02  0.1167343E+00
         21   -1    0    0  501  502  0.00000000000E+00  0.00000000000E+00  0.68548722434E+03  0.68548722434E+03  0.00000000000E+00 0. -1.
         21   -1    0    0  502  503 -0.00000000000E+00 -0.00000000000E+00 -0.79807302648E+02  0.79807302648E+02  0.00000000000E+00 0. -1.
          6    1    1    2  501    0 -0.22754102437E+02  0.49698556012E+02  0.54623921727E+03  0.57528165114E+03  0.17200000000E+03 0. -1.
         -6    1    1    2    0  503  0.22754102437E+02 -0.49698556012E+02  0.59440704418E+02  0.19001287585E+03  0.17200000000E+03 0. -1.
</event>
<event>
 4    1  0.1211980E+000  0.1854462E+03  0.7818608E-02  0.1162634E+00
         21   -1    0    0  501  502  0.00000000000E+00  0.00000000000E+00  0.14216237671E+03  0.14216237671E+03  0.00000000000E+00 0. -1.
         21   -1    0    0  502  503 -0.00000000000E+00 -0.00000000000E+00 -0.24466744898E+03  0.24466744898E+03  0.00000000000E+00 0. -1.
          6    1    1    2  501    0  0.39437364195E+02 -0.57017577174E+02 -0.30714389988E+02  0.18797256064E+03  0.17200000000E+03 0. -1.
         -6    1    1    2    0  503 -0.39437364195E+02  0.57017577174E+02 -0.71790682281E+02  0.19885726505E+03  0.17200000000E+03 0. -1.
</event>
<event>
 4    1  0.1211980E+000  0.1725574E+03  0.7818608E-02  0.1175207E+00
         21   -1    0    0  501  502  0.00000000000E+00  0.00000000000E+00  0.17667857004E+03  0.17667857004E+03  0.00000000000E+00 0.  1.
         21   -1    0    0  502  503 -0.00000000000E+00 -0.00000000000E+00 -0.25769234309E+03  0.25769234309E+03  0.00000000000E+00 0.  1.
          6    1    1    2  501    0  0.18506815638E+01 -0.13733982972E+02  0.87244345332E+02  0.19335879370E+03  0.17200000000E+03 0. -1.
         -6    1    1    2    0  503 -0.18506815638E+01  0.13733982972E+02 -0.16825811838E+03  0.24101211943E+03  0.17200000000E+03 0. -1.
</event>
<event>
 4    1  0.1211980E+000  0.2087157E+03  0.7818608E-02  0.1142587E+00
         21   -1    0    0  501  502  0.00000000000E+00  0.00000000000E+00  0.60071468324E+03  0.60071468324E+03  0.00000000000E+00 0. -1.
         21   -1    0    0  502  503 -0.00000000000E+00 -0.00000000000E+00 -0.13604908046E+03  0.13604908046E+03  0.00000000000E+00 0.  1.
          6    1    1    2  501    0  0.62597895381E+02  0.10029819301E+03  0.48406911752E+03  0.52714811444E+03  0.17200000000E+03 0. -1.
         -6    1    1    2    0  503 -0.62597895381E+02 -0.10029819301E+03 -0.19403514737E+02  0.20961564925E+03  0.17200000000E+03 0.  1.
</event>
<event>
 4    1  0.1211980E+000  0.1768782E+03  0.7818608E-02  0.1170859E+00
         21   -1    0    0  503  502  0.00000000000E+00  0.00000000000E+00  0.62623845448E+03  0.62623845448E+03  0.00000000000E+00 0. -1.
         21   -1    0    0  501  503 -0.00000000000E+00 -0.00000000000E+00 -0.50071859569E+02  0.50071859569E+02  0.00000000000E+00 0. -1.
          6    1    1    2  501    0 -0.22081831595E+02 -0.34846480072E+02  0.27198799266E+03  0.32444314234E+03  0.17200000000E+03 0.  1.
         -6    1    1    2    0  502  0.22081831595E+02  0.34846480072E+02  0.30417860225E+03  0.35186717171E+03  0.17200000000E+03 0.  1.
</event>
<event>
 4    1  0.1211980E+000  0.2458050E+03  0.7818608E-02  0.1115985E+00
         21   -1    0    0  501  502  0.00000000000E+00  0.00000000000E+00  0.13311716297E+04  0.13311716297E+04  0.00000000000E+00 0. -1.
         21   -1    0    0  502  503 -0.00000000000E+00 -0.00000000000E+00 -0.58519784742E+02  0.58519784742E+02  0.00000000000E+00 0.  1.
          6    1    1    2  501    0  0.34547574216E+02  0.17217016495E+03  0.96547142985E+03  0.99627063715E+03  0.17200000000E+03 0. -1.
         -6    1    1    2    0  503 -0.34547574216E+02 -0.17217016495E+03  0.30718041511E+03  0.39342077729E+03  0.17200000000E+03 0.  1.
</event>
<event>
 4    1  0.1211980E+000  0.2878633E+03  0.7818608E-02  0.1091470E+00
         21   -1    0    0  503  502  0.00000000000E+00  0.00000000000E+00  0.42997237423E+02  0.42997237423E+02  0.00000000000E+00 0. -1.
         21   -1    0    0  501  503 -0.00000000000E+00 -0.00000000000E+00 -0.28449369313E+04  0.28449369313E+04  0.00000000000E+00 0. -1.
          6    1    1    2  501    0 -0.19975915438E+03  0.11566149712E+03 -0.58085545772E+03  0.64827337168E+03  0.17200000000E+03 0. -1.
         -6    1    1    2    0  502  0.19975915438E+03 -0.11566149712E+03 -0.22210842361E+04  0.22396607970E+04  0.17200000000E+03 0. -1.
</event>
<event>
 4    1  0.1211980E+000  0.2292061E+03  0.7818608E-02  0.1127200E+00
         21   -1    0    0  501  502  0.00000000000E+00  0.00000000000E+00  0.34077010827E+03  0.34077010827E+03  0.00000000000E+00 0.  1.
         21   -1    0    0  502  503 -0.00000000000E+00 -0.00000000000E+00 -0.15458257049E+03  0.15458257049E+03  0.00000000000E+00 0. -1.
          6    1    1    2  501    0  0.97503993682E+02 -0.11595002095E+03  0.10593872425E+03  0.25250435529E+03  0.17200000000E+03 0.  1.
         -6    1    1    2    0  503 -0.97503993682E+02  0.11595002095E+03  0.80248813527E+02  0.24284832348E+03  0.17200000000E+03 0. -1.
</event>
<event>
 4    1  0.1211980E+000  0.1820308E+03  0.7818608E-02  0.1165852E+00
         21   -1    0    0  503  502  0.00000000000E+00  0.00000000000E+00  0.11669090963E+03  0.11669090963E+03  0.00000000000E+00 0.  1.
         21   -1    0    0  501  503 -0.00000000000E+00 -0.00000000000E+00 -0.34946926781E+03  0.34946926781E+03  0.00000000000E+00 0.  1.
          6    1    1    2  501    0 -0.25254078496E+02  0.53976387619E+02 -0.21730551584E+03  0.28347293718E+03  0.17200000000E+03 0.  1.
         -6    1    1    2    0  502  0.25254078496E+02 -0.53976387619E+02 -0.15472842340E+02  0.18268724025E+03  0.17200000000E+03 0.  1.
</event>
<event>
 4    1  0.1211980E+000  0.1858983E+03  0.7818608E-02  0.1162214E+00
         21   -1    0    0  501  502  0.00000000000E+00  0.00000000000E+00  0.21347544797E+03  0.21347544797E+03  0.00000000000E+00 0. -1.
         21   -1    0    0  502  503 -0.00000000000E+00 -0.00000000000E+00 -0.16834868743E+03  0.16834868743E+03  0.00000000000E+00 0.  1.
          6    1    1    2  501    0 -0.37853178507E+02 -0.59508805917E+02 -0.14849207498E+02  0.18649037527E+03  0.17200000000E+03 0. -1.
         -6    1    1    2    0  503  0.37853178507E+02  0.59508805917E+02  0.59975968034E+02  0.19533376013E+03  0.17200000000E+03 0. -1.
</event>
<event>
 4    1  0.1211980E+000  0.1773008E+03  0.7818608E-02  0.1170441E+00
         21   -1    0    0  501  502  0.00000000000E+00  0.00000000000E+00  0.14131851291E+03  0.14131851291E+03  0.00000000000E+00 0.  1.
         21   -1    0    0  502  503 -0.00000000000E+00 -0.00000000000E+00 -0.33524645008E+03  0.33524645008E+03  0.00000000000E+00 0.  1.
          6    1    1    2  501    0  0.37565684364E+02 -0.20985443963E+02  0.41255026405E+02  0.18203721241E+03  0.17200000000E+03 0.  1.
         -6    1    1    2    0  503 -0.37565684364E+02  0.20985443963E+02 -0.23518296358E+03  0.29452775058E+03  0.17200000000E+03 0.  1.
</event>
<event>
 4    1  0.1211980E+000  0.1798684E+03  0.7818608E-02  0.1167930E+00
         21   -1    0    0  501  502  0.00000000000E+00  0.00000000000E+00  0.89634032613E+02  0.89634032613E+02  0.00000000000E+00 0.  1.
         21   -1    0    0  502  503 -0.00000000000E+00 -0.00000000000E+00 -0.74207775637E+03  0.74207775637E+03  0.00000000000E+00 0.  1.
          6    1    1    2  501    0  0.43496039711E+02 -0.29609611689E+02 -0.28192992616E+02  0.18206449244E+03  0.17200000000E+03 0.  1.
         -6    1    1    2    0  503 -0.43496039711E+02  0.29609611689E+02 -0.62425073114E+03  0.64964729654E+03  0.17200000000E+03 0.  1.
</event>
<event>
 4    1  0.1211980E+000  0.1883158E+03  0.7818608E-02  0.1159989E+00
         21   -1    0    0  501  502  0.00000000000E+00  0.00000000000E+00  0.75545079935E+03  0.75545079935E+03  0.00000000000E+00 0.  1.
         21   -1    0    0  502  503 -0.00000000000E+00 -0.00000000000E+00 -0.54793191667E+02  0.54793191667E+02  0.00000000000E+00 0.  1.
          6    1    1    2  501    0  0.48290106863E+02  0.59556051607E+02  0.50367482425E+03  0.53772779943E+03  0.17200000000E+03 0.  1.
         -6    1    1    2    0  503 -0.48290106863E+02 -0.59556051607E+02  0.19698278343E+03  0.27251619158E+03  0.17200000000E+03 0.  1.
</event>
<event>
 4    1  0.1211980E+000  0.2159303E+03  0.7818608E-02  0.1136954E+00
         21   -1    0    0  503  502  0.00000000000E+00  0.00000000000E+00  0.10111493712E+03  0.10111493712E+03  0.00000000000E+00 0.  1.
         21   -1    0    0  501  503 -0.00000000000E+00 -0.00000000000E+00 -0.85412120476E+03  0.85412120476E+03  0.00000000000E+00 0.  1.
          6    1    1    2  501    0  0.13000998562E+03 -0.11803256089E+02 -0.70048378052E+03  0.73300984986E+03  0.17200000000E+03 0.  1.
         -6    1    1    2    0  502 -0.13000998562E+03  0.11803256089E+02 -0.52522487118E+02  0.22222629203E+03  0.17200000000E+03 0.  1.
</event>
<event>
 4    1  0.1211980E+000  0.2309711E+03  0.7818608E-02  0.1125958E+00
         21   -1    0    0  501  502  0.00000000000E+00  0.00000000000E+00  0.14940128627E+03  0.14940128627E+03  0.00000000000E+00 0. -1.
         21   -1    0    0  502  503 -0.00000000000E+00 -0.00000000000E+00 -0.38588241556E+03  0.38588241556E+03  0.00000000000E+00 0.  1.
          6    1    1    2  501    0 -0.10694827100E+03  0.11102124848E+03 -0.45114989496E+02  0.23533595680E+03  0.17200000000E+03 0.  1.
         -6    1    1    2    0  503  0.10694827100E+03 -0.11102124848E+03 -0.19136613980E+03  0.29994774503E+03  0.17200000000E+03 0.  1.
</event>
<event>
 4    1  0.1211980E+000  0.2259335E+03  0.7818608E-02  0.1129535E+00
         21   -1    0    0  501  502  0.00000000000E+00  0.00000000000E+00  0.74135995520E+02  0.74135995520E+02  0.00000000000E+00 0.  1.
         21   -1    0    0  502  503 -0.00000000000E+00 -0.00000000000E+00 -0.68909393244E+03  0.68909393244E+03  0.00000000000E+00 0. -1.
          6    1    1    2  501    0  0.65032333393E+02  0.13127353153E+03 -0.29670497538E+03  0.37293402484E+03  0.17200000000E+03 0. -1.
         -6    1    1    2    0  503 -0.65032333393E+02 -0.13127353153E+03 -0.31825296154E+03  0.39029590312E+03  0.17200000000E+03 0. -1.
</event>
<event>
 4    1  0.1211980E+000  0.1986800E+03  0.7818608E-02  0.1150857E+00
         21   -1    0    0  503  502  0.00000000000E+00  0.00000000000E+00  0.51733706704E+03  0.51733706704E+03  0.00000000000E+00 0. -1.
         21   -1    0    0  501  503 -0.00000000000E+00 -0.00000000000E+00 -0.78690670039E+02  0.78690670039E+02  0.00000000000E+00 0.  1.
          6    1    1    2  501    0  0.42214916582E+02  0.90042467579E+02  0.16739875319E+03  0.25980009184E+03  0.17200000000E+03 0.  1.
         -6    1    1    2    0  502 -0.42214916582E+02 -0.90042467579E+02  0.27124764381E+03  0.33622764524E+03  0.17200000000E+03 0.  1.
</event>
<event>
 4    1  0.1211980E+000  0.1809389E+03  0.7818608E-02  0.1166898E+00
         21   -1    0    0  503  502  0.00000000000E+00  0.00000000000E+00  0.97596702287E+02  0.97596702287E+02  0.00000000000E+00 0. -1.
         21   -1    0    0  501  503 -0.00000000000E+00 -0.00000000000E+00 -0.95874322883E+03  0.95874322883E+03  0.00000000000E+00 0. -1.
          6    1    1    2  501    0  0.14343856395E+02  0.54305823221E+02 -0.85643493550E+03  0.87533974398E+03  0.17200000000E+03 0. -1.
         -6    1    1    2    0  502 -0.14343856395E+02 -0.54305823221E+02 -0.47115910421E+01  0.18100018713E+03  0.17200000000E+03 0. -1.
</event>
<event>
 4    1  0.1211980E+000  0.1863063E+03  0.7818608E-02  0.1161836E+00
         21   -1    0    0  501  502  0.00000000000E+00  0.00000000000E+00  0.11225820055E+03  0.11225820055E+03  0.00000000000E+00 0.  1.
         21   -1    0    0  502  503 -0.00000000000E+00 -0.00000000000E+00 -0.38026315304E+03  0.38026315304E+03  0.00000000000E+00 0.  1.
          6    1    1    2  501    0  0.59974320286E+02  0.39103787422E+02 -0.27543837728E+02  0.18833132581E+03  0.17200000000E+03 0.  1.
         -6    1    1    2    0  503 -0.59974320286E+02 -0.39103787422E+02 -0.24046111477E+03  0.30419002778E+03  0.17200000000E+03 0.  1.
</event>
<event>
 4    1  0.1211980E+000  0.1875984E+03  0.7818608E-02  0.1160645E+00
         21   -1    0    0  501  502  0.00000000000E+00  0.00000000000E+00  0.48265480131E+02  0.48265480131E+02  0.00000000000E+00 0. -1.
         21   -1    0    0  502  503 -0.00000000000E+00 -0.00000000000E+00 -0.92822090193E+03  0.92822090193E+03  0.00000000000E+00 0.  1.
          6    1    1    2  501    0  0.29482070844E+02 -0.68847284778E+02 -0.21387480846E+03  0.28449178339E+03  0.17200000000E+03 0. -1.
         -6    1    1    2    0  503 -0.29482070844E+02  0.68847284778E+02 -0.66608061335E+03  0.69199459868E+03  0.17200000000E+03 0.  1.
</event>
<event>
 4    1  0.1211980E+000  0.1794274E+03  0.7818608E-02  0.1168358E+00
         21   -1    0    0  503  502  0.00000000000E+00  0.00000000000E+00  0.49456004747E+02  0.49456004747E+02  0.00000000000E+00 0.  1.
         21   -1    0    0  501  503 -0.00000000000E+00 -0.00000000000E+00 -0.10554469829E+04  0.10554469829E+04  0.00000000000E+00 0.  1.
          6    1    1    2  501    0  0.37974186945E+02  0.34178122025E+02 -0.84499456846E+03  0.86383447699E+03  0.17200000000E+03 0.  1.
         -6    1    1    2    0  502 -0.37974186945E+02 -0.34178122025E+02 -0.16099640969E+03  0.24106851066E+03  0.17200000000E+03 0.  1.
</event>
<event>
 4    1  0.1211980E+000  0.3685096E+03  0.7818608E-02  0.1055264E+00
         21   -1    0    0  501  502  0.00000000000E+00  0.00000000000E+00  0.94803238452E+03  0.94803238452E+03  0.00000000000E+00 0.  1.
         21   -1    0    0  502  503 -0.00000000000E+00 -0.00000000000E+00 -0.15064503765E+03  0.15064503765E+03  0.00000000000E+00 0. -1.
          6    1    1    2  501    0  0.12831060140E+03  0.29958585716E+03  0.52046060303E+03  0.63771352153E+03  0.17200000000E+03 0. -1.
         -6    1    1    2    0  503 -0.12831060140E+03 -0.29958585716E+03  0.27692674384E+03  0.46096390064E+03  0.17200000000E+03 0.  1.
</event>
<event>
 4    1  0.1211980E+000  0.1798479E+03  0.7818608E-02  0.1167950E+00
         21   -1    0    0  503  502  0.00000000000E+00  0.00000000000E+00  0.17982222873E+03  0.17982222873E+03  0.00000000000E+00 0.  1.
         21   -1    0    0  501  503 -0.00000000000E+00 -0.00000000000E+00 -0.34063721583E+03  0.34063721583E+03  0.00000000000E+00 0.  1.
          6    1    1    2  501    0 -0.46169690598E+01  0.52344606732E+02 -0.25918164041E+03  0.31546853565E+03  0.17200000000E+03 0.  1.
         -6    1    1    2    0  502  0.46169690598E+01 -0.52344606732E+02  0.98366653307E+02  0.20499090892E+03  0.17200000000E+03 0.  1.
</event>
<event>
 4    1  0.1211980E+000  0.2148959E+03  0.7818608E-02  0.1137747E+00
         21   -1    0    0  501  502  0.00000000000E+00  0.00000000000E+00  0.11469516612E+04  0.11469516612E+04  0.00000000000E+00 0. -1.
         21   -1    0    0  502  503 -0.00000000000E+00 -0.00000000000E+00 -0.40896490498E+02  0.40896490498E+02  0.00000000000E+00 0.  1.
          6    1    1    2  501    0 -0.55315782852E+02 -0.11634604847E+03  0.62692024117E+03  0.66272862291E+03  0.17200000000E+03 0.  1.
         -6    1    1    2    0  503  0.55315782852E+02  0.11634604847E+03  0.47913492958E+03  0.52511952884E+03  0.17200000000E+03 0.  1.
</event>
<event>
 4    1  0.1211980E+000  0.1881959E+03  0.7818608E-02  0.1160099E+00
         21   -1    0    0  503  502  0.00000000000E+00  0.00000000000E+00  0.60514188513E+02  0.60514188513E+02  0.00000000000E+00 0.  1.
         21   -1    0    0  501  503 -0.00000000000E+00 -0.00000000000E+00 -0.93802810765E+03  0.93802810765E+03  0.00000000000E+00 0.  1.
          6    1    1    2  501    0  0.43694833950E+02 -0.62645449268E+02 -0.74492611310E+03  0.76833105157E+03  0.17200000000E+03 0.  1.
         -6    1    1    2    0  502 -0.43694833950E+02  0.62645449268E+02 -0.13258780604E+03  0.23021124459E+03  0.17200000000E+03 0.  1.
</event>
<event>
 4    1  0.1211980E+000  0.1974359E+03  0.7818608E-02  0.1151921E+00
         21   -1    0    0  503  502  0.00000000000E+00  0.00000000000E+00  0.13922614320E+04  0.13922614320E+04  0.00000000000E+00 0.  1.
         21   -1    0    0  501  503 -0.00000000000E+00 -0.00000000000E+00 -0.29152199904E+02  0.29152199904E+02  0.00000000000E+00 0.  1.
          6    1    1    2  501    0  0.74675537433E+01 -0.96649711642E+02  0.54015706952E+03  0.57510919909E+03  0.17200000000E+03 0.  1.
         -6    1    1    2    0  502 -0.74675537433E+01  0.96649711642E+02  0.82295216256E+03  0.84630443280E+03  0.17200000000E+03 0.  1.
</event>
<event>
 4    1  0.1211980E+000  0.2392324E+03  0.7818608E-02  0.1120305E+00
         21   -1    0    0  501  502  0.00000000000E+00  0.00000000000E+00  0.78271954592E+02  0.78271954592E+02  0.00000000000E+00 0. -1.
         21   -1    0    0  502  503 -0.00000000000E+00 -0.00000000000E+00 -0.98188484019E+03  0.98188484019E+03  0.00000000000E+00 0. -1.
          6    1    1    2  501    0 -0.11764867592E+03 -0.11750287364E+03 -0.18396524947E+03  0.30178692694E+03  0.17200000000E+03 0. -1.
         -6    1    1    2    0  503  0.11764867592E+03  0.11750287364E+03 -0.71964763612E+03  0.75836986784E+03  0.17200000000E+03 0. -1.
</event>
<event>
 4    1  0.1211980E+000  0.2620978E+03  0.7818608E-02  0.1105889E+00
         21   -1    0    0  501  502  0.00000000000E+00  0.00000000000E+00  0.75896482646E+02  0.75896482646E+02  0.00000000000E+00 0.  1.
         21   -1    0    0  502  503 -0.00000000000E+00 -0.00000000000E+00 -0.13416111563E+04  0.13416111563E+04  0.00000000000E+00 0.  1.
          6    1    1    2  501    0 -0.38770963822E+02  0.19392803680E+03 -0.10371266819E+04  0.10697322214E+04  0.17200000000E+03 0.  1.
         -6    1    1    2    0  503  0.38770963822E+02 -0.19392803680E+03 -0.22858799169E+03  0.34777541753E+03  0.17200000000E+03 0.  1.
</event>
<event>
 4    1  0.1211980E+000  0.2507486E+03  0.7818608E-02  0.1112833E+00
         21   -1    0    0  503  502  0.00000000000E+00  0.00000000000E+00  0.21289504358E+03  0.21289504358E+03  0.00000000000E+00 0. -1.
         21   -1    0    0  501  503 -0.00000000000E+00 -0.00000000000E+00 -0.36200355363E+03  0.36200355363E+03  0.00000000000E+00 0.  1.
          6    1    1    2  501    0 -0.12331123455E+03  0.13448129788E+03 -0.19791377209E+03  0.31944442588E+03  0.17200000000E+03 0.  1.
         -6    1    1    2    0  502  0.12331123455E+03 -0.13448129788E+03  0.48805262042E+02  0.25545417133E+03  0.17200000000E+03 0. -1.
</event>
<event>
 4    1  0.1211980E+000  0.2363819E+03  0.7818608E-02  0.1122227E+00
         21   -1    0    0  503  502  0.00000000000E+00  0.00000000000E+00  0.59700991857E+02  0.59700991857E+02  0.00000000000E+00 0.  1.
         21   -1    0    0  501  503 -0.00000000000E+00 -0.00000000000E+00 -0.11369466261E+04  0.11369466261E+04  0.00000000000E+00 0. -1.
          6    1    1    2  501    0 -0.79512467546E+02  0.14131583845E+03 -0.28704398041E+03  0.37184761043E+03  0.17200000000E+03 0. -1.
         -6    1    1    2    0  502  0.79512467546E+02 -0.14131583845E+03 -0.79020165379E+03  0.82480000748E+03  0.17200000000E+03 0. -1.
</event>
<event>
 4    1  0.1211980E+000  0.2664547E+03  0.7818608E-02  0.1103326E+00
         21   -1    0    0  503  502  0.00000000000E+00  0.00000000000E+00  0.13200783238E+03  0.13200783238E+03  0.00000000000E+00 0.  1.
         21   -1    0    0  501  503 -0.00000000000E+00 -0.00000000000E+00 -0.19290469162E+04  0.19290469162E+04  0.00000000000E+00 0.  1.
          6    1    1    2  501    0 -0.19082327662E+03  0.70714706566E+02 -0.17736749560E+04  0.17935776934E+04  0.17200000000E+03 0.  1.
         -6    1    1    2    0  502  0.19082327662E+03 -0.70714706566E+02 -0.23364127881E+02  0.26747705527E+03  0.17200000000E+03 0.  1.
</event>
<event>
 4    1  0.1211980E+000  0.1997098E+03  0.7818608E-02  0.1149984E+00
         21   -1    0    0  503  502  0.00000000000E+00  0.00000000000E+00  0.41900064895E+03  0.41900064895E+03  0.00000000000E+00 0. -1.
         21   -1    0    0  501  503 -0.00000000000E+00 -0.00000000000E+00 -0.11454279648E+03  0.11454279648E+03  0.00000000000E+00 0.  1.
          6    1    1    2  501    0 -0.31402682588E+02  0.96508329100E+02  0.26188839285E+03  0.32934710621E+03  0.17200000000E+03 0. -1.
         -6    1    1    2    0  502  0.31402682588E+02 -0.96508329100E+02  0.42569459616E+02  0.20419633922E+03  0.17200000000E+03 0.  1.
</event>
<event>
 4    1  0.1211980E+000  0.2297291E+03  0.7818608E-02  0.1126831E+00
         21   -1    0    0  503  502  0.00000000000E+00  0.00000000000E+00  0.85194585122E+03  0.85194585122E+03  0.00000000000E+00 0.  1.
         21   -1    0    0  501  503 -0.00000000000E+00 -0.00000000000E+00 -0.75004542381E+02  0.75004542381E+02  0.00000000000E+00 0. -1.
          6    1    1    2  501    0  0.62278072428E+02  0.13897088587E+03  0.19508960640E+03  0.30138915035E+03  0.17200000000E+03 0. -1.
         -6    1    1    2    0  502 -0.62278072428E+02 -0.13897088587E+03  0.58185170244E+03  0.62556124325E+03  0.17200000000E+03 0.  1.
</event>
<event>
 4    1  0.1211980E+000  0.1914785E+03  0.7818608E-02  0.1157135E+00
         21   -1    0    0  501  502  0.00000000000E+00  0.00000000000E+00  0.13490174604E+03  0.13490174604E+03  0.00000000000E+00 0. -1.
         21   -1    0    0  502  503 -0.00000000000E+00 -0.00000000000E+00 -0.27255283158E+03  0.27255283158E+03  0.00000000000E+00 0.  1.
          6    1    1    2  501    0 -0.63877176606E+02  0.54769627736E+02 -0.79652643157E+02  0.20738502688E+03  0.17200000000E+03 0.  1.
         -6    1    1    2    0  503  0.63877176606E+02 -0.54769627736E+02 -0.57998442387E+02  0.20006955074E+03  0.17200000000E+03 0. -1.
</event>
<event>
 4    1  0.1211980E+000  0.3068679E+03  0.7818608E-02  0.1081857E+00
         21   -1    0    0  501  502  0.00000000000E+00  0.00000000000E+00  0.83857277565E+03  0.83857277565E+03  0.00000000000E+00 0. -1.
         21   -1    0    0  502  503 -0.00000000000E+00 -0.00000000000E+00 -0.13521575127E+03  0.13521575127E+03  0.00000000000E+00 0.  1.
          6    1    1    2  501    0 -0.14242731561E+02 -0.25373420163E+03  0.55214013963E+03  0.63168555015E+03  0.17200000000E+03 0. -1.
         -6    1    1    2    0  503  0.14242731561E+02  0.25373420163E+03  0.15121688475E+03  0.34210297677E+03  0.17200000000E+03 0.  1.
</event>
<event>
 4    1  0.1211980E+000  0.3355183E+03  0.7818608E-02  0.1068721E+00
         21   -1    0    0  503  502  0.00000000000E+00  0.00000000000E+00  0.29082536181E+03  0.29082536181E+03  0.00000000000E+00 0. -1.
         21   -1    0    0  501  503 -0.00000000000E+00 -0.00000000000E+00 -0.39687535981E+03  0.39687535981E+03  0.00000000000E+00 0. -1.
          6    1    1    2  501    0  0.14528654273E+03  0.24875757663E+03 -0.10704636257E+03  0.35218096934E+03  0.17200000000E+03 0.  1.
         -6    1    1    2    0  502 -0.14528654273E+03 -0.24875757663E+03  0.99636457726E+00  0.33551975228E+03  0.17200000000E+03 0.  1.
</event>
<event>
 4    1  0.1211980E+000  0.1810250E+03  0.7818608E-02  0.1166815E+00
         21   -1    0    0  501  502  0.00000000000E+00  0.00000000000E+00  0.48538385765E+03  0.48538385765E+03  0.00000000000E+00 0. -1.
         21   -1    0    0  502  503 -0.00000000000E+00 -0.00000000000E+00 -0.72601710338E+02  0.72601710338E+02  0.00000000000E+00 0.  1.
          6    1    1    2  501    0  0.56169424038E+02 -0.55716201462E+01  0.13253356051E+03  0.22435505746E+03  0.17200000000E+03 0. -1.
         -6    1    1    2    0  503 -0.56169424038E+02  0.55716201462E+01  0.28024858680E+03  0.33363051052E+03  0.17200000000E+03 0. -1.
</event>
<event>
 4    1  0.1211980E+000  0.2560333E+03  0.7818608E-02  0.1109550E+00
         21   -1    0    0  501  502  0.00000000000E+00  0.00000000000E+00  0.17421663351E+03  0.17421663351E+03  0.00000000000E+00 0. -1.
         21   -1    0    0  502  503 -0.00000000000E+00 -0.00000000000E+00 -0.11229136315E+04  0.11229136315E+04  0.00000000000E+00 0.  1.
          6    1    1    2  501    0  0.14756116183E+03  0.11914182441E+03  0.54505919759E+02  0.26177082743E+03  0.17200000000E+03 0. -1.
         -6    1    1    2    0  503 -0.14756116183E+03 -0.11914182441E+03 -0.10032029177E+04  0.10353594376E+04  0.17200000000E+03 0. -1.
</event>
<event>
 4    1  0.1211980E+000  0.3538598E+03  0.7818608E-02  0.1061042E+00
         21   -1    0    0  501  502  0.00000000000E+00  0.00000000000E+00  0.33874187782E+03  0.33874187782E+03  0.00000000000E+00 0.  1.
         21   -1    0    0  502  503 -0.00000000000E+00 -0.00000000000E+00 -0.37008285699E+03  0.37008285699E+03  0.00000000000E+00 0. -1.
          6    1    1    2  501    0 -0.22263534763E+03 -0.21463049814E+03 -0.27757623314E+02  0.35494680503E+03  0.17200000000E+03 0.  1.
         -6    1    1    2    0  503  0.22263534763E+03  0.21463049814E+03 -0.35833558575E+01  0.35387792978E+03  0.17200000000E+03 0.  1.
</event>
<event>
 4    1  0.1211980E+000  0.1869972E+03  0.7818608E-02  0.1161198E+00
         21   -1    0    0  501  502  0.00000000000E+00  0.00000000000E+00  0.19333777873E+03  0.19333777873E+03  0.00000000000E+00 0.  1.
         21   -1    0    0  502  503 -0.00000000000E+00 -0.00000000000E+00 -0.18433026081E+03  0.18433026081E+03  0.00000000000E+00 0.  1.
          6    1    1    2  501    0  0.64817137402E+02  0.34390044700E+02  0.30396771121E+02  0.18945157738E+03  0.17200000000E+03 0.  1.
         -6    1    1    2    0  503 -0.64817137402E+02 -0.34390044700E+02 -0.21389253201E+02  0.18821646216E+03  0.17200000000E+03 0.  1.
</event>
<event>
 4    1  0.1211980E+000  0.1901346E+03  0.7818608E-02  0.1158340E+00
         21   -1    0    0  501  502  0.00000000000E+00  0.00000000000E+00  0.27091932348E+03  0.27091932348E+03  0.00000000000E+00 0. -1.
         21   -1    0    0  502  503 -0.00000000000E+00 -0.00000000000E+00 -0.20478923716E+03  0.20478923716E+03  0.00000000000E+00 0. -1.
          6    1    1    2  501    0 -0.68606680255E+02  0.43130963594E+02  0.17346133769E+03  0.25737131205E+03  0.17200000000E+03 0. -1.
         -6    1    1    2    0  503  0.68606680255E+02 -0.43130963594E+02 -0.10733125137E+03  0.21833724858E+03  0.17200000000E+03 0. -1.
</event>
<event>
 4    1  0.1211980E+000  0.1881852E+03  0.7818608E-02  0.1160108E+00
         21   -1    0    0  501  502  0.00000000000E+00  0.00000000000E+00  0.74171686536E+03  0.74171686536E+03  0.00000000000E+00 0. -1.
         21   -1    0    0  502  503 -0.00000000000E+00 -0.00000000000E+00 -0.81602715757E+02  0.81602715757E+02  0.00000000000E+00 0. -1.
          6    1    1    2  501    0  0.26985434904E+02 -0.71424519990E+02  0.59521919101E+03  0.62425920986E+03  0.17200000000E+03 0. -1.
         -6    1    1    2    0  503 -0.26985434904E+02  0.71424519990E+02  0.64894958593E+02  0.19906037125E+03  0.17200000000E+03 0. -1.
</event>
<event>
 4    1  0.1211980E+000  0.2474690E+03  0.7818608E-02  0.1114915E+00
         21   -1    0    0  503  502  0.00000000000E+00  0.00000000000E+00  0.84560522027E+02  0.84560522027E+02  0.00000000000E+00 0. -1.
         21   -1    0    0  501  503 -0.00000000000E+00 -0.00000000000E+00 -0.10043491098E+04  0.10043491098E+04  0.00000000000E+00 0.  1.
          6    1    1    2  501    0 -0.17262271231E+03  0.43108333381E+02 -0.74743144022E+03  0.78733391076E+03  0.17200000000E+03 0. -1.
         -6    1    1    2    0  502  0.17262271231E+03 -0.43108333381E+02 -0.17235714752E+03  0.30157572103E+03  0.17200000000E+03 0. -1.
</event>
<event>
 4    1  0.1211980E+000  0.2300179E+03  0.7818608E-02  0.1126627E+00
         21   -1    0    0  501  502  0.00000000000E+00  0.00000000000E+00  0.82036695176E+02  0.82036695176E+02  0.00000000000E+00 0. -1.
         21   -1    0    0  502  503 -0.00000000000E+00 -0.00000000000E+00 -0.15976654832E+04  0.15976654832E+04  0.00000000000E+00 0. -1.
          6    1    1    2  501    0 -0.69906147511E+02 -0.13578420939E+03 -0.10926252752E+03  0.25464980051E+03  0.17200000000E+03 0. -1.
         -6    1    1    2    0  503  0.69906147511E+02  0.13578420939E+03 -0.14063662605E+04  0.14250523778E+04  0.17200000000E+03 0. -1.
</event>
<event>
 4    1  0.1211980E+000  0.3399183E+03  0.7818608E-02  0.1066831E+00
         21   -1    0    0  503  502  0.00000000000E+00  0.00000000000E+00  0.24638418622E+04  0.24638418622E+04  0.00000000000E+00 0.  1.
         21   -1    0    0  501  503 -0.00000000000E+00 -0.00000000000E+00 -0.62705368816E+02  0.62705368816E+02  0.00000000000E+00 0.  1.
          6    1    1    2  501    0  0.93221979868E+02 -0.27797502202E+03  0.56625811922E+03  0.66044886856E+03  0.17200000000E+03 0.  1.
         -6    1    1    2    0  502 -0.93221979868E+02  0.27797502202E+03  0.18348783742E+04  0.18660983625E+04  0.17200000000E+03 0.  1.
</event>
<event>
 4    1  0.1211980E+000  0.2100707E+03  0.7818608E-02  0.1141510E+00
         21   -1    0    0  501  502  0.00000000000E+00  0.00000000000E+00  0.43247930088E+03  0.43247930088E+03  0.00000000000E+00 0. -1.
         21   -1    0    0  502  503 -0.00000000000E+00 -0.00000000000E+00 -0.11512357748E+03  0.11512357748E+03  0.00000000000E+00 0.  1.
          6    1    1    2  501    0 -0.11877072964E+03  0.20957123412E+02  0.25098516311E+03  0.32729686729E+03  0.17200000000E+03 0. -1.
         -6    1    1    2    0  503  0.11877072964E+03 -0.20957123412E+02  0.66370560292E+02  0.22030601107E+03  0.17200000000E+03 0.  1.
</event>
<event>
 4    1  0.1211980E+000  0.1878655E+03  0.7818608E-02  0.1160401E+00
         21   -1    0    0  501  502  0.00000000000E+00  0.00000000000E+00  0.49642476918E+03  0.49642476918E+03  0.00000000000E+00 0.  1.
         21   -1    0    0  502  503 -0.00000000000E+00 -0.00000000000E+00 -0.73607864792E+02  0.73607864792E+02  0.00000000000E+00 0.  1.
          6    1    1    2  501    0 -0.37829410370E+02  0.65409251323E+02  0.26406738716E+03  0.32407563841E+03  0.17200000000E+03 0.  1.
         -6    1    1    2    0  503  0.37829410370E+02 -0.65409251323E+02  0.15874951723E+03  0.24595699557E+03  0.17200000000E+03 0.  1.
</event>
<event>
 4    1  0.1211980E+000  0.2058232E+03  0.7818608E-02  0.1144917E+00
         21   -1    0    0  503  502  0.00000000000E+00  0.00000000000E+00  0.13184296237E+04  0.13184296237E+04  0.00000000000E+00 0.  1.
         21   -1    0    0  501  503 -0.00000000000E+00 -0.00000000000E+00 -0.63515165111E+02  0.63515165111E+02  0.00000000000E+00 0. -1.
          6    1    1    2  501    0  0.16244540855E+02 -0.11187177165E+03  0.14175117970E+03  0.24991313560E+03  0.17200000000E+03 0. -1.
         -6    1    1    2    0  502 -0.16244540855E+02  0.11187177165E+03  0.11131632789E+04  0.11320316532E+04  0.17200000000E+03 0.  1.
</event>
<event>
 4    1  0.1211980E+000  0.1967032E+03  0.7818608E-02  0.1152551E+00
         21   -1    0    0  501  502  0.00000000000E+00  0.00000000000E+00  0.37936185506E+03  0.37936185506E+03  0.00000000000E+00 0. -1.
         21   -1    0    0  502  503 -0.00000000000E+00 -0.00000000000E+00 -0.11082697684E+03  0.11082697684E+03  0.00000000000E+00 0. -1.
          6    1    1    2  501    0  0.92875418557E+02 -0.21961638489E+02  0.20346568254E+03  0.28300254576E+03  0.17200000000E+03 0. -1.
         -6    1    1    2    0  503 -0.92875418557E+02  0.21961638489E+02  0.65069195680E+02  0.20718628614E+03  0.17200000000E+03 0. -1.
</event>
<event>
 4    1  0.1211980E+000  0.2153171E+03  0.7818608E-02  0.1137423E+00
         21   -1    0    0  501  502  0.00000000000E+00  0.00000000000E+00  0.11714350576E+03  0.11714350576E+03  0.00000000000E+00 0.  1.
         21   -1    0    0  502  503 -0.00000000000E+00 -0.00000000000E+00 -0.40963095821E+03  0.40963095821E+03  0.00000000000E+00 0.  1.
          6    1    1    2  501    0 -0.14720352686E+01 -0.12951946299E+03 -0.97787223202E+02  0.23648213295E+03  0.17200000000E+03 0.  1.
         -6    1    1    2    0  503  0.14720352686E+01  0.12951946299E+03 -0.19470022925E+03  0.29029233102E+03  0.17200000000E+03 0.  1.
</event>
<event>
 4    1  0.1211980E+000  0.1923840E+03  0.7818608E-02  0.1156329E+00
         21   -1    0    0  501  502  0.00000000000E+00  0.00000000000E+00  0.61996688382E+03  0.61996688382E+03  0.00000000000E+00 0.  1.
         21   -1    0    0  502  503 -0.00000000000E+00 -0.00000000000E+00 -0.10091654661E+03  0.10091654661E+03  0.00000000000E+00 0. -1.
          6    1    1    2  501    0 -0.65398138645E+02  0.56130901534E+02  0.48987786367E+03  0.52630021467E+03  0.17200000000E+03 0.  1.
         -6    1    1    2    0  503  0.65398138645E+02 -0.56130901534E+02  0.29172473536E+02  0.19458321577E+03  0.17200000000E+03 0. -1.
</event>
<event>
 4    1  0.1211980E+000  0.1974748E+03  0.7818608E-02  0.1151887E+00
         21   -1    0    0  501  502  0.00000000000E+00  0.00000000000E+00  0.18106254424E+03  0.18106254424E+03  0.00000000000E+00 0. -1.
         21   -1    0    0  502  503 -0.00000000000E+00 -0.00000000000E+00 -0.27907437518E+03  0.27907437518E+03  0.00000000000E+00 0. -1.
          6    1    1    2  501    0  0.93945747722E+02 -0.24217875127E+02  0.60911213809E+02  0.20665547406E+03  0.17200000000E+03 0. -1.
         -6    1    1    2    0  503 -0.93945747722E+02  0.24217875127E+02 -0.15892304475E+03  0.25348144536E+03  0.17200000000E+03 0. -1.
</event>
<event>
 4    1  0.1211980E+000  0.2005955E+03  0.7818608E-02  0.1149238E+00
         21   -1    0    0  503  502  0.00000000000E+00  0.00000000000E+00  0.35570674844E+03  0.35570674844E+03  0.00000000000E+00 0.  1.
         21   -1    0    0  501  503 -0.00000000000E+00 -0.00000000000E+00 -0.19871100434E+03  0.19871100434E+03  0.00000000000E+00 0. -1.
          6    1    1    2  501    0  0.68438681417E+02  0.77270292911E+02 -0.10343160631E+03  0.22569148957E+03  0.17200000000E+03 0. -1.
         -6    1    1    2    0  502 -0.68438681417E+02 -0.77270292911E+02  0.26042735041E+03  0.32872626321E+03  0.17200000000E+03 0.  1.
</event>
<event>
 4    1  0.1211980E+000  0.2051580E+03  0.7818608E-02  0.1145459E+00
         21   -1    0    0  503  502  0.00000000000E+00  0.00000000000E+00  0.51283757915E+03  0.51283757915E+03  0.00000000000E+00 0. -1.
         21   -1    0    0  501  503 -0.00000000000E+00 -0.00000000000E+00 -0.98907564829E+02  0.98907564829E+02  0.00000000000E+00 0. -1.
          6    1    1    2  501    0  0.10757088841E+03  0.30566273057E+02  0.80772108686E+02  0.22048566081E+03  0.17200000000E+03 0. -1.
         -6    1    1    2    0  502 -0.10757088841E+03 -0.30566273057E+02  0.33315790564E+03  0.39125948317E+03  0.17200000000E+03 0. -1.
</event>
<event>
 4    1  0.1211980E+000  0.1851423E+03  0.7818608E-02  0.1162917E+00
         21   -1    0    0  503  502  0.00000000000E+00  0.00000000000E+00  0.52809392543E+03  0.52809392543E+03  0.00000000000E+00 0.  1.
         21   -1    0    0  501  503 -0.00000000000E+00 -0.00000000000E+00 -0.84956829832E+02  0.84956829832E+02  0.00000000000E+00 0.  1.
          6    1    1    2  501    0 -0.46502797232E+02  0.50310686359E+02  0.72663772031E+02  0.19889117396E+03  0.17200000000E+03 0.  1.
         -6    1    1    2    0  502  0.46502797232E+02 -0.50310686359E+02  0.37047332357E+03  0.41415958131E+03  0.17200000000E+03 0.  1.
</event>
<event>
 4    1  0.1211980E+000  0.1850254E+03  0.7818608E-02  0.1163026E+00
         21   -1    0    0  503  502  0.00000000000E+00  0.00000000000E+00  0.57432503522E+03  0.57432503522E+03  0.00000000000E+00 0. -1.
         21   -1    0    0  501  503 -0.00000000000E+00 -0.00000000000E+00 -0.62450989884E+02  0.62450989884E+02  0.00000000000E+00 0. -1.
          6    1    1    2  501    0 -0.42406326426E+02 -0.53405007078E+02  0.18800548738E+03  0.26378107322E+03  0.17200000000E+03 0. -1.
         -6    1    1    2    0  502  0.42406326426E+02  0.53405007078E+02  0.32386855795E+03  0.37299495188E+03  0.17200000000E+03 0. -1.
</event>
<event>
 4    1  0.1211980E+000  0.3032988E+03  0.7818608E-02  0.1083603E+00
         21   -1    0    0  503  502  0.00000000000E+00  0.00000000000E+00  0.15424769217E+03  0.15424769217E+03  0.00000000000E+00 0. -1.
         21   -1    0    0  501  503 -0.00000000000E+00 -0.00000000000E+00 -0.61284801151E+03  0.61284801151E+03  0.00000000000E+00 0.  1.
          6    1    1    2  501    0  0.18437565467E+03 -0.16855797749E+03 -0.16642642061E+03  0.34595943012E+03  0.17200000000E+03 0. -1.
         -6    1    1    2    0  502 -0.18437565467E+03  0.16855797749E+03 -0.29217389872E+03  0.42113627356E+03  0.17200000000E+03 0. -1.
</event>
<event>
 4    1  0.1211980E+000  0.2279072E+03  0.7818608E-02  0.1128122E+00
         21   -1    0    0  503  502  0.00000000000E+00  0.00000000000E+00  0.65366982902E+03  0.65366982902E+03  0.00000000000E+00 0.  1.
         21   -1    0    0  501  503 -0.00000000000E+00 -0.00000000000E+00 -0.87798738064E+02  0.87798738064E+02  0.00000000000E+00 0.  1.
          6    1    1    2  501    0  0.57385099702E+02 -0.13807470286E+03  0.16869343898E+03  0.28354743799E+03  0.17200000000E+03 0. -1.
         -6    1    1    2    0  502 -0.57385099702E+02  0.13807470286E+03  0.39717765197E+03  0.45792112909E+03  0.17200000000E+03 0. -1.
</event>
<event>
 4    1  0.1211980E+000  0.2302767E+03  0.7818608E-02  0.1126445E+00
         21   -1    0    0  501  502  0.00000000000E+00  0.00000000000E+00  0.26041541625E+03  0.26041541625E+03  0.00000000000E+00 0.  1.
         21   -1    0    0  502  503 -0.00000000000E+00 -0.00000000000E+00 -0.26702406249E+03  0.26702406249E+03  0.00000000000E+00 0.  1.
          6    1    1    2  501    0  0.89412487281E+02 -0.12429300444E+03  0.12519638069E+03  0.26210966707E+03  0.17200000000E+03 0.  1.
         -6    1    1    2    0  503 -0.89412487281E+02  0.12429300444E+03 -0.13180502693E+03  0.26532981167E+03  0.17200000000E+03 0.  1.
</event>
<event>
 4    1  0.1211980E+000  0.1811124E+03  0.7818608E-02  0.1166731E+00
         21   -1    0    0  501  502  0.00000000000E+00  0.00000000000E+00  0.97497173023E+02  0.97497173023E+02  0.00000000000E+00 0.  1.
         21   -1    0    0  502  503 -0.00000000000E+00 -0.00000000000E+00 -0.56388821880E+03  0.56388821880E+03  0.00000000000E+00 0.  1.
          6    1    1    2  501    0 -0.21184853223E+02  0.52620261709E+02 -0.44322096026E+03  0.47879693980E+03  0.17200000000E+03 0.  1.
         -6    1    1    2    0  503  0.21184853223E+02 -0.52620261709E+02 -0.23170085514E+02  0.18258845202E+03  0.17200000000E+03 0.  1.
</event>
<event>
 4    1  0.1211980E+000  0.2055071E+03  0.7818608E-02  0.1145174E+00
         21   -1    0    0  501  502  0.00000000000E+00  0.00000000000E+00  0.22905472045E+03  0.22905472045E+03  0.00000000000E+00 0.  1.
         21   -1    0    0  502  503 -0.00000000000E+00 -0.00000000000E+00 -0.19455967458E+03  0.19455967458E+03  0.00000000000E+00 0.  1.
          6    1    1    2  501    0 -0.28309586731E+02  0.10884731659E+03 -0.31200437881E+02  0.20786206569E+03  0.17200000000E+03 0.  1.
         -6    1    1    2    0  503  0.28309586731E+02 -0.10884731659E+03  0.65695483754E+02  0.21575232934E+03  0.17200000000E+03 0.  1.
</event>
<event>
 4    1  0.1211980E+000  0.1958692E+03  0.7818608E-02  0.1153272E+00
         21   -1    0    0  503  502  0.00000000000E+00  0.00000000000E+00  0.38797870493E+03  0.38797870493E+03  0.00000000000E+00 0. -1.
         21   -1    0    0  501  503 -0.00000000000E+00 -0.00000000000E+00 -0.30955414117E+03  0.30955414117E+03  0.00000000000E+00 0.  1.
          6    1    1    2  501    0 -0.92867541484E+02  0.12505025982E+02 -0.24850648973E+03  0.31641781140E+03  0.17200000000E+03 0.  1.
         -6    1    1    2    0  502  0.92867541484E+02 -0.12505025982E+02  0.32693105349E+03  0.38111503470E+03  0.17200000000E+03 0. -1.
</event>
<event>
 4    1  0.1211980E+000  0.2125636E+03  0.7818608E-02  0.1139552E+00
         21   -1    0    0  501  502  0.00000000000E+00  0.00000000000E+00  0.48296703764E+03  0.48296703764E+03  0.00000000000E+00 0.  1.
         21   -1    0    0  502  503 -0.00000000000E+00 -0.00000000000E+00 -0.30041850602E+03  0.30041850602E+03  0.00000000000E+00 0. -1.
          6    1    1    2  501    0 -0.92114308971E+02  0.84345959481E+02  0.41630592594E+03  0.46743332227E+03  0.17200000000E+03 0.  1.
         -6    1    1    2    0  503  0.92114308971E+02 -0.84345959481E+02 -0.23375739432E+03  0.31595222139E+03  0.17200000000E+03 0. -1.
</event>
<event>
 4    1  0.1211980E+000  0.2258736E+03  0.7818608E-02  0.1129578E+00
         21   -1    0    0  503  502  0.00000000000E+00  0.00000000000E+00  0.67152596865E+03  0.67152596865E+03  0.00000000000E+00 0.  1.
         21   -1    0    0  501  503 -0.00000000000E+00 -0.00000000000E+00 -0.76028112925E+02  0.76028112925E+02  0.00000000000E+00 0. -1.
          6    1    1    2  501    0  0.31379610549E+02 -0.14300424251E+03  0.28782926384E+03  0.36587508586E+03  0.17200000000E+03 0. -1.
         -6    1    1    2    0  502 -0.31379610549E+02  0.14300424251E+03  0.30766859189E+03  0.38167899571E+03  0.17200000000E+03 0. -1.
</event>
<event>
 4    1  0.1211980E+000  0.2728822E+03  0.7818608E-02  0.1099641E+00
         21   -1    0    0  503  502  0.00000000000E+00  0.00000000000E+00  0.14337625244E+03  0.14337625244E+03  0.00000000000E+00 0.  1.
         21   -1    0    0  501  503 -0.00000000000E+00 -0.00000000000E+00 -0.65198121315E+03  0.65198121315E+03  0.00000000000E+00 0.  1.
          6    1    1    2  501    0  0.20860283196E+03  0.36953548799E+02 -0.74948092122E+02  0.28298749580E+03  0.17200000000E+03 0.  1.
         -6    1    1    2    0  502 -0.20860283196E+03 -0.36953548799E+02 -0.43365686858E+03  0.51236996978E+03  0.17200000000E+03 0.  1.
</event>
<event>
 4    1  0.1211980E+000  0.3134024E+03  0.7818608E-02  0.1078726E+00
         21   -1    0    0  501  502  0.00000000000E+00  0.00000000000E+00  0.11485794764E+03  0.11485794764E+03  0.00000000000E+00 0. -1.
         21   -1    0    0  502  503 -0.00000000000E+00 -0.00000000000E+00 -0.10011213125E+04  0.10011213125E+04  0.00000000000E+00 0.  1.
          6    1    1    2  501    0  0.22761091924E+03  0.12973181036E+03 -0.65619694764E+03  0.72719702095E+03  0.17200000000E+03 0. -1.
         -6    1    1    2    0  503 -0.22761091924E+03 -0.12973181036E+03 -0.23006641720E+03  0.38878223917E+03  0.17200000000E+03 0. -1.
</event>
<event>
 4    1  0.1211980E+000  0.1977201E+03  0.7818608E-02  0.1151677E+00
         21   -1    0    0  501  502  0.00000000000E+00  0.00000000000E+00  0.14794882360E+03  0.14794882360E+03  0.00000000000E+00 0. -1.
         21   -1    0    0  502  503 -0.00000000000E+00 -0.00000000000E+00 -0.83528924086E+03  0.83528924086E+03  0.00000000000E+00 0.  1.
          6    1    1    2  501    0 -0.89974449070E+02  0.37600805016E+02  0.62818995113E+02  0.20745950971E+03  0.17200000000E+03 0. -1.
         -6    1    1    2    0  503  0.89974449070E+02 -0.37600805016E+02 -0.75015941238E+03  0.77577855475E+03  0.17200000000E+03 0.  1.
</event>
<event>
 4    1  0.1211980E+000  0.2443380E+03  0.7818608E-02  0.1116936E+00
         21   -1    0    0  501  502  0.00000000000E+00  0.00000000000E+00  0.14873093524E+03  0.14873093524E+03  0.00000000000E+00 0. -1.
         21   -1    0    0  502  503 -0.00000000000E+00 -0.00000000000E+00 -0.40638190230E+03  0.40638190230E+03  0.00000000000E+00 0.  1.
          6    1    1    2  501    0 -0.17242133663E+03 -0.19695780132E+02 -0.98103331329E+02  0.26329698953E+03  0.17200000000E+03 0. -1.
         -6    1    1    2    0  503  0.17242133663E+03  0.19695780132E+02 -0.15954763573E+03  0.29181584800E+03  0.17200000000E+03 0. -1.
</event>
<event>
 4    1  0.1211980E+000  0.1727884E+03  0.7818608E-02  0.1174971E+00
         21   -1    0    0  503  502  0.00000000000E+00  0.00000000000E+00  0.80749290165E+02  0.80749290165E+02  0.00000000000E+00 0.  1.
         21   -1    0    0  501  503 -0.00000000000E+00 -0.00000000000E+00 -0.44176015129E+03  0.44176015129E+03  0.00000000000E+00 0.  1.
          6    1    1    2  501    0 -0.16336061601E+02 -0.22282759208E+01 -0.28599589795E+03  0.33413991945E+03  0.17200000000E+03 0. -1.
         -6    1    1    2    0  502  0.16336061601E+02  0.22282759208E+01 -0.75014963173E+02  0.18836952201E+03  0.17200000000E+03 0. -1.
</event>
<event>
 4    1  0.1211980E+000  0.1955479E+03  0.7818608E-02  0.1153551E+00
         21   -1    0    0  501  502  0.00000000000E+00  0.00000000000E+00  0.61572508892E+02  0.61572508892E+02  0.00000000000E+00 0. -1.
         21   -1    0    0  502  503 -0.00000000000E+00 -0.00000000000E+00 -0.10940479997E+04  0.10940479997E+04  0.00000000000E+00 0. -1.
          6    1    1    2  501    0 -0.53889995677E+02  0.75834344832E+02 -0.13630967246E+03  0.23836800603E+03  0.17200000000E+03 0. -1.
         -6    1    1    2    0  503  0.53889995677E+02 -0.75834344832E+02 -0.89616581833E+03  0.91725250255E+03  0.17200000000E+03 0. -1.
</event>
<event>
 4    1  0.1211980E+000  0.2122183E+03  0.7818608E-02  0.1139821E+00
         21   -1    0    0  503  502  0.00000000000E+00  0.00000000000E+00  0.65051477495E+03  0.65051477495E+03  0.00000000000E+00 0. -1.
         21   -1    0    0  501  503 -0.00000000000E+00 -0.00000000000E+00 -0.10539375717E+03  0.10539375717E+03  0.00000000000E+00 0.  1.
          6    1    1    2  501    0  0.12341872232E+03  0.14846062257E+02  0.51171932429E+02  0.21830060296E+03  0.17200000000E+03 0.  1.
         -6    1    1    2    0  502 -0.12341872232E+03 -0.14846062257E+02  0.49394908535E+03  0.53760792917E+03  0.17200000000E+03 0. -1.
</event>
<event>
 4    1  0.1211980E+000  0.2001063E+03  0.7818608E-02  0.1149649E+00
         21   -1    0    0  503  502  0.00000000000E+00  0.00000000000E+00  0.55766374852E+02  0.55766374852E+02  0.00000000000E+00 0. -1.
         21   -1    0    0  501  503 -0.00000000000E+00 -0.00000000000E+00 -0.74371199394E+03  0.74371199394E+03  0.00000000000E+00 0. -1.
          6    1    1    2  501    0  0.71207347109E+02  0.73403424450E+02 -0.41823963263E+03  0.46364527314E+03  0.17200000000E+03 0. -1.
         -6    1    1    2    0  502 -0.71207347109E+02 -0.73403424450E+02 -0.26970598646E+03  0.33583309565E+03  0.17200000000E+03 0. -1.
</event>
<event>
 4    1  0.1211980E+000  0.1830838E+03  0.7818608E-02  0.1164851E+00
         21   -1    0    0  501  502  0.00000000000E+00  0.00000000000E+00  0.22563093736E+03  0.22563093736E+03  0.00000000000E+00 0. -1.
         21   -1    0    0  502  503 -0.00000000000E+00 -0.00000000000E+00 -0.15048393138E+03  0.15048393138E+03  0.00000000000E+00 0. -1.
          6    1    1    2  501    0  0.35204092076E+02 -0.51926495362E+02  0.16308680723E+02  0.18380876499E+03  0.17200000000E+03 0. -1.
         -6    1    1    2    0  503 -0.35204092076E+02  0.51926495362E+02  0.58838325258E+02  0.19230610375E+03  0.17200000000E+03 0. -1.
</event>
<event>
 4    1  0.1211980E+000  0.1799523E+03  0.7818608E-02  0.1167849E+00
         21   -1    0    0  501  502  0.00000000000E+00  0.00000000000E+00  0.61490797088E+02  0.61490797088E+02  0.00000000000E+00 0. -1.
         21   -1    0    0  502  503 -0.00000000000E+00 -0.00000000000E+00 -0.79382021184E+03  0.79382021184E+03  0.00000000000E+00 0.  1.
          6    1    1    2  501    0 -0.48656623901E+02 -0.20769253582E+02 -0.11805475742E+03  0.21522024694E+03  0.17200000000E+03 0. -1.
         -6    1    1    2    0  503  0.48656623901E+02  0.20769253582E+02 -0.61427465733E+03  0.64009076199E+03  0.17200000000E+03 0.  1.
</event>
<event>
 4    1  0.1211980E+000  0.2217200E+03  0.7818608E-02  0.1132607E+00
         21   -1    0    0  501  502  0.00000000000E+00  0.00000000000E+00  0.47617757678E+03  0.47617757678E+03  0.00000000000E+00 0.  1.
         21   -1    0    0  502  503 -0.00000000000E+00 -0.00000000000E+00 -0.15117719831E+03  0.15117719831E+03  0.00000000000E+00 0.  1.
          6    1    1    2  501    0  0.12074207839E+03  0.70690370237E+02  0.33913811391E+03  0.40518444966E+03  0.17200000000E+03 0.  1.
         -6    1    1    2    0  503 -0.12074207839E+03 -0.70690370237E+02 -0.14137735446E+02  0.22217032543E+03  0.17200000000E+03 0.  1.
</event>
<event>
 4    1  0.1211980E+000  0.2143664E+03  0.7818608E-02  0.1138154E+00
         21   -1    0    0  503  502  0.00000000000E+00  0.00000000000E+00  0.18792027919E+03  0.18792027919E+03  0.00000000000E+00 0.  1.
         21   -1    0    0  501  503 -0.00000000000E+00 -0.00000000000E+00 -0.39700367902E+03  0.39700367902E+03  0.00000000000E+00 0. -1.
          6    1    1    2  501    0  0.53499646049E+02  0.11621849439E+03  0.76702238219E+02  0.22767561115E+03  0.17200000000E+03 0.  1.
         -6    1    1    2    0  502 -0.53499646049E+02 -0.11621849439E+03 -0.28578563805E+03  0.35724834706E+03  0.17200000000E+03 0. -1.
</event>
<event>
 4    1  0.1211980E+000  0.1831599E+03  0.7818608E-02  0.1164779E+00
         21   -1    0    0  501  502  0.00000000000E+00  0.00000000000E+00  0.30564216364E+03  0.30564216364E+03  0.00000000000E+00 0. -1.
         21   -1    0    0  502  503 -0.00000000000E+00 -0.00000000000E+00 -0.10994409069E+03  0.10994409069E+03  0.00000000000E+00 0. -1.
          6    1    1    2  501    0  0.33806236883E+02  0.53110000928E+02  0.10633291205E+03  0.21178815367E+03  0.17200000000E+03 0.  1.
         -6    1    1    2    0  503 -0.33806236883E+02 -0.53110000928E+02  0.89365160888E+02  0.20379810066E+03  0.17200000000E+03 0.  1.
</event>
<event>
 4    1  0.1211980E+000  0.1926527E+03  0.7818608E-02  0.1156090E+00
         21   -1    0    0  503  502  0.00000000000E+00  0.00000000000E+00  0.34996747088E+03  0.34996747088E+03  0.00000000000E+00 0.  1.
         21   -1    0    0  501  503 -0.00000000000E+00 -0.00000000000E+00 -0.10729613957E+03  0.10729613957E+03  0.00000000000E+00 0.  1.
          6    1    1    2  501    0 -0.86483214779E+02  0.71916125117E+01  0.96725091735E+02  0.21557089112E+03  0.17200000000E+03 0.  1.
         -6    1    1    2    0  502  0.86483214779E+02 -0.71916125117E+01  0.14594623958E+03  0.24169271933E+03  0.17200000000E+03 0.  1.
</event>
<event>
 4    1  0.1211980E+000  0.1783507E+03  0.7818608E-02  0.1169409E+00
         21   -1    0    0  501  502  0.00000000000E+00  0.00000000000E+00  0.19236585844E+04  0.19236585844E+04  0.00000000000E+00 0.  1.
         21   -1    0    0  502  503 -0.00000000000E+00 -0.00000000000E+00 -0.38232983685E+02  0.38232983685E+02  0.00000000000E+00 0.  1.
          6    1    1    2  501    0 -0.19007877861E+02  0.43170075257E+02  0.16816866031E+04  0.16911176144E+04  0.17200000000E+03 0.  1.
         -6    1    1    2    0  503  0.19007877861E+02 -0.43170075257E+02  0.20373899758E+03  0.27077395361E+03  0.17200000000E+03 0.  1.
</event>
