<event>
 4    1  0.1059899E+000  0.1753894E+03  0.7818608E-02  0.1172341E+00
          2   -1    0    0  502    0  0.00000000000E+00  0.00000000000E+00  0.13365325395E+04  0.13365325395E+04  0.00000000000E+00 0. -1.
         -2   -1    0    0    0  501 -0.00000000000E+00 -0.00000000000E+00 -0.28404039124E+02  0.28404039124E+02  0.00000000000E+00 0.  1.
          6    1    1    2  502    0 -0.15091860825E+02 -0.30816708688E+02  0.35681976864E+03  0.39759499631E+03  0.17200000000E+03 0.  1.
         -6    1    1    2    0  501  0.15091860825E+02  0.30816708688E+02  0.95130873174E+03  0.96734158232E+03  0.17200000000E+03 0. -1.
</event>
<event>
 4    1  0.1059899E+000  0.1742393E+03  0.7818608E-02  0.1173498E+00
         -2   -1    0    0    0  501 -0.00000000000E+00  0.00000000000E+00  0.40982666535E+02  0.40982666535E+02  0.00000000000E+00 0.  1.
          2   -1    0    0  502    0  0.00000000000E+00 -0.00000000000E+00 -0.78766612777E+03  0.78766612777E+03  0.00000000000E+00 0. -1.
          6    1    1    2  502    0 -0.44336712242E+01 -0.27489560972E+02 -0.47442277402E+03  0.50540706556E+03  0.17200000000E+03 0. -1.
         -6    1    1    2    0  501  0.44336712242E+01  0.27489560972E+02 -0.27226068721E+03  0.32324172875E+03  0.17200000000E+03 0.  1.
</event>
<event>
 4    1  0.1059899E+000  0.1741803E+03  0.7818608E-02  0.1173557E+00
          1   -1    0    0  502    0  0.00000000000E+00  0.00000000000E+00  0.25056281492E+03  0.25056281492E+03  0.00000000000E+00 0.  1.
         -1   -1    0    0    0  501 -0.00000000000E+00 -0.00000000000E+00 -0.12624212895E+03  0.12624212895E+03  0.00000000000E+00 0. -1.
          6    1    1    2  502    0  0.23999112855E+02  0.13371924543E+02  0.10024891823E+03  0.20096918020E+03  0.17200000000E+03 0.  1.
         -6    1    1    2    0  501 -0.23999112855E+02 -0.13371924543E+02  0.24071767747E+02  0.17583576367E+03  0.17200000000E+03 0. -1.
</event>
<event>
 4    1  0.1059899E+000  0.1857360E+03  0.7818608E-02  0.1162364E+00
          2   -1    0    0  502    0  0.00000000000E+00  0.00000000000E+00  0.20032126866E+04  0.20032126866E+04  0.00000000000E+00 0. -1.
         -2   -1    0    0    0  501 -0.00000000000E+00 -0.00000000000E+00 -0.26768181325E+02  0.26768181325E+02  0.00000000000E+00 0.  1.
          6    1    1    2  502    0 -0.29369082471E+02 -0.63649863560E+02  0.38206658567E+03  0.42482081401E+03  0.17200000000E+03 0.  1.
         -6    1    1    2    0  501  0.29369082471E+02  0.63649863560E+02  0.15943779196E+04  0.16051600539E+04  0.17200000000E+03 0. -1.
</event>
<event>
 4    1  0.1059899E+000  0.4826067E+03  0.7818608E-02  0.1018421E+00
          2   -1    0    0  502    0  0.00000000000E+00  0.00000000000E+00  0.38614265610E+03  0.38614265610E+03  0.00000000000E+00 0. -1.
         -2   -1    0    0    0  501 -0.00000000000E+00 -0.00000000000E+00 -0.73754033822E+03  0.73754033822E+03  0.00000000000E+00 0.  1.
          6    1    1    2  502    0  0.44159591121E+03 -0.91204707398E+02 -0.41551275655E+03  0.63683600582E+03  0.17200000000E+03 0.  1.
         -6    1    1    2    0  501 -0.44159591121E+03  0.91204707398E+02  0.64115074431E+02  0.48684698850E+03  0.17200000000E+03 0. -1.
</event>
<event>
 4    1  0.1059899E+000  0.2195700E+03  0.7818608E-02  0.1134204E+00
          1   -1    0    0  502    0  0.00000000000E+00  0.00000000000E+00  0.51383023061E+03  0.51383023061E+03  0.00000000000E+00 0.  1.
         -1   -1    0    0    0  501 -0.00000000000E+00 -0.00000000000E+00 -0.10548836998E+03  0.10548836998E+03  0.00000000000E+00 0. -1.
          6    1    1    2  502    0  0.74490281955E+02  0.11435993022E+03  0.10121243661E+03  0.24177459145E+03  0.17200000000E+03 0. -1.
         -6    1    1    2    0  501 -0.74490281955E+02 -0.11435993022E+03  0.30712942402E+03  0.37754400915E+03  0.17200000000E+03 0.  1.
</event>
<event>
 4    1  0.1059899E+000  0.1855888E+03  0.7818608E-02  0.1162501E+00
          2   -1    0    0  502    0  0.00000000000E+00  0.00000000000E+00  0.99601826179E+03  0.99601826179E+03  0.00000000000E+00 0.  1.
         -2   -1    0    0    0  501 -0.00000000000E+00 -0.00000000000E+00 -0.34937366050E+02  0.34937366050E+02  0.00000000000E+00 0. -1.
          6    1    1    2  502    0 -0.66481794424E+02 -0.20961056201E+02  0.42847112120E+03  0.46693757246E+03  0.17200000000E+03 0. -1.
         -6    1    1    2    0  501  0.66481794424E+02  0.20961056201E+02  0.53260977454E+03  0.56401805539E+03  0.17200000000E+03 0. -1.
</event>
<event>
 4    1  0.1059899E+000  0.2391081E+03  0.7818608E-02  0.1120388E+00
         -2   -1    0    0    0  501 -0.00000000000E+00  0.00000000000E+00  0.14077958328E+03  0.14077958328E+03  0.00000000000E+00 0.  1.
          2   -1    0    0  502    0  0.00000000000E+00 -0.00000000000E+00 -0.63715950455E+03  0.63715950455E+03  0.00000000000E+00 0. -1.
          6    1    1    2  502    0 -0.15466266886E+03  0.60565313520E+02 -0.48241825207E+03  0.53842368843E+03  0.17200000000E+03 0. -1.
         -6    1    1    2    0  501  0.15466266886E+03 -0.60565313520E+02 -0.13961669209E+02  0.23951539939E+03  0.17200000000E+03 0.  1.
</event>
<event>
 4    1  0.1059899E+000  0.2004992E+03  0.7818608E-02  0.1149319E+00
         -1   -1    0    0    0  501 -0.00000000000E+00  0.00000000000E+00  0.13446484686E+03  0.13446484686E+03  0.00000000000E+00 0.  1.
          1   -1    0    0  502    0  0.00000000000E+00 -0.00000000000E+00 -0.46721783834E+03  0.46721783834E+03  0.00000000000E+00 0. -1.
          6    1    1    2  502    0 -0.63460524545E+02  0.81170647313E+02  0.14158985809E+02  0.20099848019E+03  0.17200000000E+03 0.  1.
         -6    1    1    2    0  501  0.63460524545E+02 -0.81170647313E+02 -0.34691197729E+03  0.40068420501E+03  0.17200000000E+03 0. -1.
</event>
<event>
 4    1  0.1059899E+000  0.2858336E+03  0.7818608E-02  0.1092545E+00
         -1   -1    0    0    0  501 -0.00000000000E+00  0.00000000000E+00  0.30297958783E+03  0.30297958783E+03  0.00000000000E+00 0. -1.
          1   -1    0    0  502    0  0.00000000000E+00 -0.00000000000E+00 -0.64503814837E+03  0.64503814837E+03  0.00000000000E+00 0.  1.
          6    1    1    2  502    0  0.22570578531E+03  0.34260252042E+02 -0.53263011464E+03  0.60447969810E+03  0.17200000000E+03 0.  1.
         -6    1    1    2    0  501 -0.22570578531E+03 -0.34260252042E+02  0.19057155411E+03  0.34353803811E+03  0.17200000000E+03 0. -1.
</event>
<event>
 4    1  0.1059899E+000  0.1816151E+03  0.7818608E-02  0.1166249E+00
          2   -1    0    0  502    0  0.00000000000E+00  0.00000000000E+00  0.63540518536E+03  0.63540518536E+03  0.00000000000E+00 0. -1.
         -2   -1    0    0    0  501 -0.00000000000E+00 -0.00000000000E+00 -0.80920710340E+02  0.80920710340E+02  0.00000000000E+00 0.  1.
          6    1    1    2  502    0 -0.56246210410E+02  0.15375329909E+02  0.62791184810E+02  0.19216339361E+03  0.17200000000E+03 0.  1.
         -6    1    1    2    0  501  0.56246210410E+02 -0.15375329909E+02  0.49169329021E+03  0.52416250208E+03  0.17200000000E+03 0. -1.
</event>
<event>
 4    1  0.1059899E+000  0.2029625E+03  0.7818608E-02  0.1147263E+00
         -1   -1    0    0    0  501 -0.00000000000E+00  0.00000000000E+00  0.86187184671E+02  0.86187184671E+02  0.00000000000E+00 0. -1.
          1   -1    0    0  502    0  0.00000000000E+00 -0.00000000000E+00 -0.47982508463E+03  0.47982508463E+03  0.00000000000E+00 0.  1.
          6    1    1    2  502    0  0.35066733456E+02 -0.10188285055E+03 -0.17916174799E+03  0.27072628792E+03  0.17200000000E+03 0.  1.
         -6    1    1    2    0  501 -0.35066733456E+02  0.10188285055E+03 -0.21447615197E+03  0.29528598137E+03  0.17200000000E+03 0. -1.
</event>
<event>
 4    1  0.1059899E+000  0.1839195E+03  0.7818608E-02  0.1164063E+00
         -2   -1    0    0    0  501 -0.00000000000E+00  0.00000000000E+00  0.55587489900E+02  0.55587489900E+02  0.00000000000E+00 0. -1.
          2   -1    0    0  502    0  0.00000000000E+00 -0.00000000000E+00 -0.62182774272E+03  0.62182774272E+03  0.00000000000E+00 0.  1.
          6    1    1    2  502    0  0.64974246653E+02  0.45537589240E+01 -0.23358001930E+03  0.29729785546E+03  0.17200000000E+03 0. -1.
         -6    1    1    2    0  501 -0.64974246653E+02 -0.45537589240E+01 -0.33266023352E+03  0.38011737716E+03  0.17200000000E+03 0.  1.
</event>
<event>
 4    1  0.1059899E+000  0.1913065E+03  0.7818608E-02  0.1157288E+00
         -2   -1    0    0    0  501 -0.00000000000E+00  0.00000000000E+00  0.12113858131E+03  0.12113858131E+03  0.00000000000E+00 0.  1.
          2   -1    0    0  502    0  0.00000000000E+00 -0.00000000000E+00 -0.31407043164E+03  0.31407043164E+03  0.00000000000E+00 0. -1.
          6    1    1    2  502    0 -0.83738044065E+02  0.14603579499E+01 -0.13891570875E+03  0.23642285593E+03  0.17200000000E+03 0. -1.
         -6    1    1    2    0  501  0.83738044065E+02 -0.14603579499E+01 -0.54016141580E+02  0.19878615701E+03  0.17200000000E+03 0. -1.
</event>
<event>
 4    1  0.1059899E+000  0.2315539E+03  0.7818608E-02  0.1125551E+00
          2   -1    0    0  502    0  0.00000000000E+00  0.00000000000E+00  0.97064381679E+03  0.97064381679E+03  0.00000000000E+00 0.  1.
         -2   -1    0    0    0  501 -0.00000000000E+00 -0.00000000000E+00 -0.60033804768E+02  0.60033804768E+02  0.00000000000E+00 0. -1.
          6    1    1    2  502    0 -0.11932485361E+03  0.98968558773E+02  0.60094799885E+03  0.64401528991E+03  0.17200000000E+03 0. -1.
         -6    1    1    2    0  501  0.11932485361E+03 -0.98968558773E+02  0.30966201317E+03  0.38666233165E+03  0.17200000000E+03 0.  1.
</event>
<event>
 4    1  0.1059899E+000  0.1952698E+03  0.7818608E-02  0.1153792E+00
          2   -1    0    0  502    0  0.00000000000E+00  0.00000000000E+00  0.65006315335E+03  0.65006315335E+03  0.00000000000E+00 0. -1.
         -2   -1    0    0    0  501 -0.00000000000E+00 -0.00000000000E+00 -0.72148968139E+02  0.72148968139E+02  0.00000000000E+00 0.  1.
          6    1    1    2  502    0  0.87157046933E+02 -0.30820927148E+02  0.13279734288E+03  0.23614701916E+03  0.17200000000E+03 0.  1.
         -6    1    1    2    0  501 -0.87157046933E+02  0.30820927148E+02  0.44511684233E+03  0.48606510234E+03  0.17200000000E+03 0. -1.
</event>
<event>
 4    1  0.1059899E+000  0.2688927E+03  0.7818608E-02  0.1101915E+00
         -2   -1    0    0    0  501 -0.00000000000E+00  0.00000000000E+00  0.27635864720E+03  0.27635864720E+03  0.00000000000E+00 0.  1.
          2   -1    0    0  502    0  0.00000000000E+00 -0.00000000000E+00 -0.29449396787E+03  0.29449396787E+03  0.00000000000E+00 0. -1.
          6    1    1    2  502    0  0.18997393024E+03  0.81419814582E+02  0.86283533781E+02  0.28239711149E+03  0.17200000000E+03 0.  1.
         -6    1    1    2    0  501 -0.18997393024E+03 -0.81419814582E+02 -0.10441885445E+03  0.28845550358E+03  0.17200000000E+03 0. -1.
</event>
<event>
 4    1  0.1059899E+000  0.1720282E+03  0.7818608E-02  0.1175749E+00
          2   -1    0    0  502    0  0.00000000000E+00  0.00000000000E+00  0.11710839783E+04  0.11710839783E+04  0.00000000000E+00 0.  1.
         -2   -1    0    0    0  501 -0.00000000000E+00 -0.00000000000E+00 -0.30771017125E+02  0.30771017125E+02  0.00000000000E+00 0. -1.
          6    1    1    2  502    0  0.76356052812E+00  0.30196798151E+01  0.82422967676E+03  0.84199065407E+03  0.17200000000E+03 0.  1.
         -6    1    1    2    0  501 -0.76356052812E+00 -0.30196798151E+01  0.31608328441E+03  0.35986434135E+03  0.17200000000E+03 0. -1.
</event>
<event>
 4    1  0.1059899E+000  0.2644693E+03  0.7818608E-02  0.1104487E+00
          2   -1    0    0  502    0  0.00000000000E+00  0.00000000000E+00  0.46540641555E+03  0.46540641555E+03  0.00000000000E+00 0. -1.
         -2   -1    0    0    0  501 -0.00000000000E+00 -0.00000000000E+00 -0.18557243944E+03  0.18557243944E+03  0.00000000000E+00 0.  1.
          6    1    1    2  502    0 -0.19555267142E+03  0.46034309197E+02  0.28185048685E+03  0.38650187822E+03  0.17200000000E+03 0. -1.
         -6    1    1    2    0  501  0.19555267142E+03 -0.46034309197E+02 -0.20165107429E+01  0.26447697677E+03  0.17200000000E+03 0.  1.
</event>
<event>
 4    1  0.1059899E+000  0.1959865E+03  0.7818608E-02  0.1153170E+00
         -1   -1    0    0    0  501 -0.00000000000E+00  0.00000000000E+00  0.38417323469E+02  0.38417323469E+02  0.00000000000E+00 0.  1.
          1   -1    0    0  502    0  0.00000000000E+00 -0.00000000000E+00 -0.36930569251E+04  0.36930569251E+04  0.00000000000E+00 0. -1.
          6    1    1    2  502    0 -0.75059932931E+02  0.56504008906E+02 -0.23403237976E+03  0.30525702503E+03  0.17200000000E+03 0.  1.
         -6    1    1    2    0  501  0.75059932931E+02 -0.56504008906E+02 -0.34206072219E+04  0.34262172235E+04  0.17200000000E+03 0. -1.
</event>
<event>
 4    1  0.1059899E+000  0.2762181E+03  0.7818608E-02  0.1097773E+00
          2   -1    0    0  502    0  0.00000000000E+00  0.00000000000E+00  0.20313094355E+04  0.20313094355E+04  0.00000000000E+00 0.  1.
         -2   -1    0    0    0  501 -0.00000000000E+00 -0.00000000000E+00 -0.47359659146E+02  0.47359659146E+02  0.00000000000E+00 0. -1.
          6    1    1    2  502    0 -0.68258877000E+02 -0.20506866602E+03  0.51920298433E+03  0.58810557811E+03  0.17200000000E+03 0. -1.
         -6    1    1    2    0  501  0.68258877000E+02  0.20506866602E+03  0.14647467920E+04  0.14905635165E+04  0.17200000000E+03 0.  1.
</event>
<event>
 4    1  0.1059899E+000  0.2553352E+03  0.7818608E-02  0.1109979E+00
          2   -1    0    0  502    0  0.00000000000E+00  0.00000000000E+00  0.10049718062E+04  0.10049718062E+04  0.00000000000E+00 0. -1.
         -2   -1    0    0    0  501 -0.00000000000E+00 -0.00000000000E+00 -0.72286778902E+02  0.72286778902E+02  0.00000000000E+00 0.  1.
          6    1    1    2  502    0 -0.14797733682E+03  0.11711014575E+03  0.63883275742E+03  0.68797047204E+03  0.17200000000E+03 0. -1.
         -6    1    1    2    0  501  0.14797733682E+03 -0.11711014575E+03  0.29385226984E+03  0.38928811302E+03  0.17200000000E+03 0. -1.
</event>
<event>
 4    1  0.1059899E+000  0.3785796E+03  0.7818608E-02  0.1051460E+00
         -2   -1    0    0    0  501 -0.00000000000E+00  0.00000000000E+00  0.19453729753E+03  0.19453729753E+03  0.00000000000E+00 0.  1.
          2   -1    0    0  502    0  0.00000000000E+00 -0.00000000000E+00 -0.98448171045E+03  0.98448171045E+03  0.00000000000E+00 0. -1.
          6    1    1    2  502    0  0.13393663046E+03  0.30951492899E+03 -0.69069894207E+03  0.78764683763E+03  0.17200000000E+03 0. -1.
         -6    1    1    2    0  501 -0.13393663046E+03 -0.30951492899E+03 -0.99245470849E+02  0.39137217036E+03  0.17200000000E+03 0.  1.
</event>
<event>
 4    1  0.1059899E+000  0.3241467E+03  0.7818608E-02  0.1073757E+00
          2   -1    0    0  502    0  0.00000000000E+00  0.00000000000E+00  0.14797773574E+04  0.14797773574E+04  0.00000000000E+00 0. -1.
         -2   -1    0    0    0  501 -0.00000000000E+00 -0.00000000000E+00 -0.72681170696E+02  0.72681170696E+02  0.00000000000E+00 0.  1.
          6    1    1    2  502    0 -0.41468267952E+02  0.27160165081E+03  0.82143985552E+03  0.88308239151E+03  0.17200000000E+03 0. -1.
         -6    1    1    2    0  501  0.41468267952E+02 -0.27160165081E+03  0.58565633119E+03  0.66937613659E+03  0.17200000000E+03 0. -1.
</event>
<event>
 4    1  0.1059899E+000  0.3628536E+03  0.7818608E-02  0.1057460E+00
         -1   -1    0    0    0  501 -0.00000000000E+00  0.00000000000E+00  0.13518194570E+03  0.13518194570E+03  0.00000000000E+00 0. -1.
          1   -1    0    0  502    0  0.00000000000E+00 -0.00000000000E+00 -0.10725387494E+04  0.10725387494E+04  0.00000000000E+00 0.  1.
          6    1    1    2  502    0 -0.26683169631E+03 -0.17572589150E+03 -0.65174386905E+03  0.74594424319E+03  0.17200000000E+03 0.  1.
         -6    1    1    2    0  501  0.26683169631E+03  0.17572589150E+03 -0.28561293468E+03  0.46177645193E+03  0.17200000000E+03 0. -1.
</event>
<event>
 4    1  0.1059899E+000  0.2253978E+03  0.7818608E-02  0.1129922E+00
          2   -1    0    0  502    0  0.00000000000E+00  0.00000000000E+00  0.64193816658E+03  0.64193816658E+03  0.00000000000E+00 0.  1.
         -2   -1    0    0    0  501 -0.00000000000E+00 -0.00000000000E+00 -0.88004748731E+02  0.88004748731E+02  0.00000000000E+00 0. -1.
          6    1    1    2  502    0  0.11728949116E+03  0.86390724621E+02  0.39278934325E+03  0.45286604003E+03  0.17200000000E+03 0. -1.
         -6    1    1    2    0  501 -0.11728949116E+03 -0.86390724621E+02  0.16114407459E+03  0.27707687528E+03  0.17200000000E+03 0.  1.
</event>
<event>
 4    1  0.1059899E+000  0.2069750E+03  0.7818608E-02  0.1143984E+00
         -2   -1    0    0    0  501 -0.00000000000E+00  0.00000000000E+00  0.90877449061E+02  0.90877449061E+02  0.00000000000E+00 0. -1.
          2   -1    0    0  502    0  0.00000000000E+00 -0.00000000000E+00 -0.97794309792E+03  0.97794309792E+03  0.00000000000E+00 0.  1.
          6    1    1    2  502    0  0.35595258619E+02 -0.10948803680E+03 -0.58913753528E+02  0.21519638239E+03  0.17200000000E+03 0. -1.
         -6    1    1    2    0  501 -0.35595258619E+02  0.10948803680E+03 -0.82815189533E+03  0.85362416459E+03  0.17200000000E+03 0.  1.
</event>
<event>
 4    1  0.1059899E+000  0.1813181E+03  0.7818608E-02  0.1166533E+00
         -2   -1    0    0    0  501 -0.00000000000E+00  0.00000000000E+00  0.14230620274E+03  0.14230620274E+03  0.00000000000E+00 0.  1.
          2   -1    0    0  502    0  0.00000000000E+00 -0.00000000000E+00 -0.25229902274E+03  0.25229902274E+03  0.00000000000E+00 0. -1.
          6    1    1    2  502    0  0.28300137310E+02 -0.49913563666E+02  0.22966387401E+01  0.18133266710E+03  0.17200000000E+03 0.  1.
         -6    1    1    2    0  501 -0.28300137310E+02  0.49913563666E+02 -0.11228945875E+03  0.21327255837E+03  0.17200000000E+03 0. -1.
</event>
<event>
 4    1  0.1059899E+000  0.5067858E+03  0.7818608E-02  0.1012023E+00
         -2   -1    0    0    0  501 -0.00000000000E+00  0.00000000000E+00  0.46657701863E+03  0.46657701863E+03  0.00000000000E+00 0.  1.
          2   -1    0    0  502    0  0.00000000000E+00 -0.00000000000E+00 -0.59822983401E+03  0.59822983401E+03  0.00000000000E+00 0. -1.
          6    1    1    2  502    0  0.34150926487E+03  0.33259472643E+03  0.84621166719E+02  0.51380207464E+03  0.17200000000E+03 0.  1.
         -6    1    1    2    0  501 -0.34150926487E+03 -0.33259472643E+03 -0.21627398210E+03  0.55100477800E+03  0.17200000000E+03 0. -1.
</event>
<event>
 4    1  0.1059899E+000  0.1891056E+03  0.7818608E-02  0.1159270E+00
         -2   -1    0    0    0  501 -0.00000000000E+00  0.00000000000E+00  0.85239189949E+02  0.85239189949E+02  0.00000000000E+00 0.  1.
          2   -1    0    0  502    0  0.00000000000E+00 -0.00000000000E+00 -0.45836622994E+03  0.45836622994E+03  0.00000000000E+00 0. -1.
          6    1    1    2  502    0  0.78515507799E+02  0.35012555206E+01 -0.26567329751E+03  0.32610311984E+03  0.17200000000E+03 0. -1.
         -6    1    1    2    0  501 -0.78515507799E+02 -0.35012555206E+01 -0.10745374247E+03  0.21750230005E+03  0.17200000000E+03 0.  1.
</event>
<event>
 4    1  0.1059899E+000  0.1735545E+03  0.7818608E-02  0.1174191E+00
          1   -1    0    0  502    0  0.00000000000E+00  0.00000000000E+00  0.16150583400E+04  0.16150583400E+04  0.00000000000E+00 0. -1.
         -1   -1    0    0    0  501 -0.00000000000E+00 -0.00000000000E+00 -0.20285181488E+02  0.20285181488E+02  0.00000000000E+00 0.  1.
          6    1    1    2  502    0 -0.69483992212E+01  0.22110379718E+02  0.56524819914E+03  0.59129237757E+03  0.17200000000E+03 0.  1.
         -6    1    1    2    0  501  0.69483992212E+01 -0.22110379718E+02  0.10295249594E+04  0.10440511439E+04  0.17200000000E+03 0. -1.
</event>
<event>
 4    1  0.1059899E+000  0.2119625E+03  0.7818608E-02  0.1140021E+00
         -1   -1    0    0    0  501 -0.00000000000E+00  0.00000000000E+00  0.47961400621E+02  0.47961400621E+02  0.00000000000E+00 0.  1.
          1   -1    0    0  502    0  0.00000000000E+00 -0.00000000000E+00 -0.10499979085E+04  0.10499979085E+04  0.00000000000E+00 0. -1.
          6    1    1    2  502    0  0.11945885140E+03  0.32767140234E+02 -0.32073030091E+03  0.38444249060E+03  0.17200000000E+03 0.  1.
         -6    1    1    2    0  501 -0.11945885140E+03 -0.32767140234E+02 -0.68130620699E+03  0.71351681854E+03  0.17200000000E+03 0. -1.
</event>
<event>
 4    1  0.1059899E+000  0.1839517E+03  0.7818608E-02  0.1164032E+00
          3   -1    0    0  502    0  0.00000000000E+00  0.00000000000E+00  0.31625843600E+03  0.31625843600E+03  0.00000000000E+00 0.  1.
         -3   -1    0    0    0  501 -0.00000000000E+00 -0.00000000000E+00 -0.12233563486E+03  0.12233563486E+03  0.00000000000E+00 0. -1.
          6    1    1    2  502    0  0.62035704488E+02 -0.20144678693E+02  0.19306201707E+02  0.18496206675E+03  0.17200000000E+03 0. -1.
         -6    1    1    2    0  501 -0.62035704488E+02  0.20144678693E+02  0.17461659944E+03  0.25363200411E+03  0.17200000000E+03 0.  1.
</event>
<event>
 4    1  0.1059899E+000  0.2121820E+03  0.7818608E-02  0.1139850E+00
          2   -1    0    0  502    0  0.00000000000E+00  0.00000000000E+00  0.79851441526E+03  0.79851441526E+03  0.00000000000E+00 0.  1.
         -2   -1    0    0    0  501 -0.00000000000E+00 -0.00000000000E+00 -0.72841440923E+02  0.72841440923E+02  0.00000000000E+00 0. -1.
          6    1    1    2  502    0  0.10227792617E+03 -0.70543692443E+02  0.15572956086E+03  0.26319742182E+03  0.17200000000E+03 0. -1.
         -6    1    1    2    0  501 -0.10227792617E+03  0.70543692443E+02  0.56994341347E+03  0.60815843436E+03  0.17200000000E+03 0.  1.
</event>
<event>
 4    1  0.1059899E+000  0.1784744E+03  0.7818608E-02  0.1169288E+00
          2   -1    0    0  502    0  0.00000000000E+00  0.00000000000E+00  0.10406878484E+04  0.10406878484E+04  0.00000000000E+00 0. -1.
         -2   -1    0    0    0  501 -0.00000000000E+00 -0.00000000000E+00 -0.42055981638E+02  0.42055981638E+02  0.00000000000E+00 0.  1.
          6    1    1    2  502    0 -0.79961069582E+01 -0.46959235709E+02  0.21685971054E+03  0.28085804528E+03  0.17200000000E+03 0.  1.
         -6    1    1    2    0  501  0.79961069582E+01  0.46959235709E+02  0.78177215621E+03  0.80188578475E+03  0.17200000000E+03 0. -1.
</event>
<event>
 4    1  0.1059899E+000  0.3329582E+03  0.7818608E-02  0.1069835E+00
         -1   -1    0    0    0  501 -0.00000000000E+00  0.00000000000E+00  0.16028713676E+03  0.16028713676E+03  0.00000000000E+00 0.  1.
          1   -1    0    0  502    0  0.00000000000E+00 -0.00000000000E+00 -0.69512571319E+03  0.69512571319E+03  0.00000000000E+00 0. -1.
          6    1    1    2  502    0  0.20974241397E+03 -0.19309395215E+03 -0.29770222544E+03  0.44664053736E+03  0.17200000000E+03 0.  1.
         -6    1    1    2    0  501 -0.20974241397E+03  0.19309395215E+03 -0.23713635099E+03  0.40877231259E+03  0.17200000000E+03 0. -1.
</event>
<event>
 4    1  0.1059899E+000  0.1805096E+03  0.7818608E-02  0.1167311E+00
         -1   -1    0    0    0  501 -0.00000000000E+00  0.00000000000E+00  0.28420291500E+02  0.28420291500E+02  0.00000000000E+00 0. -1.
          1   -1    0    0  502    0  0.00000000000E+00 -0.00000000000E+00 -0.15567190898E+04  0.15567190898E+04  0.00000000000E+00 0.  1.
          6    1    1    2  502    0 -0.46756655699E+02  0.28522741000E+02 -0.35729151377E+03  0.40030108346E+03  0.17200000000E+03 0. -1.
         -6    1    1    2    0  501  0.46756655699E+02 -0.28522741000E+02 -0.11710072845E+04  0.11848382978E+04  0.17200000000E+03 0. -1.
</event>
<event>
 4    1  0.1059899E+000  0.2102665E+03  0.7818608E-02  0.1141355E+00
         -1   -1    0    0    0  501 -0.00000000000E+00  0.00000000000E+00  0.15058887127E+03  0.15058887127E+03  0.00000000000E+00 0. -1.
          1   -1    0    0  502    0  0.00000000000E+00 -0.00000000000E+00 -0.55614195413E+03  0.55614195413E+03  0.00000000000E+00 0.  1.
          6    1    1    2  502    0  0.10541823214E+03  0.59287425498E+02  0.40016063607E+02  0.21404038833E+03  0.17200000000E+03 0. -1.
         -6    1    1    2    0  501 -0.10541823214E+03 -0.59287425498E+02 -0.44556914647E+03  0.49269043707E+03  0.17200000000E+03 0.  1.
</event>
<event>
 4    1  0.1059899E+000  0.1876155E+03  0.7818608E-02  0.1160630E+00
          2   -1    0    0  502    0  0.00000000000E+00  0.00000000000E+00  0.10723180368E+04  0.10723180368E+04  0.00000000000E+00 0. -1.
         -2   -1    0    0    0  501 -0.00000000000E+00 -0.00000000000E+00 -0.32861865922E+02  0.32861865922E+02  0.00000000000E+00 0.  1.
          6    1    1    2  502    0  0.34595978695E+01  0.74857223155E+02  0.53806408667E+03  0.56983553244E+03  0.17200000000E+03 0. -1.
         -6    1    1    2    0  501 -0.34595978695E+01 -0.74857223155E+02  0.50139208417E+03  0.53534437024E+03  0.17200000000E+03 0.  1.
</event>
<event>
 4    1  0.1059899E+000  0.1889704E+03  0.7818608E-02  0.1159393E+00
         -1   -1    0    0    0  501 -0.00000000000E+00  0.00000000000E+00  0.65552539078E+02  0.65552539078E+02  0.00000000000E+00 0. -1.
          1   -1    0    0  502    0  0.00000000000E+00 -0.00000000000E+00 -0.63022952042E+03  0.63022952042E+03  0.00000000000E+00 0.  1.
          6    1    1    2  502    0  0.51496455247E+02  0.58939870461E+02 -0.41046029752E+03  0.45187105359E+03  0.17200000000E+03 0. -1.
         -6    1    1    2    0  501 -0.51496455247E+02 -0.58939870461E+02 -0.15421668382E+03  0.24391100590E+03  0.17200000000E+03 0.  1.
</event>
<event>
 4    1  0.1059899E+000  0.2402039E+03  0.7818608E-02  0.1119657E+00
         -1   -1    0    0    0  501 -0.00000000000E+00  0.00000000000E+00  0.21911520233E+02  0.21911520233E+02  0.00000000000E+00 0.  1.
          1   -1    0    0  502    0  0.00000000000E+00 -0.00000000000E+00 -0.39163093812E+04  0.39163093812E+04  0.00000000000E+00 0. -1.
          6    1    1    2  502    0 -0.98766110352E+02  0.13549595801E+03 -0.82010611443E+03  0.85455949946E+03  0.17200000000E+03 0.  1.
         -6    1    1    2    0  501  0.98766110352E+02 -0.13549595801E+03 -0.30742917465E+04  0.30836614020E+04  0.17200000000E+03 0.  1.
</event>
<event>
 4    1  0.1059899E+000  0.2056437E+03  0.7818608E-02  0.1145063E+00
          2   -1    0    0  502    0  0.00000000000E+00  0.00000000000E+00  0.19185946714E+04  0.19185946714E+04  0.00000000000E+00 0. -1.
         -2   -1    0    0    0  501 -0.00000000000E+00 -0.00000000000E+00 -0.33684893991E+02  0.33684893991E+02  0.00000000000E+00 0.  1.
          6    1    1    2  502    0  0.10155811734E+03  0.48900822448E+02  0.15163440509E+04  0.15302250234E+04  0.17200000000E+03 0. -1.
         -6    1    1    2    0  501 -0.10155811734E+03 -0.48900822448E+02  0.36856572653E+03  0.42205454198E+03  0.17200000000E+03 0.  1.
</event>
<event>
 4    1  0.1059899E+000  0.1854485E+03  0.7818608E-02  0.1162632E+00
          2   -1    0    0  502    0  0.00000000000E+00  0.00000000000E+00  0.25351971749E+04  0.25351971749E+04  0.00000000000E+00 0.  1.
         -2   -1    0    0    0  501 -0.00000000000E+00 -0.00000000000E+00 -0.13779755137E+02  0.13779755137E+02  0.00000000000E+00 0. -1.
          6    1    1    2  502    0 -0.62527339420E+02 -0.29957965862E+02  0.11017777465E+04  0.11172758614E+04  0.17200000000E+03 0. -1.
         -6    1    1    2    0  501  0.62527339420E+02  0.29957965862E+02  0.14196396733E+04  0.14317010686E+04  0.17200000000E+03 0.  1.
</event>
<event>
 4    1  0.1059899E+000  0.2016298E+03  0.7818608E-02  0.1148371E+00
          2   -1    0    0  502    0  0.00000000000E+00  0.00000000000E+00  0.77164686873E+03  0.77164686873E+03  0.00000000000E+00 0.  1.
         -2   -1    0    0    0  501 -0.00000000000E+00 -0.00000000000E+00 -0.56728492724E+02  0.56728492724E+02  0.00000000000E+00 0. -1.
          6    1    1    2  502    0 -0.40662337309E+01  0.10513829646E+03  0.24688636049E+03  0.31875926753E+03  0.17200000000E+03 0. -1.
         -6    1    1    2    0  501  0.40662337309E+01 -0.10513829646E+03  0.46803201552E+03  0.50961609393E+03  0.17200000000E+03 0.  1.
</event>
<event>
 4    1  0.1059899E+000  0.2129052E+03  0.7818608E-02  0.1139286E+00
          3   -1    0    0  502    0  0.00000000000E+00  0.00000000000E+00  0.24331547604E+02  0.24331547604E+02  0.00000000000E+00 0.  1.
         -3   -1    0    0    0  501 -0.00000000000E+00 -0.00000000000E+00 -0.18983880355E+04  0.18983880355E+04  0.00000000000E+00 0. -1.
          6    1    1    2  502    0  0.12389922284E+03 -0.19839632292E+02 -0.10683646127E+04  0.10893721009E+04  0.17200000000E+03 0.  1.
         -6    1    1    2    0  501 -0.12389922284E+03  0.19839632292E+02 -0.80569187515E+03  0.83334748222E+03  0.17200000000E+03 0. -1.
</event>
<event>
 4    1  0.1059899E+000  0.2133226E+03  0.7818608E-02  0.1138962E+00
         -1   -1    0    0    0  501 -0.00000000000E+00  0.00000000000E+00  0.40673659385E+02  0.40673659385E+02  0.00000000000E+00 0. -1.
          1   -1    0    0  502    0  0.00000000000E+00 -0.00000000000E+00 -0.24999274359E+04  0.24999274359E+04  0.00000000000E+00 0.  1.
          6    1    1    2  502    0  0.12514417057E+03  0.16170296572E+02 -0.21738103031E+04  0.21842522235E+04  0.17200000000E+03 0.  1.
         -6    1    1    2    0  501 -0.12514417057E+03 -0.16170296572E+02 -0.28544347340E+03  0.35634887179E+03  0.17200000000E+03 0. -1.
</event>
<event>
 4    1  0.1059899E+000  0.1935974E+03  0.7818608E-02  0.1155256E+00
          2   -1    0    0  502    0  0.00000000000E+00  0.00000000000E+00  0.19604459408E+04  0.19604459408E+04  0.00000000000E+00 0.  1.
         -2   -1    0    0    0  501 -0.00000000000E+00 -0.00000000000E+00 -0.20974976166E+02  0.20974976166E+02  0.00000000000E+00 0. -1.
          6    1    1    2  502    0 -0.23475407370E+01 -0.88828122359E+02  0.12645105702E+04  0.12792446711E+04  0.17200000000E+03 0. -1.
         -6    1    1    2    0  501  0.23475407370E+01  0.88828122359E+02  0.67496039439E+03  0.70217624587E+03  0.17200000000E+03 0. -1.
</event>
<event>
 4    1  0.1059899E+000  0.1950410E+03  0.7818608E-02  0.1153992E+00
         -1   -1    0    0    0  501 -0.00000000000E+00  0.00000000000E+00  0.10320405485E+03  0.10320405485E+03  0.00000000000E+00 0.  1.
          1   -1    0    0  502    0  0.00000000000E+00 -0.00000000000E+00 -0.37021667469E+03  0.37021667469E+03  0.00000000000E+00 0. -1.
          6    1    1    2  502    0 -0.97528432208E+01  0.91443273667E+02 -0.14914975193E+03  0.24553337604E+03  0.17200000000E+03 0.  1.
         -6    1    1    2    0  501  0.97528432208E+01 -0.91443273667E+02 -0.11786286791E+03  0.22788735349E+03  0.17200000000E+03 0. -1.
</event>
<event>
 4    1  0.1059899E+000  0.2526619E+03  0.7818608E-02  0.1111634E+00
         -2   -1    0    0    0  501 -0.00000000000E+00  0.00000000000E+00  0.60432421404E+02  0.60432421404E+02  0.00000000000E+00 0.  1.
          2   -1    0    0  502    0  0.00000000000E+00 -0.00000000000E+00 -0.10582255030E+04  0.10582255030E+04  0.00000000000E+00 0. -1.
          6    1    1    2  502    0 -0.15265846298E+03 -0.10463963139E+03 -0.52241551394E+03  0.58030683951E+03  0.17200000000E+03 0.  1.
         -6    1    1    2    0  501  0.15265846298E+03  0.10463963139E+03 -0.47537756770E+03  0.53835108493E+03  0.17200000000E+03 0. -1.
</event>
<event>
 4    1  0.1059899E+000  0.1766622E+03  0.7818608E-02  0.1171073E+00
         -2   -1    0    0    0  501 -0.00000000000E+00  0.00000000000E+00  0.49735378208E+02  0.49735378208E+02  0.00000000000E+00 0.  1.
          2   -1    0    0  502    0  0.00000000000E+00 -0.00000000000E+00 -0.64413888183E+03  0.64413888183E+03  0.00000000000E+00 0. -1.
          6    1    1    2  502    0 -0.36826223848E+02 -0.16412583722E+02 -0.24146171999E+03  0.29918774355E+03  0.17200000000E+03 0.  1.
         -6    1    1    2    0  501  0.36826223848E+02  0.16412583722E+02 -0.35294178363E+03  0.39468651649E+03  0.17200000000E+03 0. -1.
</event>
<event>
 4    1  0.1059899E+000  0.2184165E+03  0.7818608E-02  0.1135069E+00
          1   -1    0    0  502    0  0.00000000000E+00  0.00000000000E+00  0.35224996085E+03  0.35224996085E+03  0.00000000000E+00 0.  1.
         -1   -1    0    0    0  501 -0.00000000000E+00 -0.00000000000E+00 -0.14105777053E+03  0.14105777053E+03  0.00000000000E+00 0. -1.
          6    1    1    2  502    0  0.15331070960E+02 -0.13374129703E+03  0.15485625455E+03  0.26774285395E+03  0.17200000000E+03 0. -1.
         -6    1    1    2    0  501 -0.15331070960E+02  0.13374129703E+03  0.56335935773E+02  0.22556487743E+03  0.17200000000E+03 0.  1.
</event>
<event>
 4    1  0.1059899E+000  0.2280222E+03  0.7818608E-02  0.1128040E+00
          2   -1    0    0  502    0  0.00000000000E+00  0.00000000000E+00  0.13815940501E+03  0.13815940501E+03  0.00000000000E+00 0.  1.
         -2   -1    0    0    0  501 -0.00000000000E+00 -0.00000000000E+00 -0.39895165796E+03  0.39895165796E+03  0.00000000000E+00 0. -1.
          6    1    1    2  502    0  0.14167086086E+03  0.48368403104E+02 -0.66452973322E+02  0.23750817439E+03  0.17200000000E+03 0. -1.
         -6    1    1    2    0  501 -0.14167086086E+03 -0.48368403104E+02 -0.19433927963E+03  0.29960288858E+03  0.17200000000E+03 0. -1.
</event>
<event>
 4    1  0.1059899E+000  0.1789079E+03  0.7818608E-02  0.1168864E+00
          1   -1    0    0  502    0  0.00000000000E+00  0.00000000000E+00  0.68161572333E+02  0.68161572333E+02  0.00000000000E+00 0.  1.
         -1   -1    0    0    0  501 -0.00000000000E+00 -0.00000000000E+00 -0.47236228064E+03  0.47236228064E+03  0.00000000000E+00 0. -1.
          6    1    1    2  502    0  0.10531184988E+02  0.48094956819E+02 -0.18139788180E+03  0.25478073367E+03  0.17200000000E+03 0. -1.
         -6    1    1    2    0  501 -0.10531184988E+02 -0.48094956819E+02 -0.22280282650E+03  0.28574311930E+03  0.17200000000E+03 0. -1.
</event>
<event>
 4    1  0.1059899E+000  0.2505600E+03  0.7818608E-02  0.1112951E+00
         -1   -1    0    0    0  501 -0.00000000000E+00  0.00000000000E+00  0.18722151416E+03  0.18722151416E+03  0.00000000000E+00 0. -1.
          1   -1    0    0  502    0  0.00000000000E+00 -0.00000000000E+00 -0.33532941000E+03  0.33532941000E+03  0.00000000000E+00 0.  1.
          6    1    1    2  502    0  0.33544555071E+02  0.17908392291E+03 -0.73252131894E+02  0.26104820139E+03  0.17200000000E+03 0. -1.
         -6    1    1    2    0  501 -0.33544555071E+02 -0.17908392291E+03 -0.74855763945E+02  0.26150272277E+03  0.17200000000E+03 0.  1.
</event>
<event>
 4    1  0.1059899E+000  0.2364069E+03  0.7818608E-02  0.1122210E+00
          1   -1    0    0  502    0  0.00000000000E+00  0.00000000000E+00  0.42938211559E+03  0.42938211559E+03  0.00000000000E+00 0.  1.
         -1   -1    0    0    0  501 -0.00000000000E+00 -0.00000000000E+00 -0.13346201255E+03  0.13346201255E+03  0.00000000000E+00 0. -1.
          6    1    1    2  502    0 -0.66216467563E+02  0.14805272143E+03  0.10369191684E+03  0.25814771453E+03  0.17200000000E+03 0. -1.
         -6    1    1    2    0  501  0.66216467563E+02 -0.14805272143E+03  0.19222818620E+03  0.30469641361E+03  0.17200000000E+03 0. -1.
</event>
<event>
 4    1  0.1059899E+000  0.1987088E+03  0.7818608E-02  0.1150833E+00
         -2   -1    0    0    0  501 -0.00000000000E+00  0.00000000000E+00  0.50934791599E+02  0.50934791599E+02  0.00000000000E+00 0.  1.
          2   -1    0    0  502    0  0.00000000000E+00 -0.00000000000E+00 -0.78651050740E+03  0.78651050740E+03  0.00000000000E+00 0. -1.
          6    1    1    2  502    0 -0.79085616900E+02  0.60387480704E+02 -0.31759816395E+03  0.37463819395E+03  0.17200000000E+03 0. -1.
         -6    1    1    2    0  501  0.79085616900E+02 -0.60387480704E+02 -0.41797755186E+03  0.46280710505E+03  0.17200000000E+03 0.  1.
</event>
<event>
 4    1  0.1059899E+000  0.2851709E+03  0.7818608E-02  0.1092898E+00
          1   -1    0    0  502    0  0.00000000000E+00  0.00000000000E+00  0.59275605772E+03  0.59275605772E+03  0.00000000000E+00 0.  1.
         -1   -1    0    0    0  501 -0.00000000000E+00 -0.00000000000E+00 -0.13721650374E+03  0.13721650374E+03  0.00000000000E+00 0. -1.
          6    1    1    2  502    0  0.12364884416E+03  0.19091734202E+03  0.23246251759E+03  0.36791478664E+03  0.17200000000E+03 0. -1.
         -6    1    1    2    0  501 -0.12364884416E+03 -0.19091734202E+03  0.22307703638E+03  0.36205777482E+03  0.17200000000E+03 0. -1.
</event>
<event>
 4    1  0.1059899E+000  0.5000379E+03  0.7818608E-02  0.1013769E+00
          2   -1    0    0  502    0  0.00000000000E+00  0.00000000000E+00  0.11043176937E+04  0.11043176937E+04  0.00000000000E+00 0. -1.
         -2   -1    0    0    0  501 -0.00000000000E+00 -0.00000000000E+00 -0.31946062569E+03  0.31946062569E+03  0.00000000000E+00 0.  1.
          6    1    1    2  502    0 -0.11569184663E+03  0.45504872955E+03  0.77661630398E+03  0.92367247076E+03  0.17200000000E+03 0. -1.
         -6    1    1    2    0  501  0.11569184663E+03 -0.45504872955E+03  0.82407640408E+01  0.50010584863E+03  0.17200000000E+03 0.  1.
</event>
<event>
 4    1  0.1059899E+000  0.1741701E+03  0.7818608E-02  0.1173568E+00
          4   -1    0    0  502    0  0.00000000000E+00  0.00000000000E+00  0.28646874019E+03  0.28646874019E+03  0.00000000000E+00 0. -1.
         -4   -1    0    0    0  501 -0.00000000000E+00 -0.00000000000E+00 -0.10836187810E+03  0.10836187810E+03  0.00000000000E+00 0.  1.
          6    1    1    2  502    0 -0.15794651853E+02 -0.22399782280E+02  0.59259008123E+02  0.18397513777E+03  0.17200000000E+03 0.  1.
         -6    1    1    2    0  501  0.15794651853E+02  0.22399782280E+02  0.11884785397E+03  0.21085548052E+03  0.17200000000E+03 0. -1.
</event>
<event>
 4    1  0.1059899E+000  0.3144172E+03  0.7818608E-02  0.1078248E+00
         -2   -1    0    0    0  501 -0.00000000000E+00  0.00000000000E+00  0.41580225929E+02  0.41580225929E+02  0.00000000000E+00 0.  1.
          2   -1    0    0  502    0  0.00000000000E+00 -0.00000000000E+00 -0.25010726524E+04  0.25010726524E+04  0.00000000000E+00 0. -1.
          6    1    1    2  502    0  0.16522911311E+03  0.20487436964E+03 -0.15123026692E+04  0.15446415540E+04  0.17200000000E+03 0. -1.
         -6    1    1    2    0  501 -0.16522911311E+03 -0.20487436964E+03 -0.94718975725E+03  0.99801132428E+03  0.17200000000E+03 0.  1.
</event>
<event>
 4    1  0.1059899E+000  0.1766674E+03  0.7818608E-02  0.1171068E+00
         -1   -1    0    0    0  501 -0.00000000000E+00  0.00000000000E+00  0.30585637206E+03  0.30585637206E+03  0.00000000000E+00 0.  1.
          1   -1    0    0  502    0  0.00000000000E+00 -0.00000000000E+00 -0.10246488233E+03  0.10246488233E+03  0.00000000000E+00 0. -1.
          6    1    1    2  502    0 -0.24099531961E+02 -0.32351017610E+02  0.11475156954E+03  0.21066394683E+03  0.17200000000E+03 0.  1.
         -6    1    1    2    0  501  0.24099531961E+02  0.32351017610E+02  0.88639920196E+02  0.19765730756E+03  0.17200000000E+03 0. -1.
</event>
<event>
 4    1  0.1059899E+000  0.2040846E+03  0.7818608E-02  0.1146338E+00
          1   -1    0    0  502    0  0.00000000000E+00  0.00000000000E+00  0.54873789485E+02  0.54873789485E+02  0.00000000000E+00 0. -1.
         -1   -1    0    0    0  501 -0.00000000000E+00 -0.00000000000E+00 -0.83558446461E+03  0.83558446461E+03  0.00000000000E+00 0.  1.
          6    1    1    2  502    0  0.94079016406E+02 -0.56706652866E+02 -0.25558585266E+03  0.32706976915E+03  0.17200000000E+03 0.  1.
         -6    1    1    2    0  501 -0.94079016406E+02  0.56706652866E+02 -0.52512482246E+03  0.56338848495E+03  0.17200000000E+03 0. -1.
</event>
<event>
 4    1  0.1059899E+000  0.2802695E+03  0.7818608E-02  0.1095542E+00
         -1   -1    0    0    0  501 -0.00000000000E+00  0.00000000000E+00  0.94858094701E+02  0.94858094701E+02  0.00000000000E+00 0.  1.
          1   -1    0    0  502    0  0.00000000000E+00 -0.00000000000E+00 -0.11188949588E+04  0.11188949588E+04  0.00000000000E+00 0. -1.
          6    1    1    2  502    0  0.11255838357E+03  0.19051936079E+03 -0.20262807977E+03  0.34584556562E+03  0.17200000000E+03 0. -1.
         -6    1    1    2    0  501 -0.11255838357E+03 -0.19051936079E+03 -0.82140878429E+03  0.86790748785E+03  0.17200000000E+03 0.  1.
</event>
<event>
 4    1  0.1059899E+000  0.2045803E+03  0.7818608E-02  0.1145931E+00
          2   -1    0    0  502    0  0.00000000000E+00  0.00000000000E+00  0.50503756550E+03  0.50503756550E+03  0.00000000000E+00 0. -1.
         -2   -1    0    0    0  501 -0.00000000000E+00 -0.00000000000E+00 -0.15915110011E+03  0.15915110011E+03  0.00000000000E+00 0.  1.
          6    1    1    2  502    0  0.85170705503E+02  0.70817098860E+02 -0.56968675532E+02  0.21236416967E+03  0.17200000000E+03 0.  1.
         -6    1    1    2    0  501 -0.85170705503E+02 -0.70817098860E+02  0.40285514092E+03  0.45182449594E+03  0.17200000000E+03 0. -1.
</event>
<event>
 4    1  0.1059899E+000  0.2345327E+03  0.7818608E-02  0.1123489E+00
         -1   -1    0    0    0  501 -0.00000000000E+00  0.00000000000E+00  0.68557171782E+02  0.68557171782E+02  0.00000000000E+00 0.  1.
          1   -1    0    0  502    0  0.00000000000E+00 -0.00000000000E+00 -0.83833480882E+03  0.83833480882E+03  0.00000000000E+00 0. -1.
          6    1    1    2  502    0  0.15087108027E+03 -0.51570546511E+02 -0.29091956712E+03  0.37368408939E+03  0.17200000000E+03 0.  1.
         -6    1    1    2    0  501 -0.15087108027E+03  0.51570546511E+02 -0.47885806992E+03  0.53320789122E+03  0.17200000000E+03 0. -1.
</event>
<event>
 4    1  0.1059899E+000  0.2957974E+03  0.7818608E-02  0.1087361E+00
          1   -1    0    0  502    0  0.00000000000E+00  0.00000000000E+00  0.29811364610E+03  0.29811364610E+03  0.00000000000E+00 0.  1.
         -1   -1    0    0    0  501 -0.00000000000E+00 -0.00000000000E+00 -0.41485159194E+03  0.41485159194E+03  0.00000000000E+00 0. -1.
          6    1    1    2  502    0 -0.14953093816E+03 -0.18855399699E+03  0.13443509034E+03  0.32491368818E+03  0.17200000000E+03 0.  1.
         -6    1    1    2    0  501  0.14953093816E+03  0.18855399699E+03 -0.25117303619E+03  0.38805154987E+03  0.17200000000E+03 0. -1.
</event>
<event>
 4    1  0.1059899E+000  0.2086631E+03  0.7818608E-02  0.1142629E+00
          1   -1    0    0  502    0  0.00000000000E+00  0.00000000000E+00  0.98184482021E+02  0.98184482021E+02  0.00000000000E+00 0.  1.
         -1   -1    0    0    0  501 -0.00000000000E+00 -0.00000000000E+00 -0.46190860165E+03  0.46190860165E+03  0.00000000000E+00 0. -1.
          6    1    1    2  502    0  0.25360099803E+02 -0.11538256980E+03 -0.23783885466E+03  0.31639783954E+03  0.17200000000E+03 0. -1.
         -6    1    1    2    0  501 -0.25360099803E+02  0.11538256980E+03 -0.12588526496E+03  0.24369524413E+03  0.17200000000E+03 0. -1.
</event>
<event>
 4    1  0.1059899E+000  0.1770592E+03  0.7818608E-02  0.1170680E+00
         -1   -1    0    0    0  501 -0.00000000000E+00  0.00000000000E+00  0.94641287950E+02  0.94641287950E+02  0.00000000000E+00 0. -1.
          1   -1    0    0  502    0  0.00000000000E+00 -0.00000000000E+00 -0.34593116200E+03  0.34593116200E+03  0.00000000000E+00 0.  1.
          6    1    1    2  502    0  0.41054220981E+02 -0.89728057376E+01 -0.80264627776E+02  0.19440259971E+03  0.17200000000E+03 0. -1.
         -6    1    1    2    0  501 -0.41054220981E+02  0.89728057376E+01 -0.17102524628E+03  0.24616985024E+03  0.17200000000E+03 0.  1.
</event>
<event>
 4    1  0.1059899E+000  0.4138664E+03  0.7818608E-02  0.1039081E+00
          2   -1    0    0  502    0  0.00000000000E+00  0.00000000000E+00  0.71169497351E+03  0.71169497351E+03  0.00000000000E+00 0. -1.
         -2   -1    0    0    0  501 -0.00000000000E+00 -0.00000000000E+00 -0.24223892368E+03  0.24223892368E+03  0.00000000000E+00 0.  1.
          6    1    1    2  502    0 -0.30302972343E+03 -0.22332569735E+03  0.27308341658E+03  0.49584264922E+03  0.17200000000E+03 0. -1.
         -6    1    1    2    0  501  0.30302972343E+03  0.22332569735E+03  0.19637263324E+03  0.45809124796E+03  0.17200000000E+03 0.  1.
</event>
<event>
 4    1  0.1059899E+000  0.2629589E+03  0.7818608E-02  0.1105378E+00
         -2   -1    0    0    0  501 -0.00000000000E+00  0.00000000000E+00  0.63248001786E+02  0.63248001786E+02  0.00000000000E+00 0. -1.
          2   -1    0    0  502    0  0.00000000000E+00 -0.00000000000E+00 -0.12515761467E+04  0.12515761467E+04  0.00000000000E+00 0.  1.
          6    1    1    2  502    0  0.15810041783E+03  0.12069643534E+03 -0.36035951831E+03  0.44610128229E+03  0.17200000000E+03 0. -1.
         -6    1    1    2    0  501 -0.15810041783E+03 -0.12069643534E+03 -0.82796862658E+03  0.86872286617E+03  0.17200000000E+03 0.  1.
</event>
<event>
 4    1  0.1059899E+000  0.2025501E+03  0.7818608E-02  0.1147605E+00
         -2   -1    0    0    0  501 -0.00000000000E+00  0.00000000000E+00  0.16543177909E+02  0.16543177909E+02  0.00000000000E+00 0.  1.
          2   -1    0    0  502    0  0.00000000000E+00 -0.00000000000E+00 -0.24840786580E+04  0.24840786580E+04  0.00000000000E+00 0. -1.
          6    1    1    2  502    0  0.10625047963E+03  0.12384549648E+02 -0.11829021550E+04  0.12001183483E+04  0.17200000000E+03 0.  1.
         -6    1    1    2    0  501 -0.10625047963E+03 -0.12384549648E+02 -0.12846333251E+04  0.13005034877E+04  0.17200000000E+03 0. -1.
</event>
<event>
 4    1  0.1059899E+000  0.1845074E+03  0.7818608E-02  0.1163511E+00
         -2   -1    0    0    0  501 -0.00000000000E+00  0.00000000000E+00  0.43700330856E+02  0.43700330856E+02  0.00000000000E+00 0. -1.
          2   -1    0    0  502    0  0.00000000000E+00 -0.00000000000E+00 -0.78734479603E+03  0.78734479603E+03  0.00000000000E+00 0.  1.
          6    1    1    2  502    0 -0.57534495648E+02  0.33893242501E+02 -0.32906847188E+03  0.37726519753E+03  0.17200000000E+03 0.  1.
         -6    1    1    2    0  501  0.57534495648E+02 -0.33893242501E+02 -0.41457599329E+03  0.45377992936E+03  0.17200000000E+03 0.  1.
</event>
<event>
 4    1  0.1059899E+000  0.1876998E+03  0.7818608E-02  0.1160553E+00
          2   -1    0    0  502    0  0.00000000000E+00  0.00000000000E+00  0.37884868855E+03  0.37884868855E+03  0.00000000000E+00 0.  1.
         -2   -1    0    0    0  501 -0.00000000000E+00 -0.00000000000E+00 -0.92995452448E+02  0.92995452448E+02  0.00000000000E+00 0. -1.
          6    1    1    2  502    0 -0.22500415186E+02 -0.71700276557E+02  0.14282252145E+03  0.23585900656E+03  0.17200000000E+03 0. -1.
         -6    1    1    2    0  501  0.22500415186E+02  0.71700276557E+02  0.14303071465E+03  0.23598513444E+03  0.17200000000E+03 0.  1.
</event>
<event>
 4    1  0.1059899E+000  0.1988032E+03  0.7818608E-02  0.1150753E+00
          2   -1    0    0  502    0  0.00000000000E+00  0.00000000000E+00  0.19018783571E+04  0.19018783571E+04  0.00000000000E+00 0.  1.
         -2   -1    0    0    0  501 -0.00000000000E+00 -0.00000000000E+00 -0.20879877442E+02  0.20879877442E+02  0.00000000000E+00 0. -1.
          6    1    1    2  502    0  0.42157862381E+02 -0.90340540183E+02  0.87430027820E+03  0.89661790916E+03  0.17200000000E+03 0. -1.
         -6    1    1    2    0  501 -0.42157862381E+02  0.90340540183E+02  0.10066982014E+04  0.10261403253E+04  0.17200000000E+03 0.  1.
</event>
<event>
 4    1  0.1059899E+000  0.1855491E+03  0.7818608E-02  0.1162538E+00
         -2   -1    0    0    0  501 -0.00000000000E+00  0.00000000000E+00  0.15638319630E+02  0.15638319630E+02  0.00000000000E+00 0. -1.
          2   -1    0    0  502    0  0.00000000000E+00 -0.00000000000E+00 -0.27969206363E+04  0.27969206363E+04  0.00000000000E+00 0.  1.
          6    1    1    2  502    0 -0.65065492264E+02  0.24717352696E+02 -0.74181692279E+03  0.76467039484E+03  0.17200000000E+03 0. -1.
         -6    1    1    2    0  501  0.65065492264E+02 -0.24717352696E+02 -0.20394653939E+04  0.20478885611E+04  0.17200000000E+03 0.  1.
</event>
<event>
 4    1  0.1059899E+000  0.6409376E+03  0.7818608E-02  0.9823934E-01
         -2   -1    0    0    0  501 -0.00000000000E+00  0.00000000000E+00  0.26976334843E+03  0.26976334843E+03  0.00000000000E+00 0. -1.
          2   -1    0    0  502    0  0.00000000000E+00 -0.00000000000E+00 -0.21210720450E+04  0.21210720450E+04  0.00000000000E+00 0.  1.
          6    1    1    2  502    0 -0.38894669704E+03 -0.47951791356E+03 -0.29078531107E+03  0.70381606950E+03  0.17200000000E+03 0.  1.
         -6    1    1    2    0  501  0.38894669704E+03  0.47951791356E+03 -0.15605233855E+04  0.16870193239E+04  0.17200000000E+03 0.  1.
</event>
<event>
 4    1  0.1059899E+000  0.1890225E+03  0.7818608E-02  0.1159346E+00
          3   -1    0    0  502    0  0.00000000000E+00  0.00000000000E+00  0.22275357910E+02  0.22275357910E+02  0.00000000000E+00 0. -1.
         -3   -1    0    0    0  501 -0.00000000000E+00 -0.00000000000E+00 -0.18040826018E+04  0.18040826018E+04  0.00000000000E+00 0.  1.
          6    1    1    2  502    0 -0.49838436738E+02  0.60511438710E+02 -0.11950205866E+04  0.12098775584E+04  0.17200000000E+03 0.  1.
         -6    1    1    2    0  501  0.49838436738E+02 -0.60511438710E+02 -0.58678665731E+03  0.61648040130E+03  0.17200000000E+03 0. -1.
</event>
<event>
 4    1  0.1059899E+000  0.1757224E+03  0.7818608E-02  0.1172008E+00
         -2   -1    0    0    0  501 -0.00000000000E+00  0.00000000000E+00  0.42544041269E+02  0.42544041269E+02  0.00000000000E+00 0. -1.
          2   -1    0    0  502    0  0.00000000000E+00 -0.00000000000E+00 -0.12166203320E+04  0.12166203320E+04  0.00000000000E+00 0.  1.
          6    1    1    2  502    0 -0.20388276322E+02  0.29642415692E+02 -0.18715111530E+03  0.25671753850E+03  0.17200000000E+03 0. -1.
         -6    1    1    2    0  501  0.20388276322E+02 -0.29642415692E+02 -0.98692517542E+03  0.10024468347E+04  0.17200000000E+03 0.  1.
</event>
<event>
 4    1  0.1059899E+000  0.2061110E+03  0.7818608E-02  0.1144683E+00
          2   -1    0    0  502    0  0.00000000000E+00  0.00000000000E+00  0.59094292544E+03  0.59094292544E+03  0.00000000000E+00 0.  1.
         -2   -1    0    0    0  501 -0.00000000000E+00 -0.00000000000E+00 -0.77136308713E+02  0.77136308713E+02  0.00000000000E+00 0. -1.
          6    1    1    2  502    0 -0.11253015727E+03  0.15319909538E+02  0.34403498560E+03  0.40105087862E+03  0.17200000000E+03 0.  1.
         -6    1    1    2    0  501  0.11253015727E+03 -0.15319909538E+02  0.16977163113E+03  0.26702835554E+03  0.17200000000E+03 0. -1.
</event>
<event>
 4    1  0.1059899E+000  0.1794530E+03  0.7818608E-02  0.1168333E+00
          2   -1    0    0  502    0  0.00000000000E+00  0.00000000000E+00  0.27629948019E+03  0.27629948019E+03  0.00000000000E+00 0.  1.
         -2   -1    0    0    0  501 -0.00000000000E+00 -0.00000000000E+00 -0.12138869903E+03  0.12138869903E+03  0.00000000000E+00 0. -1.
          6    1    1    2  502    0 -0.43995682087E+02 -0.26148953555E+02  0.11714500095E+03  0.21430431414E+03  0.17200000000E+03 0.  1.
         -6    1    1    2    0  501  0.43995682087E+02  0.26148953555E+02  0.37765780213E+02  0.18338386507E+03  0.17200000000E+03 0. -1.
</event>
<event>
 4    1  0.1059899E+000  0.1720204E+03  0.7818608E-02  0.1175757E+00
         -2   -1    0    0    0  501 -0.00000000000E+00  0.00000000000E+00  0.13389890913E+02  0.13389890913E+02  0.00000000000E+00 0.  1.
          2   -1    0    0  502    0  0.00000000000E+00 -0.00000000000E+00 -0.22177816071E+04  0.22177816071E+04  0.00000000000E+00 0. -1.
          6    1    1    2  502    0  0.16920043079E+01  0.20394239865E+01 -0.11684787240E+04  0.11810730505E+04  0.17200000000E+03 0. -1.
         -6    1    1    2    0  501 -0.16920043079E+01 -0.20394239865E+01 -0.10359129922E+04  0.10500984475E+04  0.17200000000E+03 0.  1.
</event>
<event>
 4    1  0.1059899E+000  0.2369860E+03  0.7818608E-02  0.1121817E+00
          1   -1    0    0  502    0  0.00000000000E+00  0.00000000000E+00  0.21862631808E+04  0.21862631808E+04  0.00000000000E+00 0.  1.
         -1   -1    0    0    0  501 -0.00000000000E+00 -0.00000000000E+00 -0.37350328961E+02  0.37350328961E+02  0.00000000000E+00 0. -1.
          6    1    1    2  502    0  0.46859815459E+02 -0.15614910887E+03  0.45321470202E+03  0.51143518909E+03  0.17200000000E+03 0.  1.
         -6    1    1    2    0  501 -0.46859815459E+02  0.15614910887E+03  0.16956981498E+04  0.17121783207E+04  0.17200000000E+03 0.  1.
</event>
<event>
 4    1  0.1059899E+000  0.2273834E+03  0.7818608E-02  0.1128495E+00
         -2   -1    0    0    0  501 -0.00000000000E+00  0.00000000000E+00  0.14032955336E+03  0.14032955336E+03  0.00000000000E+00 0.  1.
          2   -1    0    0  502    0  0.00000000000E+00 -0.00000000000E+00 -0.39476720918E+03  0.39476720918E+03  0.00000000000E+00 0. -1.
          6    1    1    2  502    0 -0.57195566454E+02 -0.13728757269E+03 -0.19631007762E+03  0.30040116014E+03  0.17200000000E+03 0. -1.
         -6    1    1    2    0  501  0.57195566454E+02  0.13728757269E+03 -0.58127578194E+02  0.23469560240E+03  0.17200000000E+03 0. -1.
</event>
<event>
 4    1  0.1059899E+000  0.2027181E+03  0.7818608E-02  0.1147466E+00
          1   -1    0    0  502    0  0.00000000000E+00  0.00000000000E+00  0.32338387725E+03  0.32338387725E+03  0.00000000000E+00 0.  1.
         -1   -1    0    0    0  501 -0.00000000000E+00 -0.00000000000E+00 -0.14334787014E+03  0.14334787014E+03  0.00000000000E+00 0. -1.
          6    1    1    2  502    0  0.10051292965E+03 -0.37520509361E+02  0.11395341095E+02  0.20303815269E+03  0.17200000000E+03 0. -1.
         -6    1    1    2    0  501 -0.10051292965E+03  0.37520509361E+02  0.16864066602E+03  0.26369359470E+03  0.17200000000E+03 0.  1.
</event>
<event>
 4    1  0.1059899E+000  0.1815676E+03  0.7818608E-02  0.1166295E+00
         -2   -1    0    0    0  501 -0.00000000000E+00  0.00000000000E+00  0.24914797090E+02  0.24914797090E+02  0.00000000000E+00 0. -1.
          2   -1    0    0  502    0  0.00000000000E+00 -0.00000000000E+00 -0.15557037987E+04  0.15557037987E+04  0.00000000000E+00 0.  1.
          6    1    1    2  502    0  0.42641519911E+02  0.39553609482E+02 -0.10709332978E+04  0.10862158697E+04  0.17200000000E+03 0.  1.
         -6    1    1    2    0  501 -0.42641519911E+02 -0.39553609482E+02 -0.45985570382E+03  0.49440272610E+03  0.17200000000E+03 0. -1.
</event>
<event>
 4    1  0.1059899E+000  0.2250283E+03  0.7818608E-02  0.1130189E+00
          2   -1    0    0  502    0  0.00000000000E+00  0.00000000000E+00  0.20976837451E+04  0.20976837451E+04  0.00000000000E+00 0.  1.
         -2   -1    0    0    0  501 -0.00000000000E+00 -0.00000000000E+00 -0.33713946905E+02  0.33713946905E+02  0.00000000000E+00 0. -1.
          6    1    1    2  502    0 -0.13845701462E+03  0.43397887164E+02  0.46407539034E+03  0.51575545506E+03  0.17200000000E+03 0. -1.
         -6    1    1    2    0  501  0.13845701462E+03 -0.43397887164E+02  0.15998944079E+04  0.16156422370E+04  0.17200000000E+03 0.  1.
</event>
<event>
 4    1  0.1059899E+000  0.1898638E+03  0.7818608E-02  0.1158584E+00
         -2   -1    0    0    0  501 -0.00000000000E+00  0.00000000000E+00  0.77391563616E+02  0.77391563616E+02  0.00000000000E+00 0.  1.
          2   -1    0    0  502    0  0.00000000000E+00 -0.00000000000E+00 -0.83846111426E+03  0.83846111426E+03  0.00000000000E+00 0. -1.
          6    1    1    2  502    0  0.80324686902E+02 -0.34940918387E+01 -0.75241900397E+02  0.20422930147E+03  0.17200000000E+03 0.  1.
         -6    1    1    2    0  501 -0.80324686902E+02  0.34940918387E+01 -0.68582765025E+03  0.71162337641E+03  0.17200000000E+03 0. -1.
</event>
<event>
 4    1  0.1059899E+000  0.1769333E+03  0.7818608E-02  0.1170804E+00
          1   -1    0    0  502    0  0.00000000000E+00  0.00000000000E+00  0.17762391544E+03  0.17762391544E+03  0.00000000000E+00 0.  1.
         -1   -1    0    0    0  501 -0.00000000000E+00 -0.00000000000E+00 -0.17626257447E+03  0.17626257447E+03  0.00000000000E+00 0. -1.
          6    1    1    2  502    0 -0.37521866725E+02 -0.17706054335E+02  0.24281901283E+01  0.17694996736E+03  0.17200000000E+03 0. -1.
         -6    1    1    2    0  501  0.37521866725E+02  0.17706054335E+02 -0.10668491639E+01  0.17693652254E+03  0.17200000000E+03 0. -1.
</event>
<event>
 4    1  0.1059899E+000  0.1820277E+03  0.7818608E-02  0.1165855E+00
         -2   -1    0    0    0  501 -0.00000000000E+00  0.00000000000E+00  0.83311490169E+02  0.83311490169E+02  0.00000000000E+00 0.  1.
          2   -1    0    0  502    0  0.00000000000E+00 -0.00000000000E+00 -0.40013168551E+03  0.40013168551E+03  0.00000000000E+00 0. -1.
          6    1    1    2  502    0  0.52748734660E+02  0.27706262907E+02 -0.13961692573E+03  0.22940564937E+03  0.17200000000E+03 0.  1.
         -6    1    1    2    0  501 -0.52748734660E+02 -0.27706262907E+02 -0.17720326961E+03  0.25403752631E+03  0.17200000000E+03 0. -1.
</event>
<event>
 4    1  0.1059899E+000  0.2584666E+03  0.7818608E-02  0.1108068E+00
         -2   -1    0    0    0  501 -0.00000000000E+00  0.00000000000E+00  0.46846867430E+02  0.46846867430E+02  0.00000000000E+00 0.  1.
          2   -1    0    0  502    0  0.00000000000E+00 -0.00000000000E+00 -0.14438810638E+04  0.14438810638E+04  0.00000000000E+00 0. -1.
          6    1    1    2  502    0 -0.19287330599E+03  0.45709456918E+01 -0.61563834428E+03  0.66769422392E+03  0.17200000000E+03 0. -1.
         -6    1    1    2    0  501  0.19287330599E+03 -0.45709456918E+01 -0.78139585207E+03  0.82303370729E+03  0.17200000000E+03 0.  1.
</event>
<event>
 4    1  0.1059899E+000  0.2050810E+03  0.7818608E-02  0.1145522E+00
         -1   -1    0    0    0  501 -0.00000000000E+00  0.00000000000E+00  0.63491492634E+02  0.63491492634E+02  0.00000000000E+00 0. -1.
          1   -1    0    0  502    0  0.00000000000E+00 -0.00000000000E+00 -0.66302400298E+03  0.66302400298E+03  0.00000000000E+00 0.  1.
          6    1    1    2  502    0  0.10856908210E+03  0.26210167453E+02 -0.28882855794E+03  0.35423178055E+03  0.17200000000E+03 0. -1.
         -6    1    1    2    0  501 -0.10856908210E+03 -0.26210167453E+02 -0.31070395240E+03  0.37228371506E+03  0.17200000000E+03 0. -1.
</event>
<event>
 4    1  0.1059899E+000  0.1767714E+03  0.7818608E-02  0.1170965E+00
         -2   -1    0    0    0  501 -0.00000000000E+00  0.00000000000E+00  0.47600136437E+03  0.47600136437E+03  0.00000000000E+00 0. -1.
          2   -1    0    0  502    0  0.00000000000E+00 -0.00000000000E+00 -0.77437812197E+02  0.77437812197E+02  0.00000000000E+00 0.  1.
          6    1    1    2  502    0  0.11229641884E+02  0.39217535767E+02  0.91304350948E+02  0.19895880094E+03  0.17200000000E+03 0.  1.
         -6    1    1    2    0  501 -0.11229641884E+02 -0.39217535767E+02  0.30725920122E+03  0.35448037563E+03  0.17200000000E+03 0. -1.
</event>
<event>
 4    1  0.1059899E+000  0.2056661E+03  0.7818608E-02  0.1145045E+00
         -1   -1    0    0    0  501 -0.00000000000E+00  0.00000000000E+00  0.21756439698E+02  0.21756439698E+02  0.00000000000E+00 0. -1.
          1   -1    0    0  502    0  0.00000000000E+00 -0.00000000000E+00 -0.24999829528E+04  0.24999829528E+04  0.00000000000E+00 0.  1.
          6    1    1    2  502    0 -0.97917051010E+02 -0.55917810589E+02 -0.18336244478E+04  0.18451225342E+04  0.17200000000E+03 0.  1.
         -6    1    1    2    0  501  0.97917051010E+02  0.55917810589E+02 -0.64460206524E+03  0.67661685830E+03  0.17200000000E+03 0. -1.
</event>
<event>
 4    1  0.1059899E+000  0.1828785E+03  0.7818608E-02  0.1165046E+00
          2   -1    0    0  502    0  0.00000000000E+00  0.00000000000E+00  0.54938792144E+03  0.54938792144E+03  0.00000000000E+00 0. -1.
         -2   -1    0    0    0  501 -0.00000000000E+00 -0.00000000000E+00 -0.64916764893E+02  0.64916764893E+02  0.00000000000E+00 0.  1.
          6    1    1    2  502    0 -0.30029136839E+02  0.54394679658E+02  0.31886720719E+03  0.36758784808E+03  0.17200000000E+03 0. -1.
         -6    1    1    2    0  501  0.30029136839E+02 -0.54394679658E+02  0.16560394935E+03  0.24671683825E+03  0.17200000000E+03 0.  1.
</event>
<event>
 4    1  0.1059899E+000  0.2504587E+03  0.7818608E-02  0.1113015E+00
          1   -1    0    0  502    0  0.00000000000E+00  0.00000000000E+00  0.11410152435E+03  0.11410152435E+03  0.00000000000E+00 0.  1.
         -1   -1    0    0    0  501 -0.00000000000E+00 -0.00000000000E+00 -0.55819134674E+03  0.55819134674E+03  0.00000000000E+00 0. -1.
          6    1    1    2  502    0  0.17391508188E+03  0.53843524618E+02 -0.26333358591E+03  0.36342008519E+03  0.17200000000E+03 0.  1.
         -6    1    1    2    0  501 -0.17391508188E+03 -0.53843524618E+02 -0.18075623647E+03  0.30887278590E+03  0.17200000000E+03 0.  1.
</event>
<event>
 4    1  0.1059899E+000  0.2340724E+03  0.7818608E-02  0.1123806E+00
         -2   -1    0    0    0  501 -0.00000000000E+00  0.00000000000E+00  0.26794122786E+02  0.26794122786E+02  0.00000000000E+00 0. -1.
          2   -1    0    0  502    0  0.00000000000E+00 -0.00000000000E+00 -0.23271496120E+04  0.23271496120E+04  0.00000000000E+00 0.  1.
          6    1    1    2  502    0 -0.13037262272E+03 -0.90602745783E+02 -0.74024607373E+03  0.77637241577E+03  0.17200000000E+03 0. -1.
         -6    1    1    2    0  501  0.13037262272E+03  0.90602745783E+02 -0.15601094155E+04  0.15775713191E+04  0.17200000000E+03 0.  1.
</event>
<event>
 4    1  0.1059899E+000  0.2338692E+03  0.7818608E-02  0.1123946E+00
          1   -1    0    0  502    0  0.00000000000E+00  0.00000000000E+00  0.39333747778E+03  0.39333747778E+03  0.00000000000E+00 0.  1.
         -1   -1    0    0    0  501 -0.00000000000E+00 -0.00000000000E+00 -0.22928134915E+03  0.22928134915E+03  0.00000000000E+00 0. -1.
          6    1    1    2  502    0  0.11481693350E+03  0.10921486250E+03 -0.11326150115E+03  0.25985184635E+03  0.17200000000E+03 0.  1.
         -6    1    1    2    0  501 -0.11481693350E+03 -0.10921486250E+03  0.27731762978E+03  0.36276698057E+03  0.17200000000E+03 0.  1.
</event>
<event>
 4    1  0.1059899E+000  0.2218323E+03  0.7818608E-02  0.1132524E+00
          2   -1    0    0  502    0  0.00000000000E+00  0.00000000000E+00  0.11514809722E+04  0.11514809722E+04  0.00000000000E+00 0.  1.
         -2   -1    0    0    0  501 -0.00000000000E+00 -0.00000000000E+00 -0.55577211520E+02  0.55577211520E+02  0.00000000000E+00 0. -1.
          6    1    1    2  502    0  0.12780855552E+03 -0.57363426978E+02  0.25784747831E+03  0.34013954738E+03  0.17200000000E+03 0. -1.
         -6    1    1    2    0  501 -0.12780855552E+03  0.57363426978E+02  0.83805628235E+03  0.86691863632E+03  0.17200000000E+03 0.  1.
</event>
<event>
 4    1  0.1059899E+000  0.1798073E+03  0.7818608E-02  0.1167990E+00
          2   -1    0    0  502    0  0.00000000000E+00  0.00000000000E+00  0.72866317847E+03  0.72866317847E+03  0.00000000000E+00 0. -1.
         -2   -1    0    0    0  501 -0.00000000000E+00 -0.00000000000E+00 -0.48504726040E+02  0.48504726040E+02  0.00000000000E+00 0.  1.
          6    1    1    2  502    0  0.49985841742E+02 -0.15750934823E+02  0.45353433379E+03  0.48787710363E+03  0.17200000000E+03 0. -1.
         -6    1    1    2    0  501 -0.49985841742E+02  0.15750934823E+02  0.22662411863E+03  0.28929080087E+03  0.17200000000E+03 0.  1.
</event>
<event>
 4    1  0.1059899E+000  0.1809233E+03  0.7818608E-02  0.1166912E+00
         -1   -1    0    0    0  501 -0.00000000000E+00  0.00000000000E+00  0.77165670884E+02  0.77165670884E+02  0.00000000000E+00 0. -1.
          1   -1    0    0  502    0  0.00000000000E+00 -0.00000000000E+00 -0.63139958378E+03  0.63139958378E+03  0.00000000000E+00 0.  1.
          6    1    1    2  502    0 -0.54440161929E+02 -0.13620775567E+02 -0.74162839354E+02  0.19553358663E+03  0.17200000000E+03 0. -1.
         -6    1    1    2    0  501  0.54440161929E+02  0.13620775567E+02 -0.48007107354E+03  0.51303166803E+03  0.17200000000E+03 0.  1.
</event>
<event>
 4    1  0.1059899E+000  0.4595880E+03  0.7818608E-02  0.1024901E+00
          2   -1    0    0  502    0  0.00000000000E+00  0.00000000000E+00  0.16605226589E+04  0.16605226589E+04  0.00000000000E+00 0.  1.
         -2   -1    0    0    0  501 -0.00000000000E+00 -0.00000000000E+00 -0.12763220296E+03  0.12763220296E+03  0.00000000000E+00 0. -1.
          6    1    1    2  502    0  0.40359395784E+03  0.13692708732E+03  0.81837809619E+03  0.93859672829E+03  0.17200000000E+03 0.  1.
         -6    1    1    2    0  501 -0.40359395784E+03 -0.13692708732E+03  0.71451235972E+03  0.84955813352E+03  0.17200000000E+03 0.  1.
</event>
<event>
 4    1  0.1059899E+000  0.2337416E+03  0.7818608E-02  0.1124034E+00
         -2   -1    0    0    0  501 -0.00000000000E+00  0.00000000000E+00  0.79840671616E+03  0.79840671616E+03  0.00000000000E+00 0.  1.
          2   -1    0    0  502    0  0.00000000000E+00 -0.00000000000E+00 -0.32105046259E+03  0.32105046259E+03  0.00000000000E+00 0. -1.
          6    1    1    2  502    0  0.12977401097E+03 -0.90608269165E+02  0.73518459249E+03  0.77144768934E+03  0.17200000000E+03 0.  1.
         -6    1    1    2    0  501 -0.12977401097E+03  0.90608269165E+02 -0.25782833892E+03  0.34800948940E+03  0.17200000000E+03 0. -1.
</event>
<event>
 4    1  0.1059899E+000  0.2520662E+03  0.7818608E-02  0.1112006E+00
          1   -1    0    0  502    0  0.00000000000E+00  0.00000000000E+00  0.25399068813E+04  0.25399068813E+04  0.00000000000E+00 0. -1.
         -1   -1    0    0    0  501 -0.00000000000E+00 -0.00000000000E+00 -0.38302129197E+02  0.38302129197E+02  0.00000000000E+00 0.  1.
          6    1    1    2  502    0 -0.13411092851E+03  0.12636300723E+03  0.20100476189E+04  0.20257909026E+04  0.17200000000E+03 0. -1.
         -6    1    1    2    0  501  0.13411092851E+03 -0.12636300723E+03  0.49155713313E+03  0.55241810785E+03  0.17200000000E+03 0.  1.
</event>
<event>
 4    1  0.1059899E+000  0.1829775E+03  0.7818608E-02  0.1164952E+00
          2   -1    0    0  502    0  0.00000000000E+00  0.00000000000E+00  0.24055126855E+03  0.24055126855E+03  0.00000000000E+00 0.  1.
         -2   -1    0    0    0  501 -0.00000000000E+00 -0.00000000000E+00 -0.14015996030E+03  0.14015996030E+03  0.00000000000E+00 0. -1.
          6    1    1    2  502    0 -0.47144761069E+02  0.40916250145E+02  0.34307241589E+02  0.18616593364E+03  0.17200000000E+03 0.  1.
         -6    1    1    2    0  501  0.47144761069E+02 -0.40916250145E+02  0.66084066660E+02  0.19454529521E+03  0.17200000000E+03 0.  1.
</event>
<event>
 4    1  0.1059899E+000  0.1748759E+03  0.7818608E-02  0.1172856E+00
         -2   -1    0    0    0  501 -0.00000000000E+00  0.00000000000E+00  0.81115040108E+02  0.81115040108E+02  0.00000000000E+00 0.  1.
          2   -1    0    0  502    0  0.00000000000E+00 -0.00000000000E+00 -0.37878352486E+03  0.37878352486E+03  0.00000000000E+00 0. -1.
          6    1    1    2  502    0  0.29202206147E+01  0.31449364171E+02 -0.13312204112E+03  0.21977958965E+03  0.17200000000E+03 0.  1.
         -6    1    1    2    0  501 -0.29202206147E+01 -0.31449364171E+02 -0.16454644363E+03  0.24011897532E+03  0.17200000000E+03 0. -1.
</event>
<event>
 4    1  0.1059899E+000  0.2364364E+03  0.7818608E-02  0.1122190E+00
          2   -1    0    0  502    0  0.00000000000E+00  0.00000000000E+00  0.78424145920E+03  0.78424145920E+03  0.00000000000E+00 0. -1.
         -2   -1    0    0    0  501 -0.00000000000E+00 -0.00000000000E+00 -0.72901833710E+02  0.72901833710E+02  0.00000000000E+00 0.  1.
          6    1    1    2  502    0  0.13997289734E+03 -0.82010817083E+02  0.29178335028E+03  0.37555253908E+03  0.17200000000E+03 0. -1.
         -6    1    1    2    0  501 -0.13997289734E+03  0.82010817083E+02  0.41955627521E+03  0.48159075383E+03  0.17200000000E+03 0. -1.
</event>
<event>
 4    1  0.1059899E+000  0.1880720E+03  0.7818608E-02  0.1160212E+00
         -2   -1    0    0    0  501 -0.00000000000E+00  0.00000000000E+00  0.17380966745E+03  0.17380966745E+03  0.00000000000E+00 0. -1.
          2   -1    0    0  502    0  0.00000000000E+00 -0.00000000000E+00 -0.41532115197E+03  0.41532115197E+03  0.00000000000E+00 0.  1.
          6    1    1    2  502    0 -0.76063799768E+02 -0.11752419656E+01 -0.33111884846E+03  0.38080280282E+03  0.17200000000E+03 0.  1.
         -6    1    1    2    0  501  0.76063799768E+02  0.11752419656E+01  0.89607363939E+02  0.20832801660E+03  0.17200000000E+03 0. -1.
</event>
<event>
 4    1  0.1059899E+000  0.2016853E+03  0.7818608E-02  0.1148325E+00
          2   -1    0    0  502    0  0.00000000000E+00  0.00000000000E+00  0.31674314450E+03  0.31674314450E+03  0.00000000000E+00 0.  1.
         -2   -1    0    0    0  501 -0.00000000000E+00 -0.00000000000E+00 -0.13565056361E+03  0.13565056361E+03  0.00000000000E+00 0. -1.
          6    1    1    2  502    0  0.59698647537E+02 -0.86770089314E+02  0.38332664361E+02  0.20529581115E+03  0.17200000000E+03 0. -1.
         -6    1    1    2    0  501 -0.59698647537E+02  0.86770089314E+02  0.14275991652E+03  0.24709789696E+03  0.17200000000E+03 0.  1.
</event>
<event>
 4    1  0.1059899E+000  0.1918024E+03  0.7818608E-02  0.1156846E+00
         -1   -1    0    0    0  501 -0.00000000000E+00  0.00000000000E+00  0.11817518252E+03  0.11817518252E+03  0.00000000000E+00 0.  1.
          1   -1    0    0  502    0  0.00000000000E+00 -0.00000000000E+00 -0.49926779664E+03  0.49926779664E+03  0.00000000000E+00 0. -1.
          6    1    1    2  502    0  0.38907586230E+02  0.75434555690E+02 -0.37997226019E+03  0.42563727630E+03  0.17200000000E+03 0. -1.
         -6    1    1    2    0  501 -0.38907586230E+02 -0.75434555690E+02 -0.11203539269E+01  0.19180570286E+03  0.17200000000E+03 0.  1.
</event>
<event>
 4    1  0.1059899E+000  0.1993414E+03  0.7818608E-02  0.1150296E+00
         -1   -1    0    0    0  501 -0.00000000000E+00  0.00000000000E+00  0.16696523478E+02  0.16696523478E+02  0.00000000000E+00 0. -1.
          1   -1    0    0  502    0  0.00000000000E+00 -0.00000000000E+00 -0.23817057963E+04  0.23817057963E+04  0.00000000000E+00 0.  1.
          6    1    1    2  502    0  0.84897644133E+02  0.54271499042E+02 -0.11500082551E+04  0.11671572269E+04  0.17200000000E+03 0. -1.
         -6    1    1    2    0  501 -0.84897644133E+02 -0.54271499042E+02 -0.12150010178E+04  0.12312450929E+04  0.17200000000E+03 0.  1.
</event>
<event>
 4    1  0.1059899E+000  0.2009995E+03  0.7818608E-02  0.1148898E+00
         -2   -1    0    0    0  501 -0.00000000000E+00  0.00000000000E+00  0.24345113439E+02  0.24345113439E+02  0.00000000000E+00 0. -1.
          2   -1    0    0  502    0  0.00000000000E+00 -0.00000000000E+00 -0.18775584887E+04  0.18775584887E+04  0.00000000000E+00 0.  1.
          6    1    1    2  502    0 -0.43448512144E+02 -0.94493560332E+02 -0.60253240451E+03  0.63517407427E+03  0.17200000000E+03 0. -1.
         -6    1    1    2    0  501  0.43448512144E+02  0.94493560332E+02 -0.12506809708E+04  0.12667295279E+04  0.17200000000E+03 0.  1.
</event>
<event>
 4    1  0.1059899E+000  0.2093878E+03  0.7818608E-02  0.1142052E+00
          2   -1    0    0  502    0  0.00000000000E+00  0.00000000000E+00  0.16060875238E+04  0.16060875238E+04  0.00000000000E+00 0. -1.
         -2   -1    0    0    0  501 -0.00000000000E+00 -0.00000000000E+00 -0.28418524738E+02  0.28418524738E+02  0.00000000000E+00 0.  1.
          6    1    1    2  502    0  0.42588331774E+01 -0.11933622219E+03  0.95110178659E+03  0.97387775415E+03  0.17200000000E+03 0. -1.
         -6    1    1    2    0  501 -0.42588331774E+01  0.11933622219E+03  0.62656721243E+03  0.66062829434E+03  0.17200000000E+03 0.  1.
</event>
<event>
 4    1  0.1059899E+000  0.1943004E+03  0.7818608E-02  0.1154639E+00
          2   -1    0    0  502    0  0.00000000000E+00  0.00000000000E+00  0.40661507004E+04  0.40661507004E+04  0.00000000000E+00 0.  1.
         -2   -1    0    0    0  501 -0.00000000000E+00 -0.00000000000E+00 -0.10399459620E+02  0.10399459620E+02  0.00000000000E+00 0. -1.
          6    1    1    2  502    0  0.90169746396E+02 -0.61693284618E+01  0.26952423930E+04  0.27022368884E+04  0.17200000000E+03 0.  1.
         -6    1    1    2    0  501 -0.90169746396E+02  0.61693284618E+01  0.13605088478E+04  0.13743132716E+04  0.17200000000E+03 0. -1.
</event>
<event>
 4    1  0.1059899E+000  0.1783958E+03  0.7818608E-02  0.1169365E+00
          1   -1    0    0  502    0  0.00000000000E+00  0.00000000000E+00  0.41188239413E+03  0.41188239413E+03  0.00000000000E+00 0. -1.
         -1   -1    0    0    0  501 -0.00000000000E+00 -0.00000000000E+00 -0.77587172721E+02  0.77587172721E+02  0.00000000000E+00 0.  1.
          6    1    1    2  502    0 -0.43148496653E+02 -0.19474569706E+02  0.18286104144E+03  0.25546665557E+03  0.17200000000E+03 0. -1.
         -6    1    1    2    0  501  0.43148496653E+02  0.19474569706E+02  0.15143417997E+03  0.23400291129E+03  0.17200000000E+03 0.  1.
</event>
<event>
 4    1  0.1059899E+000  0.1916157E+03  0.7818608E-02  0.1157012E+00
         -3   -1    0    0    0  501 -0.00000000000E+00  0.00000000000E+00  0.69111023631E+02  0.69111023631E+02  0.00000000000E+00 0. -1.
          3   -1    0    0  502    0  0.00000000000E+00 -0.00000000000E+00 -0.53127124001E+03  0.53127124001E+03  0.00000000000E+00 0.  1.
          6    1    1    2  502    0  0.31631455647E+02 -0.78307237284E+02 -0.23052219304E+03  0.29976166180E+03  0.17200000000E+03 0. -1.
         -6    1    1    2    0  501 -0.31631455647E+02  0.78307237284E+02 -0.23163802333E+03  0.30062060184E+03  0.17200000000E+03 0. -1.
</event>
<event>
 4    1  0.1059899E+000  0.1871949E+03  0.7818608E-02  0.1161016E+00
          1   -1    0    0  502    0  0.00000000000E+00  0.00000000000E+00  0.13600584095E+04  0.13600584095E+04  0.00000000000E+00 0.  1.
         -1   -1    0    0    0  501 -0.00000000000E+00 -0.00000000000E+00 -0.25948881605E+02  0.25948881605E+02  0.00000000000E+00 0. -1.
          6    1    1    2  502    0 -0.73721345509E+02  0.48041612151E+01  0.60871897570E+03  0.63685218703E+03  0.17200000000E+03 0.  1.
         -6    1    1    2    0  501  0.73721345509E+02 -0.48041612151E+01  0.72539055223E+03  0.74915510411E+03  0.17200000000E+03 0.  1.
</event>
<event>
 4    1  0.1059899E+000  0.2845528E+03  0.7818608E-02  0.1093228E+00
         -2   -1    0    0    0  501 -0.00000000000E+00  0.00000000000E+00  0.68644949794E+02  0.68644949794E+02  0.00000000000E+00 0.  1.
          2   -1    0    0  502    0  0.00000000000E+00 -0.00000000000E+00 -0.13153821516E+04  0.13153821516E+04  0.00000000000E+00 0. -1.
          6    1    1    2  502    0 -0.82090071101E+02  0.21129961861E+03 -0.40099346055E+03  0.49169712629E+03  0.17200000000E+03 0.  1.
         -6    1    1    2    0  501  0.82090071101E+02 -0.21129961861E+03 -0.84574374129E+03  0.89232997513E+03  0.17200000000E+03 0. -1.
</event>
<event>
 4    1  0.1059899E+000  0.2448122E+03  0.7818608E-02  0.1116628E+00
          2   -1    0    0  502    0  0.00000000000E+00  0.00000000000E+00  0.62494957718E+03  0.62494957718E+03  0.00000000000E+00 0. -1.
         -2   -1    0    0    0  501 -0.00000000000E+00 -0.00000000000E+00 -0.96022660792E+02  0.96022660792E+02  0.00000000000E+00 0.  1.
          6    1    1    2  502    0  0.13847703139E+03  0.10570292558E+03  0.27731962070E+03  0.36991778644E+03  0.17200000000E+03 0.  1.
         -6    1    1    2    0  501 -0.13847703139E+03 -0.10570292558E+03  0.25160729568E+03  0.35105445153E+03  0.17200000000E+03 0.  1.
</event>
<event>
 4    1  0.1059899E+000  0.3869118E+03  0.7818608E-02  0.1048408E+00
         -1   -1    0    0    0  501 -0.00000000000E+00  0.00000000000E+00  0.93172977226E+03  0.93172977226E+03  0.00000000000E+00 0.  1.
          1   -1    0    0  502    0  0.00000000000E+00 -0.00000000000E+00 -0.20127089669E+03  0.20127089669E+03  0.00000000000E+00 0. -1.
          6    1    1    2  502    0 -0.38362536046E+02 -0.34444891574E+03  0.61966576377E+03  0.73053843055E+03  0.17200000000E+03 0.  1.
         -6    1    1    2    0  501  0.38362536046E+02  0.34444891574E+03  0.11079311181E+03  0.40246223841E+03  0.17200000000E+03 0. -1.
</event>
<event>
 4    1  0.1059899E+000  0.1754449E+03  0.7818608E-02  0.1172286E+00
          2   -1    0    0  502    0  0.00000000000E+00  0.00000000000E+00  0.52914568680E+03  0.52914568680E+03  0.00000000000E+00 0.  1.
         -2   -1    0    0    0  501 -0.00000000000E+00 -0.00000000000E+00 -0.62262244493E+02  0.62262244493E+02  0.00000000000E+00 0. -1.
          6    1    1    2  502    0  0.22041534049E+02  0.26666111960E+02  0.15764074715E+03  0.23586334161E+03  0.17200000000E+03 0. -1.
         -6    1    1    2    0  501 -0.22041534049E+02 -0.26666111960E+02  0.30924269515E+03  0.35554458969E+03  0.17200000000E+03 0. -1.
</event>
<event>
 4    1  0.1059899E+000  0.2695784E+03  0.7818608E-02  0.1101521E+00
          2   -1    0    0  502    0  0.00000000000E+00  0.00000000000E+00  0.20701432671E+04  0.20701432671E+04  0.00000000000E+00 0. -1.
         -2   -1    0    0    0  501 -0.00000000000E+00 -0.00000000000E+00 -0.43453911991E+02  0.43453911991E+02  0.00000000000E+00 0.  1.
          6    1    1    2  502    0  0.13884206789E+03  0.15430937438E+03  0.55012054653E+03  0.61262151330E+03  0.17200000000E+03 0.  1.
         -6    1    1    2    0  501 -0.13884206789E+03 -0.15430937438E+03  0.14765688086E+04  0.15009756658E+04  0.17200000000E+03 0. -1.
</event>
<event>
 4    1  0.1059899E+000  0.2002705E+03  0.7818608E-02  0.1149511E+00
         -2   -1    0    0    0  501 -0.00000000000E+00  0.00000000000E+00  0.40862750967E+02  0.40862750967E+02  0.00000000000E+00 0.  1.
          2   -1    0    0  502    0  0.00000000000E+00 -0.00000000000E+00 -0.10307760376E+04  0.10307760376E+04  0.00000000000E+00 0. -1.
          6    1    1    2  502    0  0.85580341662E+02 -0.56570836258E+02 -0.61206723827E+03  0.64399888086E+03  0.17200000000E+03 0.  1.
         -6    1    1    2    0  501 -0.85580341662E+02  0.56570836258E+02 -0.37784604835E+03  0.42763990769E+03  0.17200000000E+03 0. -1.
</event>
<event>
 4    1  0.1059899E+000  0.5046557E+03  0.7818608E-02  0.1012571E+00
          1   -1    0    0  502    0  0.00000000000E+00  0.00000000000E+00  0.14131694723E+04  0.14131694723E+04  0.00000000000E+00 0. -1.
         -1   -1    0    0    0  501 -0.00000000000E+00 -0.00000000000E+00 -0.18584885882E+03  0.18584885882E+03  0.00000000000E+00 0.  1.
          6    1    1    2  502    0  0.41368454260E+03 -0.23228954577E+03  0.47448419166E+03  0.69268505253E+03  0.17200000000E+03 0.  1.
         -6    1    1    2    0  501 -0.41368454260E+03  0.23228954577E+03  0.75283642179E+03  0.90633327856E+03  0.17200000000E+03 0. -1.
</event>
<event>
 4    1  0.1059899E+000  0.2348158E+03  0.7818608E-02  0.1123295E+00
          2   -1    0    0  502    0  0.00000000000E+00  0.00000000000E+00  0.14437283399E+03  0.14437283399E+03  0.00000000000E+00 0. -1.
         -2   -1    0    0    0  501 -0.00000000000E+00 -0.00000000000E+00 -0.40178698971E+03  0.40178698971E+03  0.00000000000E+00 0.  1.
          6    1    1    2  502    0 -0.57049238136E+02 -0.14933130508E+03 -0.18943515563E+03  0.30170205905E+03  0.17200000000E+03 0.  1.
         -6    1    1    2    0  501  0.57049238136E+02  0.14933130508E+03 -0.67979000094E+02  0.24445776466E+03  0.17200000000E+03 0. -1.
</event>
<event>
 4    1  0.1059899E+000  0.1926336E+03  0.7818608E-02  0.1156107E+00
          2   -1    0    0  502    0  0.00000000000E+00  0.00000000000E+00  0.61660287793E+03  0.61660287793E+03  0.00000000000E+00 0. -1.
         -2   -1    0    0    0  501 -0.00000000000E+00 -0.00000000000E+00 -0.67840198036E+02  0.67840198036E+02  0.00000000000E+00 0.  1.
          6    1    1    2  502    0 -0.68904364550E+02  0.52686729985E+02  0.15939165739E+03  0.25002680539E+03  0.17200000000E+03 0.  1.
         -6    1    1    2    0  501  0.68904364550E+02 -0.52686729985E+02  0.38937102251E+03  0.43441627057E+03  0.17200000000E+03 0. -1.
</event>
<event>
 4    1  0.1059899E+000  0.2586238E+03  0.7818608E-02  0.1107973E+00
         -1   -1    0    0    0  501 -0.00000000000E+00  0.00000000000E+00  0.17371323923E+03  0.17371323923E+03  0.00000000000E+00 0. -1.
          1   -1    0    0  502    0  0.00000000000E+00 -0.00000000000E+00 -0.46481978910E+03  0.46481978910E+03  0.00000000000E+00 0.  1.
          6    1    1    2  502    0 -0.11892907501E+02 -0.19277139684E+03 -0.13283048264E+02  0.25896465407E+03  0.17200000000E+03 0. -1.
         -6    1    1    2    0  501  0.11892907501E+02  0.19277139684E+03 -0.27782350161E+03  0.37956837426E+03  0.17200000000E+03 0.  1.
</event>
<event>
 4    1  0.1059899E+000  0.1891637E+03  0.7818608E-02  0.1159218E+00
          2   -1    0    0  502    0  0.00000000000E+00  0.00000000000E+00  0.20861771750E+04  0.20861771750E+04  0.00000000000E+00 0.  1.
         -2   -1    0    0    0  501 -0.00000000000E+00 -0.00000000000E+00 -0.21293920401E+02  0.21293920401E+02  0.00000000000E+00 0. -1.
          6    1    1    2  502    0 -0.52873685394E+02 -0.58337520408E+02  0.14971548604E+04  0.15090578415E+04  0.17200000000E+03 0.  1.
         -6    1    1    2    0  501  0.52873685394E+02  0.58337520408E+02  0.56772839416E+03  0.59841325389E+03  0.17200000000E+03 0. -1.
</event>
<event>
 4    1  0.1059899E+000  0.2160585E+03  0.7818608E-02  0.1136856E+00
          1   -1    0    0  502    0  0.00000000000E+00  0.00000000000E+00  0.38577703622E+03  0.38577703622E+03  0.00000000000E+00 0. -1.
         -1   -1    0    0    0  501 -0.00000000000E+00 -0.00000000000E+00 -0.12448942830E+03  0.12448942830E+03  0.00000000000E+00 0.  1.
          6    1    1    2  502    0  0.12578012867E+03 -0.35729934591E+02  0.87964722187E+02  0.23327893463E+03  0.17200000000E+03 0.  1.
         -6    1    1    2    0  501 -0.12578012867E+03  0.35729934591E+02  0.17332288573E+03  0.27698752989E+03  0.17200000000E+03 0. -1.
</event>
<event>
 4    1  0.1059899E+000  0.1870484E+03  0.7818608E-02  0.1161151E+00
         -1   -1    0    0    0  501 -0.00000000000E+00  0.00000000000E+00  0.73500780888E+03  0.73500780888E+03  0.00000000000E+00 0. -1.
          1   -1    0    0  502    0  0.00000000000E+00 -0.00000000000E+00 -0.88323868540E+02  0.88323868540E+02  0.00000000000E+00 0.  1.
          6    1    1    2  502    0  0.57743421682E+02 -0.45484105595E+02  0.60286974669E+03  0.63122027699E+03  0.17200000000E+03 0. -1.
         -6    1    1    2    0  501 -0.57743421682E+02  0.45484105595E+02  0.43814193648E+02  0.19211140043E+03  0.17200000000E+03 0.  1.
</event>
<event>
 4    1  0.1059899E+000  0.2303567E+03  0.7818608E-02  0.1126389E+00
         -1   -1    0    0    0  501 -0.00000000000E+00  0.00000000000E+00  0.60491979424E+02  0.60491979424E+02  0.00000000000E+00 0. -1.
          1   -1    0    0  502    0  0.00000000000E+00 -0.00000000000E+00 -0.29962517089E+04  0.29962517089E+04  0.00000000000E+00 0.  1.
          6    1    1    2  502    0  0.86995653412E+02 -0.12614260436E+03 -0.27531948797E+04  0.27628149134E+04  0.17200000000E+03 0.  1.
         -6    1    1    2    0  501 -0.86995653412E+02  0.12614260436E+03 -0.18256484986E+03  0.29392877496E+03  0.17200000000E+03 0. -1.
</event>
<event>
 4    1  0.1059899E+000  0.1818123E+03  0.7818608E-02  0.1166061E+00
         -1   -1    0    0    0  501 -0.00000000000E+00  0.00000000000E+00  0.65397127745E+02  0.65397127745E+02  0.00000000000E+00 0. -1.
          1   -1    0    0  502    0  0.00000000000E+00 -0.00000000000E+00 -0.62189580080E+03  0.62189580080E+03  0.00000000000E+00 0.  1.
          6    1    1    2  502    0 -0.25986065376E+02  0.52881417043E+02 -0.12955520293E+03  0.22324934595E+03  0.17200000000E+03 0. -1.
         -6    1    1    2    0  501  0.25986065376E+02 -0.52881417043E+02 -0.42694347013E+03  0.46404358259E+03  0.17200000000E+03 0.  1.
</event>
<event>
 4    1  0.1059899E+000  0.1743809E+03  0.7818608E-02  0.1173355E+00
         -4   -1    0    0    0  501 -0.00000000000E+00  0.00000000000E+00  0.71812371113E+02  0.71812371113E+02  0.00000000000E+00 0.  1.
          4   -1    0    0  502    0  0.00000000000E+00 -0.00000000000E+00 -0.44958142446E+03  0.44958142446E+03  0.00000000000E+00 0. -1.
          6    1    1    2  502    0  0.28712230123E+02 -0.56860443719E+00 -0.12602947395E+03  0.21515609165E+03  0.17200000000E+03 0.  1.
         -6    1    1    2    0  501 -0.28712230123E+02  0.56860443719E+00 -0.25173957940E+03  0.30623770393E+03  0.17200000000E+03 0. -1.
</event>
<event>
 4    1  0.1059899E+000  0.2055941E+03  0.7818608E-02  0.1145103E+00
         -2   -1    0    0    0  501 -0.00000000000E+00  0.00000000000E+00  0.50209333245E+02  0.50209333245E+02  0.00000000000E+00 0. -1.
          2   -1    0    0  502    0  0.00000000000E+00 -0.00000000000E+00 -0.94252441414E+03  0.94252441414E+03  0.00000000000E+00 0.  1.
          6    1    1    2  502    0  0.78582078640E+02 -0.80683361854E+02 -0.60837834725E+03  0.64217844978E+03  0.17200000000E+03 0. -1.
         -6    1    1    2    0  501 -0.78582078640E+02  0.80683361854E+02 -0.28393673365E+03  0.35055529760E+03  0.17200000000E+03 0. -1.
</event>
<event>
 4    1  0.1059899E+000  0.2320017E+03  0.7818608E-02  0.1125239E+00
         -2   -1    0    0    0  501 -0.00000000000E+00  0.00000000000E+00  0.38346259437E+02  0.38346259437E+02  0.00000000000E+00 0.  1.
          2   -1    0    0  502    0  0.00000000000E+00 -0.00000000000E+00 -0.34753955959E+04  0.34753955959E+04  0.00000000000E+00 0. -1.
          6    1    1    2  502    0 -0.11817322522E+03  0.10136989441E+03 -0.30749810620E+04  0.30837206907E+04  0.17200000000E+03 0. -1.
         -6    1    1    2    0  501  0.11817322522E+03 -0.10136989441E+03 -0.36206827443E+03  0.43002116459E+03  0.17200000000E+03 0.  1.
</event>
<event>
 4    1  0.1059899E+000  0.2917368E+03  0.7818608E-02  0.1089446E+00
          2   -1    0    0  502    0  0.00000000000E+00  0.00000000000E+00  0.69130174205E+03  0.69130174205E+03  0.00000000000E+00 0. -1.
         -2   -1    0    0    0  501 -0.00000000000E+00 -0.00000000000E+00 -0.19245375855E+03  0.19245375855E+03  0.00000000000E+00 0.  1.
          6    1    1    2  502    0  0.22122338066E+03  0.81157558989E+02 -0.15806656548E+02  0.29216465207E+03  0.17200000000E+03 0.  1.
         -6    1    1    2    0  501 -0.22122338066E+03 -0.81157558989E+02  0.51465464005E+03  0.59159084852E+03  0.17200000000E+03 0. -1.
</event>
<event>
 4    1  0.1059899E+000  0.2773443E+03  0.7818608E-02  0.1097148E+00
         -2   -1    0    0    0  501 -0.00000000000E+00  0.00000000000E+00  0.10244947478E+03  0.10244947478E+03  0.00000000000E+00 0.  1.
          2   -1    0    0  502    0  0.00000000000E+00 -0.00000000000E+00 -0.95847885417E+03  0.95847885417E+03  0.00000000000E+00 0. -1.
          6    1    1    2  502    0 -0.21549562166E+03 -0.29958417109E+02 -0.18109670947E+03  0.33123388699E+03  0.17200000000E+03 0.  1.
         -6    1    1    2    0  501  0.21549562166E+03  0.29958417109E+02 -0.67493266992E+03  0.72969444196E+03  0.17200000000E+03 0. -1.
</event>
<event>
 4    1  0.1059899E+000  0.2058831E+03  0.7818608E-02  0.1144868E+00
         -1   -1    0    0    0  501 -0.00000000000E+00  0.00000000000E+00  0.76038074465E+02  0.76038074465E+02  0.00000000000E+00 0. -1.
          1   -1    0    0  502    0  0.00000000000E+00 -0.00000000000E+00 -0.59221841032E+03  0.59221841032E+03  0.00000000000E+00 0.  1.
          6    1    1    2  502    0 -0.10644268879E+01 -0.11314908838E+03 -0.33904257624E+03  0.39665818750E+03  0.17200000000E+03 0.  1.
         -6    1    1    2    0  501  0.10644268879E+01  0.11314908838E+03 -0.17713775961E+03  0.27159829728E+03  0.17200000000E+03 0. -1.
</event>
<event>
 4    1  0.1059899E+000  0.1999167E+03  0.7818608E-02  0.1149809E+00
          2   -1    0    0  502    0  0.00000000000E+00  0.00000000000E+00  0.87060573992E+03  0.87060573992E+03  0.00000000000E+00 0.  1.
         -2   -1    0    0    0  501 -0.00000000000E+00 -0.00000000000E+00 -0.57701712148E+02  0.57701712148E+02  0.00000000000E+00 0. -1.
          6    1    1    2  502    0 -0.95455673455E+02 -0.35649952097E+02  0.19659898296E+03  0.28038877435E+03  0.17200000000E+03 0. -1.
         -6    1    1    2    0  501  0.95455673455E+02  0.35649952097E+02  0.61630504482E+03  0.64791867773E+03  0.17200000000E+03 0.  1.
</event>
<event>
 4    1  0.1059899E+000  0.1864267E+03  0.7818608E-02  0.1161724E+00
         -1   -1    0    0    0  501 -0.00000000000E+00  0.00000000000E+00  0.11469584309E+03  0.11469584309E+03  0.00000000000E+00 0. -1.
          1   -1    0    0  502    0  0.00000000000E+00 -0.00000000000E+00 -0.11688866531E+04  0.11688866531E+04  0.00000000000E+00 0.  1.
          6    1    1    2  502    0 -0.46605717133E+02  0.54761395691E+02 -0.10794698813E+04  0.10954497378E+04  0.17200000000E+03 0.  1.
         -6    1    1    2    0  501  0.46605717133E+02 -0.54761395691E+02  0.25279071338E+02  0.18813275838E+03  0.17200000000E+03 0. -1.
</event>
<event>
 4    1  0.1059899E+000  0.1930040E+03  0.7818608E-02  0.1155780E+00
         -2   -1    0    0    0  501 -0.00000000000E+00  0.00000000000E+00  0.30137279941E+02  0.30137279941E+02  0.00000000000E+00 0. -1.
          2   -1    0    0  502    0  0.00000000000E+00 -0.00000000000E+00 -0.16927234146E+04  0.16927234146E+04  0.00000000000E+00 0.  1.
          6    1    1    2  502    0 -0.25762131038E+01  0.87520810710E+02 -0.38384732849E+03  0.42963856992E+03  0.17200000000E+03 0. -1.
         -6    1    1    2    0  501  0.25762131038E+01 -0.87520810710E+02 -0.12787388062E+04  0.12932221246E+04  0.17200000000E+03 0.  1.
</event>
<event>
 4    1  0.1059899E+000  0.2885042E+03  0.7818608E-02  0.1091133E+00
         -2   -1    0    0    0  501 -0.00000000000E+00  0.00000000000E+00  0.82758008733E+02  0.82758008733E+02  0.00000000000E+00 0. -1.
          2   -1    0    0  502    0  0.00000000000E+00 -0.00000000000E+00 -0.10236951824E+04  0.10236951824E+04  0.00000000000E+00 0.  1.
          6    1    1    2  502    0 -0.13981031763E+03 -0.18467202847E+03 -0.54369577404E+03  0.61549961635E+03  0.17200000000E+03 0.  1.
         -6    1    1    2    0  501  0.13981031763E+03  0.18467202847E+03 -0.39724139961E+03  0.49095357477E+03  0.17200000000E+03 0. -1.
</event>
<event>
 4    1  0.1059899E+000  0.1766416E+03  0.7818608E-02  0.1171093E+00
          2   -1    0    0  502    0  0.00000000000E+00  0.00000000000E+00  0.14515789999E+03  0.14515789999E+03  0.00000000000E+00 0.  1.
         -2   -1    0    0    0  501 -0.00000000000E+00 -0.00000000000E+00 -0.28647244852E+03  0.28647244852E+03  0.00000000000E+00 0. -1.
          6    1    1    2  502    0 -0.14196737734E+02 -0.37639281250E+02  0.37175248265E+02  0.18051111306E+03  0.17200000000E+03 0.  1.
         -6    1    1    2    0  501  0.14196737734E+02  0.37639281250E+02 -0.17848979680E+03  0.25111923545E+03  0.17200000000E+03 0. -1.
</event>
<event>
 4    1  0.1059899E+000  0.1733463E+03  0.7818608E-02  0.1174402E+00
         -3   -1    0    0    0  501 -0.00000000000E+00  0.00000000000E+00  0.43646226779E+03  0.43646226779E+03  0.00000000000E+00 0. -1.
          3   -1    0    0  502    0  0.00000000000E+00 -0.00000000000E+00 -0.10562947231E+03  0.10562947231E+03  0.00000000000E+00 0.  1.
          6    1    1    2  502    0 -0.20246014772E+02  0.74185943003E+01  0.32536231063E+03  0.36865915129E+03  0.17200000000E+03 0. -1.
         -6    1    1    2    0  501  0.20246014772E+02 -0.74185943003E+01  0.54704848490E+01  0.17343258881E+03  0.17200000000E+03 0.  1.
</event>
<event>
 4    1  0.1059899E+000  0.2071079E+03  0.7818608E-02  0.1143877E+00
          3   -1    0    0  502    0  0.00000000000E+00  0.00000000000E+00  0.27390056719E+03  0.27390056719E+03  0.00000000000E+00 0. -1.
         -3   -1    0    0    0  501 -0.00000000000E+00 -0.00000000000E+00 -0.15970488379E+03  0.15970488379E+03  0.00000000000E+00 0.  1.
          6    1    1    2  502    0  0.77024271375E+02 -0.85889101483E+02  0.87312094254E+02  0.22476004524E+03  0.17200000000E+03 0.  1.
         -6    1    1    2    0  501 -0.77024271375E+02  0.85889101483E+02  0.26883589145E+02  0.20884540574E+03  0.17200000000E+03 0. -1.
</event>
<event>
 4    1  0.1059899E+000  0.1893832E+03  0.7818608E-02  0.1159019E+00
          2   -1    0    0  502    0  0.00000000000E+00  0.00000000000E+00  0.30182013045E+03  0.30182013045E+03  0.00000000000E+00 0.  1.
         -2   -1    0    0    0  501 -0.00000000000E+00 -0.00000000000E+00 -0.11960879308E+03  0.11960879308E+03  0.00000000000E+00 0. -1.
          6    1    1    2  502    0  0.50776301404E+02 -0.60858704197E+02  0.10808223022E+03  0.21805454169E+03  0.17200000000E+03 0.  1.
         -6    1    1    2    0  501 -0.50776301404E+02  0.60858704197E+02  0.74129107153E+02  0.20337438184E+03  0.17200000000E+03 0.  1.
</event>
<event>
 4    1  0.1059899E+000  0.1807189E+03  0.7818608E-02  0.1167109E+00
          2   -1    0    0  502    0  0.00000000000E+00  0.00000000000E+00  0.21282765279E+04  0.21282765279E+04  0.00000000000E+00 0. -1.
         -2   -1    0    0    0  501 -0.00000000000E+00 -0.00000000000E+00 -0.16550225746E+02  0.16550225746E+02  0.00000000000E+00 0.  1.
          6    1    1    2  502    0  0.20142355975E+02 -0.51668368090E+02  0.13452078933E+04  0.13572927506E+04  0.17200000000E+03 0.  1.
         -6    1    1    2    0  501 -0.20142355975E+02  0.51668368090E+02  0.76651840887E+03  0.78753400301E+03  0.17200000000E+03 0.  1.
</event>
<event>
 4    1  0.1059899E+000  0.3090794E+03  0.7818608E-02  0.1080788E+00
         -1   -1    0    0    0  501 -0.00000000000E+00  0.00000000000E+00  0.92483816597E+02  0.92483816597E+02  0.00000000000E+00 0. -1.
          1   -1    0    0  502    0  0.00000000000E+00 -0.00000000000E+00 -0.11312400285E+04  0.11312400285E+04  0.00000000000E+00 0.  1.
          6    1    1    2  502    0  0.20082002455E+03 -0.16005438191E+03 -0.33901140732E+03  0.45875791189E+03  0.17200000000E+03 0. -1.
         -6    1    1    2    0  501 -0.20082002455E+03  0.16005438191E+03 -0.69974480461E+03  0.76496593323E+03  0.17200000000E+03 0.  1.
</event>
<event>
 4    1  0.1059899E+000  0.2016097E+03  0.7818608E-02  0.1148388E+00
         -2   -1    0    0    0  501 -0.00000000000E+00  0.00000000000E+00  0.83180045768E+02  0.83180045768E+02  0.00000000000E+00 0. -1.
          2   -1    0    0  502    0  0.00000000000E+00 -0.00000000000E+00 -0.23689564132E+04  0.23689564132E+04  0.00000000000E+00 0.  1.
          6    1    1    2  502    0  0.19284852688E+02  0.10339519869E+03 -0.22352076246E+04  0.22442815327E+04  0.17200000000E+03 0.  1.
         -6    1    1    2    0  501 -0.19284852688E+02 -0.10339519869E+03 -0.50568742846E+02  0.20785492635E+03  0.17200000000E+03 0. -1.
</event>
<event>
 4    1  0.1059899E+000  0.1782086E+03  0.7818608E-02  0.1169548E+00
          1   -1    0    0  502    0  0.00000000000E+00  0.00000000000E+00  0.23477966070E+02  0.23477966070E+02  0.00000000000E+00 0.  1.
         -1   -1    0    0    0  501 -0.00000000000E+00 -0.00000000000E+00 -0.14772474788E+04  0.14772474788E+04  0.00000000000E+00 0. -1.
          6    1    1    2  502    0  0.79758455796E+01  0.45942303440E+02 -0.94477460320E+03  0.96143505252E+03  0.17200000000E+03 0. -1.
         -6    1    1    2    0  501 -0.79758455796E+01 -0.45942303440E+02 -0.50899490955E+03  0.53929039238E+03  0.17200000000E+03 0.  1.
</event>
<event>
 4    1  0.1059899E+000  0.1831937E+03  0.7818608E-02  0.1164747E+00
          2   -1    0    0  502    0  0.00000000000E+00  0.00000000000E+00  0.48568855506E+03  0.48568855506E+03  0.00000000000E+00 0. -1.
         -2   -1    0    0    0  501 -0.00000000000E+00 -0.00000000000E+00 -0.72119906587E+02  0.72119906587E+02  0.00000000000E+00 0.  1.
          6    1    1    2  502    0  0.52048848191E+02  0.35592776301E+02  0.14968978257E+03  0.23657336987E+03  0.17200000000E+03 0.  1.
         -6    1    1    2    0  501 -0.52048848191E+02 -0.35592776301E+02  0.26387886590E+03  0.32123509178E+03  0.17200000000E+03 0. -1.
</event>
<event>
 4    1  0.1059899E+000  0.1771794E+03  0.7818608E-02  0.1170561E+00
         -2   -1    0    0    0  501 -0.00000000000E+00  0.00000000000E+00  0.37882127664E+02  0.37882127664E+02  0.00000000000E+00 0.  1.
          2   -1    0    0  502    0  0.00000000000E+00 -0.00000000000E+00 -0.87811578443E+03  0.87811578443E+03  0.00000000000E+00 0. -1.
          6    1    1    2  502    0 -0.41617532566E+02  0.87475384873E+01 -0.31145785311E+03  0.35832740993E+03  0.17200000000E+03 0.  1.
         -6    1    1    2    0  501  0.41617532566E+02 -0.87475384873E+01 -0.52877580366E+03  0.55767050217E+03  0.17200000000E+03 0. -1.
</event>
<event>
 4    1  0.1059899E+000  0.1857699E+03  0.7818608E-02  0.1162333E+00
         -2   -1    0    0    0  501 -0.00000000000E+00  0.00000000000E+00  0.33649019629E+03  0.33649019629E+03  0.00000000000E+00 0.  1.
          2   -1    0    0  502    0  0.00000000000E+00 -0.00000000000E+00 -0.14560404788E+03  0.14560404788E+03  0.00000000000E+00 0. -1.
          6    1    1    2  502    0  0.43273959262E+01  0.70055105606E+02  0.22650351812E+03  0.29294075834E+03  0.17200000000E+03 0.  1.
         -6    1    1    2    0  501 -0.43273959262E+01 -0.70055105606E+02 -0.35617369710E+02  0.18915348583E+03  0.17200000000E+03 0. -1.
</event>
<event>
 4    1  0.1059899E+000  0.2034090E+03  0.7818608E-02  0.1146894E+00
         -2   -1    0    0    0  501 -0.00000000000E+00  0.00000000000E+00  0.30854772856E+02  0.30854772856E+02  0.00000000000E+00 0.  1.
          2   -1    0    0  502    0  0.00000000000E+00 -0.00000000000E+00 -0.13877281578E+04  0.13877281578E+04  0.00000000000E+00 0. -1.
          6    1    1    2  502    0  0.10857883659E+03  0.13702901349E+01 -0.80863752719E+03  0.83382845468E+03  0.17200000000E+03 0. -1.
         -6    1    1    2    0  501 -0.10857883659E+03 -0.13702901349E+01 -0.54823585779E+03  0.58475447601E+03  0.17200000000E+03 0. -1.
</event>
<event>
 4    1  0.1059899E+000  0.2023034E+03  0.7818608E-02  0.1147810E+00
         -1   -1    0    0    0  501 -0.00000000000E+00  0.00000000000E+00  0.19039832401E+03  0.19039832401E+03  0.00000000000E+00 0. -1.
          1   -1    0    0  502    0  0.00000000000E+00 -0.00000000000E+00 -0.53224398832E+03  0.53224398832E+03  0.00000000000E+00 0.  1.
          6    1    1    2  502    0 -0.50794387642E+02 -0.93608743016E+02 -0.44989891059E+03  0.49329068138E+03  0.17200000000E+03 0.  1.
         -6    1    1    2    0  501  0.50794387642E+02  0.93608743016E+02  0.10805324628E+03  0.22935163094E+03  0.17200000000E+03 0. -1.
</event>
<event>
 4    1  0.1059899E+000  0.3062059E+03  0.7818608E-02  0.1082179E+00
         -1   -1    0    0    0  501 -0.00000000000E+00  0.00000000000E+00  0.18606644733E+03  0.18606644733E+03  0.00000000000E+00 0.  1.
          1   -1    0    0  502    0  0.00000000000E+00 -0.00000000000E+00 -0.50548580248E+03  0.50548580248E+03  0.00000000000E+00 0. -1.
          6    1    1    2  502    0  0.23758037785E+03 -0.87941032177E+02 -0.17897221032E+03  0.35467324842E+03  0.17200000000E+03 0. -1.
         -6    1    1    2    0  501 -0.23758037785E+03  0.87941032177E+02 -0.14044714484E+03  0.33687900138E+03  0.17200000000E+03 0.  1.
</event>
<event>
 4    1  0.1059899E+000  0.1973079E+03  0.7818608E-02  0.1152030E+00
         -2   -1    0    0    0  501 -0.00000000000E+00  0.00000000000E+00  0.40393772338E+02  0.40393772338E+02  0.00000000000E+00 0.  1.
          2   -1    0    0  502    0  0.00000000000E+00 -0.00000000000E+00 -0.12644739870E+04  0.12644739870E+04  0.00000000000E+00 0. -1.
          6    1    1    2  502    0  0.34238030364E+02  0.90411172385E+02 -0.29387755671E+03  0.35396954834E+03  0.17200000000E+03 0.  1.
         -6    1    1    2    0  501 -0.34238030364E+02 -0.90411172385E+02 -0.93020265792E+03  0.95089821096E+03  0.17200000000E+03 0. -1.
</event>
<event>
 4    1  0.1059899E+000  0.2892069E+03  0.7818608E-02  0.1090764E+00
          1   -1    0    0  502    0  0.00000000000E+00  0.00000000000E+00  0.16924309835E+03  0.16924309835E+03  0.00000000000E+00 0.  1.
         -1   -1    0    0    0  501 -0.00000000000E+00 -0.00000000000E+00 -0.49420409778E+03  0.49420409778E+03  0.00000000000E+00 0. -1.
          6    1    1    2  502    0  0.23064332097E+03  0.29330575825E+02 -0.16258650767E+03  0.33177552149E+03  0.17200000000E+03 0.  1.
         -6    1    1    2    0  501 -0.23064332097E+03 -0.29330575825E+02 -0.16237449175E+03  0.33167167464E+03  0.17200000000E+03 0. -1.
</event>
<event>
 4    1  0.1059899E+000  0.2734599E+03  0.7818608E-02  0.1099316E+00
          1   -1    0    0  502    0  0.00000000000E+00  0.00000000000E+00  0.14944341448E+03  0.14944341448E+03  0.00000000000E+00 0. -1.
         -1   -1    0    0    0  501 -0.00000000000E+00 -0.00000000000E+00 -0.60194352823E+03  0.60194352823E+03  0.00000000000E+00 0.  1.
          6    1    1    2  502    0  0.16365318287E+03 -0.13569808787E+03 -0.71938538976E+02  0.28276401593E+03  0.17200000000E+03 0. -1.
         -6    1    1    2    0  501 -0.16365318287E+03  0.13569808787E+03 -0.38056157477E+03  0.46862292678E+03  0.17200000000E+03 0.  1.
</event>
<event>
 4    1  0.1059899E+000  0.1897517E+03  0.7818608E-02  0.1158685E+00
         -2   -1    0    0    0  501 -0.00000000000E+00  0.00000000000E+00  0.36155023634E+02  0.36155023634E+02  0.00000000000E+00 0. -1.
          2   -1    0    0  502    0  0.00000000000E+00 -0.00000000000E+00 -0.10769696072E+04  0.10769696072E+04  0.00000000000E+00 0.  1.
          6    1    1    2  502    0  0.54808009541E+02 -0.58462004620E+02 -0.36767884681E+03  0.41375531210E+03  0.17200000000E+03 0. -1.
         -6    1    1    2    0  501 -0.54808009541E+02  0.58462004620E+02 -0.67313573670E+03  0.69936931869E+03  0.17200000000E+03 0. -1.
</event>
<event>
 4    1  0.1059899E+000  0.2243720E+03  0.7818608E-02  0.1130665E+00
         -1   -1    0    0    0  501 -0.00000000000E+00  0.00000000000E+00  0.89902197221E+02  0.89902197221E+02  0.00000000000E+00 0.  1.
          1   -1    0    0  502    0  0.00000000000E+00 -0.00000000000E+00 -0.18108679309E+04  0.18108679309E+04  0.00000000000E+00 0. -1.
          6    1    1    2  502    0  0.13528807879E+03 -0.49557348156E+02 -0.70592812733E+02  0.23521509354E+03  0.17200000000E+03 0.  1.
         -6    1    1    2    0  501 -0.13528807879E+03  0.49557348156E+02 -0.16503729209E+04  0.16655550346E+04  0.17200000000E+03 0. -1.
</event>
<event>
 4    1  0.1059899E+000  0.2108958E+03  0.7818608E-02  0.1140859E+00
          2   -1    0    0  502    0  0.00000000000E+00  0.00000000000E+00  0.98126064452E+03  0.98126064452E+03  0.00000000000E+00 0. -1.
         -2   -1    0    0    0  501 -0.00000000000E+00 -0.00000000000E+00 -0.50094121552E+02  0.50094121552E+02  0.00000000000E+00 0.  1.
          6    1    1    2  502    0 -0.19366629685E+02 -0.12049049272E+03  0.62467204232E+03  0.65931190315E+03  0.17200000000E+03 0.  1.
         -6    1    1    2    0  501  0.19366629685E+02  0.12049049272E+03  0.30649448064E+03  0.37204286292E+03  0.17200000000E+03 0.  1.
</event>
<event>
 4    1  0.1059899E+000  0.2257506E+03  0.7818608E-02  0.1129667E+00
          1   -1    0    0  502    0  0.00000000000E+00  0.00000000000E+00  0.28518143519E+03  0.28518143519E+03  0.00000000000E+00 0.  1.
         -1   -1    0    0    0  501 -0.00000000000E+00 -0.00000000000E+00 -0.19254696414E+03  0.19254696414E+03  0.00000000000E+00 0. -1.
          6    1    1    2  502    0  0.85372636341E+02 -0.11870491447E+03  0.11036173561E+03  0.25128282162E+03  0.17200000000E+03 0. -1.
         -6    1    1    2    0  501 -0.85372636341E+02  0.11870491447E+03 -0.17727264557E+02  0.22644557771E+03  0.17200000000E+03 0.  1.
</event>
<event>
 4    1  0.1059899E+000  0.2893263E+03  0.7818608E-02  0.1090701E+00
          2   -1    0    0  502    0  0.00000000000E+00  0.00000000000E+00  0.62918283051E+03  0.62918283051E+03  0.00000000000E+00 0.  1.
         -2   -1    0    0    0  501 -0.00000000000E+00 -0.00000000000E+00 -0.14730696713E+03  0.14730696713E+03  0.00000000000E+00 0. -1.
          6    1    1    2  502    0 -0.12269102902E+03 -0.19766793497E+03  0.36174215045E+03  0.46321386479E+03  0.17200000000E+03 0.  1.
         -6    1    1    2    0  501  0.12269102902E+03  0.19766793497E+03  0.12013371293E+03  0.31327593284E+03  0.17200000000E+03 0. -1.
</event>
<event>
 4    1  0.1059899E+000  0.2262865E+03  0.7818608E-02  0.1129281E+00
          1   -1    0    0  502    0  0.00000000000E+00  0.00000000000E+00  0.21971268909E+04  0.21971268909E+04  0.00000000000E+00 0. -1.
         -1   -1    0    0    0  501 -0.00000000000E+00 -0.00000000000E+00 -0.27242869812E+02  0.27242869812E+02  0.00000000000E+00 0.  1.
          6    1    1    2  502    0  0.24807279740E+02 -0.14493506814E+03  0.66213443515E+03  0.69973393895E+03  0.17200000000E+03 0.  1.
         -6    1    1    2    0  501 -0.24807279740E+02  0.14493506814E+03  0.15077495859E+04  0.15246358217E+04  0.17200000000E+03 0. -1.
</event>
<event>
 4    1  0.1059899E+000  0.2678977E+03  0.7818608E-02  0.1102489E+00
         -2   -1    0    0    0  501 -0.00000000000E+00  0.00000000000E+00  0.40084414092E+03  0.40084414092E+03  0.00000000000E+00 0. -1.
          2   -1    0    0  502    0  0.00000000000E+00 -0.00000000000E+00 -0.27606003432E+03  0.27606003432E+03  0.00000000000E+00 0.  1.
          6    1    1    2  502    0  0.19121853007E+03  0.74971152055E+02  0.26303070951E+03  0.37543888188E+03  0.17200000000E+03 0. -1.
         -6    1    1    2    0  501 -0.19121853007E+03 -0.74971152055E+02 -0.13824660291E+03  0.30146529335E+03  0.17200000000E+03 0.  1.
</event>
<event>
 4    1  0.1059899E+000  0.2515930E+03  0.7818608E-02  0.1112302E+00
          2   -1    0    0  502    0  0.00000000000E+00  0.00000000000E+00  0.46602965273E+03  0.46602965273E+03  0.00000000000E+00 0.  1.
         -2   -1    0    0    0  501 -0.00000000000E+00 -0.00000000000E+00 -0.24946025428E+03  0.24946025428E+03  0.00000000000E+00 0. -1.
          6    1    1    2  502    0 -0.34337939339E+02 -0.18037729328E+03 -0.13316517496E+03  0.28466124750E+03  0.17200000000E+03 0. -1.
         -6    1    1    2    0  501  0.34337939339E+02  0.18037729328E+03  0.34973457342E+03  0.43082865950E+03  0.17200000000E+03 0.  1.
</event>
<event>
 4    1  0.1059899E+000  0.1807284E+03  0.7818608E-02  0.1167100E+00
         -1   -1    0    0    0  501 -0.00000000000E+00  0.00000000000E+00  0.16990999318E+04  0.16990999318E+04  0.00000000000E+00 0. -1.
          1   -1    0    0  502    0  0.00000000000E+00 -0.00000000000E+00 -0.19754056011E+03  0.19754056011E+03  0.00000000000E+00 0.  1.
          6    1    1    2  502    0  0.54202366549E+02  0.11868180101E+02  0.16517765018E+04  0.16616342444E+04  0.17200000000E+03 0. -1.
         -6    1    1    2    0  501 -0.54202366549E+02 -0.11868180101E+02 -0.15021713006E+03  0.23500624758E+03  0.17200000000E+03 0.  1.
</event>
<event>
 4    1  0.1059899E+000  0.3463954E+03  0.7818608E-02  0.1064104E+00
          1   -1    0    0  502    0  0.00000000000E+00  0.00000000000E+00  0.65494791487E+03  0.65494791487E+03  0.00000000000E+00 0.  1.
         -1   -1    0    0    0  501 -0.00000000000E+00 -0.00000000000E+00 -0.19803131661E+03  0.19803131661E+03  0.00000000000E+00 0. -1.
          6    1    1    2  502    0 -0.88523831575E+02 -0.28734877712E+03  0.11176204580E+03  0.36397876772E+03  0.17200000000E+03 0. -1.
         -6    1    1    2    0  501  0.88523831575E+02  0.28734877712E+03  0.34515455247E+03  0.48900046376E+03  0.17200000000E+03 0.  1.
</event>
<event>
 4    1  0.1059899E+000  0.1858713E+03  0.7818608E-02  0.1162239E+00
         -1   -1    0    0    0  501 -0.00000000000E+00  0.00000000000E+00  0.17539649494E+03  0.17539649494E+03  0.00000000000E+00 0.  1.
          1   -1    0    0  502    0  0.00000000000E+00 -0.00000000000E+00 -0.19752995534E+03  0.19752995534E+03  0.00000000000E+00 0. -1.
          6    1    1    2  502    0 -0.69664151324E+02  0.10538442951E+02 -0.11543562489E+01  0.18587491842E+03  0.17200000000E+03 0.  1.
         -6    1    1    2    0  501  0.69664151324E+02 -0.10538442951E+02 -0.20979104160E+02  0.18705153186E+03  0.17200000000E+03 0.  1.
</event>
<event>
 4    1  0.1059899E+000  0.1795792E+03  0.7818608E-02  0.1168211E+00
         -1   -1    0    0    0  501 -0.00000000000E+00  0.00000000000E+00  0.66695055223E+02  0.66695055223E+02  0.00000000000E+00 0. -1.
          1   -1    0    0  502    0  0.00000000000E+00 -0.00000000000E+00 -0.59185191925E+03  0.59185191925E+03  0.00000000000E+00 0.  1.
          6    1    1    2  502    0 -0.47182708960E+02 -0.20939823943E+02 -0.40344881693E+03  0.44161027177E+03  0.17200000000E+03 0.  1.
         -6    1    1    2    0  501  0.47182708960E+02  0.20939823943E+02 -0.12170804710E+03  0.21693670271E+03  0.17200000000E+03 0. -1.
</event>
<event>
 4    1  0.1059899E+000  0.1943546E+03  0.7818608E-02  0.1154591E+00
          2   -1    0    0  502    0  0.00000000000E+00  0.00000000000E+00  0.39471301321E+03  0.39471301321E+03  0.00000000000E+00 0.  1.
         -2   -1    0    0    0  501 -0.00000000000E+00 -0.00000000000E+00 -0.10962180261E+03  0.10962180261E+03  0.00000000000E+00 0. -1.
          6    1    1    2  502    0 -0.63717860641E+02  0.64263233098E+02  0.23241262326E+03  0.30296758299E+03  0.17200000000E+03 0.  1.
         -6    1    1    2    0  501  0.63717860641E+02 -0.64263233098E+02  0.52678587341E+02  0.20136723283E+03  0.17200000000E+03 0. -1.
</event>
<event>
 4    1  0.1059899E+000  0.2160972E+03  0.7818608E-02  0.1136827E+00
         -1   -1    0    0    0  501 -0.00000000000E+00  0.00000000000E+00  0.34685534808E+02  0.34685534808E+02  0.00000000000E+00 0. -1.
          1   -1    0    0  502    0  0.00000000000E+00 -0.00000000000E+00 -0.13661708258E+04  0.13661708258E+04  0.00000000000E+00 0.  1.
          6    1    1    2  502    0  0.35608865828E+02  0.12588099937E+03 -0.58132347810E+03  0.62018949001E+03  0.17200000000E+03 0.  1.
         -6    1    1    2    0  501 -0.35608865828E+02 -0.12588099937E+03 -0.75016181289E+03  0.78066687060E+03  0.17200000000E+03 0.  1.
</event>
<event>
 4    1  0.1059899E+000  0.1767393E+03  0.7818608E-02  0.1170997E+00
          2   -1    0    0  502    0  0.00000000000E+00  0.00000000000E+00  0.86071851526E+03  0.86071851526E+03  0.00000000000E+00 0.  1.
         -2   -1    0    0    0  501 -0.00000000000E+00 -0.00000000000E+00 -0.36299476884E+02  0.36299476884E+02  0.00000000000E+00 0. -1.
          6    1    1    2  502    0  0.14066063451E+02 -0.38143587356E+02  0.41884786255E+03  0.45461007398E+03  0.17200000000E+03 0. -1.
         -6    1    1    2    0  501 -0.14066063451E+02  0.38143587356E+02  0.40557117582E+03  0.44240791816E+03  0.17200000000E+03 0. -1.
</event>
<event>
 4    1  0.1059899E+000  0.2147228E+03  0.7818608E-02  0.1137880E+00
          1   -1    0    0  502    0  0.00000000000E+00  0.00000000000E+00  0.16211124812E+03  0.16211124812E+03  0.00000000000E+00 0.  1.
         -1   -1    0    0    0  501 -0.00000000000E+00 -0.00000000000E+00 -0.29523847693E+03  0.29523847693E+03  0.00000000000E+00 0. -1.
          6    1    1    2  502    0  0.12434939445E+03 -0.32543629978E+02 -0.11036021627E+03  0.24142335655E+03  0.17200000000E+03 0. -1.
         -6    1    1    2    0  501 -0.12434939445E+03  0.32543629978E+02 -0.22767012536E+02  0.21592636850E+03  0.17200000000E+03 0.  1.
</event>
<event>
 4    1  0.1059899E+000  0.1754104E+03  0.7818608E-02  0.1172320E+00
          1   -1    0    0  502    0  0.00000000000E+00  0.00000000000E+00  0.54109224512E+03  0.54109224512E+03  0.00000000000E+00 0.  1.
         -1   -1    0    0    0  501 -0.00000000000E+00 -0.00000000000E+00 -0.69595663648E+02  0.69595663648E+02  0.00000000000E+00 0. -1.
          6    1    1    2  502    0 -0.32733581953E+02  0.10644500364E+02  0.36634641088E+03  0.40617543690E+03  0.17200000000E+03 0.  1.
         -6    1    1    2    0  501  0.32733581953E+02 -0.10644500364E+02  0.10515017060E+03  0.20451247187E+03  0.17200000000E+03 0. -1.
</event>
<event>
 4    1  0.1059899E+000  0.1800353E+03  0.7818608E-02  0.1167769E+00
         -2   -1    0    0    0  501 -0.00000000000E+00  0.00000000000E+00  0.94431754938E+03  0.94431754938E+03  0.00000000000E+00 0. -1.
          2   -1    0    0  502    0  0.00000000000E+00 -0.00000000000E+00 -0.38246463257E+02  0.38246463257E+02  0.00000000000E+00 0.  1.
          6    1    1    2  502    0 -0.33289370863E+02  0.41479047270E+02  0.29570309742E+03  0.34619794251E+03  0.17200000000E+03 0.  1.
         -6    1    1    2    0  501  0.33289370863E+02 -0.41479047270E+02  0.61036798870E+03  0.63636607013E+03  0.17200000000E+03 0.  1.
</event>
<event>
 4    1  0.1059899E+000  0.2128630E+03  0.7818608E-02  0.1139319E+00
         -2   -1    0    0    0  501 -0.00000000000E+00  0.00000000000E+00  0.71589300314E+02  0.71589300314E+02  0.00000000000E+00 0.  1.
          2   -1    0    0  502    0  0.00000000000E+00 -0.00000000000E+00 -0.63470157045E+03  0.63470157045E+03  0.00000000000E+00 0. -1.
          6    1    1    2  502    0 -0.12522882693E+03  0.66628305923E+01 -0.26287215434E+03  0.33824905311E+03  0.17200000000E+03 0. -1.
         -6    1    1    2    0  501  0.12522882693E+03 -0.66628305923E+01 -0.30024011579E+03  0.36804181765E+03  0.17200000000E+03 0.  1.
</event>
<event>
 4    1  0.1059899E+000  0.2680959E+03  0.7818608E-02  0.1102374E+00
          1   -1    0    0  502    0  0.00000000000E+00  0.00000000000E+00  0.20433561812E+03  0.20433561812E+03  0.00000000000E+00 0. -1.
         -1   -1    0    0    0  501 -0.00000000000E+00 -0.00000000000E+00 -0.56374139602E+03  0.56374139602E+03  0.00000000000E+00 0.  1.
          6    1    1    2  502    0 -0.11786243206E+03 -0.16852251883E+03 -0.41520360372E+03  0.49423620344E+03  0.17200000000E+03 0.  1.
         -6    1    1    2    0  501  0.11786243206E+03  0.16852251883E+03  0.55797825820E+02  0.27384081071E+03  0.17200000000E+03 0.  1.
</event>
<event>
 4    1  0.1059899E+000  0.1730192E+03  0.7818608E-02  0.1174735E+00
         -3   -1    0    0    0  501 -0.00000000000E+00  0.00000000000E+00  0.80033375504E+02  0.80033375504E+02  0.00000000000E+00 0. -1.
          3   -1    0    0  502    0  0.00000000000E+00 -0.00000000000E+00 -0.39001647124E+03  0.39001647124E+03  0.00000000000E+00 0.  1.
          6    1    1    2  502    0  0.75715844456E+01 -0.17155701679E+02 -0.10742308444E+03  0.20365501728E+03  0.17200000000E+03 0. -1.
         -6    1    1    2    0  501 -0.75715844456E+01  0.17155701679E+02 -0.20256001130E+03  0.26639482947E+03  0.17200000000E+03 0.  1.
</event>
<event>
 4    1  0.1059899E+000  0.1855081E+03  0.7818608E-02  0.1162576E+00
         -2   -1    0    0    0  501 -0.00000000000E+00  0.00000000000E+00  0.13515161176E+03  0.13515161176E+03  0.00000000000E+00 0. -1.
          2   -1    0    0  502    0  0.00000000000E+00 -0.00000000000E+00 -0.25541782240E+03  0.25541782240E+03  0.00000000000E+00 0.  1.
          6    1    1    2  502    0  0.23995582319E+02  0.65218580855E+02 -0.70999324362E+02  0.19863070085E+03  0.17200000000E+03 0. -1.
         -6    1    1    2    0  501 -0.23995582319E+02 -0.65218580855E+02 -0.49266886275E+02  0.19193873331E+03  0.17200000000E+03 0.  1.
</event>
<event>
 4    1  0.1059899E+000  0.2787150E+03  0.7818608E-02  0.1096393E+00
         -1   -1    0    0    0  501 -0.00000000000E+00  0.00000000000E+00  0.76634150239E+02  0.76634150239E+02  0.00000000000E+00 0. -1.
          1   -1    0    0  502    0  0.00000000000E+00 -0.00000000000E+00 -0.20914029551E+04  0.20914029551E+04  0.00000000000E+00 0.  1.
          6    1    1    2  502    0 -0.20037038177E+03 -0.89161433486E+02 -0.17855510582E+04  0.18071731053E+04  0.17200000000E+03 0.  1.
         -6    1    1    2    0  501  0.20037038177E+03  0.89161433486E+02 -0.22921774658E+03  0.36086399995E+03  0.17200000000E+03 0. -1.
</event>
<event>
 4    1  0.1059899E+000  0.1763333E+03  0.7818608E-02  0.1171400E+00
          1   -1    0    0  502    0  0.00000000000E+00  0.00000000000E+00  0.79294506751E+02  0.79294506751E+02  0.00000000000E+00 0. -1.
         -1   -1    0    0    0  501 -0.00000000000E+00 -0.00000000000E+00 -0.39657171431E+03  0.39657171431E+03  0.00000000000E+00 0.  1.
          6    1    1    2  502    0 -0.37716394178E+02  0.93225586258E+01 -0.18383077326E+03  0.25472964038E+03  0.17200000000E+03 0. -1.
         -6    1    1    2    0  501  0.37716394178E+02 -0.93225586258E+01 -0.13344643430E+03  0.22113658068E+03  0.17200000000E+03 0. -1.
</event>
<event>
 4    1  0.1059899E+000  0.2994031E+03  0.7818608E-02  0.1085539E+00
          2   -1    0    0  502    0  0.00000000000E+00  0.00000000000E+00  0.19390058644E+03  0.19390058644E+03  0.00000000000E+00 0.  1.
         -2   -1    0    0    0  501 -0.00000000000E+00 -0.00000000000E+00 -0.48398751932E+03  0.48398751932E+03  0.00000000000E+00 0. -1.
          6    1    1    2  502    0  0.14336001596E+03  0.19876148439E+03 -0.21677557084E+03  0.36964018987E+03  0.17200000000E+03 0.  1.
         -6    1    1    2    0  501 -0.14336001596E+03 -0.19876148439E+03 -0.73311362034E+02  0.30824791590E+03  0.17200000000E+03 0. -1.
</event>
<event>
 4    1  0.1059899E+000  0.1859884E+03  0.7818608E-02  0.1162130E+00
          2   -1    0    0  502    0  0.00000000000E+00  0.00000000000E+00  0.44022406509E+03  0.44022406509E+03  0.00000000000E+00 0.  1.
         -2   -1    0    0    0  501 -0.00000000000E+00 -0.00000000000E+00 -0.21613686026E+03  0.21613686026E+03  0.00000000000E+00 0. -1.
          6    1    1    2  502    0  0.62493379629E+02 -0.33200243442E+02 -0.14977076612E+03  0.23879480951E+03  0.17200000000E+03 0. -1.
         -6    1    1    2    0  501 -0.62493379629E+02  0.33200243442E+02  0.37385797095E+03  0.41756611585E+03  0.17200000000E+03 0.  1.
</event>
<event>
 4    1  0.1059899E+000  0.1960943E+03  0.7818608E-02  0.1153077E+00
          2   -1    0    0  502    0  0.00000000000E+00  0.00000000000E+00  0.18931637661E+03  0.18931637661E+03  0.00000000000E+00 0.  1.
         -2   -1    0    0    0  501 -0.00000000000E+00 -0.00000000000E+00 -0.30125474950E+03  0.30125474950E+03  0.00000000000E+00 0. -1.
          6    1    1    2  502    0  0.78637880485E+02 -0.51817613718E+02  0.84030698279E+02  0.21334043122E+03  0.17200000000E+03 0.  1.
         -6    1    1    2    0  501 -0.78637880485E+02  0.51817613718E+02 -0.19596907116E+03  0.27723069489E+03  0.17200000000E+03 0. -1.
</event>
<event>
 4    1  0.1059899E+000  0.2041766E+03  0.7818608E-02  0.1146262E+00
          2   -1    0    0  502    0  0.00000000000E+00  0.00000000000E+00  0.44023478902E+04  0.44023478902E+04  0.00000000000E+00 0. -1.
         -2   -1    0    0    0  501 -0.00000000000E+00 -0.00000000000E+00 -0.11445913506E+02  0.11445913506E+02  0.00000000000E+00 0.  1.
          6    1    1    2  502    0 -0.10768361782E+03 -0.22545602145E+02  0.12783969797E+04  0.12945991285E+04  0.17200000000E+03 0.  1.
         -6    1    1    2    0  501  0.10768361782E+03  0.22545602145E+02  0.31125049970E+04  0.31191946753E+04  0.17200000000E+03 0. -1.
</event>
<event>
 4    1  0.1059899E+000  0.1878443E+03  0.7818608E-02  0.1160420E+00
         -1   -1    0    0    0  501 -0.00000000000E+00  0.00000000000E+00  0.21373425634E+02  0.21373425634E+02  0.00000000000E+00 0. -1.
          1   -1    0    0  502    0  0.00000000000E+00 -0.00000000000E+00 -0.19646296960E+04  0.19646296960E+04  0.00000000000E+00 0.  1.
          6    1    1    2  502    0  0.73887941756E+02  0.15557756411E+02 -0.13684400412E+04  0.13812724634E+04  0.17200000000E+03 0.  1.
         -6    1    1    2    0  501 -0.73887941756E+02 -0.15557756411E+02 -0.57481622909E+03  0.60473065819E+03  0.17200000000E+03 0. -1.
</event>
<event>
 4    1  0.1059899E+000  0.1852650E+03  0.7818608E-02  0.1162803E+00
          1   -1    0    0  502    0  0.00000000000E+00  0.00000000000E+00  0.30226189561E+03  0.30226189561E+03  0.00000000000E+00 0.  1.
         -1   -1    0    0    0  501 -0.00000000000E+00 -0.00000000000E+00 -0.11411513148E+03  0.11411513148E+03  0.00000000000E+00 0. -1.
          6    1    1    2  502    0  0.57330998221E+02  0.38108747540E+02  0.79477701007E+02  0.20159321654E+03  0.17200000000E+03 0.  1.
         -6    1    1    2    0  501 -0.57330998221E+02 -0.38108747540E+02  0.10866906312E+03  0.21478381055E+03  0.17200000000E+03 0. -1.
</event>
<event>
 4    1  0.1059899E+000  0.2151834E+03  0.7818608E-02  0.1137526E+00
         -2   -1    0    0    0  501 -0.00000000000E+00  0.00000000000E+00  0.11091213514E+03  0.11091213514E+03  0.00000000000E+00 0. -1.
          2   -1    0    0  502    0  0.00000000000E+00 -0.00000000000E+00 -0.41774361418E+03  0.41774361418E+03  0.00000000000E+00 0.  1.
          6    1    1    2  502    0 -0.10114011419E+03 -0.80564115329E+02 -0.14680996309E+03  0.26049388600E+03  0.17200000000E+03 0.  1.
         -6    1    1    2    0  501  0.10114011419E+03  0.80564115329E+02 -0.16002151594E+03  0.26816186332E+03  0.17200000000E+03 0. -1.
</event>
<event>
 4    1  0.1059899E+000  0.1761642E+03  0.7818608E-02  0.1171568E+00
          2   -1    0    0  502    0  0.00000000000E+00  0.00000000000E+00  0.33528864525E+03  0.33528864525E+03  0.00000000000E+00 0.  1.
         -2   -1    0    0    0  501 -0.00000000000E+00 -0.00000000000E+00 -0.12605728739E+03  0.12605728739E+03  0.00000000000E+00 0. -1.
          6    1    1    2  502    0  0.36908219088E+02  0.93606647386E+01  0.22352798164E+03  0.28460252504E+03  0.17200000000E+03 0.  1.
         -6    1    1    2    0  501 -0.36908219088E+02 -0.93606647386E+01 -0.14296623777E+02  0.17674340761E+03  0.17200000000E+03 0. -1.
</event>
<event>
 4    1  0.1059899E+000  0.1816404E+03  0.7818608E-02  0.1166225E+00
          2   -1    0    0  502    0  0.00000000000E+00  0.00000000000E+00  0.11376103042E+04  0.11376103042E+04  0.00000000000E+00 0.  1.
         -2   -1    0    0    0  501 -0.00000000000E+00 -0.00000000000E+00 -0.37877715252E+02  0.37877715252E+02  0.00000000000E+00 0. -1.
          6    1    1    2  502    0  0.46165853042E+02  0.35748297250E+02  0.26535954758E+03  0.32157256761E+03  0.17200000000E+03 0. -1.
         -6    1    1    2    0  501 -0.46165853042E+02 -0.35748297250E+02  0.83437304136E+03  0.85391545184E+03  0.17200000000E+03 0.  1.
</event>
<event>
 4    1  0.1059899E+000  0.2023192E+03  0.7818608E-02  0.1147797E+00
         -2   -1    0    0    0  501 -0.00000000000E+00  0.00000000000E+00  0.10130207844E+03  0.10130207844E+03  0.00000000000E+00 0. -1.
          2   -1    0    0  502    0  0.00000000000E+00 -0.00000000000E+00 -0.44092492357E+03  0.44092492357E+03  0.00000000000E+00 0.  1.
          6    1    1    2  502    0 -0.94632359872E+02  0.48926290560E+02 -0.24819415194E+03  0.32020837356E+03  0.17200000000E+03 0. -1.
         -6    1    1    2    0  501  0.94632359872E+02 -0.48926290560E+02 -0.91428693191E+02  0.22201862846E+03  0.17200000000E+03 0. -1.
</event>
<event>
 4    1  0.1059899E+000  0.3392443E+03  0.7818608E-02  0.1067118E+00
         -2   -1    0    0    0  501 -0.00000000000E+00  0.00000000000E+00  0.76187333021E+02  0.76187333021E+02  0.00000000000E+00 0.  1.
          2   -1    0    0  502    0  0.00000000000E+00 -0.00000000000E+00 -0.15111389811E+04  0.15111389811E+04  0.00000000000E+00 0. -1.
          6    1    1    2  502    0 -0.29236799861E+03 -0.48620421621E+01 -0.73280746172E+03  0.80752304117E+03  0.17200000000E+03 0.  1.
         -6    1    1    2    0  501  0.29236799861E+03  0.48620421621E+01 -0.70214418636E+03  0.77980327295E+03  0.17200000000E+03 0.  1.
</event>
<event>
 4    1  0.1059899E+000  0.3316174E+03  0.7818608E-02  0.1070423E+00
         -1   -1    0    0    0  501 -0.00000000000E+00  0.00000000000E+00  0.38576717624E+03  0.38576717624E+03  0.00000000000E+00 0.  1.
          1   -1    0    0  502    0  0.00000000000E+00 -0.00000000000E+00 -0.33496029287E+03  0.33496029287E+03  0.00000000000E+00 0. -1.
          6    1    1    2  502    0  0.23085187798E+03  0.16460113709E+03 -0.11367453552E+03  0.35055958684E+03  0.17200000000E+03 0. -1.
         -6    1    1    2    0  501 -0.23085187798E+03 -0.16460113709E+03  0.16448141889E+03  0.37016788226E+03  0.17200000000E+03 0.  1.
</event>
<event>
 4    1  0.1059899E+000  0.3153846E+03  0.7818608E-02  0.1077793E+00
          2   -1    0    0  502    0  0.00000000000E+00  0.00000000000E+00  0.49975300723E+03  0.49975300723E+03  0.00000000000E+00 0.  1.
         -2   -1    0    0    0  501 -0.00000000000E+00 -0.00000000000E+00 -0.20140013141E+03  0.20140013141E+03  0.00000000000E+00 0. -1.
          6    1    1    2  502    0 -0.25968343139E+03 -0.49477164760E+02  0.18718133686E+03  0.36674831593E+03  0.17200000000E+03 0.  1.
         -6    1    1    2    0  501  0.25968343139E+03  0.49477164760E+02  0.11117153896E+03  0.33440482270E+03  0.17200000000E+03 0. -1.
</event>
<event>
 4    1  0.1059899E+000  0.3013457E+03  0.7818608E-02  0.1084570E+00
         -4   -1    0    0    0  501 -0.00000000000E+00  0.00000000000E+00  0.41015862421E+03  0.41015862421E+03  0.00000000000E+00 0. -1.
          4   -1    0    0  502    0  0.00000000000E+00 -0.00000000000E+00 -0.30526039488E+03  0.30526039488E+03  0.00000000000E+00 0.  1.
          6    1    1    2  502    0  0.22327789634E+03 -0.10664045258E+03 -0.13503875109E+03  0.33021912334E+03  0.17200000000E+03 0.  1.
         -6    1    1    2    0  501 -0.22327789634E+03  0.10664045258E+03  0.23993698042E+03  0.38519989576E+03  0.17200000000E+03 0. -1.
</event>
<event>
 4    1  0.1059899E+000  0.1882140E+03  0.7818608E-02  0.1160082E+00
         -2   -1    0    0    0  501 -0.00000000000E+00  0.00000000000E+00  0.28042130918E+02  0.28042130918E+02  0.00000000000E+00 0. -1.
          2   -1    0    0  502    0  0.00000000000E+00 -0.00000000000E+00 -0.12796854669E+04  0.12796854669E+04  0.00000000000E+00 0.  1.
          6    1    1    2  502    0  0.11636685796E+02  0.75532002000E+02 -0.69990109421E+03  0.72476619503E+03  0.17200000000E+03 0. -1.
         -6    1    1    2    0  501 -0.11636685796E+02 -0.75532002000E+02 -0.55174224175E+03  0.58296140276E+03  0.17200000000E+03 0. -1.
</event>
<event>
 4    1  0.1059899E+000  0.1889997E+03  0.7818608E-02  0.1159367E+00
          1   -1    0    0  502    0  0.00000000000E+00  0.00000000000E+00  0.82501121327E+03  0.82501121327E+03  0.00000000000E+00 0.  1.
         -1   -1    0    0    0  501 -0.00000000000E+00 -0.00000000000E+00 -0.56194362810E+02  0.56194362810E+02  0.00000000000E+00 0. -1.
          6    1    1    2  502    0  0.19370197569E+02  0.75905836607E+02  0.59548661601E+03  0.62476012231E+03  0.17200000000E+03 0.  1.
         -6    1    1    2    0  501 -0.19370197569E+02 -0.75905836607E+02  0.17333023446E+03  0.25644545378E+03  0.17200000000E+03 0. -1.
</event>
<event>
 4    1  0.1059899E+000  0.1865901E+03  0.7818608E-02  0.1161573E+00
         -1   -1    0    0    0  501 -0.00000000000E+00  0.00000000000E+00  0.57732011938E+02  0.57732011938E+02  0.00000000000E+00 0.  1.
          1   -1    0    0  502    0  0.00000000000E+00 -0.00000000000E+00 -0.60656217928E+03  0.60656217928E+03  0.00000000000E+00 0. -1.
          6    1    1    2  502    0 -0.26116983270E+02  0.67451970183E+02 -0.24917654793E+03  0.31129538566E+03  0.17200000000E+03 0.  1.
         -6    1    1    2    0  501  0.26116983270E+02 -0.67451970183E+02 -0.29965361942E+03  0.35299880556E+03  0.17200000000E+03 0. -1.
</event>
<event>
 4    1  0.1059899E+000  0.2130253E+03  0.7818608E-02  0.1139192E+00
         -2   -1    0    0    0  501 -0.00000000000E+00  0.00000000000E+00  0.33899439982E+02  0.33899439982E+02  0.00000000000E+00 0.  1.
          2   -1    0    0  502    0  0.00000000000E+00 -0.00000000000E+00 -0.19569709244E+04  0.19569709244E+04  0.00000000000E+00 0. -1.
          6    1    1    2  502    0 -0.12458734906E+03  0.16545599231E+02 -0.15210676793E+04  0.15359123182E+04  0.17200000000E+03 0. -1.
         -6    1    1    2    0  501  0.12458734906E+03 -0.16545599231E+02 -0.40200380516E+03  0.45495804616E+03  0.17200000000E+03 0.  1.
</event>
<event>
 4    1  0.1059899E+000  0.2188235E+03  0.7818608E-02  0.1134763E+00
          2   -1    0    0  502    0  0.00000000000E+00  0.00000000000E+00  0.38114259501E+03  0.38114259501E+03  0.00000000000E+00 0.  1.
         -2   -1    0    0    0  501 -0.00000000000E+00 -0.00000000000E+00 -0.28339732971E+03  0.28339732971E+03  0.00000000000E+00 0. -1.
          6    1    1    2  502    0 -0.13428561701E+03  0.16343577106E+02 -0.19904012204E+03  0.29580518865E+03  0.17200000000E+03 0. -1.
         -6    1    1    2    0  501  0.13428561701E+03 -0.16343577106E+02  0.29678538734E+03  0.36873473607E+03  0.17200000000E+03 0.  1.
</event>
<event>
 4    1  0.1059899E+000  0.1928430E+03  0.7818608E-02  0.1155922E+00
         -2   -1    0    0    0  501 -0.00000000000E+00  0.00000000000E+00  0.15708804418E+03  0.15708804418E+03  0.00000000000E+00 0. -1.
          2   -1    0    0  502    0  0.00000000000E+00 -0.00000000000E+00 -0.52079320847E+03  0.52079320847E+03  0.00000000000E+00 0.  1.
          6    1    1    2  502    0 -0.79976013354E+02  0.34760168118E+02  0.68466351494E+02  0.20463644174E+03  0.17200000000E+03 0. -1.
         -6    1    1    2    0  501  0.79976013354E+02 -0.34760168118E+02 -0.43217151578E+03  0.47324481091E+03  0.17200000000E+03 0.  1.
</event>
<event>
 4    1  0.1059899E+000  0.2229654E+03  0.7818608E-02  0.1131691E+00
          1   -1    0    0  502    0  0.00000000000E+00  0.00000000000E+00  0.12664203102E+04  0.12664203102E+04  0.00000000000E+00 0. -1.
         -1   -1    0    0    0  501 -0.00000000000E+00 -0.00000000000E+00 -0.39266741717E+02  0.39266741717E+02  0.00000000000E+00 0.  1.
          6    1    1    2  502    0 -0.17151845140E+02 -0.14083808540E+03  0.62478106715E+03  0.66337390208E+03  0.17200000000E+03 0. -1.
         -6    1    1    2    0  501  0.17151845140E+02  0.14083808540E+03  0.60237250134E+03  0.64231314984E+03  0.17200000000E+03 0.  1.
</event>
<event>
 4    1  0.1059899E+000  0.1749039E+03  0.7818608E-02  0.1172828E+00
         -2   -1    0    0    0  501 -0.00000000000E+00  0.00000000000E+00  0.94620102540E+02  0.94620102540E+02  0.00000000000E+00 0.  1.
          2   -1    0    0  502    0  0.00000000000E+00 -0.00000000000E+00 -0.78049433843E+03  0.78049433843E+03  0.00000000000E+00 0. -1.
          6    1    1    2  502    0 -0.29273872412E+02 -0.12264848629E+02 -0.80512279369E+01  0.17508914412E+03  0.17200000000E+03 0.  1.
         -6    1    1    2    0  501  0.29273872412E+02  0.12264848629E+02 -0.67782300796E+03  0.70002529685E+03  0.17200000000E+03 0. -1.
</event>
<event>
 4    1  0.1059899E+000  0.2853158E+03  0.7818608E-02  0.1092820E+00
          2   -1    0    0  502    0  0.00000000000E+00  0.00000000000E+00  0.86980729078E+03  0.86980729078E+03  0.00000000000E+00 0. -1.
         -2   -1    0    0    0  501 -0.00000000000E+00 -0.00000000000E+00 -0.93824348198E+02  0.93824348198E+02  0.00000000000E+00 0.  1.
          6    1    1    2  502    0  0.63637989786E+02 -0.21856644925E+03  0.41208184166E+03  0.50121505435E+03  0.17200000000E+03 0. -1.
         -6    1    1    2    0  501 -0.63637989786E+02  0.21856644925E+03  0.36390110092E+03  0.46241658462E+03  0.17200000000E+03 0.  1.
</event>
<event>
 4    1  0.1059899E+000  0.2357923E+03  0.7818608E-02  0.1122628E+00
         -2   -1    0    0    0  501 -0.00000000000E+00  0.00000000000E+00  0.34024725948E+02  0.34024725948E+02  0.00000000000E+00 0.  1.
          2   -1    0    0  502    0  0.00000000000E+00 -0.00000000000E+00 -0.20532046941E+04  0.20532046941E+04  0.00000000000E+00 0. -1.
          6    1    1    2  502    0  0.88059651539E+02  0.13512771377E+03 -0.14811237425E+04  0.14997751638E+04  0.17200000000E+03 0. -1.
         -6    1    1    2    0  501 -0.88059651539E+02 -0.13512771377E+03 -0.53805622566E+03  0.58745425629E+03  0.17200000000E+03 0.  1.
</event>
<event>
 4    1  0.1059899E+000  0.4653398E+03  0.7818608E-02  0.1023244E+00
         -1   -1    0    0    0  501 -0.00000000000E+00  0.00000000000E+00  0.19850779379E+03  0.19850779379E+03  0.00000000000E+00 0. -1.
          1   -1    0    0  502    0  0.00000000000E+00 -0.00000000000E+00 -0.10945456102E+04  0.10945456102E+04  0.00000000000E+00 0.  1.
          6    1    1    2  502    0 -0.84263949826E+02 -0.42409513809E+03 -0.41042252343E+03  0.62047380858E+03  0.17200000000E+03 0.  1.
         -6    1    1    2    0  501  0.84263949826E+02  0.42409513809E+03 -0.48561529295E+03  0.67257959539E+03  0.17200000000E+03 0. -1.
</event>
<event>
 4    1  0.1059899E+000  0.2217711E+03  0.7818608E-02  0.1132570E+00
         -1   -1    0    0    0  501 -0.00000000000E+00  0.00000000000E+00  0.60505777830E+03  0.60505777830E+03  0.00000000000E+00 0.  1.
          1   -1    0    0  502    0  0.00000000000E+00 -0.00000000000E+00 -0.81292111735E+02  0.81292111735E+02  0.00000000000E+00 0. -1.
          6    1    1    2  502    0  0.19899337715E+02  0.13857278485E+03  0.25877876302E+03  0.34080617444E+03  0.17200000000E+03 0.  1.
         -6    1    1    2    0  501 -0.19899337715E+02 -0.13857278485E+03  0.26498690355E+03  0.34554371560E+03  0.17200000000E+03 0.  1.
</event>
<event>
 4    1  0.1059899E+000  0.2062970E+03  0.7818608E-02  0.1144532E+00
         -2   -1    0    0    0  501 -0.00000000000E+00  0.00000000000E+00  0.49637830347E+03  0.49637830347E+03  0.00000000000E+00 0. -1.
          2   -1    0    0  502    0  0.00000000000E+00 -0.00000000000E+00 -0.89154354536E+02  0.89154354536E+02  0.00000000000E+00 0.  1.
          6    1    1    2  502    0 -0.11064264461E+03 -0.27067352761E+02  0.26092288124E+03  0.33262469293E+03  0.17200000000E+03 0.  1.
         -6    1    1    2    0  501  0.11064264461E+03  0.27067352761E+02  0.14630106770E+03  0.25290796508E+03  0.17200000000E+03 0. -1.
</event>
<event>
 4    1  0.1059899E+000  0.2104827E+03  0.7818608E-02  0.1141184E+00
         -1   -1    0    0    0  501 -0.00000000000E+00  0.00000000000E+00  0.66680229921E+02  0.66680229921E+02  0.00000000000E+00 0. -1.
          1   -1    0    0  502    0  0.00000000000E+00 -0.00000000000E+00 -0.69849263213E+03  0.69849263213E+03  0.00000000000E+00 0.  1.
          6    1    1    2  502    0  0.10446569984E+03  0.61691780741E+02 -0.40041857584E+03  0.45236931166E+03  0.17200000000E+03 0.  1.
         -6    1    1    2    0  501 -0.10446569984E+03 -0.61691780741E+02 -0.23139382637E+03  0.31280355039E+03  0.17200000000E+03 0. -1.
</event>
<event>
 4    1  0.1059899E+000  0.1810584E+03  0.7818608E-02  0.1166783E+00
         -1   -1    0    0    0  501 -0.00000000000E+00  0.00000000000E+00  0.12671821177E+02  0.12671821177E+02  0.00000000000E+00 0. -1.
          1   -1    0    0  502    0  0.00000000000E+00 -0.00000000000E+00 -0.26315384185E+04  0.26315384185E+04  0.00000000000E+00 0.  1.
          6    1    1    2  502    0  0.24346583710E+02 -0.51042896515E+02 -0.11374533883E+04  0.11517735645E+04  0.17200000000E+03 0. -1.
         -6    1    1    2    0  501 -0.24346583710E+02  0.51042896515E+02 -0.14814132091E+04  0.14924366752E+04  0.17200000000E+03 0.  1.
</event>
<event>
 4    1  0.1059899E+000  0.2237894E+03  0.7818608E-02  0.1131089E+00
          1   -1    0    0  502    0  0.00000000000E+00  0.00000000000E+00  0.18425100326E+04  0.18425100326E+04  0.00000000000E+00 0. -1.
         -1   -1    0    0    0  501 -0.00000000000E+00 -0.00000000000E+00 -0.37882794757E+02  0.37882794757E+02  0.00000000000E+00 0.  1.
          6    1    1    2  502    0 -0.14171736263E+03  0.20343796036E+02  0.14020273872E+04  0.14197755018E+04  0.17200000000E+03 0. -1.
         -6    1    1    2    0  501  0.14171736263E+03 -0.20343796036E+02  0.40259985061E+03  0.46061732558E+03  0.17200000000E+03 0.  1.
</event>
<event>
 4    1  0.1059899E+000  0.1988322E+03  0.7818608E-02  0.1150728E+00
         -2   -1    0    0    0  501 -0.00000000000E+00  0.00000000000E+00  0.85124719892E+02  0.85124719892E+02  0.00000000000E+00 0.  1.
          2   -1    0    0  502    0  0.00000000000E+00 -0.00000000000E+00 -0.49767171538E+03  0.49767171538E+03  0.00000000000E+00 0. -1.
          6    1    1    2  502    0 -0.90917123160E+02 -0.41040273475E+02 -0.28158755204E+03  0.34471114980E+03  0.17200000000E+03 0. -1.
         -6    1    1    2    0  501  0.90917123160E+02  0.41040273475E+02 -0.13095944344E+03  0.23808528547E+03  0.17200000000E+03 0. -1.
</event>
<event>
 4    1  0.1059899E+000  0.2127554E+03  0.7818608E-02  0.1139402E+00
         -1   -1    0    0    0  501 -0.00000000000E+00  0.00000000000E+00  0.17562763561E+04  0.17562763561E+04  0.00000000000E+00 0.  1.
          1   -1    0    0  502    0  0.00000000000E+00 -0.00000000000E+00 -0.26176592899E+02  0.26176592899E+02  0.00000000000E+00 0. -1.
          6    1    1    2  502    0  0.38437183583E+01  0.12516429982E+03  0.75441521035E+03  0.78384130137E+03  0.17200000000E+03 0.  1.
         -6    1    1    2    0  501 -0.38437183583E+01 -0.12516429982E+03  0.97568455285E+03  0.99861164764E+03  0.17200000000E+03 0.  1.
</event>
<event>
 4    1  0.1059899E+000  0.2168004E+03  0.7818608E-02  0.1136291E+00
          1   -1    0    0  502    0  0.00000000000E+00  0.00000000000E+00  0.16466165238E+04  0.16466165238E+04  0.00000000000E+00 0.  1.
         -1   -1    0    0    0  501 -0.00000000000E+00 -0.00000000000E+00 -0.32361536985E+02  0.32361536985E+02  0.00000000000E+00 0. -1.
          6    1    1    2  502    0 -0.73627124651E+02  0.10953290941E+03  0.10954271144E+04  0.11166749638E+04  0.17200000000E+03 0.  1.
         -6    1    1    2    0  501  0.73627124651E+02 -0.10953290941E+03  0.51882787242E+03  0.56230309703E+03  0.17200000000E+03 0. -1.
</event>
<event>
 4    1  0.1059899E+000  0.2015195E+03  0.7818608E-02  0.1148463E+00
         -2   -1    0    0    0  501 -0.00000000000E+00  0.00000000000E+00  0.34298688399E+02  0.34298688399E+02  0.00000000000E+00 0. -1.
          2   -1    0    0  502    0  0.00000000000E+00 -0.00000000000E+00 -0.12239720477E+04  0.12239720477E+04  0.00000000000E+00 0.  1.
          6    1    1    2  502    0  0.96901267147E+02 -0.40450568057E+02 -0.48116189001E+03  0.52165780779E+03  0.17200000000E+03 0. -1.
         -6    1    1    2    0  501 -0.96901267147E+02  0.40450568057E+02 -0.70851146926E+03  0.73661292827E+03  0.17200000000E+03 0.  1.
</event>
<event>
 4    1  0.1059899E+000  0.1735911E+03  0.7818608E-02  0.1174154E+00
         -2   -1    0    0    0  501 -0.00000000000E+00  0.00000000000E+00  0.26658044936E+03  0.26658044936E+03  0.00000000000E+00 0.  1.
          2   -1    0    0  502    0  0.00000000000E+00 -0.00000000000E+00 -0.12065760584E+03  0.12065760584E+03  0.00000000000E+00 0. -1.
          6    1    1    2  502    0 -0.11458075117E+02  0.20458925105E+02  0.24306970166E+02  0.17528457976E+03  0.17200000000E+03 0. -1.
         -6    1    1    2    0  501  0.11458075117E+02 -0.20458925105E+02  0.12161587335E+03  0.21195347544E+03  0.17200000000E+03 0.  1.
</event>
<event>
 4    1  0.1059899E+000  0.2537842E+03  0.7818608E-02  0.1110936E+00
          2   -1    0    0  502    0  0.00000000000E+00  0.00000000000E+00  0.61399839506E+03  0.61399839506E+03  0.00000000000E+00 0.  1.
         -2   -1    0    0    0  501 -0.00000000000E+00 -0.00000000000E+00 -0.13695155074E+03  0.13695155074E+03  0.00000000000E+00 0. -1.
          6    1    1    2  502    0 -0.16600651856E+03  0.85230678177E+02  0.56869785713E+02  0.26007807526E+03  0.17200000000E+03 0.  1.
         -6    1    1    2    0  501  0.16600651856E+03 -0.85230678177E+02  0.42017705861E+03  0.49087187054E+03  0.17200000000E+03 0.  1.
</event>
<event>
 4    1  0.1059899E+000  0.2255783E+03  0.7818608E-02  0.1129791E+00
          2   -1    0    0  502    0  0.00000000000E+00  0.00000000000E+00  0.11766230703E+04  0.11766230703E+04  0.00000000000E+00 0. -1.
         -2   -1    0    0    0  501 -0.00000000000E+00 -0.00000000000E+00 -0.47253384396E+02  0.47253384396E+02  0.00000000000E+00 0.  1.
          6    1    1    2  502    0 -0.14102149499E+02  0.14526760621E+03  0.74286586220E+03  0.77636024966E+03  0.17200000000E+03 0. -1.
         -6    1    1    2    0  501  0.14102149499E+02 -0.14526760621E+03  0.38650382372E+03  0.44751620506E+03  0.17200000000E+03 0.  1.
</event>
<event>
 4    1  0.1059899E+000  0.2367327E+03  0.7818608E-02  0.1121989E+00
          2   -1    0    0  502    0  0.00000000000E+00  0.00000000000E+00  0.48895300818E+03  0.48895300818E+03  0.00000000000E+00 0.  1.
         -2   -1    0    0    0  501 -0.00000000000E+00 -0.00000000000E+00 -0.11464152867E+03  0.11464152867E+03  0.00000000000E+00 0. -1.
          6    1    1    2  502    0  0.13683293326E+03  0.87949454725E+02  0.18274700013E+03  0.29906324459E+03  0.17200000000E+03 0.  1.
         -6    1    1    2    0  501 -0.13683293326E+03 -0.87949454725E+02  0.19156447938E+03  0.30453129227E+03  0.17200000000E+03 0.  1.
</event>
<event>
 4    1  0.1059899E+000  0.1855132E+03  0.7818608E-02  0.1162572E+00
         -2   -1    0    0    0  501 -0.00000000000E+00  0.00000000000E+00  0.22959616275E+03  0.22959616275E+03  0.00000000000E+00 0.  1.
          2   -1    0    0  502    0  0.00000000000E+00 -0.00000000000E+00 -0.29376266980E+03  0.29376266980E+03  0.00000000000E+00 0. -1.
          6    1    1    2  502    0  0.61860377638E+02  0.31692664128E+02 -0.21521097148E+03  0.28413182421E+03  0.17200000000E+03 0. -1.
         -6    1    1    2    0  501 -0.61860377638E+02 -0.31692664128E+02  0.15104446443E+03  0.23922700833E+03  0.17200000000E+03 0.  1.
</event>
<event>
 4    1  0.1059899E+000  0.1858593E+03  0.7818608E-02  0.1162250E+00
          2   -1    0    0  502    0  0.00000000000E+00  0.00000000000E+00  0.15924807100E+03  0.15924807100E+03  0.00000000000E+00 0. -1.
         -2   -1    0    0    0  501 -0.00000000000E+00 -0.00000000000E+00 -0.26571405637E+03  0.26571405637E+03  0.00000000000E+00 0.  1.
          6    1    1    2  502    0 -0.69984498018E+02  0.78641571561E+01 -0.14428888854E+03  0.23529334518E+03  0.17200000000E+03 0.  1.
         -6    1    1    2    0  501  0.69984498018E+02 -0.78641571561E+01  0.37822903173E+02  0.18966878218E+03  0.17200000000E+03 0. -1.
</event>
<event>
 4    1  0.1059899E+000  0.1999855E+03  0.7818608E-02  0.1149751E+00
         -2   -1    0    0    0  501 -0.00000000000E+00  0.00000000000E+00  0.17916277333E+03  0.17916277333E+03  0.00000000000E+00 0. -1.
          2   -1    0    0  502    0  0.00000000000E+00 -0.00000000000E+00 -0.43660104962E+03  0.43660104962E+03  0.00000000000E+00 0.  1.
          6    1    1    2  502    0  0.10203025192E+03  0.11808988549E+00  0.86515095800E+02  0.21789687481E+03  0.17200000000E+03 0. -1.
         -6    1    1    2    0  501 -0.10203025192E+03 -0.11808988549E+00 -0.34395337209E+03  0.39786694814E+03  0.17200000000E+03 0.  1.
</event>
<event>
 4    1  0.1059899E+000  0.2376108E+03  0.7818608E-02  0.1121395E+00
         -2   -1    0    0    0  501 -0.00000000000E+00  0.00000000000E+00  0.32333310135E+03  0.32333310135E+03  0.00000000000E+00 0. -1.
          2   -1    0    0  502    0  0.00000000000E+00 -0.00000000000E+00 -0.17469941029E+03  0.17469941029E+03  0.00000000000E+00 0.  1.
          6    1    1    2  502    0 -0.11202162212E+03  0.11969139426E+03  0.79784088183E+02  0.25064790925E+03  0.17200000000E+03 0.  1.
         -6    1    1    2    0  501  0.11202162212E+03 -0.11969139426E+03  0.68849602875E+02  0.24738460239E+03  0.17200000000E+03 0.  1.
</event>
<event>
 4    1  0.1059899E+000  0.2751471E+03  0.7818608E-02  0.1098369E+00
         -2   -1    0    0    0  501 -0.00000000000E+00  0.00000000000E+00  0.20418761236E+03  0.20418761236E+03  0.00000000000E+00 0.  1.
          2   -1    0    0  502    0  0.00000000000E+00 -0.00000000000E+00 -0.39082515530E+03  0.39082515530E+03  0.00000000000E+00 0. -1.
          6    1    1    2  502    0 -0.15342247319E+03  0.15027805647E+03 -0.16071796725E+03  0.31864747689E+03  0.17200000000E+03 0. -1.
         -6    1    1    2    0  501  0.15342247319E+03 -0.15027805647E+03 -0.25919575691E+02  0.27636529077E+03  0.17200000000E+03 0.  1.
</event>
<event>
 4    1  0.1059899E+000  0.4590901E+03  0.7818608E-02  0.1025045E+00
          1   -1    0    0  502    0  0.00000000000E+00  0.00000000000E+00  0.28835876212E+04  0.28835876212E+04  0.00000000000E+00 0. -1.
         -1   -1    0    0    0  501 -0.00000000000E+00 -0.00000000000E+00 -0.75586789157E+02  0.75586789157E+02  0.00000000000E+00 0.  1.
          6    1    1    2  502    0  0.72267370296E+02  0.41947246251E+03  0.11351323883E+04  0.12244546780E+04  0.17200000000E+03 0.  1.
         -6    1    1    2    0  501 -0.72267370296E+02 -0.41947246251E+03  0.16728684438E+04  0.17347197324E+04  0.17200000000E+03 0.  1.
</event>
<event>
 4    1  0.1059899E+000  0.1802895E+03  0.7818608E-02  0.1167523E+00
         -1   -1    0    0    0  501 -0.00000000000E+00  0.00000000000E+00  0.41886436789E+02  0.41886436789E+02  0.00000000000E+00 0.  1.
          1   -1    0    0  502    0  0.00000000000E+00 -0.00000000000E+00 -0.83378632361E+03  0.83378632361E+03  0.00000000000E+00 0. -1.
          6    1    1    2  502    0  0.21882093711E+02 -0.49411445762E+02 -0.51120429518E+03  0.54206470869E+03  0.17200000000E+03 0. -1.
         -6    1    1    2    0  501 -0.21882093711E+02  0.49411445762E+02 -0.28069559164E+03  0.33360805171E+03  0.17200000000E+03 0.  1.
</event>
<event>
 4    1  0.1059899E+000  0.1805208E+03  0.7818608E-02  0.1167300E+00
         -2   -1    0    0    0  501 -0.00000000000E+00  0.00000000000E+00  0.18849690836E+03  0.18849690836E+03  0.00000000000E+00 0. -1.
          2   -1    0    0  502    0  0.00000000000E+00 -0.00000000000E+00 -0.26005746583E+03  0.26005746583E+03  0.00000000000E+00 0.  1.
          6    1    1    2  502    0 -0.11549428182E+02  0.53575942145E+02  0.94071211077E+02  0.20356120363E+03  0.17200000000E+03 0. -1.
         -6    1    1    2    0  501  0.11549428182E+02 -0.53575942145E+02 -0.16563176855E+03  0.24499317056E+03  0.17200000000E+03 0.  1.
</event>
<event>
 4    1  0.1059899E+000  0.3063968E+03  0.7818608E-02  0.1082086E+00
          2   -1    0    0  502    0  0.00000000000E+00  0.00000000000E+00  0.18007799842E+04  0.18007799842E+04  0.00000000000E+00 0. -1.
         -2   -1    0    0    0  501 -0.00000000000E+00 -0.00000000000E+00 -0.57114701292E+02  0.57114701292E+02  0.00000000000E+00 0.  1.
          6    1    1    2  502    0 -0.24821049437E+03  0.51831910068E+02  0.11461995926E+04  0.11864453222E+04  0.17200000000E+03 0. -1.
         -6    1    1    2    0  501  0.24821049437E+03 -0.51831910068E+02  0.59746569031E+03  0.67144936333E+03  0.17200000000E+03 0.  1.
</event>
<event>
 4    1  0.1059899E+000  0.1947532E+03  0.7818608E-02  0.1154243E+00
         -2   -1    0    0    0  501 -0.00000000000E+00  0.00000000000E+00  0.59464794550E+03  0.59464794550E+03  0.00000000000E+00 0.  1.
          2   -1    0    0  502    0  0.00000000000E+00 -0.00000000000E+00 -0.99826868626E+02  0.99826868626E+02  0.00000000000E+00 0. -1.
          6    1    1    2  502    0  0.87252082967E+02 -0.27052997755E+02  0.45605882587E+03  0.49590164682E+03  0.17200000000E+03 0.  1.
         -6    1    1    2    0  501 -0.87252082967E+02  0.27052997755E+02  0.38762251007E+02  0.19857316730E+03  0.17200000000E+03 0. -1.
</event>
<event>
 4    1  0.1059899E+000  0.2234982E+03  0.7818608E-02  0.1131302E+00
         -1   -1    0    0    0  501 -0.00000000000E+00  0.00000000000E+00  0.15699204045E+03  0.15699204045E+03  0.00000000000E+00 0.  1.
          1   -1    0    0  502    0  0.00000000000E+00 -0.00000000000E+00 -0.43419011736E+03  0.43419011736E+03  0.00000000000E+00 0. -1.
          6    1    1    2  502    0 -0.13953207884E+03 -0.29970613149E+02 -0.29139178278E+03  0.36723372633E+03  0.17200000000E+03 0. -1.
         -6    1    1    2    0  501  0.13953207884E+03  0.29970613149E+02  0.14193705870E+02  0.22394843148E+03  0.17200000000E+03 0.  1.
</event>
<event>
 4    1  0.1059899E+000  0.1818797E+03  0.7818608E-02  0.1165996E+00
         -1   -1    0    0    0  501 -0.00000000000E+00  0.00000000000E+00  0.24105271166E+02  0.24105271166E+02  0.00000000000E+00 0.  1.
          1   -1    0    0  502    0  0.00000000000E+00 -0.00000000000E+00 -0.15995881377E+04  0.15995881377E+04  0.00000000000E+00 0. -1.
          6    1    1    2  502    0  0.36103260518E+02  0.46827104146E+02 -0.48173105601E+03  0.51492235670E+03  0.17200000000E+03 0.  1.
         -6    1    1    2    0  501 -0.36103260518E+02 -0.46827104146E+02 -0.10937518106E+04  0.11087710522E+04  0.17200000000E+03 0. -1.
</event>
<event>
 4    1  0.1059899E+000  0.2212931E+03  0.7818608E-02  0.1132923E+00
         -2   -1    0    0    0  501 -0.00000000000E+00  0.00000000000E+00  0.20958148076E+03  0.20958148076E+03  0.00000000000E+00 0. -1.
          2   -1    0    0  502    0  0.00000000000E+00 -0.00000000000E+00 -0.31401021608E+03  0.31401021608E+03  0.00000000000E+00 0.  1.
          6    1    1    2  502    0 -0.79682178273E+02  0.11418143764E+03 -0.18464438484E+03  0.28820860343E+03  0.17200000000E+03 0.  1.
         -6    1    1    2    0  501  0.79682178273E+02 -0.11418143764E+03  0.80215649521E+02  0.23538309341E+03  0.17200000000E+03 0. -1.
</event>
<event>
 4    1  0.1059899E+000  0.1941009E+03  0.7818608E-02  0.1154814E+00
         -1   -1    0    0    0  501 -0.00000000000E+00  0.00000000000E+00  0.79729686818E+02  0.79729686818E+02  0.00000000000E+00 0.  1.
          1   -1    0    0  502    0  0.00000000000E+00 -0.00000000000E+00 -0.53695797238E+03  0.53695797238E+03  0.00000000000E+00 0. -1.
          6    1    1    2  502    0  0.70411401675E+02 -0.55976807675E+02 -0.33541659570E+03  0.38752994872E+03  0.17200000000E+03 0. -1.
         -6    1    1    2    0  501 -0.70411401675E+02  0.55976807675E+02 -0.12181168985E+03  0.22915771047E+03  0.17200000000E+03 0.  1.
</event>
<event>
 4    1  0.1059899E+000  0.1746793E+03  0.7818608E-02  0.1173054E+00
          2   -1    0    0  502    0  0.00000000000E+00  0.00000000000E+00  0.44070311888E+03  0.44070311888E+03  0.00000000000E+00 0.  1.
         -2   -1    0    0    0  501 -0.00000000000E+00 -0.00000000000E+00 -0.17379588307E+03  0.17379588307E+03  0.00000000000E+00 0. -1.
          6    1    1    2  502    0  0.26125256347E+02  0.15695035733E+02 -0.10486192977E+03  0.20373730017E+03  0.17200000000E+03 0. -1.
         -6    1    1    2    0  501 -0.26125256347E+02 -0.15695035733E+02  0.37176916558E+03  0.41076170178E+03  0.17200000000E+03 0.  1.
</event>
<event>
 4    1  0.1059899E+000  0.2656199E+03  0.7818608E-02  0.1103813E+00
         -1   -1    0    0    0  501 -0.00000000000E+00  0.00000000000E+00  0.10406758128E+04  0.10406758128E+04  0.00000000000E+00 0.  1.
          1   -1    0    0  502    0  0.00000000000E+00 -0.00000000000E+00 -0.72240667226E+02  0.72240667226E+02  0.00000000000E+00 0. -1.
          6    1    1    2  502    0 -0.16919109713E+03  0.11110482128E+03  0.62223995948E+03  0.67656224830E+03  0.17200000000E+03 0.  1.
         -6    1    1    2    0  501  0.16919109713E+03 -0.11110482128E+03  0.34619518606E+03  0.43635423169E+03  0.17200000000E+03 0.  1.
</event>
<event>
 4    1  0.1059899E+000  0.1736649E+03  0.7818608E-02  0.1174079E+00
          4   -1    0    0  502    0  0.00000000000E+00  0.00000000000E+00  0.19536026040E+03  0.19536026040E+03  0.00000000000E+00 0. -1.
         -4   -1    0    0    0  501 -0.00000000000E+00 -0.00000000000E+00 -0.24406666535E+03  0.24406666535E+03  0.00000000000E+00 0.  1.
          6    1    1    2  502    0  0.47593583456E+01  0.23512536175E+02 -0.15754245340E+03  0.23447625780E+03  0.17200000000E+03 0.  1.
         -6    1    1    2    0  501 -0.47593583456E+01 -0.23512536175E+02  0.10883604846E+03  0.20495066795E+03  0.17200000000E+03 0. -1.
</event>
<event>
 4    1  0.1059899E+000  0.1865115E+03  0.7818608E-02  0.1161646E+00
          1   -1    0    0  502    0  0.00000000000E+00  0.00000000000E+00  0.17063134744E+03  0.17063134744E+03  0.00000000000E+00 0. -1.
         -1   -1    0    0    0  501 -0.00000000000E+00 -0.00000000000E+00 -0.20721252409E+03  0.20721252409E+03  0.00000000000E+00 0.  1.
          6    1    1    2  502    0  0.45797245435E+02  0.55723771998E+02 -0.42286902110E+02  0.19124515300E+03  0.17200000000E+03 0.  1.
         -6    1    1    2    0  501 -0.45797245435E+02 -0.55723771998E+02  0.57057254614E+01  0.18659871853E+03  0.17200000000E+03 0.  1.
</event>
<event>
 4    1  0.1059899E+000  0.1730166E+03  0.7818608E-02  0.1174738E+00
         -1   -1    0    0    0  501 -0.00000000000E+00  0.00000000000E+00  0.68400777347E+02  0.68400777347E+02  0.00000000000E+00 0. -1.
          1   -1    0    0  502    0  0.00000000000E+00 -0.00000000000E+00 -0.48720230155E+03  0.48720230155E+03  0.00000000000E+00 0.  1.
          6    1    1    2  502    0  0.18663183840E+02  0.15567284017E+01 -0.29800757992E+03  0.34459143275E+03  0.17200000000E+03 0.  1.
         -6    1    1    2    0  501 -0.18663183840E+02 -0.15567284017E+01 -0.12079394428E+03  0.21101164615E+03  0.17200000000E+03 0. -1.
</event>
<event>
 4    1  0.1059899E+000  0.2042463E+03  0.7818608E-02  0.1146205E+00
         -2   -1    0    0    0  501 -0.00000000000E+00  0.00000000000E+00  0.45581463939E+03  0.45581463939E+03  0.00000000000E+00 0. -1.
          2   -1    0    0  502    0  0.00000000000E+00 -0.00000000000E+00 -0.10398132824E+03  0.10398132824E+03  0.00000000000E+00 0.  1.
          6    1    1    2  502    0  0.10811730109E+03 -0.21052307609E+02  0.27280893423E+03  0.34079504845E+03  0.17200000000E+03 0. -1.
         -6    1    1    2    0  501 -0.10811730109E+03  0.21052307609E+02  0.79024376916E+02  0.21900091917E+03  0.17200000000E+03 0. -1.
</event>
<event>
 4    1  0.1059899E+000  0.2732580E+03  0.7818608E-02  0.1099429E+00
         -3   -1    0    0    0  501 -0.00000000000E+00  0.00000000000E+00  0.38271612566E+03  0.38271612566E+03  0.00000000000E+00 0. -1.
          3   -1    0    0  502    0  0.00000000000E+00 -0.00000000000E+00 -0.30086987483E+03  0.30086987483E+03  0.00000000000E+00 0.  1.
          6    1    1    2  502    0 -0.21200883728E+03 -0.11754371443E+02 -0.16172570345E+03  0.31752970804E+03  0.17200000000E+03 0.  1.
         -6    1    1    2    0  501  0.21200883728E+03  0.11754371443E+02  0.24357195427E+03  0.36605629245E+03  0.17200000000E+03 0. -1.
</event>
<event>
 4    1  0.1059899E+000  0.2145813E+03  0.7818608E-02  0.1137989E+00
         -2   -1    0    0    0  501 -0.00000000000E+00  0.00000000000E+00  0.65273900777E+02  0.65273900777E+02  0.00000000000E+00 0. -1.
          2   -1    0    0  502    0  0.00000000000E+00 -0.00000000000E+00 -0.10700181868E+04  0.10700181868E+04  0.00000000000E+00 0.  1.
          6    1    1    2  502    0  0.83640402347E+02  0.97290331977E+02 -0.83372661917E+03  0.86089790401E+03  0.17200000000E+03 0.  1.
         -6    1    1    2    0  501 -0.83640402347E+02 -0.97290331977E+02 -0.17101766684E+03  0.27439418356E+03  0.17200000000E+03 0. -1.
</event>
<event>
 4    1  0.1059899E+000  0.2376378E+03  0.7818608E-02  0.1121377E+00
         -2   -1    0    0    0  501 -0.00000000000E+00  0.00000000000E+00  0.37834570218E+02  0.37834570218E+02  0.00000000000E+00 0.  1.
          2   -1    0    0  502    0  0.00000000000E+00 -0.00000000000E+00 -0.40734229142E+04  0.40734229142E+04  0.00000000000E+00 0. -1.
          6    1    1    2  502    0  0.16391007026E+03 -0.46063044318E+01 -0.38156410941E+03  0.44951406959E+03  0.17200000000E+03 0.  1.
         -6    1    1    2    0  501 -0.16391007026E+03  0.46063044318E+01 -0.36540242346E+04  0.36617434149E+04  0.17200000000E+03 0. -1.
</event>
<event>
 4    1  0.1059899E+000  0.2045634E+03  0.7818608E-02  0.1145945E+00
         -3   -1    0    0    0  501 -0.00000000000E+00  0.00000000000E+00  0.81759913455E+02  0.81759913455E+02  0.00000000000E+00 0. -1.
          3   -1    0    0  502    0  0.00000000000E+00 -0.00000000000E+00 -0.54866203527E+03  0.54866203527E+03  0.00000000000E+00 0.  1.
          6    1    1    2  502    0 -0.10924535729E+03 -0.18100882215E+02 -0.31513428197E+03  0.37570707433E+03  0.17200000000E+03 0.  1.
         -6    1    1    2    0  501  0.10924535729E+03  0.18100882215E+02 -0.15176783984E+03  0.25471487439E+03  0.17200000000E+03 0. -1.
</event>
<event>
 4    1  0.1059899E+000  0.1858812E+03  0.7818608E-02  0.1162230E+00
          3   -1    0    0  502    0  0.00000000000E+00  0.00000000000E+00  0.43382986088E+02  0.43382986088E+02  0.00000000000E+00 0.  1.
         -3   -1    0    0    0  501 -0.00000000000E+00 -0.00000000000E+00 -0.86418736085E+03  0.86418736085E+03  0.00000000000E+00 0. -1.
          6    1    1    2  502    0  0.62260324106E+02  0.33037256643E+02 -0.28334399545E+03  0.33887405927E+03  0.17200000000E+03 0.  1.
         -6    1    1    2    0  501 -0.62260324106E+02 -0.33037256643E+02 -0.53746037931E+03  0.56869628767E+03  0.17200000000E+03 0. -1.
</event>
<event>
 4    1  0.1059899E+000  0.2734469E+03  0.7818608E-02  0.1099323E+00
          1   -1    0    0  502    0  0.00000000000E+00  0.00000000000E+00  0.10231340030E+04  0.10231340030E+04  0.00000000000E+00 0. -1.
         -1   -1    0    0    0  501 -0.00000000000E+00 -0.00000000000E+00 -0.10189636994E+03  0.10189636994E+03  0.00000000000E+00 0.  1.
          6    1    1    2  502    0  0.20872091623E+03 -0.40308773589E+02  0.75974573021E+03  0.80745699122E+03  0.17200000000E+03 0. -1.
         -6    1    1    2    0  501 -0.20872091623E+03  0.40308773589E+02  0.16149190287E+03  0.31757338175E+03  0.17200000000E+03 0.  1.
</event>
<event>
 4    1  0.1059899E+000  0.1720751E+03  0.7818608E-02  0.1175701E+00
         -3   -1    0    0    0  501 -0.00000000000E+00  0.00000000000E+00  0.93179054661E+02  0.93179054661E+02  0.00000000000E+00 0.  1.
          3   -1    0    0  502    0  0.00000000000E+00 -0.00000000000E+00 -0.34875816178E+03  0.34875816178E+03  0.00000000000E+00 0. -1.
          6    1    1    2  502    0  0.40748082902E+01  0.30370394586E+01 -0.19365266916E+03  0.25905826361E+03  0.17200000000E+03 0. -1.
         -6    1    1    2    0  501 -0.40748082902E+01 -0.30370394586E+01 -0.61926437960E+02  0.18287895283E+03  0.17200000000E+03 0.  1.
</event>
<event>
 4    1  0.1059899E+000  0.3955255E+03  0.7818608E-02  0.1045340E+00
          2   -1    0    0  502    0  0.00000000000E+00  0.00000000000E+00  0.17403349087E+03  0.17403349087E+03  0.00000000000E+00 0. -1.
         -2   -1    0    0    0  501 -0.00000000000E+00 -0.00000000000E+00 -0.10042519180E+04  0.10042519180E+04  0.00000000000E+00 0.  1.
          6    1    1    2  502    0 -0.19898399767E+01  0.35616357752E+03 -0.60591857731E+03  0.72358674376E+03  0.17200000000E+03 0.  1.
         -6    1    1    2    0  501  0.19898399767E+01 -0.35616357752E+03 -0.22429984981E+03  0.45469866510E+03  0.17200000000E+03 0. -1.
</event>
<event>
 4    1  0.1059899E+000  0.1930130E+03  0.7818608E-02  0.1155772E+00
          1   -1    0    0  502    0  0.00000000000E+00  0.00000000000E+00  0.78658989577E+03  0.78658989577E+03  0.00000000000E+00 0.  1.
         -1   -1    0    0    0  501 -0.00000000000E+00 -0.00000000000E+00 -0.63222823887E+02  0.63222823887E+02  0.00000000000E+00 0. -1.
          6    1    1    2  502    0 -0.73424789088E+02  0.47737118308E+02  0.14885650301E+03  0.24374636532E+03  0.17200000000E+03 0. -1.
         -6    1    1    2    0  501  0.73424789088E+02 -0.47737118308E+02  0.57451056887E+03  0.60606635434E+03  0.17200000000E+03 0.  1.
</event>
<event>
 4    1  0.1059899E+000  0.2137497E+03  0.7818608E-02  0.1138631E+00
          1   -1    0    0  502    0  0.00000000000E+00  0.00000000000E+00  0.12815395091E+04  0.12815395091E+04  0.00000000000E+00 0. -1.
         -1   -1    0    0    0  501 -0.00000000000E+00 -0.00000000000E+00 -0.35651748404E+02  0.35651748404E+02  0.00000000000E+00 0.  1.
          6    1    1    2  502    0  0.11975470616E+03  0.41996899413E+02  0.62158349181E+03  0.65730888211E+03  0.17200000000E+03 0.  1.
         -6    1    1    2    0  501 -0.11975470616E+03 -0.41996899413E+02  0.62430426887E+03  0.65988237538E+03  0.17200000000E+03 0.  1.
</event>
<event>
 4    1  0.1059899E+000  0.2046885E+03  0.7818608E-02  0.1145843E+00
          1   -1    0    0  502    0  0.00000000000E+00  0.00000000000E+00  0.81567619174E+03  0.81567619174E+03  0.00000000000E+00 0. -1.
         -1   -1    0    0    0  501 -0.00000000000E+00 -0.00000000000E+00 -0.51494028748E+02  0.51494028748E+02  0.00000000000E+00 0.  1.
          6    1    1    2  502    0 -0.74297166112E+02  0.82421633886E+02  0.40377575666E+03  0.45269444032E+03  0.17200000000E+03 0.  1.
         -6    1    1    2    0  501  0.74297166112E+02 -0.82421633886E+02  0.36040640633E+03  0.41447578017E+03  0.17200000000E+03 0.  1.
</event>
<event>
 4    1  0.1059899E+000  0.1979179E+03  0.7818608E-02  0.1151508E+00
         -2   -1    0    0    0  501 -0.00000000000E+00  0.00000000000E+00  0.14039095950E+03  0.14039095950E+03  0.00000000000E+00 0.  1.
          2   -1    0    0  502    0  0.00000000000E+00 -0.00000000000E+00 -0.28852899055E+03  0.28852899055E+03  0.00000000000E+00 0. -1.
          6    1    1    2  502    0  0.41602533516E+02  0.88638152276E+02 -0.35130212638E+02  0.20101150383E+03  0.17200000000E+03 0.  1.
         -6    1    1    2    0  501 -0.41602533516E+02 -0.88638152276E+02 -0.11300781841E+03  0.22790844621E+03  0.17200000000E+03 0. -1.
</event>
<event>
 4    1  0.1059899E+000  0.2183008E+03  0.7818608E-02  0.1135156E+00
         -1   -1    0    0    0  501 -0.00000000000E+00  0.00000000000E+00  0.18696629017E+02  0.18696629017E+02  0.00000000000E+00 0. -1.
          1   -1    0    0  502    0  0.00000000000E+00 -0.00000000000E+00 -0.38708440773E+04  0.38708440773E+04  0.00000000000E+00 0.  1.
          6    1    1    2  502    0  0.91996673629E+02  0.98019546722E+02 -0.78955273806E+03  0.81917565007E+03  0.17200000000E+03 0. -1.
         -6    1    1    2    0  501 -0.91996673629E+02 -0.98019546722E+02 -0.30625947102E+04  0.30703650562E+04  0.17200000000E+03 0.  1.
</event>
<event>
 4    1  0.1059899E+000  0.2998203E+03  0.7818608E-02  0.1085330E+00
         -2   -1    0    0    0  501 -0.00000000000E+00  0.00000000000E+00  0.41890759911E+02  0.41890759911E+02  0.00000000000E+00 0. -1.
          2   -1    0    0  502    0  0.00000000000E+00 -0.00000000000E+00 -0.25703220705E+04  0.25703220705E+04  0.00000000000E+00 0.  1.
          6    1    1    2  502    0  0.22307380099E+03  0.10269506959E+03 -0.73345560550E+03  0.79236943609E+03  0.17200000000E+03 0. -1.
         -6    1    1    2    0  501 -0.22307380099E+03 -0.10269506959E+03 -0.17949757050E+04  0.18198433943E+04  0.17200000000E+03 0. -1.
</event>
<event>
 4    1  0.1059899E+000  0.1848546E+03  0.7818608E-02  0.1163186E+00
         -1   -1    0    0    0  501 -0.00000000000E+00  0.00000000000E+00  0.64499343899E+03  0.64499343899E+03  0.00000000000E+00 0. -1.
          1   -1    0    0  502    0  0.00000000000E+00 -0.00000000000E+00 -0.58612582067E+02  0.58612582067E+02  0.00000000000E+00 0.  1.
          6    1    1    2  502    0 -0.67708930470E+02  0.16451477488E+01  0.40225672299E+03  0.44269817818E+03  0.17200000000E+03 0.  1.
         -6    1    1    2    0  501  0.67708930470E+02 -0.16451477488E+01  0.18412413394E+03  0.26090784288E+03  0.17200000000E+03 0. -1.
</event>
<event>
 4    1  0.1059899E+000  0.1796517E+03  0.7818608E-02  0.1168141E+00
          1   -1    0    0  502    0  0.00000000000E+00  0.00000000000E+00  0.12753620255E+04  0.12753620255E+04  0.00000000000E+00 0.  1.
         -1   -1    0    0    0  501 -0.00000000000E+00 -0.00000000000E+00 -0.35559855001E+02  0.35559855001E+02  0.00000000000E+00 0. -1.
          6    1    1    2  502    0  0.29389242888E+02  0.42743546694E+02  0.97186920011E+03  0.98833419475E+03  0.17200000000E+03 0.  1.
         -6    1    1    2    0  501 -0.29389242888E+02 -0.42743546694E+02  0.26793297040E+03  0.32258768577E+03  0.17200000000E+03 0. -1.
</event>
<event>
 4    1  0.1059899E+000  0.1736849E+03  0.7818608E-02  0.1174059E+00
         -2   -1    0    0    0  501 -0.00000000000E+00  0.00000000000E+00  0.37664937289E+02  0.37664937289E+02  0.00000000000E+00 0.  1.
          2   -1    0    0  502    0  0.00000000000E+00 -0.00000000000E+00 -0.13779191623E+04  0.13779191623E+04  0.00000000000E+00 0. -1.
          6    1    1    2  502    0  0.76207141830E+01  0.22898772247E+02 -0.21210850153E+03  0.27414675901E+03  0.17200000000E+03 0.  1.
         -6    1    1    2    0  501 -0.76207141830E+01 -0.22898772247E+02 -0.11281457235E+04  0.11414373406E+04  0.17200000000E+03 0. -1.
</event>
<event>
 4    1  0.1059899E+000  0.2244498E+03  0.7818608E-02  0.1130608E+00
         -1   -1    0    0    0  501 -0.00000000000E+00  0.00000000000E+00  0.88521903117E+03  0.88521903117E+03  0.00000000000E+00 0.  1.
          1   -1    0    0  502    0  0.00000000000E+00 -0.00000000000E+00 -0.59855296524E+02  0.59855296524E+02  0.00000000000E+00 0. -1.
          6    1    1    2  502    0 -0.14307178578E+03 -0.18005136619E+02  0.51750497658E+03  0.56408254859E+03  0.17200000000E+03 0.  1.
         -6    1    1    2    0  501  0.14307178578E+03  0.18005136619E+02  0.30785875807E+03  0.38099177911E+03  0.17200000000E+03 0. -1.
</event>
<event>
 4    1  0.1059899E+000  0.1857844E+03  0.7818608E-02  0.1162319E+00
          2   -1    0    0  502    0  0.00000000000E+00  0.00000000000E+00  0.25365470184E+04  0.25365470184E+04  0.00000000000E+00 0.  1.
         -2   -1    0    0    0  501 -0.00000000000E+00 -0.00000000000E+00 -0.15573658365E+02  0.15573658365E+02  0.00000000000E+00 0. -1.
          6    1    1    2  502    0 -0.11716012163E+02 -0.69242849286E+02  0.17139007527E+04  0.17239407262E+04  0.17200000000E+03 0. -1.
         -6    1    1    2    0  501  0.11716012163E+02  0.69242849286E+02  0.80707260734E+03  0.82817995064E+03  0.17200000000E+03 0. -1.
</event>
<event>
 4    1  0.1059899E+000  0.1854078E+03  0.7818608E-02  0.1162670E+00
          2   -1    0    0  502    0  0.00000000000E+00  0.00000000000E+00  0.10465575448E+03  0.10465575448E+03  0.00000000000E+00 0. -1.
         -2   -1    0    0    0  501 -0.00000000000E+00 -0.00000000000E+00 -0.34259907438E+03  0.34259907438E+03  0.00000000000E+00 0.  1.
          6    1    1    2  502    0  0.10070740980E+02 -0.68488316634E+02 -0.16438872899E+03  0.24778967605E+03  0.17200000000E+03 0.  1.
         -6    1    1    2    0  501 -0.10070740980E+02  0.68488316634E+02 -0.73554590912E+02  0.19946515280E+03  0.17200000000E+03 0.  1.
</event>
<event>
 4    1  0.1059899E+000  0.2046131E+03  0.7818608E-02  0.1145904E+00
         -2   -1    0    0    0  501 -0.00000000000E+00  0.00000000000E+00  0.17912900041E+04  0.17912900041E+04  0.00000000000E+00 0.  1.
          2   -1    0    0  502    0  0.00000000000E+00 -0.00000000000E+00 -0.33997377676E+02  0.33997377676E+02  0.00000000000E+00 0. -1.
          6    1    1    2  502    0 -0.79696379045E+02  0.77013135486E+02  0.36844101749E+03  0.42144432519E+03  0.17200000000E+03 0. -1.
         -6    1    1    2    0  501  0.79696379045E+02 -0.77013135486E+02  0.13888516089E+04  0.14038430566E+04  0.17200000000E+03 0.  1.
</event>
<event>
 4    1  0.1059899E+000  0.2263102E+03  0.7818608E-02  0.1129264E+00
         -1   -1    0    0    0  501 -0.00000000000E+00  0.00000000000E+00  0.38937029721E+02  0.38937029721E+02  0.00000000000E+00 0.  1.
          1   -1    0    0  502    0  0.00000000000E+00 -0.00000000000E+00 -0.15964582821E+04  0.15964582821E+04  0.00000000000E+00 0. -1.
          6    1    1    2  502    0 -0.77662883304E+02  0.12490309738E+03 -0.43564447518E+03  0.49091996897E+03  0.17200000000E+03 0.  1.
         -6    1    1    2    0  501  0.77662883304E+02 -0.12490309738E+03 -0.11218767772E+04  0.11444753429E+04  0.17200000000E+03 0. -1.
</event>
<event>
 4    1  0.1059899E+000  0.1792260E+03  0.7818608E-02  0.1168554E+00
         -1   -1    0    0    0  501 -0.00000000000E+00  0.00000000000E+00  0.15982732851E+03  0.15982732851E+03  0.00000000000E+00 0.  1.
          1   -1    0    0  502    0  0.00000000000E+00 -0.00000000000E+00 -0.23218421222E+03  0.23218421222E+03  0.00000000000E+00 0. -1.
          6    1    1    2  502    0 -0.46712664351E+02 -0.18864907891E+02 -0.10803479392E+03  0.20926890466E+03  0.17200000000E+03 0. -1.
         -6    1    1    2    0  501  0.46712664351E+02  0.18864907891E+02  0.35677910212E+02  0.18274263607E+03  0.17200000000E+03 0.  1.
</event>
<event>
 4    1  0.1059899E+000  0.1775384E+03  0.7818608E-02  0.1170207E+00
         -2   -1    0    0    0  501 -0.00000000000E+00  0.00000000000E+00  0.22202611881E+03  0.22202611881E+03  0.00000000000E+00 0. -1.
          2   -1    0    0  502    0  0.00000000000E+00 -0.00000000000E+00 -0.14696811229E+03  0.14696811229E+03  0.00000000000E+00 0.  1.
          6    1    1    2  502    0 -0.42505829961E+02 -0.11363864184E+02  0.71570519264E+02  0.19142158242E+03  0.17200000000E+03 0. -1.
         -6    1    1    2    0  501  0.42505829961E+02  0.11363864184E+02  0.34874872606E+01  0.17757264867E+03  0.17200000000E+03 0. -1.
</event>
<event>
 4    1  0.1059899E+000  0.3283310E+03  0.7818608E-02  0.1071878E+00
         -2   -1    0    0    0  501 -0.00000000000E+00  0.00000000000E+00  0.57114598628E+02  0.57114598628E+02  0.00000000000E+00 0. -1.
          2   -1    0    0  502    0  0.00000000000E+00 -0.00000000000E+00 -0.21219812774E+04  0.21219812774E+04  0.00000000000E+00 0.  1.
          6    1    1    2  502    0 -0.32441373275E+02  0.27778550316E+03 -0.13946525054E+04  0.14327794105E+04  0.17200000000E+03 0.  1.
         -6    1    1    2    0  501  0.32441373275E+02 -0.27778550316E+03 -0.67021417342E+03  0.74631646553E+03  0.17200000000E+03 0.  1.
</event>
<event>
 4    1  0.1059899E+000  0.3060431E+03  0.7818608E-02  0.1082258E+00
         -2   -1    0    0    0  501 -0.00000000000E+00  0.00000000000E+00  0.81475411423E+02  0.81475411423E+02  0.00000000000E+00 0. -1.
          2   -1    0    0  502    0  0.00000000000E+00 -0.00000000000E+00 -0.21469501834E+04  0.21469501834E+04  0.00000000000E+00 0.  1.
          6    1    1    2  502    0  0.23962778523E+03 -0.81589902940E+02 -0.27331104234E+03  0.41031855135E+03  0.17200000000E+03 0. -1.
         -6    1    1    2    0  501 -0.23962778523E+03  0.81589902940E+02 -0.17921637296E+04  0.18181070434E+04  0.17200000000E+03 0.  1.
</event>
<event>
 4    1  0.1059899E+000  0.2968873E+03  0.7818608E-02  0.1086807E+00
          2   -1    0    0  502    0  0.00000000000E+00  0.00000000000E+00  0.22137195757E+04  0.22137195757E+04  0.00000000000E+00 0. -1.
         -2   -1    0    0    0  501 -0.00000000000E+00 -0.00000000000E+00 -0.42644869766E+02  0.42644869766E+02  0.00000000000E+00 0.  1.
          6    1    1    2  502    0  0.13090078598E+03 -0.20352656456E+03  0.79498068522E+03  0.84860848931E+03  0.17200000000E+03 0. -1.
         -6    1    1    2    0  501 -0.13090078598E+03  0.20352656456E+03  0.13760940207E+04  0.14077559561E+04  0.17200000000E+03 0. -1.
</event>
<event>
 4    1  0.1059899E+000  0.1746623E+03  0.7818608E-02  0.1173071E+00
          2   -1    0    0  502    0  0.00000000000E+00  0.00000000000E+00  0.16634491277E+04  0.16634491277E+04  0.00000000000E+00 0.  1.
         -2   -1    0    0    0  501 -0.00000000000E+00 -0.00000000000E+00 -0.23417049205E+02  0.23417049205E+02  0.00000000000E+00 0. -1.
          6    1    1    2  502    0  0.28835742178E+02 -0.95606204120E+01  0.42727203962E+03  0.46159322063E+03  0.17200000000E+03 0. -1.
         -6    1    1    2    0  501 -0.28835742178E+02  0.95606204120E+01  0.12127600389E+04  0.12252729563E+04  0.17200000000E+03 0.  1.
</event>
<event>
 4    1  0.1059899E+000  0.1852950E+03  0.7818608E-02  0.1162775E+00
          1   -1    0    0  502    0  0.00000000000E+00  0.00000000000E+00  0.12000823714E+04  0.12000823714E+04  0.00000000000E+00 0. -1.
         -1   -1    0    0    0  501 -0.00000000000E+00 -0.00000000000E+00 -0.37908094856E+02  0.37908094856E+02  0.00000000000E+00 0.  1.
          6    1    1    2  502    0  0.50113409918E+02 -0.47316670275E+02  0.88765099309E+03  0.90678470801E+03  0.17200000000E+03 0. -1.
         -6    1    1    2    0  501 -0.50113409918E+02  0.47316670275E+02  0.27452328345E+03  0.33120575825E+03  0.17200000000E+03 0.  1.
</event>
<event>
 4    1  0.1059899E+000  0.2009239E+03  0.7818608E-02  0.1148962E+00
         -2   -1    0    0    0  501 -0.00000000000E+00  0.00000000000E+00  0.72922721405E+02  0.72922721405E+02  0.00000000000E+00 0.  1.
          2   -1    0    0  502    0  0.00000000000E+00 -0.00000000000E+00 -0.61168378557E+03  0.61168378557E+03  0.00000000000E+00 0. -1.
          6    1    1    2  502    0 -0.97586484992E+02  0.35542666059E+02 -0.16390413617E+03  0.25929706712E+03  0.17200000000E+03 0. -1.
         -6    1    1    2    0  501  0.97586484992E+02 -0.35542666059E+02 -0.37485692799E+03  0.42530943985E+03  0.17200000000E+03 0. -1.
</event>
<event>
 4    1  0.1059899E+000  0.6914922E+03  0.7818608E-02  0.9731893E-01
         -2   -1    0    0    0  501 -0.00000000000E+00  0.00000000000E+00  0.11800564061E+04  0.11800564061E+04  0.00000000000E+00 0.  1.
          2   -1    0    0  502    0  0.00000000000E+00 -0.00000000000E+00 -0.41792421356E+03  0.41792421356E+03  0.00000000000E+00 0. -1.
          6    1    1    2  502    0  0.38016825428E+03  0.55140693655E+03  0.52046835600E+03  0.86547606601E+03  0.17200000000E+03 0.  1.
         -6    1    1    2    0  501 -0.38016825428E+03 -0.55140693655E+03  0.24166383656E+03  0.73250455367E+03  0.17200000000E+03 0. -1.
</event>
<event>
 4    1  0.1059899E+000  0.1737361E+03  0.7818608E-02  0.1174007E+00
          2   -1    0    0  502    0  0.00000000000E+00  0.00000000000E+00  0.62438196323E+03  0.62438196323E+03  0.00000000000E+00 0. -1.
         -2   -1    0    0    0  501 -0.00000000000E+00 -0.00000000000E+00 -0.49283271829E+02  0.49283271829E+02  0.00000000000E+00 0.  1.
          6    1    1    2  502    0 -0.59054808184E+00  0.24492326151E+02  0.24101296775E+03  0.29710515548E+03  0.17200000000E+03 0.  1.
         -6    1    1    2    0  501  0.59054808184E+00 -0.24492326151E+02  0.33408572365E+03  0.37656007958E+03  0.17200000000E+03 0. -1.
</event>
<event>
 4    1  0.1059899E+000  0.2173888E+03  0.7818608E-02  0.1135845E+00
          1   -1    0    0  502    0  0.00000000000E+00  0.00000000000E+00  0.79303767709E+03  0.79303767709E+03  0.00000000000E+00 0.  1.
         -1   -1    0    0    0  501 -0.00000000000E+00 -0.00000000000E+00 -0.64680501423E+02  0.64680501423E+02  0.00000000000E+00 0. -1.
          6    1    1    2  502    0  0.83451668933E+01  0.13268099794E+03  0.24387832325E+03  0.32670250317E+03  0.17200000000E+03 0. -1.
         -6    1    1    2    0  501 -0.83451668933E+01 -0.13268099794E+03  0.48447885241E+03  0.53101567534E+03  0.17200000000E+03 0.  1.
</event>
<event>
 4    1  0.1059899E+000  0.1935925E+03  0.7818608E-02  0.1155260E+00
          2   -1    0    0  502    0  0.00000000000E+00  0.00000000000E+00  0.73100852013E+03  0.73100852013E+03  0.00000000000E+00 0. -1.
         -2   -1    0    0    0  501 -0.00000000000E+00 -0.00000000000E+00 -0.62247330211E+02  0.62247330211E+02  0.00000000000E+00 0.  1.
          6    1    1    2  502    0 -0.56314598744E+02 -0.68722151774E+02  0.16781270854E+03  0.25620143115E+03  0.17200000000E+03 0.  1.
         -6    1    1    2    0  501  0.56314598744E+02  0.68722151774E+02  0.50094848138E+03  0.53705441919E+03  0.17200000000E+03 0. -1.
</event>
<event>
 4    1  0.1059899E+000  0.2630796E+03  0.7818608E-02  0.1105307E+00
         -2   -1    0    0    0  501 -0.00000000000E+00  0.00000000000E+00  0.94997830813E+02  0.94997830813E+02  0.00000000000E+00 0. -1.
          2   -1    0    0  502    0  0.00000000000E+00 -0.00000000000E+00 -0.10246113177E+04  0.10246113177E+04  0.00000000000E+00 0.  1.
          6    1    1    2  502    0  0.18265311301E+03  0.79149933772E+02 -0.76572334075E+03  0.80965616547E+03  0.17200000000E+03 0.  1.
         -6    1    1    2    0  501 -0.18265311301E+03 -0.79149933772E+02 -0.16389014617E+03  0.30995298308E+03  0.17200000000E+03 0. -1.
</event>
<event>
 4    1  0.1059899E+000  0.1900770E+03  0.7818608E-02  0.1158392E+00
         -1   -1    0    0    0  501 -0.00000000000E+00  0.00000000000E+00  0.12374137895E+03  0.12374137895E+03  0.00000000000E+00 0.  1.
          1   -1    0    0  502    0  0.00000000000E+00 -0.00000000000E+00 -0.30713085159E+03  0.30713085159E+03  0.00000000000E+00 0. -1.
          6    1    1    2  502    0  0.77679481247E+02 -0.22608735275E+02 -0.43835882972E+02  0.19506624863E+03  0.17200000000E+03 0.  1.
         -6    1    1    2    0  501 -0.77679481247E+02  0.22608735275E+02 -0.13955358967E+03  0.23580598191E+03  0.17200000000E+03 0. -1.
</event>
<event>
 4    1  0.1059899E+000  0.2328041E+03  0.7818608E-02  0.1124682E+00
         -1   -1    0    0    0  501 -0.00000000000E+00  0.00000000000E+00  0.23728406124E+02  0.23728406124E+02  0.00000000000E+00 0. -1.
          1   -1    0    0  502    0  0.00000000000E+00 -0.00000000000E+00 -0.22882983804E+04  0.22882983804E+04  0.00000000000E+00 0.  1.
          6    1    1    2  502    0  0.15107610162E+03 -0.42305717159E+02 -0.11818732804E+04  0.12045838340E+04  0.17200000000E+03 0.  1.
         -6    1    1    2    0  501 -0.15107610162E+03  0.42305717159E+02 -0.10826966939E+04  0.11074429525E+04  0.17200000000E+03 0. -1.
</event>
<event>
 4    1  0.1059899E+000  0.2423486E+03  0.7818608E-02  0.1118238E+00
          2   -1    0    0  502    0  0.00000000000E+00  0.00000000000E+00  0.18097652104E+04  0.18097652104E+04  0.00000000000E+00 0.  1.
         -2   -1    0    0    0  501 -0.00000000000E+00 -0.00000000000E+00 -0.63248746195E+02  0.63248746195E+02  0.00000000000E+00 0. -1.
          6    1    1    2  502    0 -0.25245293555E+02  0.16885355731E+03  0.21978421225E+03  0.32716654569E+03  0.17200000000E+03 0. -1.
         -6    1    1    2    0  501  0.25245293555E+02 -0.16885355731E+03  0.15267322520E+04  0.15458474109E+04  0.17200000000E+03 0.  1.
</event>
<event>
 4    1  0.1059899E+000  0.3830691E+03  0.7818608E-02  0.1049805E+00
         -1   -1    0    0    0  501 -0.00000000000E+00  0.00000000000E+00  0.92174507838E+02  0.92174507838E+02  0.00000000000E+00 0. -1.
          1   -1    0    0  502    0  0.00000000000E+00 -0.00000000000E+00 -0.18801104785E+04  0.18801104785E+04  0.00000000000E+00 0.  1.
          6    1    1    2  502    0  0.14502699371E+02  0.34197603249E+03 -0.50793310689E+03  0.63619020439E+03  0.17200000000E+03 0. -1.
         -6    1    1    2    0  501 -0.14502699371E+02 -0.34197603249E+03 -0.12800028638E+04  0.13360947820E+04  0.17200000000E+03 0. -1.
</event>
<event>
 4    1  0.1059899E+000  0.2481072E+03  0.7818608E-02  0.1114507E+00
          2   -1    0    0  502    0  0.00000000000E+00  0.00000000000E+00  0.42322861979E+03  0.42322861979E+03  0.00000000000E+00 0. -1.
         -2   -1    0    0    0  501 -0.00000000000E+00 -0.00000000000E+00 -0.14744860625E+03  0.14744860625E+03  0.00000000000E+00 0.  1.
          6    1    1    2  502    0 -0.48421761875E+02  0.17212932583E+03  0.10464159860E+03  0.26927130555E+03  0.17200000000E+03 0. -1.
         -6    1    1    2    0  501  0.48421761875E+02 -0.17212932583E+03  0.17113841493E+03  0.30140592048E+03  0.17200000000E+03 0.  1.
</event>
<event>
 4    1  0.1059899E+000  0.2315978E+03  0.7818608E-02  0.1125520E+00
         -2   -1    0    0    0  501 -0.00000000000E+00  0.00000000000E+00  0.85820825228E+02  0.85820825228E+02  0.00000000000E+00 0. -1.
          2   -1    0    0  502    0  0.00000000000E+00 -0.00000000000E+00 -0.64566870094E+03  0.64566870094E+03  0.00000000000E+00 0.  1.
          6    1    1    2  502    0 -0.14942999924E+03 -0.41523663508E+02 -0.21447717651E+03  0.31565487252E+03  0.17200000000E+03 0. -1.
         -6    1    1    2    0  501  0.14942999924E+03  0.41523663508E+02 -0.34537069920E+03  0.41583465364E+03  0.17200000000E+03 0. -1.
</event>
<event>
 4    1  0.1059899E+000  0.2026212E+03  0.7818608E-02  0.1147546E+00
          1   -1    0    0  502    0  0.00000000000E+00  0.00000000000E+00  0.37315464866E+03  0.37315464866E+03  0.00000000000E+00 0. -1.
         -1   -1    0    0    0  501 -0.00000000000E+00 -0.00000000000E+00 -0.12275169914E+03  0.12275169914E+03  0.00000000000E+00 0.  1.
          6    1    1    2  502    0  0.50104083194E+02 -0.94662286378E+02  0.45354535777E+02  0.20763526081E+03  0.17200000000E+03 0.  1.
         -6    1    1    2    0  501 -0.50104083194E+02  0.94662286378E+02  0.20504841375E+03  0.28827108699E+03  0.17200000000E+03 0. -1.
</event>
<event>
 4    1  0.1059899E+000  0.1890694E+03  0.7818608E-02  0.1159303E+00
         -1   -1    0    0    0  501 -0.00000000000E+00  0.00000000000E+00  0.21795735756E+03  0.21795735756E+03  0.00000000000E+00 0. -1.
          1   -1    0    0  502    0  0.00000000000E+00 -0.00000000000E+00 -0.16595524689E+03  0.16595524689E+03  0.00000000000E+00 0.  1.
          6    1    1    2  502    0  0.41792261144E+02  0.66457801315E+02  0.52198580430E+01  0.18914142689E+03  0.17200000000E+03 0. -1.
         -6    1    1    2    0  501 -0.41792261144E+02 -0.66457801315E+02  0.46782252622E+02  0.19477117756E+03  0.17200000000E+03 0. -1.
</event>
<event>
 4    1  0.1059899E+000  0.2060783E+03  0.7818608E-02  0.1144710E+00
         -1   -1    0    0    0  501 -0.00000000000E+00  0.00000000000E+00  0.21838375898E+03  0.21838375898E+03  0.00000000000E+00 0.  1.
          1   -1    0    0  502    0  0.00000000000E+00 -0.00000000000E+00 -0.24073342445E+03  0.24073342445E+03  0.00000000000E+00 0. -1.
          6    1    1    2  502    0 -0.20249248510E+02  0.11168814129E+03 -0.11181278571E+03  0.23445761241E+03  0.17200000000E+03 0. -1.
         -6    1    1    2    0  501  0.20249248510E+02 -0.11168814129E+03  0.89463120244E+02  0.22465957103E+03  0.17200000000E+03 0. -1.
</event>
<event>
 4    1  0.1059899E+000  0.1820596E+03  0.7818608E-02  0.1165824E+00
          1   -1    0    0  502    0  0.00000000000E+00  0.00000000000E+00  0.10781200089E+04  0.10781200089E+04  0.00000000000E+00 0. -1.
         -1   -1    0    0    0  501 -0.00000000000E+00 -0.00000000000E+00 -0.30762985465E+02  0.30762985465E+02  0.00000000000E+00 0.  1.
          6    1    1    2  502    0  0.32552214592E+02 -0.50020573434E+02  0.50989900799E+03  0.54142654423E+03  0.17200000000E+03 0. -1.
         -6    1    1    2    0  501 -0.32552214592E+02  0.50020573434E+02  0.53745801548E+03  0.56745645018E+03  0.17200000000E+03 0.  1.
</event>
<event>
 4    1  0.1059899E+000  0.1815495E+03  0.7818608E-02  0.1166312E+00
          1   -1    0    0  502    0  0.00000000000E+00  0.00000000000E+00  0.75099719695E+03  0.75099719695E+03  0.00000000000E+00 0. -1.
         -1   -1    0    0    0  501 -0.00000000000E+00 -0.00000000000E+00 -0.68464801722E+02  0.68464801722E+02  0.00000000000E+00 0.  1.
          6    1    1    2  502    0 -0.14662360385E+02  0.56224878539E+02  0.58674978099E+03  0.61419502381E+03  0.17200000000E+03 0. -1.
         -6    1    1    2    0  501  0.14662360385E+02 -0.56224878539E+02  0.95782614235E+02  0.20526697486E+03  0.17200000000E+03 0.  1.
</event>
<event>
 4    1  0.1059899E+000  0.1783563E+03  0.7818608E-02  0.1169403E+00
          2   -1    0    0  502    0  0.00000000000E+00  0.00000000000E+00  0.46632540447E+03  0.46632540447E+03  0.00000000000E+00 0. -1.
         -2   -1    0    0    0  501 -0.00000000000E+00 -0.00000000000E+00 -0.69528566816E+02  0.69528566816E+02  0.00000000000E+00 0.  1.
          6    1    1    2  502    0 -0.12135728448E+02  0.45603464950E+02  0.16158885141E+03  0.24066970898E+03  0.17200000000E+03 0.  1.
         -6    1    1    2    0  501  0.12135728448E+02 -0.45603464950E+02  0.23520798625E+03  0.29518426231E+03  0.17200000000E+03 0.  1.
</event>
<event>
 4    1  0.1059899E+000  0.2637728E+03  0.7818608E-02  0.1104897E+00
          1   -1    0    0  502    0  0.00000000000E+00  0.00000000000E+00  0.11541453115E+03  0.11541453115E+03  0.00000000000E+00 0. -1.
         -1   -1    0    0    0  501 -0.00000000000E+00 -0.00000000000E+00 -0.66913772255E+03  0.66913772255E+03  0.00000000000E+00 0.  1.
          6    1    1    2  502    0  0.95865911932E+02  0.17550441240E+03 -0.15338192509E+03  0.30512634561E+03  0.17200000000E+03 0. -1.
         -6    1    1    2    0  501 -0.95865911932E+02 -0.17550441240E+03 -0.40034126631E+03  0.47942590810E+03  0.17200000000E+03 0.  1.
</event>
<event>
 4    1  0.1059899E+000  0.2600862E+03  0.7818608E-02  0.1107091E+00
         -2   -1    0    0    0  501 -0.00000000000E+00  0.00000000000E+00  0.85857875134E+02  0.85857875134E+02  0.00000000000E+00 0. -1.
          2   -1    0    0  502    0  0.00000000000E+00 -0.00000000000E+00 -0.93239494101E+03  0.93239494101E+03  0.00000000000E+00 0.  1.
          6    1    1    2  502    0 -0.10147368168E+03  0.16662503083E+03 -0.62371466708E+03  0.67576977951E+03  0.17200000000E+03 0. -1.
         -6    1    1    2    0  501  0.10147368168E+03 -0.16662503083E+03 -0.22282239881E+03  0.34248303664E+03  0.17200000000E+03 0. -1.
</event>
<event>
 4    1  0.1059899E+000  0.1724849E+03  0.7818608E-02  0.1175281E+00
          2   -1    0    0  502    0  0.00000000000E+00  0.00000000000E+00  0.70125931739E+02  0.70125931739E+02  0.00000000000E+00 0.  1.
         -2   -1    0    0    0  501 -0.00000000000E+00 -0.00000000000E+00 -0.10791895309E+04  0.10791895309E+04  0.00000000000E+00 0. -1.
          6    1    1    2  502    0  0.12885209830E+02  0.10026705399E+01 -0.95220437106E+03  0.96770046928E+03  0.17200000000E+03 0. -1.
         -6    1    1    2    0  501 -0.12885209830E+02 -0.10026705399E+01 -0.56859228055E+02  0.18161499331E+03  0.17200000000E+03 0.  1.
</event>
<event>
 4    1  0.1059899E+000  0.1953905E+03  0.7818608E-02  0.1153687E+00
         -2   -1    0    0    0  501 -0.00000000000E+00  0.00000000000E+00  0.60383808525E+02  0.60383808525E+02  0.00000000000E+00 0.  1.
          2   -1    0    0  502    0  0.00000000000E+00 -0.00000000000E+00 -0.12761808501E+04  0.12761808501E+04  0.00000000000E+00 0. -1.
          6    1    1    2  502    0  0.65666235167E+02 -0.65432466539E+02 -0.10826043925E+04  0.11000953289E+04  0.17200000000E+03 0. -1.
         -6    1    1    2    0  501 -0.65666235167E+02  0.65432466539E+02 -0.13319264912E+03  0.23646932972E+03  0.17200000000E+03 0.  1.
</event>
<event>
 4    1  0.1059899E+000  0.1994097E+03  0.7818608E-02  0.1150238E+00
         -2   -1    0    0    0  501 -0.00000000000E+00  0.00000000000E+00  0.65542302665E+02  0.65542302665E+02  0.00000000000E+00 0. -1.
          2   -1    0    0  502    0  0.00000000000E+00 -0.00000000000E+00 -0.11790281848E+04  0.11790281848E+04  0.00000000000E+00 0.  1.
          6    1    1    2  502    0  0.29219810886E+02 -0.96573484345E+02 -0.12318055706E+03  0.23438789402E+03  0.17200000000E+03 0. -1.
         -6    1    1    2    0  501 -0.29219810886E+02  0.96573484345E+02 -0.99030532505E+03  0.10101825934E+04  0.17200000000E+03 0.  1.
</event>
<event>
 4    1  0.1059899E+000  0.1771285E+03  0.7818608E-02  0.1170611E+00
          1   -1    0    0  502    0  0.00000000000E+00  0.00000000000E+00  0.13003632437E+03  0.13003632437E+03  0.00000000000E+00 0.  1.
         -1   -1    0    0    0  501 -0.00000000000E+00 -0.00000000000E+00 -0.26525850939E+03  0.26525850939E+03  0.00000000000E+00 0. -1.
          6    1    1    2  502    0 -0.25216637877E+02  0.33979694454E+02 -0.12704221589E+03  0.21797757472E+03  0.17200000000E+03 0. -1.
         -6    1    1    2    0  501  0.25216637877E+02 -0.33979694454E+02 -0.81799691328E+01  0.17731725905E+03  0.17200000000E+03 0.  1.
</event>
<event>
 4    1  0.1059899E+000  0.2003206E+03  0.7818608E-02  0.1149469E+00
         -2   -1    0    0    0  501 -0.00000000000E+00  0.00000000000E+00  0.90494317569E+02  0.90494317569E+02  0.00000000000E+00 0. -1.
          2   -1    0    0  502    0  0.00000000000E+00 -0.00000000000E+00 -0.79853646253E+03  0.79853646253E+03  0.00000000000E+00 0.  1.
          6    1    1    2  502    0  0.59607513371E+02  0.83613906796E+02 -0.65044666826E+03  0.68059474676E+03  0.17200000000E+03 0.  1.
         -6    1    1    2    0  501 -0.59607513371E+02 -0.83613906796E+02 -0.57595476701E+02  0.20843603334E+03  0.17200000000E+03 0. -1.
</event>
<event>
 4    1  0.1059899E+000  0.1728618E+03  0.7818608E-02  0.1174896E+00
          2   -1    0    0  502    0  0.00000000000E+00  0.00000000000E+00  0.21011563664E+04  0.21011563664E+04  0.00000000000E+00 0. -1.
         -2   -1    0    0    0  501 -0.00000000000E+00 -0.00000000000E+00 -0.15468830419E+02  0.15468830419E+02  0.00000000000E+00 0.  1.
          6    1    1    2  502    0  0.22780349188E+01 -0.17088630331E+02  0.13433876155E+04  0.13544635455E+04  0.17200000000E+03 0. -1.
         -6    1    1    2    0  501 -0.22780349188E+01  0.17088630331E+02  0.74229992053E+03  0.76216165133E+03  0.17200000000E+03 0.  1.
</event>
<event>
 4    1  0.1059899E+000  0.1852141E+03  0.7818608E-02  0.1162850E+00
         -2   -1    0    0    0  501 -0.00000000000E+00  0.00000000000E+00  0.12434094948E+02  0.12434094948E+02  0.00000000000E+00 0. -1.
          2   -1    0    0  502    0  0.00000000000E+00 -0.00000000000E+00 -0.30249951326E+04  0.30249951326E+04  0.00000000000E+00 0.  1.
          6    1    1    2  502    0 -0.49800628217E+02 -0.47330328854E+02 -0.19567267170E+04  0.19654728967E+04  0.17200000000E+03 0.  1.
         -6    1    1    2    0  501  0.49800628217E+02  0.47330328854E+02 -0.10558343206E+04  0.10719563308E+04  0.17200000000E+03 0. -1.
</event>
<event>
 4    1  0.1059899E+000  0.1828157E+03  0.7818608E-02  0.1165106E+00
          2   -1    0    0  502    0  0.00000000000E+00  0.00000000000E+00  0.12453688901E+04  0.12453688901E+04  0.00000000000E+00 0.  1.
         -2   -1    0    0    0  501 -0.00000000000E+00 -0.00000000000E+00 -0.30608987541E+02  0.30608987541E+02  0.00000000000E+00 0. -1.
          6    1    1    2  502    0  0.59845097755E+02 -0.16004286265E+02  0.83135101437E+03  0.85121447473E+03  0.17200000000E+03 0.  1.
         -6    1    1    2    0  501 -0.59845097755E+02  0.16004286265E+02  0.38340888816E+03  0.42476340288E+03  0.17200000000E+03 0. -1.
</event>
<event>
 4    1  0.1059899E+000  0.1795187E+03  0.7818608E-02  0.1168270E+00
         -1   -1    0    0    0  501 -0.00000000000E+00  0.00000000000E+00  0.60196006088E+02  0.60196006088E+02  0.00000000000E+00 0. -1.
          1   -1    0    0  502    0  0.00000000000E+00 -0.00000000000E+00 -0.62346027075E+03  0.62346027075E+03  0.00000000000E+00 0.  1.
          6    1    1    2  502    0 -0.40572083752E+02 -0.31573331804E+02 -0.41012357617E+03  0.44769221234E+03  0.17200000000E+03 0.  1.
         -6    1    1    2    0  501  0.40572083752E+02  0.31573331804E+02 -0.15314068849E+03  0.23596406449E+03  0.17200000000E+03 0. -1.
</event>
<event>
 4    1  0.1059899E+000  0.2351305E+03  0.7818608E-02  0.1123080E+00
         -1   -1    0    0    0  501 -0.00000000000E+00  0.00000000000E+00  0.34181769996E+02  0.34181769996E+02  0.00000000000E+00 0. -1.
          1   -1    0    0  502    0  0.00000000000E+00 -0.00000000000E+00 -0.20017297841E+04  0.20017297841E+04  0.00000000000E+00 0.  1.
          6    1    1    2  502    0  0.73642718999E+02  0.14240470195E+03 -0.14298057183E+04  0.14490102626E+04  0.17200000000E+03 0.  1.
         -6    1    1    2    0  501 -0.73642718999E+02 -0.14240470195E+03 -0.53774229582E+03  0.58690129146E+03  0.17200000000E+03 0. -1.
</event>
<event>
 4    1  0.1059899E+000  0.2738198E+03  0.7818608E-02  0.1099113E+00
         -1   -1    0    0    0  501 -0.00000000000E+00  0.00000000000E+00  0.86447774666E+03  0.86447774666E+03  0.00000000000E+00 0.  1.
          1   -1    0    0  502    0  0.00000000000E+00 -0.00000000000E+00 -0.14675817214E+03  0.14675817214E+03  0.00000000000E+00 0. -1.
          6    1    1    2  502    0 -0.13660020059E+03 -0.16350434500E+03  0.68222565198E+03  0.73512524502E+03  0.17200000000E+03 0.  1.
         -6    1    1    2    0  501  0.13660020059E+03  0.16350434500E+03  0.35493922537E+02  0.27611067378E+03  0.17200000000E+03 0. -1.
</event>
<event>
 4    1  0.1059899E+000  0.2225209E+03  0.7818608E-02  0.1132017E+00
          1   -1    0    0  502    0  0.00000000000E+00  0.00000000000E+00  0.86254946490E+03  0.86254946490E+03  0.00000000000E+00 0. -1.
         -1   -1    0    0    0  501 -0.00000000000E+00 -0.00000000000E+00 -0.61207764258E+02  0.61207764258E+02  0.00000000000E+00 0.  1.
          6    1    1    2  502    0 -0.12978930919E+03 -0.55554287576E+02  0.28556026474E+03  0.36202238666E+03  0.17200000000E+03 0. -1.
         -6    1    1    2    0  501  0.12978930919E+03  0.55554287576E+02  0.51578143591E+03  0.56173484250E+03  0.17200000000E+03 0. -1.
</event>
<event>
 4    1  0.1059899E+000  0.1949801E+03  0.7818608E-02  0.1154045E+00
          1   -1    0    0  502    0  0.00000000000E+00  0.00000000000E+00  0.16958581141E+03  0.16958581141E+03  0.00000000000E+00 0.  1.
         -1   -1    0    0    0  501 -0.00000000000E+00 -0.00000000000E+00 -0.29749129492E+03  0.29749129492E+03  0.00000000000E+00 0. -1.
          6    1    1    2  502    0 -0.38189804661E+02  0.83515022982E+02 -0.17988815203E+03  0.26528657615E+03  0.17200000000E+03 0. -1.
         -6    1    1    2    0  501  0.38189804661E+02 -0.83515022982E+02  0.51982668524E+02  0.20179053018E+03  0.17200000000E+03 0.  1.
</event>
<event>
 4    1  0.1059899E+000  0.1775320E+03  0.7818608E-02  0.1170213E+00
         -2   -1    0    0    0  501 -0.00000000000E+00  0.00000000000E+00  0.83009565799E+03  0.83009565799E+03  0.00000000000E+00 0.  1.
          2   -1    0    0  502    0  0.00000000000E+00 -0.00000000000E+00 -0.42710146053E+02  0.42710146053E+02  0.00000000000E+00 0. -1.
          6    1    1    2  502    0 -0.19023450671E+02  0.39644734063E+02  0.53909818423E+03  0.56757770293E+03  0.17200000000E+03 0.  1.
         -6    1    1    2    0  501  0.19023450671E+02 -0.39644734063E+02  0.24828732771E+03  0.30522810112E+03  0.17200000000E+03 0. -1.
</event>
<event>
 4    1  0.1059899E+000  0.2745258E+03  0.7818608E-02  0.1098717E+00
         -1   -1    0    0    0  501 -0.00000000000E+00  0.00000000000E+00  0.61904263667E+02  0.61904263667E+02  0.00000000000E+00 0.  1.
          1   -1    0    0  502    0  0.00000000000E+00 -0.00000000000E+00 -0.12896067806E+04  0.12896067806E+04  0.00000000000E+00 0. -1.
          6    1    1    2  502    0  0.48996123402E+02  0.20827820085E+03 -0.77371283264E+03  0.82097257959E+03  0.17200000000E+03 0. -1.
         -6    1    1    2    0  501 -0.48996123402E+02 -0.20827820085E+03 -0.45398968434E+03  0.53053846471E+03  0.17200000000E+03 0.  1.
</event>
<event>
 4    1  0.1059899E+000  0.1945495E+03  0.7818608E-02  0.1154421E+00
         -3   -1    0    0    0  501 -0.00000000000E+00  0.00000000000E+00  0.15362522655E+03  0.15362522655E+03  0.00000000000E+00 0. -1.
          3   -1    0    0  502    0  0.00000000000E+00 -0.00000000000E+00 -0.43895926791E+03  0.43895926791E+03  0.00000000000E+00 0.  1.
          6    1    1    2  502    0 -0.78886126223E+02 -0.45193710206E+02 -0.33892079311E+03  0.39078996451E+03  0.17200000000E+03 0.  1.
         -6    1    1    2    0  501  0.78886126223E+02  0.45193710206E+02  0.53586751756E+02  0.20179452995E+03  0.17200000000E+03 0. -1.
</event>
<event>
 4    1  0.1059899E+000  0.1929506E+03  0.7818608E-02  0.1155827E+00
         -2   -1    0    0    0  501 -0.00000000000E+00  0.00000000000E+00  0.69041017170E+02  0.69041017170E+02  0.00000000000E+00 0.  1.
          2   -1    0    0  502    0  0.00000000000E+00 -0.00000000000E+00 -0.54884826009E+03  0.54884826009E+03  0.00000000000E+00 0. -1.
          6    1    1    2  502    0  0.46882757475E+02 -0.73810169676E+02 -0.28077253356E+03  0.34068042165E+03  0.17200000000E+03 0. -1.
         -6    1    1    2    0  501 -0.46882757475E+02  0.73810169676E+02 -0.19903470936E+03  0.27720885561E+03  0.17200000000E+03 0. -1.
</event>
<event>
 4    1  0.1059899E+000  0.1768858E+03  0.7818608E-02  0.1170851E+00
          1   -1    0    0  502    0  0.00000000000E+00  0.00000000000E+00  0.75976663353E+03  0.75976663353E+03  0.00000000000E+00 0.  1.
         -1   -1    0    0    0  501 -0.00000000000E+00 -0.00000000000E+00 -0.45028422006E+02  0.45028422006E+02  0.00000000000E+00 0. -1.
          6    1    1    2  502    0 -0.17496192773E+02  0.37396288709E+02  0.47498028470E+03  0.50684797526E+03  0.17200000000E+03 0.  1.
         -6    1    1    2    0  501  0.17496192773E+02 -0.37396288709E+02  0.23975792682E+03  0.29794708028E+03  0.17200000000E+03 0. -1.
</event>
<event>
 4    1  0.1059899E+000  0.2333770E+03  0.7818608E-02  0.1124285E+00
          1   -1    0    0  502    0  0.00000000000E+00  0.00000000000E+00  0.40705052265E+03  0.40705052265E+03  0.00000000000E+00 0. -1.
         -1   -1    0    0    0  501 -0.00000000000E+00 -0.00000000000E+00 -0.15095303684E+03  0.15095303684E+03  0.00000000000E+00 0.  1.
          6    1    1    2  502    0  0.10587980833E+03 -0.11692003381E+03  0.22208836834E+03  0.32216156113E+03  0.17200000000E+03 0.  1.
         -6    1    1    2    0  501 -0.10587980833E+03  0.11692003381E+03  0.34009117470E+02  0.23584199836E+03  0.17200000000E+03 0.  1.
</event>
<event>
 4    1  0.1059899E+000  0.2046057E+03  0.7818608E-02  0.1145910E+00
         -2   -1    0    0    0  501 -0.00000000000E+00  0.00000000000E+00  0.64434550983E+02  0.64434550983E+02  0.00000000000E+00 0. -1.
          2   -1    0    0  502    0  0.00000000000E+00 -0.00000000000E+00 -0.65079008444E+03  0.65079008444E+03  0.00000000000E+00 0.  1.
          6    1    1    2  502    0 -0.71249615640E+02 -0.84870477835E+02 -0.27858120965E+03  0.34564576680E+03  0.17200000000E+03 0.  1.
         -6    1    1    2    0  501  0.71249615640E+02  0.84870477835E+02 -0.30777432381E+03  0.36957886862E+03  0.17200000000E+03 0.  1.
</event>
<event>
 4    1  0.1059899E+000  0.2801262E+03  0.7818608E-02  0.1095620E+00
         -2   -1    0    0    0  501 -0.00000000000E+00  0.00000000000E+00  0.19491699899E+03  0.19491699899E+03  0.00000000000E+00 0. -1.
          2   -1    0    0  502    0  0.00000000000E+00 -0.00000000000E+00 -0.40360598145E+03  0.40360598145E+03  0.00000000000E+00 0.  1.
          6    1    1    2  502    0  0.16123684339E+03 -0.15129224648E+03 -0.89293081634E+02  0.29401346558E+03  0.17200000000E+03 0.  1.
         -6    1    1    2    0  501 -0.16123684339E+03  0.15129224648E+03 -0.11939590082E+03  0.30450951487E+03  0.17200000000E+03 0. -1.
</event>
<event>
 4    1  0.1059899E+000  0.2423117E+03  0.7818608E-02  0.1118262E+00
          2   -1    0    0  502    0  0.00000000000E+00  0.00000000000E+00  0.20871234139E+04  0.20871234139E+04  0.00000000000E+00 0.  1.
         -2   -1    0    0    0  501 -0.00000000000E+00 -0.00000000000E+00 -0.28670338797E+02  0.28670338797E+02  0.00000000000E+00 0. -1.
          6    1    1    2  502    0 -0.15501962989E+03  0.71413550239E+02  0.88426594893E+03  0.91686490240E+03  0.17200000000E+03 0.  1.
         -6    1    1    2    0  501  0.15501962989E+03 -0.71413550239E+02  0.11741871261E+04  0.11989288503E+04  0.17200000000E+03 0.  1.
</event>
<event>
 4    1  0.1059899E+000  0.4154864E+03  0.7818608E-02  0.1038545E+00
         -1   -1    0    0    0  501 -0.00000000000E+00  0.00000000000E+00  0.52633830856E+02  0.52633830856E+02  0.00000000000E+00 0. -1.
          1   -1    0    0  502    0  0.00000000000E+00 -0.00000000000E+00 -0.33413418179E+04  0.33413418179E+04  0.00000000000E+00 0.  1.
          6    1    1    2  502    0  0.32255758770E+03 -0.19748813169E+03 -0.14140674838E+04  0.14738438888E+04  0.17200000000E+03 0.  1.
         -6    1    1    2    0  501 -0.32255758770E+03  0.19748813169E+03 -0.18746405032E+04  0.19201317600E+04  0.17200000000E+03 0. -1.
</event>
<event>
 4    1  0.1059899E+000  0.2542111E+03  0.7818608E-02  0.1110672E+00
         -1   -1    0    0    0  501 -0.00000000000E+00  0.00000000000E+00  0.10960520810E+03  0.10960520810E+03  0.00000000000E+00 0.  1.
          1   -1    0    0  502    0  0.00000000000E+00 -0.00000000000E+00 -0.60260038329E+03  0.60260038329E+03  0.00000000000E+00 0. -1.
          6    1    1    2  502    0  0.17126782209E+03  0.75542055259E+02 -0.29880134914E+03  0.39230793421E+03  0.17200000000E+03 0.  1.
         -6    1    1    2    0  501 -0.17126782209E+03 -0.75542055259E+02 -0.19419382604E+03  0.31989765718E+03  0.17200000000E+03 0.  1.
</event>
<event>
 4    1  0.1059899E+000  0.6596571E+03  0.7818608E-02  0.9788825E-01
          2   -1    0    0  502    0  0.00000000000E+00  0.00000000000E+00  0.21439923542E+04  0.21439923542E+04  0.00000000000E+00 0. -1.
         -2   -1    0    0    0  501 -0.00000000000E+00 -0.00000000000E+00 -0.24270096336E+03  0.24270096336E+03  0.00000000000E+00 0.  1.
          6    1    1    2  502    0 -0.62802446527E+03  0.10558797398E+03  0.14335296504E+04  0.15780224358E+04  0.17200000000E+03 0. -1.
         -6    1    1    2    0  501  0.62802446527E+03 -0.10558797398E+03  0.46776174044E+03  0.80867088178E+03  0.17200000000E+03 0.  1.
</event>
<event>
 4    1  0.1059899E+000  0.1771278E+03  0.7818608E-02  0.1170612E+00
         -3   -1    0    0    0  501 -0.00000000000E+00  0.00000000000E+00  0.32212081121E+03  0.32212081121E+03  0.00000000000E+00 0.  1.
          3   -1    0    0  502    0  0.00000000000E+00 -0.00000000000E+00 -0.16193554701E+03  0.16193554701E+03  0.00000000000E+00 0. -1.
          6    1    1    2  502    0  0.17946747793E+02  0.38316681783E+02 -0.72698309015E+02  0.19146617976E+03  0.17200000000E+03 0. -1.
         -6    1    1    2    0  501 -0.17946747793E+02 -0.38316681783E+02  0.23288357321E+03  0.29259017846E+03  0.17200000000E+03 0.  1.
</event>
<event>
 4    1  0.1059899E+000  0.2626783E+03  0.7818608E-02  0.1105545E+00
         -2   -1    0    0    0  501 -0.00000000000E+00  0.00000000000E+00  0.55402754316E+02  0.55402754316E+02  0.00000000000E+00 0.  1.
          2   -1    0    0  502    0  0.00000000000E+00 -0.00000000000E+00 -0.13512638148E+04  0.13512638148E+04  0.00000000000E+00 0. -1.
          6    1    1    2  502    0 -0.19844231780E+03 -0.60432025823E+01 -0.84477233567E+03  0.88466952751E+03  0.17200000000E+03 0. -1.
         -6    1    1    2    0  501  0.19844231780E+03  0.60432025823E+01 -0.45108872481E+03  0.52199704160E+03  0.17200000000E+03 0. -1.
</event>
<event>
 4    1  0.1059899E+000  0.2646695E+03  0.7818608E-02  0.1104370E+00
          2   -1    0    0  502    0  0.00000000000E+00  0.00000000000E+00  0.62357685827E+03  0.62357685827E+03  0.00000000000E+00 0. -1.
         -2   -1    0    0    0  501 -0.00000000000E+00 -0.00000000000E+00 -0.11240900758E+03  0.11240900758E+03  0.00000000000E+00 0.  1.
          6    1    1    2  502    0 -0.17639383212E+03 -0.96701404991E+02  0.26498115350E+03  0.37451963560E+03  0.17200000000E+03 0.  1.
         -6    1    1    2    0  501  0.17639383212E+03  0.96701404991E+02  0.24618669719E+03  0.36146623025E+03  0.17200000000E+03 0. -1.
</event>
<event>
 4    1  0.1059899E+000  0.3814911E+03  0.7818608E-02  0.1050384E+00
          3   -1    0    0  502    0  0.00000000000E+00  0.00000000000E+00  0.11606772913E+04  0.11606772913E+04  0.00000000000E+00 0.  1.
         -3   -1    0    0    0  501 -0.00000000000E+00 -0.00000000000E+00 -0.16363770861E+03  0.16363770861E+03  0.00000000000E+00 0. -1.
          6    1    1    2  502    0 -0.20002602793E+03 -0.27557403079E+03  0.17838604857E+03  0.42113779292E+03  0.17200000000E+03 0. -1.
         -6    1    1    2    0  501  0.20002602793E+03  0.27557403079E+03  0.81865353416E+03  0.90317720702E+03  0.17200000000E+03 0. -1.
</event>
<event>
 4    1  0.1059899E+000  0.1769585E+03  0.7818608E-02  0.1170779E+00
          2   -1    0    0  502    0  0.00000000000E+00  0.00000000000E+00  0.20175407173E+04  0.20175407173E+04  0.00000000000E+00 0. -1.
         -2   -1    0    0    0  501 -0.00000000000E+00 -0.00000000000E+00 -0.16176595417E+02  0.16176595417E+02  0.00000000000E+00 0.  1.
          6    1    1    2  502    0 -0.10835060144E+02 -0.40161190516E+02  0.12053847015E+04  0.12183048052E+04  0.17200000000E+03 0. -1.
         -6    1    1    2    0  501  0.10835060144E+02  0.40161190516E+02  0.79597942041E+03  0.81541250755E+03  0.17200000000E+03 0. -1.
</event>
<event>
 4    1  0.1059899E+000  0.2138665E+03  0.7818608E-02  0.1138540E+00
          1   -1    0    0  502    0  0.00000000000E+00  0.00000000000E+00  0.78614370587E+03  0.78614370587E+03  0.00000000000E+00 0.  1.
         -1   -1    0    0    0  501 -0.00000000000E+00 -0.00000000000E+00 -0.76286579490E+02  0.76286579490E+02  0.00000000000E+00 0. -1.
          6    1    1    2  502    0 -0.12678443945E+03  0.89764273320E+01  0.56500262546E+03  0.60412485225E+03  0.17200000000E+03 0.  1.
         -6    1    1    2    0  501  0.12678443945E+03 -0.89764273320E+01  0.14485450092E+03  0.25830543311E+03  0.17200000000E+03 0. -1.
</event>
<event>
 4    1  0.1059899E+000  0.1943363E+03  0.7818608E-02  0.1154607E+00
         -2   -1    0    0    0  501 -0.00000000000E+00  0.00000000000E+00  0.55436200685E+03  0.55436200685E+03  0.00000000000E+00 0. -1.
          2   -1    0    0  502    0  0.00000000000E+00 -0.00000000000E+00 -0.87111528835E+02  0.87111528835E+02  0.00000000000E+00 0.  1.
          6    1    1    2  502    0 -0.62774170108E+02  0.65130581155E+02  0.38335900337E+03  0.42980311132E+03  0.17200000000E+03 0. -1.
         -6    1    1    2    0  501  0.62774170108E+02 -0.65130581155E+02  0.83891474650E+02  0.21167042437E+03  0.17200000000E+03 0.  1.
</event>
<event>
 4    1  0.1059899E+000  0.1830818E+03  0.7818608E-02  0.1164853E+00
          2   -1    0    0  502    0  0.00000000000E+00  0.00000000000E+00  0.24100433462E+03  0.24100433462E+03  0.00000000000E+00 0. -1.
         -2   -1    0    0    0  501 -0.00000000000E+00 -0.00000000000E+00 -0.14825728154E+03  0.14825728154E+03  0.00000000000E+00 0.  1.
          6    1    1    2  502    0 -0.51141404412E+02  0.36325133444E+02  0.94796690687E+02  0.20616830777E+03  0.17200000000E+03 0. -1.
         -6    1    1    2    0  501  0.51141404412E+02 -0.36325133444E+02 -0.20496376075E+01  0.18309330840E+03  0.17200000000E+03 0. -1.
</event>
<event>
 4    1  0.1059899E+000  0.5238723E+03  0.7818608E-02  0.1007729E+00
         -2   -1    0    0    0  501 -0.00000000000E+00  0.00000000000E+00  0.33362559154E+03  0.33362559154E+03  0.00000000000E+00 0. -1.
          2   -1    0    0  502    0  0.00000000000E+00 -0.00000000000E+00 -0.88469099916E+03  0.88469099916E+03  0.00000000000E+00 0.  1.
          6    1    1    2  502    0  0.44411121088E+03  0.21822790477E+03 -0.43690540960E+03  0.68214992706E+03  0.17200000000E+03 0. -1.
         -6    1    1    2    0  501 -0.44411121088E+03 -0.21822790477E+03 -0.11415999802E+03  0.53616666364E+03  0.17200000000E+03 0.  1.
</event>
<event>
 4    1  0.1059899E+000  0.2150885E+03  0.7818608E-02  0.1137599E+00
         -2   -1    0    0    0  501 -0.00000000000E+00  0.00000000000E+00  0.28224983224E+03  0.28224983224E+03  0.00000000000E+00 0. -1.
          2   -1    0    0  502    0  0.00000000000E+00 -0.00000000000E+00 -0.16407107991E+03  0.16407107991E+03  0.00000000000E+00 0.  1.
          6    1    1    2  502    0 -0.28500055887E+02  0.12596359123E+03  0.66119323582E+02  0.22502187549E+03  0.17200000000E+03 0.  1.
         -6    1    1    2    0  501  0.28500055887E+02 -0.12596359123E+03  0.52059428748E+02  0.22129903665E+03  0.17200000000E+03 0.  1.
</event>
<event>
 4    1  0.1059899E+000  0.2053375E+03  0.7818608E-02  0.1145312E+00
         -1   -1    0    0    0  501 -0.00000000000E+00  0.00000000000E+00  0.12457038249E+03  0.12457038249E+03  0.00000000000E+00 0. -1.
          1   -1    0    0  502    0  0.00000000000E+00 -0.00000000000E+00 -0.34795344353E+03  0.34795344353E+03  0.00000000000E+00 0.  1.
          6    1    1    2  502    0 -0.11214425936E+03  0.17755461368E+01 -0.15069368372E+03  0.25469996817E+03  0.17200000000E+03 0.  1.
         -6    1    1    2    0  501  0.11214425936E+03 -0.17755461368E+01 -0.72689377323E+02  0.21782385785E+03  0.17200000000E+03 0. -1.
</event>
<event>
 4    1  0.1059899E+000  0.1756679E+03  0.7818608E-02  0.1172063E+00
          2   -1    0    0  502    0  0.00000000000E+00  0.00000000000E+00  0.24696964416E+03  0.24696964416E+03  0.00000000000E+00 0. -1.
         -2   -1    0    0    0  501 -0.00000000000E+00 -0.00000000000E+00 -0.19866709212E+03  0.19866709212E+03  0.00000000000E+00 0.  1.
          6    1    1    2  502    0 -0.40995473050E+01  0.35473820137E+02  0.15987883867E+03  0.23752987445E+03  0.17200000000E+03 0. -1.
         -6    1    1    2    0  501  0.40995473050E+01 -0.35473820137E+02 -0.11157628663E+03  0.20810686183E+03  0.17200000000E+03 0.  1.
</event>
<event>
 4    1  0.1059899E+000  0.1986150E+03  0.7818608E-02  0.1150913E+00
          2   -1    0    0  502    0  0.00000000000E+00  0.00000000000E+00  0.18589237927E+04  0.18589237927E+04  0.00000000000E+00 0.  1.
         -2   -1    0    0    0  501 -0.00000000000E+00 -0.00000000000E+00 -0.21287773024E+02  0.21287773024E+02  0.00000000000E+00 0. -1.
          6    1    1    2  502    0 -0.97641576548E+02 -0.18167078950E+02  0.86610241977E+03  0.88858388561E+03  0.17200000000E+03 0. -1.
         -6    1    1    2    0  501  0.97641576548E+02  0.18167078950E+02  0.97153359988E+03  0.99162768009E+03  0.17200000000E+03 0.  1.
</event>
<event>
 4    1  0.1059899E+000  0.1752567E+03  0.7818608E-02  0.1172474E+00
         -2   -1    0    0    0  501 -0.00000000000E+00  0.00000000000E+00  0.64855682673E+02  0.64855682673E+02  0.00000000000E+00 0.  1.
          2   -1    0    0  502    0  0.00000000000E+00 -0.00000000000E+00 -0.54898263809E+03  0.54898263809E+03  0.00000000000E+00 0. -1.
          6    1    1    2  502    0 -0.97856350672E+01  0.32173528752E+02 -0.35580367298E+03  0.39662469453E+03  0.17200000000E+03 0. -1.
         -6    1    1    2    0  501  0.97856350672E+01 -0.32173528752E+02 -0.12832328244E+03  0.21721362624E+03  0.17200000000E+03 0.  1.
</event>
<event>
 4    1  0.1059899E+000  0.2411510E+03  0.7818608E-02  0.1119028E+00
          1   -1    0    0  502    0  0.00000000000E+00  0.00000000000E+00  0.65947620852E+03  0.65947620852E+03  0.00000000000E+00 0. -1.
         -1   -1    0    0    0  501 -0.00000000000E+00 -0.00000000000E+00 -0.13211210841E+03  0.13211210841E+03  0.00000000000E+00 0.  1.
          6    1    1    2  502    0  0.15526528513E+03 -0.66801968281E+02  0.49191592300E+03  0.54784586065E+03  0.17200000000E+03 0.  1.
         -6    1    1    2    0  501 -0.15526528513E+03  0.66801968281E+02  0.35448177116E+02  0.24374245628E+03  0.17200000000E+03 0.  1.
</event>
<event>
 4    1  0.1059899E+000  0.1871448E+03  0.7818608E-02  0.1161062E+00
          1   -1    0    0  502    0  0.00000000000E+00  0.00000000000E+00  0.78586285678E+02  0.78586285678E+02  0.00000000000E+00 0. -1.
         -1   -1    0    0    0  501 -0.00000000000E+00 -0.00000000000E+00 -0.44737711793E+03  0.44737711793E+03  0.00000000000E+00 0.  1.
          6    1    1    2  502    0  0.29923920810E+02  0.67407211034E+02 -0.20066323966E+03  0.27438824481E+03  0.17200000000E+03 0. -1.
         -6    1    1    2    0  501 -0.29923920810E+02 -0.67407211034E+02 -0.16812759259E+03  0.25157515880E+03  0.17200000000E+03 0. -1.
</event>
<event>
 4    1  0.1059899E+000  0.2686701E+03  0.7818608E-02  0.1102043E+00
          2   -1    0    0  502    0  0.00000000000E+00  0.00000000000E+00  0.17659059006E+04  0.17659059006E+04  0.00000000000E+00 0.  1.
         -2   -1    0    0    0  501 -0.00000000000E+00 -0.00000000000E+00 -0.41815021247E+02  0.41815021247E+02  0.00000000000E+00 0. -1.
          6    1    1    2  502    0  0.46174565349E+02 -0.20116549943E+03  0.99747397945E+03  0.10330237114E+04  0.17200000000E+03 0.  1.
         -6    1    1    2    0  501 -0.46174565349E+02  0.20116549943E+03  0.72661689993E+03  0.77469721047E+03  0.17200000000E+03 0. -1.
</event>
<event>
 4    1  0.1059899E+000  0.1755716E+03  0.7818608E-02  0.1172159E+00
          1   -1    0    0  502    0  0.00000000000E+00  0.00000000000E+00  0.61116847070E+02  0.61116847070E+02  0.00000000000E+00 0. -1.
         -1   -1    0    0    0  501 -0.00000000000E+00 -0.00000000000E+00 -0.51711219085E+03  0.51711219085E+03  0.00000000000E+00 0.  1.
          6    1    1    2  502    0 -0.96334435394E+01 -0.33890501655E+02 -0.27338526532E+03  0.32490748319E+03  0.17200000000E+03 0.  1.
         -6    1    1    2    0  501  0.96334435394E+01  0.33890501655E+02 -0.18261007845E+03  0.25332155473E+03  0.17200000000E+03 0. -1.
</event>
<event>
 4    1  0.1059899E+000  0.1739642E+03  0.7818608E-02  0.1173776E+00
         -1   -1    0    0    0  501 -0.00000000000E+00  0.00000000000E+00  0.19519623659E+02  0.19519623659E+02  0.00000000000E+00 0. -1.
          1   -1    0    0  502    0  0.00000000000E+00 -0.00000000000E+00 -0.23086099402E+04  0.23086099402E+04  0.00000000000E+00 0.  1.
          6    1    1    2  502    0 -0.32743757301E+01 -0.25861339644E+02 -0.47744334970E+03  0.50814927196E+03  0.17200000000E+03 0. -1.
         -6    1    1    2    0  501  0.32743757301E+01  0.25861339644E+02 -0.18116469668E+04  0.18199802919E+04  0.17200000000E+03 0.  1.
</event>
<event>
 4    1  0.1059899E+000  0.2203768E+03  0.7818608E-02  0.1133602E+00
          1   -1    0    0  502    0  0.00000000000E+00  0.00000000000E+00  0.11490827505E+04  0.11490827505E+04  0.00000000000E+00 0.  1.
         -1   -1    0    0    0  501 -0.00000000000E+00 -0.00000000000E+00 -0.44808021596E+02  0.44808021596E+02  0.00000000000E+00 0. -1.
          6    1    1    2  502    0  0.36603919206E+01 -0.13772633596E+03  0.69434887156E+03  0.72848218751E+03  0.17200000000E+03 0.  1.
         -6    1    1    2    0  501 -0.36603919206E+01  0.13772633596E+03  0.40992585733E+03  0.46540858457E+03  0.17200000000E+03 0. -1.
</event>
<event>
 4    1  0.1059899E+000  0.2984390E+03  0.7818608E-02  0.1086024E+00
          2   -1    0    0  502    0  0.00000000000E+00  0.00000000000E+00  0.25768319705E+04  0.25768319705E+04  0.00000000000E+00 0. -1.
         -2   -1    0    0    0  501 -0.00000000000E+00 -0.00000000000E+00 -0.36991180477E+02  0.36991180477E+02  0.00000000000E+00 0.  1.
          6    1    1    2  502    0  0.16796856397E+03 -0.17682877671E+03  0.16046853609E+04  0.16322012628E+04  0.17200000000E+03 0. -1.
         -6    1    1    2    0  501 -0.16796856397E+03  0.17682877671E+03  0.93515542913E+03  0.98162188820E+03  0.17200000000E+03 0.  1.
</event>
<event>
 4    1  0.1059899E+000  0.2094380E+03  0.7818608E-02  0.1142012E+00
         -3   -1    0    0    0  501 -0.00000000000E+00  0.00000000000E+00  0.62446790583E+02  0.62446790583E+02  0.00000000000E+00 0. -1.
          3   -1    0    0  502    0  0.00000000000E+00 -0.00000000000E+00 -0.71315882376E+03  0.71315882376E+03  0.00000000000E+00 0.  1.
          6    1    1    2  502    0  0.37606101538E+02 -0.11342871615E+03 -0.37292904748E+03  0.42771528728E+03  0.17200000000E+03 0.  1.
         -6    1    1    2    0  501 -0.37606101538E+02  0.11342871615E+03 -0.27778298569E+03  0.34789032706E+03  0.17200000000E+03 0. -1.
</event>
<event>
 4    1  0.1059899E+000  0.1980785E+03  0.7818608E-02  0.1151370E+00
         -4   -1    0    0    0  501 -0.00000000000E+00  0.00000000000E+00  0.74510601048E+03  0.74510601048E+03  0.00000000000E+00 0.  1.
          4   -1    0    0  502    0  0.00000000000E+00 -0.00000000000E+00 -0.67148667860E+02  0.67148667860E+02  0.00000000000E+00 0. -1.
          6    1    1    2  502    0 -0.98146833363E+02 -0.42771576826E+01  0.15030914892E+03  0.24865223752E+03  0.17200000000E+03 0. -1.
         -6    1    1    2    0  501  0.98146833363E+02  0.42771576826E+01  0.52764819371E+03  0.56360244082E+03  0.17200000000E+03 0.  1.
</event>
<event>
 4    1  0.1059899E+000  0.1936974E+03  0.7818608E-02  0.1155168E+00
          1   -1    0    0  502    0  0.00000000000E+00  0.00000000000E+00  0.94773505934E+03  0.94773505934E+03  0.00000000000E+00 0.  1.
         -1   -1    0    0    0  501 -0.00000000000E+00 -0.00000000000E+00 -0.89554208563E+02  0.89554208563E+02  0.00000000000E+00 0. -1.
          6    1    1    2  502    0  0.76027203110E+02  0.46417106393E+02  0.81649633678E+03  0.83915728642E+03  0.17200000000E+03 0.  1.
         -6    1    1    2    0  501 -0.76027203110E+02 -0.46417106393E+02  0.41684513998E+02  0.19813198148E+03  0.17200000000E+03 0. -1.
</event>
<event>
 4    1  0.1059899E+000  0.2547941E+03  0.7818608E-02  0.1110312E+00
          3   -1    0    0  502    0  0.00000000000E+00  0.00000000000E+00  0.15871738535E+03  0.15871738535E+03  0.00000000000E+00 0. -1.
         -3   -1    0    0    0  501 -0.00000000000E+00 -0.00000000000E+00 -0.46350777193E+03  0.46350777193E+03  0.00000000000E+00 0.  1.
          6    1    1    2  502    0 -0.18788275781E+03 -0.60102207156E+01 -0.25905522527E+03  0.36335886280E+03  0.17200000000E+03 0.  1.
         -6    1    1    2    0  501  0.18788275781E+03  0.60102207156E+01 -0.45735161307E+02  0.25886629447E+03  0.17200000000E+03 0. -1.
</event>
<event>
 4    1  0.1059899E+000  0.3351359E+03  0.7818608E-02  0.1068887E+00
         -2   -1    0    0    0  501 -0.00000000000E+00  0.00000000000E+00  0.83661288942E+02  0.83661288942E+02  0.00000000000E+00 0.  1.
          2   -1    0    0  502    0  0.00000000000E+00 -0.00000000000E+00 -0.18324377368E+04  0.18324377368E+04  0.00000000000E+00 0. -1.
          6    1    1    2  502    0  0.25882209390E+03  0.12547200204E+03 -0.37900710824E+03  0.50592735416E+03  0.17200000000E+03 0.  1.
         -6    1    1    2    0  501 -0.25882209390E+03 -0.12547200204E+03 -0.13697693396E+04  0.14101716716E+04  0.17200000000E+03 0. -1.
</event>
<event>
 4    1  0.1059899E+000  0.1970387E+03  0.7818608E-02  0.1152262E+00
         -4   -1    0    0    0  501 -0.00000000000E+00  0.00000000000E+00  0.27619175073E+04  0.27619175073E+04  0.00000000000E+00 0.  1.
          4   -1    0    0  502    0  0.00000000000E+00 -0.00000000000E+00 -0.20405557217E+02  0.20405557217E+02  0.00000000000E+00 0. -1.
          6    1    1    2  502    0 -0.80874303134E+02  0.51957612843E+02  0.59479264838E+03  0.62658003560E+03  0.17200000000E+03 0. -1.
         -6    1    1    2    0  501  0.80874303134E+02 -0.51957612843E+02  0.21467193017E+04  0.21557430290E+04  0.17200000000E+03 0.  1.
</event>
<event>
 4    1  0.1059899E+000  0.1729645E+03  0.7818608E-02  0.1174791E+00
          2   -1    0    0  502    0  0.00000000000E+00  0.00000000000E+00  0.30439233519E+03  0.30439233519E+03  0.00000000000E+00 0.  1.
         -2   -1    0    0    0  501 -0.00000000000E+00 -0.00000000000E+00 -0.10015130782E+03  0.10015130782E+03  0.00000000000E+00 0. -1.
          6    1    1    2  502    0 -0.16470540087E+02 -0.78377840354E+01  0.74496527109E+02  0.18832536234E+03  0.17200000000E+03 0.  1.
         -6    1    1    2    0  501  0.16470540087E+02  0.78377840354E+01  0.12974450025E+03  0.21621828067E+03  0.17200000000E+03 0.  1.
</event>
<event>
 4    1  0.1059899E+000  0.2266419E+03  0.7818608E-02  0.1129026E+00
          2   -1    0    0  502    0  0.00000000000E+00  0.00000000000E+00  0.18015554235E+04  0.18015554235E+04  0.00000000000E+00 0.  1.
         -2   -1    0    0    0  501 -0.00000000000E+00 -0.00000000000E+00 -0.68609118057E+02  0.68609118057E+02  0.00000000000E+00 0. -1.
          6    1    1    2  502    0 -0.74825856644E+02 -0.12721498063E+03  0.15162525428E+03  0.27268439239E+03  0.17200000000E+03 0. -1.
         -6    1    1    2    0  501  0.74825856644E+02  0.12721498063E+03  0.15813210512E+04  0.15974801492E+04  0.17200000000E+03 0.  1.
</event>
<event>
 4    1  0.1059899E+000  0.3068210E+03  0.7818608E-02  0.1081880E+00
          2   -1    0    0  502    0  0.00000000000E+00  0.00000000000E+00  0.49474106569E+03  0.49474106569E+03  0.00000000000E+00 0.  1.
         -2   -1    0    0    0  501 -0.00000000000E+00 -0.00000000000E+00 -0.19474021530E+03  0.19474021530E+03  0.00000000000E+00 0. -1.
          6    1    1    2  502    0 -0.25797662868E+02  0.25276387696E+03  0.20217579161E+03  0.36744271338E+03  0.17200000000E+03 0.  1.
         -6    1    1    2    0  501  0.25797662868E+02 -0.25276387696E+03  0.97825058780E+02  0.32203856761E+03  0.17200000000E+03 0.  1.
</event>
<event>
 4    1  0.1059899E+000  0.4450745E+03  0.7818608E-02  0.1029201E+00
         -4   -1    0    0    0  501 -0.00000000000E+00  0.00000000000E+00  0.15606132164E+04  0.15606132164E+04  0.00000000000E+00 0. -1.
          4   -1    0    0  502    0  0.00000000000E+00 -0.00000000000E+00 -0.20360908048E+03  0.20360908048E+03  0.00000000000E+00 0.  1.
          6    1    1    2  502    0 -0.19047099864E+03  0.36363179177E+03  0.12198274446E+04  0.12984876880E+04  0.17200000000E+03 0. -1.
         -6    1    1    2    0  501  0.19047099864E+03 -0.36363179177E+03  0.13717669138E+03  0.46573460894E+03  0.17200000000E+03 0. -1.
</event>
<event>
 4    1  0.1059899E+000  0.2301442E+03  0.7818608E-02  0.1126538E+00
         -2   -1    0    0    0  501 -0.00000000000E+00  0.00000000000E+00  0.19028013223E+03  0.19028013223E+03  0.00000000000E+00 0. -1.
          2   -1    0    0  502    0  0.00000000000E+00 -0.00000000000E+00 -0.53188729052E+03  0.53188729052E+03  0.00000000000E+00 0.  1.
          6    1    1    2  502    0 -0.83663034664E+02 -0.12799544489E+03  0.78489734455E+02  0.24316039089E+03  0.17200000000E+03 0. -1.
         -6    1    1    2    0  501  0.83663034664E+02  0.12799544489E+03 -0.42009689275E+03  0.47900703187E+03  0.17200000000E+03 0.  1.
</event>
<event>
 4    1  0.1059899E+000  0.1911272E+03  0.7818608E-02  0.1157449E+00
          2   -1    0    0  502    0  0.00000000000E+00  0.00000000000E+00  0.40659206930E+04  0.40659206930E+04  0.00000000000E+00 0.  1.
         -2   -1    0    0    0  501 -0.00000000000E+00 -0.00000000000E+00 -0.11278012912E+02  0.11278012912E+02  0.00000000000E+00 0. -1.
          6    1    1    2  502    0 -0.34336997068E+02  0.75937995932E+02  0.29466725567E+04  0.29528645016E+04  0.17200000000E+03 0.  1.
         -6    1    1    2    0  501  0.34336997068E+02 -0.75937995932E+02  0.11079701234E+04  0.11243342043E+04  0.17200000000E+03 0. -1.
</event>
<event>
 4    1  0.1059899E+000  0.3008901E+03  0.7818608E-02  0.1084797E+00
          4   -1    0    0  502    0  0.00000000000E+00  0.00000000000E+00  0.30370361271E+03  0.30370361271E+03  0.00000000000E+00 0.  1.
         -4   -1    0    0    0  501 -0.00000000000E+00 -0.00000000000E+00 -0.61708144117E+03  0.61708144117E+03  0.00000000000E+00 0. -1.
          6    1    1    2  502    0 -0.94774529266E+02 -0.22796631931E+03  0.17431865242E+03  0.34773818703E+03  0.17200000000E+03 0.  1.
         -6    1    1    2    0  501  0.94774529266E+02  0.22796631931E+03 -0.48769648088E+03  0.57304686684E+03  0.17200000000E+03 0. -1.
</event>
<event>
 4    1  0.1059899E+000  0.1839995E+03  0.7818608E-02  0.1163988E+00
          4   -1    0    0  502    0  0.00000000000E+00  0.00000000000E+00  0.49049143842E+03  0.49049143842E+03  0.00000000000E+00 0.  1.
         -4   -1    0    0    0  501 -0.00000000000E+00 -0.00000000000E+00 -0.14880135279E+03  0.14880135279E+03  0.00000000000E+00 0. -1.
          6    1    1    2  502    0  0.38498737048E+02  0.52817173773E+02  0.40489333998E+03  0.44474084966E+03  0.17200000000E+03 0.  1.
         -6    1    1    2    0  501 -0.38498737048E+02 -0.52817173773E+02 -0.63203254344E+02  0.19455194155E+03  0.17200000000E+03 0. -1.
</event>
<event>
 4    1  0.1059899E+000  0.3803348E+03  0.7818608E-02  0.1050810E+00
         -1   -1    0    0    0  501 -0.00000000000E+00  0.00000000000E+00  0.85850605338E+03  0.85850605338E+03  0.00000000000E+00 0. -1.
          1   -1    0    0  502    0  0.00000000000E+00 -0.00000000000E+00 -0.21378953204E+03  0.21378953204E+03  0.00000000000E+00 0.  1.
          6    1    1    2  502    0 -0.33920881744E+03 -0.28151398424E+01  0.56913885907E+03  0.68452435147E+03  0.17200000000E+03 0. -1.
         -6    1    1    2    0  501  0.33920881744E+03  0.28151398424E+01  0.75577662268E+02  0.38777123395E+03  0.17200000000E+03 0.  1.
</event>
<event>
 4    1  0.1059899E+000  0.1987127E+03  0.7818608E-02  0.1150830E+00
          2   -1    0    0  502    0  0.00000000000E+00  0.00000000000E+00  0.16509801414E+04  0.16509801414E+04  0.00000000000E+00 0.  1.
         -2   -1    0    0    0  501 -0.00000000000E+00 -0.00000000000E+00 -0.34794252045E+02  0.34794252045E+02  0.00000000000E+00 0. -1.
          6    1    1    2  502    0 -0.34720500165E+02 -0.93258997843E+02  0.12793654848E+04  0.12947056799E+04  0.17200000000E+03 0.  1.
         -6    1    1    2    0  501  0.34720500165E+02  0.93258997843E+02  0.33682040459E+03  0.39106871360E+03  0.17200000000E+03 0. -1.
</event>
<event>
 4    1  0.1059899E+000  0.2167317E+03  0.7818608E-02  0.1136343E+00
         -1   -1    0    0    0  501 -0.00000000000E+00  0.00000000000E+00  0.83843191120E+02  0.83843191120E+02  0.00000000000E+00 0. -1.
          1   -1    0    0  502    0  0.00000000000E+00 -0.00000000000E+00 -0.56070482728E+03  0.56070482728E+03  0.00000000000E+00 0.  1.
          6    1    1    2  502    0 -0.13164416786E+03 -0.76450369488E+01 -0.22919042566E+03  0.31543760831E+03  0.17200000000E+03 0.  1.
         -6    1    1    2    0  501  0.13164416786E+03  0.76450369488E+01 -0.24767121050E+03  0.32911041009E+03  0.17200000000E+03 0. -1.
</event>
<event>
 4    1  0.1059899E+000  0.1890732E+03  0.7818608E-02  0.1159300E+00
         -1   -1    0    0    0  501 -0.00000000000E+00  0.00000000000E+00  0.59076987944E+02  0.59076987944E+02  0.00000000000E+00 0. -1.
          1   -1    0    0  502    0  0.00000000000E+00 -0.00000000000E+00 -0.67516202399E+03  0.67516202399E+03  0.00000000000E+00 0.  1.
          6    1    1    2  502    0 -0.10809605766E+02 -0.77767801479E+02 -0.42628735668E+03  0.46633634749E+03  0.17200000000E+03 0.  1.
         -6    1    1    2    0  501  0.10809605766E+02  0.77767801479E+02 -0.18979767937E+03  0.26790266444E+03  0.17200000000E+03 0. -1.
</event>
<event>
 4    1  0.1059899E+000  0.1855781E+03  0.7818608E-02  0.1162511E+00
         -2   -1    0    0    0  501 -0.00000000000E+00  0.00000000000E+00  0.77256645779E+02  0.77256645779E+02  0.00000000000E+00 0.  1.
          2   -1    0    0  502    0  0.00000000000E+00 -0.00000000000E+00 -0.56614084389E+03  0.56614084389E+03  0.00000000000E+00 0. -1.
          6    1    1    2  502    0  0.49978665141E+00  0.69677710639E+02 -0.96109977471E+02  0.20898890142E+03  0.17200000000E+03 0.  1.
         -6    1    1    2    0  501 -0.49978665141E+00 -0.69677710639E+02 -0.39277422064E+03  0.43440858825E+03  0.17200000000E+03 0. -1.
</event>
<event>
 4    1  0.1059899E+000  0.1849037E+03  0.7818608E-02  0.1163140E+00
          2   -1    0    0  502    0  0.00000000000E+00  0.00000000000E+00  0.82159023141E+03  0.82159023141E+03  0.00000000000E+00 0. -1.
         -2   -1    0    0    0  501 -0.00000000000E+00 -0.00000000000E+00 -0.43477002154E+02  0.43477002154E+02  0.00000000000E+00 0.  1.
          6    1    1    2  502    0  0.63594089546E+02 -0.23688942021E+02  0.29951256958E+03  0.35199027477E+03  0.17200000000E+03 0. -1.
         -6    1    1    2    0  501 -0.63594089546E+02  0.23688942021E+02  0.47860065968E+03  0.51307695879E+03  0.17200000000E+03 0. -1.
</event>
<event>
 4    1  0.1059899E+000  0.1769187E+03  0.7818608E-02  0.1170819E+00
         -2   -1    0    0    0  501 -0.00000000000E+00  0.00000000000E+00  0.72798451479E+02  0.72798451479E+02  0.00000000000E+00 0.  1.
          2   -1    0    0  502    0  0.00000000000E+00 -0.00000000000E+00 -0.45704385934E+03  0.45704385934E+03  0.00000000000E+00 0. -1.
          6    1    1    2  502    0 -0.12640590295E+02 -0.39451909229E+02 -0.12762959712E+03  0.21815029619E+03  0.17200000000E+03 0.  1.
         -6    1    1    2    0  501  0.12640590295E+02  0.39451909229E+02 -0.25661581074E+03  0.31169201464E+03  0.17200000000E+03 0. -1.
</event>
<event>
 4    1  0.1059899E+000  0.1740466E+03  0.7818608E-02  0.1173692E+00
         -2   -1    0    0    0  501 -0.00000000000E+00  0.00000000000E+00  0.36439355671E+02  0.36439355671E+02  0.00000000000E+00 0.  1.
          2   -1    0    0  502    0  0.00000000000E+00 -0.00000000000E+00 -0.87487332246E+03  0.87487332246E+03  0.00000000000E+00 0. -1.
          6    1    1    2  502    0 -0.30966898034E+00  0.26610599524E+02 -0.52090038498E+03  0.54920800337E+03  0.17200000000E+03 0. -1.
         -6    1    1    2    0  501  0.30966898034E+00 -0.26610599524E+02 -0.31753358182E+03  0.36210467476E+03  0.17200000000E+03 0.  1.
</event>
<event>
 4    1  0.1059899E+000  0.1758755E+03  0.7818608E-02  0.1171855E+00
          2   -1    0    0  502    0  0.00000000000E+00  0.00000000000E+00  0.14281702470E+04  0.14281702470E+04  0.00000000000E+00 0.  1.
         -2   -1    0    0    0  501 -0.00000000000E+00 -0.00000000000E+00 -0.28251638927E+02  0.28251638927E+02  0.00000000000E+00 0. -1.
          6    1    1    2  502    0  0.31266288793E+02  0.19251614156E+02  0.34817428897E+03  0.39007376349E+03  0.17200000000E+03 0. -1.
         -6    1    1    2    0  501 -0.31266288793E+02 -0.19251614156E+02  0.10517443191E+04  0.10663481224E+04  0.17200000000E+03 0.  1.
</event>
<event>
 4    1  0.1059899E+000  0.2365781E+03  0.7818608E-02  0.1122094E+00
          1   -1    0    0  502    0  0.00000000000E+00  0.00000000000E+00  0.62243781933E+03  0.62243781933E+03  0.00000000000E+00 0. -1.
         -1   -1    0    0    0  501 -0.00000000000E+00 -0.00000000000E+00 -0.91736226072E+02  0.91736226072E+02  0.00000000000E+00 0.  1.
          6    1    1    2  502    0 -0.16239993994E+03  0.33870400919E+01  0.21509748672E+03  0.31974386832E+03  0.17200000000E+03 0.  1.
         -6    1    1    2    0  501  0.16239993994E+03 -0.33870400919E+01  0.31560410654E+03  0.39443017709E+03  0.17200000000E+03 0. -1.
</event>
<event>
 4    1  0.1059899E+000  0.2432574E+03  0.7818608E-02  0.1117642E+00
          2   -1    0    0  502    0  0.00000000000E+00  0.00000000000E+00  0.12641916899E+03  0.12641916899E+03  0.00000000000E+00 0. -1.
         -2   -1    0    0    0  501 -0.00000000000E+00 -0.00000000000E+00 -0.59109466578E+03  0.59109466578E+03  0.00000000000E+00 0.  1.
          6    1    1    2  502    0 -0.17146786497E+03 -0.13746208646E+02 -0.68674347062E+02  0.25276541084E+03  0.17200000000E+03 0. -1.
         -6    1    1    2    0  501  0.17146786497E+03  0.13746208646E+02 -0.39600114973E+03  0.46474842394E+03  0.17200000000E+03 0.  1.
</event>
<event>
 4    1  0.1059899E+000  0.1850514E+03  0.7818608E-02  0.1163002E+00
         -1   -1    0    0    0  501 -0.00000000000E+00  0.00000000000E+00  0.26541902741E+02  0.26541902741E+02  0.00000000000E+00 0.  1.
          1   -1    0    0  502    0  0.00000000000E+00 -0.00000000000E+00 -0.13335097394E+04  0.13335097394E+04  0.00000000000E+00 0. -1.
          6    1    1    2  502    0  0.39580551159E+02  0.55618226396E+02 -0.53091304239E+03  0.56223897563E+03  0.17200000000E+03 0.  1.
         -6    1    1    2    0  501 -0.39580551159E+02 -0.55618226396E+02 -0.77605479426E+03  0.79781266650E+03  0.17200000000E+03 0. -1.
</event>
<event>
 4    1  0.1059899E+000  0.3390889E+03  0.7818608E-02  0.1067185E+00
         -1   -1    0    0    0  501 -0.00000000000E+00  0.00000000000E+00  0.11784145312E+04  0.11784145312E+04  0.00000000000E+00 0. -1.
          1   -1    0    0  502    0  0.00000000000E+00 -0.00000000000E+00 -0.97577293676E+02  0.97577293676E+02  0.00000000000E+00 0.  1.
          6    1    1    2  502    0 -0.21324465416E+03 -0.19980987851E+03  0.54472164793E+03  0.64164082150E+03  0.17200000000E+03 0. -1.
         -6    1    1    2    0  501  0.21324465416E+03  0.19980987851E+03  0.53611558956E+03  0.63435100335E+03  0.17200000000E+03 0.  1.
</event>
<event>
 4    1  0.1059899E+000  0.1834691E+03  0.7818608E-02  0.1164487E+00
          1   -1    0    0  502    0  0.00000000000E+00  0.00000000000E+00  0.33332637838E+03  0.33332637838E+03  0.00000000000E+00 0.  1.
         -1   -1    0    0    0  501 -0.00000000000E+00 -0.00000000000E+00 -0.10581587445E+03  0.10581587445E+03  0.00000000000E+00 0. -1.
          6    1    1    2  502    0 -0.96644107240E+01 -0.63115172991E+02  0.66839587232E+02  0.19526509242E+03  0.17200000000E+03 0. -1.
         -6    1    1    2    0  501  0.96644107240E+01  0.63115172991E+02  0.16067091670E+03  0.24387716041E+03  0.17200000000E+03 0.  1.
</event>
<event>
 4    1  0.1059899E+000  0.2137236E+03  0.7818608E-02  0.1138651E+00
         -2   -1    0    0    0  501 -0.00000000000E+00  0.00000000000E+00  0.46789583163E+02  0.46789583163E+02  0.00000000000E+00 0. -1.
          2   -1    0    0  502    0  0.00000000000E+00 -0.00000000000E+00 -0.98695048834E+03  0.98695048834E+03  0.00000000000E+00 0.  1.
          6    1    1    2  502    0 -0.11055082038E+02 -0.12637868751E+03 -0.41623229125E+03  0.46789647122E+03  0.17200000000E+03 0. -1.
         -6    1    1    2    0  501  0.11055082038E+02  0.12637868751E+03 -0.52392861393E+03  0.56584360029E+03  0.17200000000E+03 0.  1.
</event>
<event>
 4    1  0.1059899E+000  0.2474816E+03  0.7818608E-02  0.1114907E+00
         -1   -1    0    0    0  501 -0.00000000000E+00  0.00000000000E+00  0.70203602868E+02  0.70203602868E+02  0.00000000000E+00 0.  1.
          1   -1    0    0  502    0  0.00000000000E+00 -0.00000000000E+00 -0.19553185134E+04  0.19553185134E+04  0.00000000000E+00 0. -1.
          6    1    1    2  502    0  0.12162477007E+03 -0.12988670123E+03 -0.16962457921E+04  0.17142044590E+04  0.17200000000E+03 0. -1.
         -6    1    1    2    0  501 -0.12162477007E+03  0.12988670123E+03 -0.18886911838E+03  0.31131765727E+03  0.17200000000E+03 0. -1.
</event>
<event>
 4    1  0.1059899E+000  0.1844167E+03  0.7818608E-02  0.1163596E+00
         -2   -1    0    0    0  501 -0.00000000000E+00  0.00000000000E+00  0.56497589423E+02  0.56497589423E+02  0.00000000000E+00 0.  1.
          2   -1    0    0  502    0  0.00000000000E+00 -0.00000000000E+00 -0.64673322358E+03  0.64673322358E+03  0.00000000000E+00 0. -1.
          6    1    1    2  502    0 -0.45126857473E+02  0.48878278278E+02 -0.20260653264E+03  0.27396884206E+03  0.17200000000E+03 0.  1.
         -6    1    1    2    0  501  0.45126857473E+02 -0.48878278278E+02 -0.38762910152E+03  0.42926197095E+03  0.17200000000E+03 0. -1.
</event>
<event>
 4    1  0.1059899E+000  0.2967759E+03  0.7818608E-02  0.1086863E+00
          2   -1    0    0  502    0  0.00000000000E+00  0.00000000000E+00  0.26870563319E+04  0.26870563319E+04  0.00000000000E+00 0. -1.
         -2   -1    0    0    0  501 -0.00000000000E+00 -0.00000000000E+00 -0.32836940896E+02  0.32836940896E+02  0.00000000000E+00 0.  1.
          6    1    1    2  502    0  0.13752037446E+03 -0.19894745060E+03  0.12694218581E+04  0.13036517155E+04  0.17200000000E+03 0. -1.
         -6    1    1    2    0  501 -0.13752037446E+03  0.19894745060E+03  0.13847975329E+04  0.14162415573E+04  0.17200000000E+03 0.  1.
</event>
<event>
 4    1  0.1059899E+000  0.2246822E+03  0.7818608E-02  0.1130440E+00
          1   -1    0    0  502    0  0.00000000000E+00  0.00000000000E+00  0.68225130204E+02  0.68225130204E+02  0.00000000000E+00 0.  1.
         -1   -1    0    0    0  501 -0.00000000000E+00 -0.00000000000E+00 -0.99293684847E+03  0.99293684847E+03  0.00000000000E+00 0. -1.
          6    1    1    2  502    0  0.23398619222E+02 -0.14265548304E+03 -0.19452925276E+03  0.29719305577E+03  0.17200000000E+03 0.  1.
         -6    1    1    2    0  501 -0.23398619222E+02  0.14265548304E+03 -0.73018246551E+03  0.76396892290E+03  0.17200000000E+03 0. -1.
</event>
<event>
 4    1  0.1059899E+000  0.2325985E+03  0.7818608E-02  0.1124824E+00
         -2   -1    0    0    0  501 -0.00000000000E+00  0.00000000000E+00  0.96750575785E+03  0.96750575785E+03  0.00000000000E+00 0.  1.
          2   -1    0    0  502    0  0.00000000000E+00 -0.00000000000E+00 -0.83739921752E+02  0.83739921752E+02  0.00000000000E+00 0. -1.
          6    1    1    2  502    0 -0.11260300400E+02  0.15617701138E+03  0.13891760142E+03  0.27092462648E+03  0.17200000000E+03 0.  1.
         -6    1    1    2    0  501  0.11260300400E+02 -0.15617701138E+03  0.74484823468E+03  0.78032105313E+03  0.17200000000E+03 0.  1.
</event>
<event>
 4    1  0.1059899E+000  0.1893122E+03  0.7818608E-02  0.1159083E+00
          1   -1    0    0  502    0  0.00000000000E+00  0.00000000000E+00  0.19741202176E+03  0.19741202176E+03  0.00000000000E+00 0. -1.
         -1   -1    0    0    0  501 -0.00000000000E+00 -0.00000000000E+00 -0.18459160013E+03  0.18459160013E+03  0.00000000000E+00 0.  1.
          6    1    1    2  502    0 -0.12496864888E+02  0.78095698208E+02 -0.18128931746E+02  0.19017825290E+03  0.17200000000E+03 0. -1.
         -6    1    1    2    0  501  0.12496864888E+02 -0.78095698208E+02  0.30949353378E+02  0.19182536898E+03  0.17200000000E+03 0. -1.
</event>
<event>
 4    1  0.1059899E+000  0.2182930E+03  0.7818608E-02  0.1135162E+00
          1   -1    0    0  502    0  0.00000000000E+00  0.00000000000E+00  0.10701106671E+04  0.10701106671E+04  0.00000000000E+00 0. -1.
         -1   -1    0    0    0  501 -0.00000000000E+00 -0.00000000000E+00 -0.45933918919E+02  0.45933918919E+02  0.00000000000E+00 0.  1.
          6    1    1    2  502    0 -0.75485627397E+02 -0.11121936842E+03  0.41452546524E+03  0.46849032988E+03  0.17200000000E+03 0.  1.
         -6    1    1    2    0  501  0.75485627397E+02  0.11121936842E+03  0.60965128291E+03  0.64755425611E+03  0.17200000000E+03 0. -1.
</event>
<event>
 4    1  0.1059899E+000  0.1794766E+03  0.7818608E-02  0.1168311E+00
         -1   -1    0    0    0  501 -0.00000000000E+00  0.00000000000E+00  0.10402415658E+04  0.10402415658E+04  0.00000000000E+00 0. -1.
          1   -1    0    0  502    0  0.00000000000E+00 -0.00000000000E+00 -0.30993298995E+02  0.30993298995E+02  0.00000000000E+00 0.  1.
          6    1    1    2  502    0 -0.17526767601E+02 -0.48173239271E+02  0.48865202212E+03  0.52056954126E+03  0.17200000000E+03 0.  1.
         -6    1    1    2    0  501  0.17526767601E+02  0.48173239271E+02  0.52059624469E+03  0.55066532354E+03  0.17200000000E+03 0. -1.
</event>
<event>
 4    1  0.1059899E+000  0.2079496E+03  0.7818608E-02  0.1143200E+00
         -1   -1    0    0    0  501 -0.00000000000E+00  0.00000000000E+00  0.20723003611E+03  0.20723003611E+03  0.00000000000E+00 0. -1.
          1   -1    0    0  502    0  0.00000000000E+00 -0.00000000000E+00 -0.20879480020E+03  0.20879480020E+03  0.00000000000E+00 0.  1.
          6    1    1    2  502    0  0.66850774866E+02 -0.95864586894E+02  0.42682839018E+01  0.20799342145E+03  0.17200000000E+03 0.  1.
         -6    1    1    2    0  501 -0.66850774866E+02  0.95864586894E+02 -0.58330479928E+01  0.20803141486E+03  0.17200000000E+03 0.  1.
</event>
<event>
 4    1  0.1059899E+000  0.1922676E+03  0.7818608E-02  0.1156432E+00
         -1   -1    0    0    0  501 -0.00000000000E+00  0.00000000000E+00  0.77782087651E+02  0.77782087651E+02  0.00000000000E+00 0. -1.
          1   -1    0    0  502    0  0.00000000000E+00 -0.00000000000E+00 -0.52311055735E+03  0.52311055735E+03  0.00000000000E+00 0.  1.
          6    1    1    2  502    0  0.85671315791E+02 -0.65771799394E+01 -0.31353134719E+03  0.36778898749E+03  0.17200000000E+03 0.  1.
         -6    1    1    2    0  501 -0.85671315791E+02  0.65771799394E+01 -0.13179712251E+03  0.23310365751E+03  0.17200000000E+03 0.  1.
</event>
<event>
 4    1  0.1059899E+000  0.3089010E+03  0.7818608E-02  0.1080874E+00
         -2   -1    0    0    0  501 -0.00000000000E+00  0.00000000000E+00  0.77898195925E+02  0.77898195925E+02  0.00000000000E+00 0. -1.
          2   -1    0    0  502    0  0.00000000000E+00 -0.00000000000E+00 -0.12286236575E+04  0.12286236575E+04  0.00000000000E+00 0.  1.
          6    1    1    2  502    0 -0.54120698693E+02  0.25081219196E+03 -0.61118303810E+03  0.68480983617E+03  0.17200000000E+03 0.  1.
         -6    1    1    2    0  501  0.54120698693E+02 -0.25081219196E+03 -0.53954242347E+03  0.62171201724E+03  0.17200000000E+03 0. -1.
</event>
<event>
 4    1  0.1059899E+000  0.1945855E+03  0.7818608E-02  0.1154389E+00
         -2   -1    0    0    0  501 -0.00000000000E+00  0.00000000000E+00  0.38948067211E+02  0.38948067211E+02  0.00000000000E+00 0. -1.
          2   -1    0    0  502    0  0.00000000000E+00 -0.00000000000E+00 -0.17598547641E+04  0.17598547641E+04  0.00000000000E+00 0.  1.
          6    1    1    2  502    0 -0.56797572516E+02 -0.71088433751E+02 -0.14621751027E+04  0.14750659513E+04  0.17200000000E+03 0.  1.
         -6    1    1    2    0  501  0.56797572516E+02  0.71088433751E+02 -0.25873159414E+03  0.32373687999E+03  0.17200000000E+03 0. -1.
</event>
<event>
 4    1  0.1059899E+000  0.1756602E+03  0.7818608E-02  0.1172070E+00
          1   -1    0    0  502    0  0.00000000000E+00  0.00000000000E+00  0.22270030747E+04  0.22270030747E+04  0.00000000000E+00 0. -1.
         -1   -1    0    0    0  501 -0.00000000000E+00 -0.00000000000E+00 -0.14773698571E+02  0.14773698571E+02  0.00000000000E+00 0.  1.
          6    1    1    2  502    0 -0.32225087693E+02 -0.15298707729E+02  0.13855349198E+04  0.13966257626E+04  0.17200000000E+03 0. -1.
         -6    1    1    2    0  501  0.32225087693E+02  0.15298707729E+02  0.82669445631E+03  0.84515101066E+03  0.17200000000E+03 0. -1.
</event>
<event>
 4    1  0.1059899E+000  0.2270769E+03  0.7818608E-02  0.1128714E+00
          2   -1    0    0  502    0  0.00000000000E+00  0.00000000000E+00  0.23192856345E+03  0.23192856345E+03  0.00000000000E+00 0. -1.
         -2   -1    0    0    0  501 -0.00000000000E+00 -0.00000000000E+00 -0.31979513745E+03  0.31979513745E+03  0.00000000000E+00 0.  1.
          6    1    1    2  502    0 -0.45640364738E+02  0.14105627697E+03  0.10836242669E+03  0.25160749528E+03  0.17200000000E+03 0. -1.
         -6    1    1    2    0  501  0.45640364738E+02 -0.14105627697E+03 -0.19622900068E+03  0.30011620562E+03  0.17200000000E+03 0.  1.
</event>
<event>
 4    1  0.1059899E+000  0.2747844E+03  0.7818608E-02  0.1098572E+00
         -1   -1    0    0    0  501 -0.00000000000E+00  0.00000000000E+00  0.16598710809E+03  0.16598710809E+03  0.00000000000E+00 0.  1.
          1   -1    0    0  502    0  0.00000000000E+00 -0.00000000000E+00 -0.52226364938E+03  0.52226364938E+03  0.00000000000E+00 0. -1.
          6    1    1    2  502    0  0.20822028239E+03  0.50663438213E+02 -0.54542019704E+02  0.28014514431E+03  0.17200000000E+03 0.  1.
         -6    1    1    2    0  501 -0.20822028239E+03 -0.50663438213E+02 -0.30173452158E+03  0.40810561315E+03  0.17200000000E+03 0. -1.
</event>
<event>
 4    1  0.1059899E+000  0.1814482E+03  0.7818608E-02  0.1166409E+00
          2   -1    0    0  502    0  0.00000000000E+00  0.00000000000E+00  0.27632536172E+04  0.27632536172E+04  0.00000000000E+00 0.  1.
         -2   -1    0    0    0  501 -0.00000000000E+00 -0.00000000000E+00 -0.12016912779E+02  0.12016912779E+02  0.00000000000E+00 0. -1.
          6    1    1    2  502    0 -0.57786813028E+02 -0.35283027217E+00  0.12476646820E+04  0.12607896728E+04  0.17200000000E+03 0. -1.
         -6    1    1    2    0  501  0.57786813028E+02  0.35283027217E+00  0.15035720224E+04  0.15144808572E+04  0.17200000000E+03 0. -1.
</event>
<event>
 4    1  0.1059899E+000  0.1766648E+03  0.7818608E-02  0.1171070E+00
          2   -1    0    0  502    0  0.00000000000E+00  0.00000000000E+00  0.95621315622E+03  0.95621315622E+03  0.00000000000E+00 0. -1.
         -2   -1    0    0    0  501 -0.00000000000E+00 -0.00000000000E+00 -0.32971153923E+02  0.32971153923E+02  0.00000000000E+00 0.  1.
          6    1    1    2  502    0  0.10115701557E+02 -0.39039955549E+02  0.51121581524E+03  0.54088081432E+03  0.17200000000E+03 0. -1.
         -6    1    1    2    0  501 -0.10115701557E+02  0.39039955549E+02  0.41202618706E+03  0.44830349583E+03  0.17200000000E+03 0.  1.
</event>
<event>
 4    1  0.1059899E+000  0.2148802E+03  0.7818608E-02  0.1137759E+00
          2   -1    0    0  502    0  0.00000000000E+00  0.00000000000E+00  0.19450658760E+03  0.19450658760E+03  0.00000000000E+00 0.  1.
         -2   -1    0    0    0  501 -0.00000000000E+00 -0.00000000000E+00 -0.27214241700E+03  0.27214241700E+03  0.00000000000E+00 0. -1.
          6    1    1    2  502    0  0.88134352036E+02  0.93924552113E+02 -0.12219921371E+03  0.24719654797E+03  0.17200000000E+03 0. -1.
         -6    1    1    2    0  501 -0.88134352036E+02 -0.93924552113E+02  0.44563384314E+02  0.21945245663E+03  0.17200000000E+03 0. -1.
</event>
<event>
 4    1  0.1059899E+000  0.2149975E+03  0.7818608E-02  0.1137669E+00
         -2   -1    0    0    0  501 -0.00000000000E+00  0.00000000000E+00  0.82470637117E+02  0.82470637117E+02  0.00000000000E+00 0.  1.
          2   -1    0    0  502    0  0.00000000000E+00 -0.00000000000E+00 -0.57066437510E+03  0.57066437510E+03  0.00000000000E+00 0. -1.
          6    1    1    2  502    0 -0.87212290622E+02  0.95046970879E+02 -0.20049036853E+03  0.29397329501E+03  0.17200000000E+03 0.  1.
         -6    1    1    2    0  501  0.87212290622E+02 -0.95046970879E+02 -0.28770336946E+03  0.35916171721E+03  0.17200000000E+03 0. -1.
</event>
<event>
 4    1  0.1059899E+000  0.2202619E+03  0.7818608E-02  0.1133688E+00
          2   -1    0    0  502    0  0.00000000000E+00  0.00000000000E+00  0.21561779250E+04  0.21561779250E+04  0.00000000000E+00 0.  1.
         -2   -1    0    0    0  501 -0.00000000000E+00 -0.00000000000E+00 -0.23079488552E+02  0.23079488552E+02  0.00000000000E+00 0. -1.
          6    1    1    2  502    0 -0.12940024814E+03 -0.46764130383E+02  0.12391175091E+04  0.12585418187E+04  0.17200000000E+03 0. -1.
         -6    1    1    2    0  501  0.12940024814E+03  0.46764130383E+02  0.89398092741E+03  0.92071559489E+03  0.17200000000E+03 0.  1.
</event>
<event>
 4    1  0.1059899E+000  0.1935738E+03  0.7818608E-02  0.1155277E+00
          3   -1    0    0  502    0  0.00000000000E+00  0.00000000000E+00  0.55366545307E+02  0.55366545307E+02  0.00000000000E+00 0. -1.
         -3   -1    0    0    0  501 -0.00000000000E+00 -0.00000000000E+00 -0.68471984377E+03  0.68471984377E+03  0.00000000000E+00 0.  1.
          6    1    1    2  502    0 -0.86349674782E+02 -0.20749356093E+02 -0.35453186091E+03  0.40393519593E+03  0.17200000000E+03 0. -1.
         -6    1    1    2    0  501  0.86349674782E+02  0.20749356093E+02 -0.27482143755E+03  0.33615119314E+03  0.17200000000E+03 0. -1.
</event>
<event>
 4    1  0.1059899E+000  0.3076735E+03  0.7818608E-02  0.1081466E+00
          2   -1    0    0  502    0  0.00000000000E+00  0.00000000000E+00  0.60450977982E+03  0.60450977982E+03  0.00000000000E+00 0.  1.
         -2   -1    0    0    0  501 -0.00000000000E+00 -0.00000000000E+00 -0.19405084826E+03  0.19405084826E+03  0.00000000000E+00 0. -1.
          6    1    1    2  502    0  0.23513720992E+03 -0.98941868719E+02  0.38065061015E+03  0.48944651177E+03  0.17200000000E+03 0. -1.
         -6    1    1    2    0  501 -0.23513720992E+03  0.98941868719E+02  0.29808321413E+02  0.30911411631E+03  0.17200000000E+03 0. -1.
</event>
<event>
 4    1  0.1059899E+000  0.2936448E+03  0.7818608E-02  0.1088461E+00
          1   -1    0    0  502    0  0.00000000000E+00  0.00000000000E+00  0.25305038169E+03  0.25305038169E+03  0.00000000000E+00 0. -1.
         -1   -1    0    0    0  501 -0.00000000000E+00 -0.00000000000E+00 -0.35834690028E+03  0.35834690028E+03  0.00000000000E+00 0.  1.
          6    1    1    2  502    0 -0.22571749045E+03 -0.75464578181E+02  0.15091196046E+02  0.29403236599E+03  0.17200000000E+03 0. -1.
         -6    1    1    2    0  501  0.22571749045E+03  0.75464578181E+02 -0.12038771463E+03  0.31736491597E+03  0.17200000000E+03 0.  1.
</event>
<event>
 4    1  0.1059899E+000  0.2180590E+03  0.7818608E-02  0.1135338E+00
          3   -1    0    0  502    0  0.00000000000E+00  0.00000000000E+00  0.24588928803E+03  0.24588928803E+03  0.00000000000E+00 0. -1.
         -3   -1    0    0    0  501 -0.00000000000E+00 -0.00000000000E+00 -0.19390307629E+03  0.19390307629E+03  0.00000000000E+00 0.  1.
          6    1    1    2  502    0  0.45192293005E+02 -0.12618788497E+03  0.37429504998E+02  0.22124803616E+03  0.17200000000E+03 0. -1.
         -6    1    1    2    0  501 -0.45192293005E+02  0.12618788497E+03  0.14556706733E+02  0.21854432816E+03  0.17200000000E+03 0.  1.
</event>
<event>
 4    1  0.1059899E+000  0.2308458E+03  0.7818608E-02  0.1126046E+00
         -1   -1    0    0    0  501 -0.00000000000E+00  0.00000000000E+00  0.97074033373E+02  0.97074033373E+02  0.00000000000E+00 0.  1.
          1   -1    0    0  502    0  0.00000000000E+00 -0.00000000000E+00 -0.59379583130E+03  0.59379583130E+03  0.00000000000E+00 0. -1.
          6    1    1    2  502    0 -0.15384709582E+03 -0.60699157264E+01 -0.15344046272E+03  0.27718901199E+03  0.17200000000E+03 0.  1.
         -6    1    1    2    0  501  0.15384709582E+03  0.60699157264E+01 -0.34328133521E+03  0.41368085268E+03  0.17200000000E+03 0. -1.
</event>
<event>
 4    1  0.1059899E+000  0.1866790E+03  0.7818608E-02  0.1161491E+00
         -2   -1    0    0    0  501 -0.00000000000E+00  0.00000000000E+00  0.15410663855E+02  0.15410663855E+02  0.00000000000E+00 0.  1.
          2   -1    0    0  502    0  0.00000000000E+00 -0.00000000000E+00 -0.23707479428E+04  0.23707479428E+04  0.00000000000E+00 0. -1.
          6    1    1    2  502    0 -0.46505868218E+02  0.55697995868E+02 -0.92139090828E+03  0.94011183823E+03  0.17200000000E+03 0.  1.
         -6    1    1    2    0  501  0.46505868218E+02 -0.55697995868E+02 -0.14339463707E+04  0.14460467684E+04  0.17200000000E+03 0. -1.
</event>
<event>
 4    1  0.1059899E+000  0.2595010E+03  0.7818608E-02  0.1107443E+00
         -2   -1    0    0    0  501 -0.00000000000E+00  0.00000000000E+00  0.22239093000E+03  0.22239093000E+03  0.00000000000E+00 0. -1.
          2   -1    0    0  502    0  0.00000000000E+00 -0.00000000000E+00 -0.39886824204E+03  0.39886824204E+03  0.00000000000E+00 0.  1.
          6    1    1    2  502    0  0.89793340138E+02 -0.17231930757E+03  0.64205133357E+02  0.26732580654E+03  0.17200000000E+03 0. -1.
         -6    1    1    2    0  501 -0.89793340138E+02  0.17231930757E+03 -0.24068244540E+03  0.35393336550E+03  0.17200000000E+03 0.  1.
</event>
<event>
 4    1  0.1059899E+000  0.2604715E+03  0.7818608E-02  0.1106860E+00
         -2   -1    0    0    0  501 -0.00000000000E+00  0.00000000000E+00  0.27891115119E+02  0.27891115119E+02  0.00000000000E+00 0.  1.
          2   -1    0    0  502    0  0.00000000000E+00 -0.00000000000E+00 -0.28020878294E+04  0.28020878294E+04  0.00000000000E+00 0. -1.
          6    1    1    2  502    0  0.82367373487E+02 -0.17741758670E+03 -0.87321332375E+03  0.91123372032E+03  0.17200000000E+03 0.  1.
         -6    1    1    2    0  501 -0.82367373487E+02  0.17741758670E+03 -0.19009833906E+04  0.19187452242E+04  0.17200000000E+03 0.  1.
</event>
<event>
 4    1  0.1059899E+000  0.1836849E+03  0.7818608E-02  0.1164284E+00
          1   -1    0    0  502    0  0.00000000000E+00  0.00000000000E+00  0.19145521564E+03  0.19145521564E+03  0.00000000000E+00 0. -1.
         -1   -1    0    0    0  501 -0.00000000000E+00 -0.00000000000E+00 -0.18148420017E+03  0.18148420017E+03  0.00000000000E+00 0.  1.
          6    1    1    2  502    0 -0.64463024418E+02  0.80751647490E+00 -0.26742755459E+02  0.18562141194E+03  0.17200000000E+03 0.  1.
         -6    1    1    2    0  501  0.64463024418E+02 -0.80751647490E+00  0.36713770931E+02  0.18731800388E+03  0.17200000000E+03 0. -1.
</event>
<event>
 4    1  0.1059899E+000  0.3582893E+03  0.7818608E-02  0.1059263E+00
         -2   -1    0    0    0  501 -0.00000000000E+00  0.00000000000E+00  0.50309505918E+02  0.50309505918E+02  0.00000000000E+00 0.  1.
          2   -1    0    0  502    0  0.00000000000E+00 -0.00000000000E+00 -0.26705349890E+04  0.26705349890E+04  0.00000000000E+00 0. -1.
          6    1    1    2  502    0 -0.88656536848E+01  0.31417926129E+03 -0.15971749055E+04  0.16368686223E+04  0.17200000000E+03 0.  1.
         -6    1    1    2    0  501  0.88656536848E+01 -0.31417926129E+03 -0.10230505776E+04  0.10839758726E+04  0.17200000000E+03 0. -1.
</event>
<event>
 4    1  0.1059899E+000  0.1905252E+03  0.7818608E-02  0.1157988E+00
          1   -1    0    0  502    0  0.00000000000E+00  0.00000000000E+00  0.66583889234E+03  0.66583889234E+03  0.00000000000E+00 0.  1.
         -1   -1    0    0    0  501 -0.00000000000E+00 -0.00000000000E+00 -0.79536209339E+02  0.79536209339E+02  0.00000000000E+00 0. -1.
          6    1    1    2  502    0 -0.47798013142E+02 -0.66567383089E+02  0.84127915916E+02  0.20827235243E+03  0.17200000000E+03 0. -1.
         -6    1    1    2    0  501  0.47798013142E+02  0.66567383089E+02  0.50217476709E+03  0.53710274925E+03  0.17200000000E+03 0.  1.
</event>
<event>
 4    1  0.1059899E+000  0.4493044E+03  0.7818608E-02  0.1027930E+00
         -1   -1    0    0    0  501 -0.00000000000E+00  0.00000000000E+00  0.27854753315E+03  0.27854753315E+03  0.00000000000E+00 0.  1.
          1   -1    0    0  502    0  0.00000000000E+00 -0.00000000000E+00 -0.94017770851E+03  0.94017770851E+03  0.00000000000E+00 0. -1.
          6    1    1    2  502    0 -0.38026321400E+03  0.16640407916E+03 -0.39118000086E+02  0.45100404367E+03  0.17200000000E+03 0.  1.
         -6    1    1    2    0  501  0.38026321400E+03 -0.16640407916E+03 -0.62251217527E+03  0.76772119799E+03  0.17200000000E+03 0. -1.
</event>
<event>
 4    1  0.1059899E+000  0.2658813E+03  0.7818608E-02  0.1103660E+00
         -2   -1    0    0    0  501 -0.00000000000E+00  0.00000000000E+00  0.13690611707E+03  0.13690611707E+03  0.00000000000E+00 0. -1.
          2   -1    0    0  502    0  0.00000000000E+00 -0.00000000000E+00 -0.57734455741E+03  0.57734455741E+03  0.00000000000E+00 0.  1.
          6    1    1    2  502    0 -0.12006550654E+03 -0.16338032106E+03 -0.10415115712E+03  0.28555265487E+03  0.17200000000E+03 0. -1.
         -6    1    1    2    0  501  0.12006550654E+03  0.16338032106E+03 -0.33628728321E+03  0.42869801962E+03  0.17200000000E+03 0.  1.
</event>
<event>
 4    1  0.1059899E+000  0.2419851E+03  0.7818608E-02  0.1118477E+00
          2   -1    0    0  502    0  0.00000000000E+00  0.00000000000E+00  0.66612255399E+03  0.66612255399E+03  0.00000000000E+00 0. -1.
         -2   -1    0    0    0  501 -0.00000000000E+00 -0.00000000000E+00 -0.90223584177E+02  0.90223584177E+02  0.00000000000E+00 0.  1.
          6    1    1    2  502    0  0.14024872596E+03 -0.96452394372E+02  0.34854826309E+03  0.42431434246E+03  0.17200000000E+03 0.  1.
         -6    1    1    2    0  501 -0.14024872596E+03  0.96452394372E+02  0.22735070672E+03  0.33203179571E+03  0.17200000000E+03 0. -1.
</event>
<event>
 4    1  0.1059899E+000  0.1971179E+03  0.7818608E-02  0.1152194E+00
          1   -1    0    0  502    0  0.00000000000E+00  0.00000000000E+00  0.75472166678E+03  0.75472166678E+03  0.00000000000E+00 0. -1.
         -1   -1    0    0    0  501 -0.00000000000E+00 -0.00000000000E+00 -0.58630683224E+02  0.58630683224E+02  0.00000000000E+00 0.  1.
          6    1    1    2  502    0  0.95279847552E+02 -0.13900758824E+02  0.49003722790E+03  0.52819690000E+03  0.17200000000E+03 0. -1.
         -6    1    1    2    0  501 -0.95279847552E+02  0.13900758824E+02  0.20605375566E+03  0.28515545000E+03  0.17200000000E+03 0.  1.
</event>
<event>
 4    1  0.1059899E+000  0.2235586E+03  0.7818608E-02  0.1131257E+00
         -2   -1    0    0    0  501 -0.00000000000E+00  0.00000000000E+00  0.11947886557E+03  0.11947886557E+03  0.00000000000E+00 0.  1.
          2   -1    0    0  502    0  0.00000000000E+00 -0.00000000000E+00 -0.42485886236E+03  0.42485886236E+03  0.00000000000E+00 0. -1.
          6    1    1    2  502    0  0.13628308548E+03 -0.42677497904E+02 -0.11888283383E+03  0.25320263900E+03  0.17200000000E+03 0.  1.
         -6    1    1    2    0  501 -0.13628308548E+03  0.42677497904E+02 -0.18649716295E+03  0.29113508893E+03  0.17200000000E+03 0. -1.
</event>
<event>
 4    1  0.1059899E+000  0.1768681E+03  0.7818608E-02  0.1170869E+00
          2   -1    0    0  502    0  0.00000000000E+00  0.00000000000E+00  0.16797709887E+04  0.16797709887E+04  0.00000000000E+00 0.  1.
         -2   -1    0    0    0  501 -0.00000000000E+00 -0.00000000000E+00 -0.44406071934E+02  0.44406071934E+02  0.00000000000E+00 0. -1.
          6    1    1    2  502    0  0.60813720160E+01 -0.40759546762E+02  0.14745809669E+04  0.14851502791E+04  0.17200000000E+03 0.  1.
         -6    1    1    2    0  501 -0.60813720160E+01  0.40759546762E+02  0.16078394993E+03  0.23902678154E+03  0.17200000000E+03 0. -1.
</event>
<event>
 4    1  0.1059899E+000  0.1759977E+03  0.7818608E-02  0.1171734E+00
          2   -1    0    0  502    0  0.00000000000E+00  0.00000000000E+00  0.20524916973E+03  0.20524916973E+03  0.00000000000E+00 0. -1.
         -2   -1    0    0    0  501 -0.00000000000E+00 -0.00000000000E+00 -0.35254118155E+03  0.35254118155E+03  0.00000000000E+00 0.  1.
          6    1    1    2  502    0  0.17392441906E+02 -0.32995469390E+02  0.13726994919E+03  0.22319999325E+03  0.17200000000E+03 0. -1.
         -6    1    1    2    0  501 -0.17392441906E+02  0.32995469390E+02 -0.28456196101E+03  0.33459035804E+03  0.17200000000E+03 0.  1.
</event>
<event>
 4    1  0.1059899E+000  0.1851172E+03  0.7818608E-02  0.1162941E+00
          2   -1    0    0  502    0  0.00000000000E+00  0.00000000000E+00  0.56782478549E+03  0.56782478549E+03  0.00000000000E+00 0. -1.
         -2   -1    0    0    0  501 -0.00000000000E+00 -0.00000000000E+00 -0.61865853157E+02  0.61865853157E+02  0.00000000000E+00 0.  1.
          6    1    1    2  502    0 -0.57420079708E+02 -0.37246574126E+02  0.30225861607E+03  0.35444131225E+03  0.17200000000E+03 0. -1.
         -6    1    1    2    0  501  0.57420079708E+02  0.37246574126E+02  0.20370031626E+03  0.27524932640E+03  0.17200000000E+03 0. -1.
</event>
<event>
 4    1  0.1059899E+000  0.2460572E+03  0.7818608E-02  0.1115822E+00
         -1   -1    0    0    0  501 -0.00000000000E+00  0.00000000000E+00  0.47896674650E+02  0.47896674650E+02  0.00000000000E+00 0.  1.
          1   -1    0    0  502    0  0.00000000000E+00 -0.00000000000E+00 -0.25119435076E+04  0.25119435076E+04  0.00000000000E+00 0. -1.
          6    1    1    2  502    0  0.70753235808E+02 -0.16110291113E+03 -0.21341455038E+04  0.21482833146E+04  0.17200000000E+03 0.  1.
         -6    1    1    2    0  501 -0.70753235808E+02  0.16110291113E+03 -0.32990132919E+03  0.41155686771E+03  0.17200000000E+03 0. -1.
</event>
<event>
 4    1  0.1059899E+000  0.2308324E+03  0.7818608E-02  0.1126055E+00
          2   -1    0    0  502    0  0.00000000000E+00  0.00000000000E+00  0.29092968754E+04  0.29092968754E+04  0.00000000000E+00 0.  1.
         -2   -1    0    0    0  501 -0.00000000000E+00 -0.00000000000E+00 -0.18374845383E+02  0.18374845383E+02  0.00000000000E+00 0. -1.
          6    1    1    2  502    0  0.56817688724E+02  0.14307811954E+03  0.13618789593E+04  0.13813029710E+04  0.17200000000E+03 0. -1.
         -6    1    1    2    0  501 -0.56817688724E+02 -0.14307811954E+03  0.15290430707E+04  0.15463687497E+04  0.17200000000E+03 0. -1.
</event>
<event>
 4    1  0.1059899E+000  0.1955358E+03  0.7818608E-02  0.1153561E+00
          1   -1    0    0  502    0  0.00000000000E+00  0.00000000000E+00  0.12421288020E+03  0.12421288020E+03  0.00000000000E+00 0.  1.
         -1   -1    0    0    0  501 -0.00000000000E+00 -0.00000000000E+00 -0.35260354156E+03  0.35260354156E+03  0.00000000000E+00 0. -1.
          6    1    1    2  502    0  0.91429202600E+02 -0.17057182691E+02 -0.29223563718E+02  0.19770751945E+03  0.17200000000E+03 0.  1.
         -6    1    1    2    0  501 -0.91429202600E+02  0.17057182691E+02 -0.19916709764E+03  0.27910890232E+03  0.17200000000E+03 0. -1.
</event>
<event>
 4    1  0.1059899E+000  0.1768329E+03  0.7818608E-02  0.1170904E+00
          2   -1    0    0  502    0  0.00000000000E+00  0.00000000000E+00  0.10343870343E+04  0.10343870343E+04  0.00000000000E+00 0. -1.
         -2   -1    0    0    0  501 -0.00000000000E+00 -0.00000000000E+00 -0.11228799667E+03  0.11228799667E+03  0.00000000000E+00 0.  1.
          6    1    1    2  502    0  0.25680025390E+02  0.32037743059E+02 -0.29071385000E+02  0.17920665755E+03  0.17200000000E+03 0.  1.
         -6    1    1    2    0  501 -0.25680025390E+02 -0.32037743059E+02  0.95117042264E+03  0.96746837343E+03  0.17200000000E+03 0. -1.
</event>
<event>
 4    1  0.1059899E+000  0.1772509E+03  0.7818608E-02  0.1170490E+00
         -2   -1    0    0    0  501 -0.00000000000E+00  0.00000000000E+00  0.36419881623E+02  0.36419881623E+02  0.00000000000E+00 0.  1.
          2   -1    0    0  502    0  0.00000000000E+00 -0.00000000000E+00 -0.11923524928E+04  0.11923524928E+04  0.00000000000E+00 0. -1.
          6    1    1    2  502    0  0.30794849528E+02 -0.29758374106E+02 -0.25489729998E+03  0.31046822241E+03  0.17200000000E+03 0.  1.
         -6    1    1    2    0  501 -0.30794849528E+02  0.29758374106E+02 -0.90103531121E+03  0.91830415203E+03  0.17200000000E+03 0. -1.
</event>
<event>
 4    1  0.1059899E+000  0.1983892E+03  0.7818608E-02  0.1151105E+00
         -1   -1    0    0    0  501 -0.00000000000E+00  0.00000000000E+00  0.79963076493E+03  0.79963076493E+03  0.00000000000E+00 0. -1.
          1   -1    0    0  502    0  0.00000000000E+00 -0.00000000000E+00 -0.56686063321E+02  0.56686063321E+02  0.00000000000E+00 0.  1.
          6    1    1    2  502    0  0.19698591990E+01  0.98845297558E+02  0.52685263509E+03  0.56296711475E+03  0.17200000000E+03 0. -1.
         -6    1    1    2    0  501 -0.19698591990E+01 -0.98845297558E+02  0.21609206652E+03  0.29334971349E+03  0.17200000000E+03 0.  1.
</event>
<event>
 4    1  0.1059899E+000  0.2206820E+03  0.7818608E-02  0.1133376E+00
         -2   -1    0    0    0  501 -0.00000000000E+00  0.00000000000E+00  0.17794852003E+03  0.17794852003E+03  0.00000000000E+00 0.  1.
          2   -1    0    0  502    0  0.00000000000E+00 -0.00000000000E+00 -0.31777882462E+03  0.31777882462E+03  0.00000000000E+00 0. -1.
          6    1    1    2  502    0  0.13596027332E+03  0.25126994885E+02 -0.16225192225E+03  0.27390919676E+03  0.17200000000E+03 0.  1.
         -6    1    1    2    0  501 -0.13596027332E+03 -0.25126994885E+02  0.22421617656E+02  0.22181814789E+03  0.17200000000E+03 0. -1.
</event>
<event>
 4    1  0.1059899E+000  0.2678533E+03  0.7818608E-02  0.1102515E+00
         -1   -1    0    0    0  501 -0.00000000000E+00  0.00000000000E+00  0.16062570835E+03  0.16062570835E+03  0.00000000000E+00 0. -1.
          1   -1    0    0  502    0  0.00000000000E+00 -0.00000000000E+00 -0.58475314693E+03  0.58475314693E+03  0.00000000000E+00 0.  1.
          6    1    1    2  502    0 -0.10992699119E+03 -0.17342858093E+03 -0.39317418674E+03  0.47574295286E+03  0.17200000000E+03 0.  1.
         -6    1    1    2    0  501  0.10992699119E+03  0.17342858093E+03 -0.30953251840E+02  0.26963590242E+03  0.17200000000E+03 0. -1.
</event>
<event>
 4    1  0.1059899E+000  0.1995503E+03  0.7818608E-02  0.1150119E+00
          2   -1    0    0  502    0  0.00000000000E+00  0.00000000000E+00  0.14012732564E+04  0.14012732564E+04  0.00000000000E+00 0. -1.
         -2   -1    0    0    0  501 -0.00000000000E+00 -0.00000000000E+00 -0.12664898462E+03  0.12664898462E+03  0.00000000000E+00 0.  1.
          6    1    1    2  502    0  0.56198206320E+02 -0.84131284101E+02  0.13101281824E+04  0.13252381543E+04  0.17200000000E+03 0. -1.
         -6    1    1    2    0  501 -0.56198206320E+02  0.84131284101E+02 -0.35503910567E+02  0.20268408675E+03  0.17200000000E+03 0.  1.
</event>
<event>
 4    1  0.1059899E+000  0.1852870E+03  0.7818608E-02  0.1162782E+00
          2   -1    0    0  502    0  0.00000000000E+00  0.00000000000E+00  0.18501069463E+03  0.18501069463E+03  0.00000000000E+00 0. -1.
         -2   -1    0    0    0  501 -0.00000000000E+00 -0.00000000000E+00 -0.28857492520E+03  0.28857492520E+03  0.00000000000E+00 0.  1.
          6    1    1    2  502    0 -0.57257169131E+02 -0.38326201136E+02 -0.19325765324E+03  0.26773083806E+03  0.17200000000E+03 0.  1.
         -6    1    1    2    0  501  0.57257169131E+02  0.38326201136E+02  0.89693422666E+02  0.20585478178E+03  0.17200000000E+03 0. -1.
</event>
<event>
 4    1  0.1059899E+000  0.1754678E+03  0.7818608E-02  0.1172263E+00
          2   -1    0    0  502    0  0.00000000000E+00  0.00000000000E+00  0.10025359212E+03  0.10025359212E+03  0.00000000000E+00 0.  1.
         -2   -1    0    0    0  501 -0.00000000000E+00 -0.00000000000E+00 -0.32601505899E+03  0.32601505899E+03  0.00000000000E+00 0. -1.
          6    1    1    2  502    0 -0.13772648048E+02  0.31863032690E+02 -0.61557153680E+02  0.18595220315E+03  0.17200000000E+03 0.  1.
         -6    1    1    2    0  501  0.13772648048E+02 -0.31863032690E+02 -0.16420431319E+03  0.24031644795E+03  0.17200000000E+03 0. -1.
</event>
<event>
 4    1  0.1059899E+000  0.2174826E+03  0.7818608E-02  0.1135774E+00
          1   -1    0    0  502    0  0.00000000000E+00  0.00000000000E+00  0.21510923567E+04  0.21510923567E+04  0.00000000000E+00 0. -1.
         -1   -1    0    0    0  501 -0.00000000000E+00 -0.00000000000E+00 -0.58009039886E+02  0.58009039886E+02  0.00000000000E+00 0.  1.
          6    1    1    2  502    0 -0.13287191138E+03 -0.77298365391E+01  0.19169330832E+04  0.19292307122E+04  0.17200000000E+03 0. -1.
         -6    1    1    2    0  501  0.13287191138E+03  0.77298365391E+01  0.17615023360E+03  0.27987068443E+03  0.17200000000E+03 0.  1.
</event>
<event>
 4    1  0.1059899E+000  0.1960514E+03  0.7818608E-02  0.1153114E+00
          2   -1    0    0  502    0  0.00000000000E+00  0.00000000000E+00  0.24435450530E+04  0.24435450530E+04  0.00000000000E+00 0. -1.
         -2   -1    0    0    0  501 -0.00000000000E+00 -0.00000000000E+00 -0.15736846604E+02  0.15736846604E+02  0.00000000000E+00 0.  1.
          6    1    1    2  502    0 -0.84900617172E+02  0.40546823637E+02  0.12401613612E+04  0.12555621695E+04  0.17200000000E+03 0. -1.
         -6    1    1    2    0  501  0.84900617172E+02 -0.40546823637E+02  0.11876468452E+04  0.12037197301E+04  0.17200000000E+03 0. -1.
</event>
<event>
 4    1  0.1059899E+000  0.1862383E+03  0.7818608E-02  0.1161899E+00
         -2   -1    0    0    0  501 -0.00000000000E+00  0.00000000000E+00  0.81733072637E+02  0.81733072637E+02  0.00000000000E+00 0. -1.
          2   -1    0    0  502    0  0.00000000000E+00 -0.00000000000E+00 -0.48628241688E+03  0.48628241688E+03  0.00000000000E+00 0.  1.
          6    1    1    2  502    0  0.48531391268E+01  0.71254207058E+02 -0.10093260538E+03  0.21183037037E+03  0.17200000000E+03 0. -1.
         -6    1    1    2    0  501 -0.48531391268E+01 -0.71254207058E+02 -0.30361673886E+03  0.35618511914E+03  0.17200000000E+03 0. -1.
</event>
<event>
 4    1  0.1059899E+000  0.2130006E+03  0.7818608E-02  0.1139212E+00
         -1   -1    0    0    0  501 -0.00000000000E+00  0.00000000000E+00  0.25106798758E+03  0.25106798758E+03  0.00000000000E+00 0.  1.
          1   -1    0    0  502    0  0.00000000000E+00 -0.00000000000E+00 -0.18499399841E+03  0.18499399841E+03  0.00000000000E+00 0. -1.
          6    1    1    2  502    0  0.83294976674E+02 -0.94059573758E+02 -0.16117639606E+00  0.21300066322E+03  0.17200000000E+03 0.  1.
         -6    1    1    2    0  501 -0.83294976674E+02  0.94059573758E+02  0.66235165566E+02  0.22306132276E+03  0.17200000000E+03 0. -1.
</event>
<event>
 4    1  0.1059899E+000  0.1801594E+03  0.7818608E-02  0.1167649E+00
          2   -1    0    0  502    0  0.00000000000E+00  0.00000000000E+00  0.42432091051E+02  0.42432091051E+02  0.00000000000E+00 0. -1.
         -2   -1    0    0    0  501 -0.00000000000E+00 -0.00000000000E+00 -0.77023647182E+03  0.77023647182E+03  0.00000000000E+00 0.  1.
          6    1    1    2  502    0 -0.29216107672E+02  0.44942330866E+02 -0.39764280886E+03  0.43655148320E+03  0.17200000000E+03 0.  1.
         -6    1    1    2    0  501  0.29216107672E+02 -0.44942330866E+02 -0.33016157192E+03  0.37611707967E+03  0.17200000000E+03 0.  1.
</event>
<event>
 4    1  0.1059899E+000  0.2067761E+03  0.7818608E-02  0.1144145E+00
          2   -1    0    0  502    0  0.00000000000E+00  0.00000000000E+00  0.26871654137E+03  0.26871654137E+03  0.00000000000E+00 0. -1.
         -2   -1    0    0    0  501 -0.00000000000E+00 -0.00000000000E+00 -0.18996681361E+03  0.18996681361E+03  0.00000000000E+00 0.  1.
          6    1    1    2  502    0  0.10870195895E+03 -0.36826946019E+02 -0.53051819345E+02  0.21347326617E+03  0.17200000000E+03 0.  1.
         -6    1    1    2    0  501 -0.10870195895E+03  0.36826946019E+02  0.13180154711E+03  0.24521008881E+03  0.17200000000E+03 0. -1.
</event>
<event>
 4    1  0.1059899E+000  0.2015439E+03  0.7818608E-02  0.1148443E+00
          2   -1    0    0  502    0  0.00000000000E+00  0.00000000000E+00  0.13875908432E+04  0.13875908432E+04  0.00000000000E+00 0.  1.
         -2   -1    0    0    0  501 -0.00000000000E+00 -0.00000000000E+00 -0.29944489197E+02  0.29944489197E+02  0.00000000000E+00 0. -1.
          6    1    1    2  502    0  0.28785523609E+02  0.10103129593E+03  0.78490375843E+03  0.81036648445E+03  0.17200000000E+03 0.  1.
         -6    1    1    2    0  501 -0.28785523609E+02 -0.10103129593E+03  0.57274259555E+03  0.60716884792E+03  0.17200000000E+03 0. -1.
</event>
<event>
 4    1  0.1059899E+000  0.1901347E+03  0.7818608E-02  0.1158340E+00
          2   -1    0    0  502    0  0.00000000000E+00  0.00000000000E+00  0.25138232209E+04  0.25138232209E+04  0.00000000000E+00 0. -1.
         -2   -1    0    0    0  501 -0.00000000000E+00 -0.00000000000E+00 -0.15293062072E+02  0.15293062072E+02  0.00000000000E+00 0.  1.
          6    1    1    2  502    0  0.21159454339E+02 -0.78227102333E+02  0.94044020826E+03  0.95946807521E+03  0.17200000000E+03 0.  1.
         -6    1    1    2    0  501 -0.21159454339E+02  0.78227102333E+02  0.15580899505E+04  0.15696482077E+04  0.17200000000E+03 0.  1.
</event>
<event>
 4    1  0.1059899E+000  0.1739197E+03  0.7818608E-02  0.1173821E+00
         -2   -1    0    0    0  501 -0.00000000000E+00  0.00000000000E+00  0.18573139756E+02  0.18573139756E+02  0.00000000000E+00 0. -1.
          2   -1    0    0  502    0  0.00000000000E+00 -0.00000000000E+00 -0.16392532696E+04  0.16392532696E+04  0.00000000000E+00 0.  1.
          6    1    1    2  502    0  0.25247465573E+02 -0.51587582130E+01 -0.87719167846E+03  0.89426689980E+03  0.17200000000E+03 0.  1.
         -6    1    1    2    0  501 -0.25247465573E+02  0.51587582130E+01 -0.74348845141E+03  0.76355950959E+03  0.17200000000E+03 0. -1.
</event>
<event>
 4    1  0.1059899E+000  0.2157616E+03  0.7818608E-02  0.1137083E+00
         -1   -1    0    0    0  501 -0.00000000000E+00  0.00000000000E+00  0.47288005245E+02  0.47288005245E+02  0.00000000000E+00 0. -1.
          1   -1    0    0  502    0  0.00000000000E+00 -0.00000000000E+00 -0.11459430611E+04  0.11459430611E+04  0.00000000000E+00 0.  1.
          6    1    1    2  502    0  0.11912563651E+03 -0.52708318934E+02 -0.77329161562E+03  0.80282813039E+03  0.17200000000E+03 0.  1.
         -6    1    1    2    0  501 -0.11912563651E+03  0.52708318934E+02 -0.32536344022E+03  0.39040293594E+03  0.17200000000E+03 0. -1.
</event>
<event>
 4    1  0.1059899E+000  0.1791696E+03  0.7818608E-02  0.1168609E+00
         -3   -1    0    0    0  501 -0.00000000000E+00  0.00000000000E+00  0.11562573595E+04  0.11562573595E+04  0.00000000000E+00 0. -1.
          3   -1    0    0  502    0  0.00000000000E+00 -0.00000000000E+00 -0.31104123426E+02  0.31104123426E+02  0.00000000000E+00 0.  1.
          6    1    1    2  502    0  0.44849754816E+02 -0.22499912690E+02  0.36801462846E+03  0.40931224430E+03  0.17200000000E+03 0.  1.
         -6    1    1    2    0  501 -0.44849754816E+02  0.22499912690E+02  0.75713860765E+03  0.77804923866E+03  0.17200000000E+03 0. -1.
</event>
<event>
 4    1  0.1059899E+000  0.2022003E+03  0.7818608E-02  0.1147896E+00
         -1   -1    0    0    0  501 -0.00000000000E+00  0.00000000000E+00  0.13568166126E+03  0.13568166126E+03  0.00000000000E+00 0.  1.
          1   -1    0    0  502    0  0.00000000000E+00 -0.00000000000E+00 -0.34926358371E+03  0.34926358371E+03  0.00000000000E+00 0. -1.
          6    1    1    2  502    0 -0.10440229122E+03  0.20028049933E+02 -0.16964187949E+02  0.20291068200E+03  0.17200000000E+03 0.  1.
         -6    1    1    2    0  501  0.10440229122E+03 -0.20028049933E+02 -0.19661773449E+03  0.28203456298E+03  0.17200000000E+03 0. -1.
</event>
<event>
 4    1  0.1059899E+000  0.1768600E+03  0.7818608E-02  0.1170877E+00
          2   -1    0    0  502    0  0.00000000000E+00  0.00000000000E+00  0.53640861589E+02  0.53640861589E+02  0.00000000000E+00 0. -1.
         -2   -1    0    0    0  501 -0.00000000000E+00 -0.00000000000E+00 -0.60883106486E+03  0.60883106486E+03  0.00000000000E+00 0.  1.
          6    1    1    2  502    0 -0.34182655268E+01 -0.41033757594E+02 -0.34565432306E+03  0.38827356960E+03  0.17200000000E+03 0. -1.
         -6    1    1    2    0  501  0.34182655268E+01  0.41033757594E+02 -0.20953588021E+03  0.27419835685E+03  0.17200000000E+03 0. -1.
</event>
<event>
 4    1  0.1059899E+000  0.3344304E+03  0.7818608E-02  0.1069193E+00
         -1   -1    0    0    0  501 -0.00000000000E+00  0.00000000000E+00  0.18620973214E+03  0.18620973214E+03  0.00000000000E+00 0. -1.
          1   -1    0    0  502    0  0.00000000000E+00 -0.00000000000E+00 -0.60261070283E+03  0.60261070283E+03  0.00000000000E+00 0.  1.
          6    1    1    2  502    0  0.23789073100E+03 -0.16021147782E+03 -0.23079514723E+03  0.40633744290E+03  0.17200000000E+03 0.  1.
         -6    1    1    2    0  501 -0.23789073100E+03  0.16021147782E+03 -0.18560582346E+03  0.38248299207E+03  0.17200000000E+03 0.  1.
</event>
<event>
 4    1  0.1059899E+000  0.1895144E+03  0.7818608E-02  0.1158900E+00
         -1   -1    0    0    0  501 -0.00000000000E+00  0.00000000000E+00  0.14800434392E+03  0.14800434392E+03  0.00000000000E+00 0. -1.
          1   -1    0    0  502    0  0.00000000000E+00 -0.00000000000E+00 -0.25991741889E+03  0.25991741889E+03  0.00000000000E+00 0.  1.
          6    1    1    2  502    0 -0.79447321852E+02 -0.44531996984E+01 -0.34111862653E+01  0.18954509788E+03  0.17200000000E+03 0. -1.
         -6    1    1    2    0  501  0.79447321852E+02  0.44531996984E+01 -0.10850188871E+03  0.21837666494E+03  0.17200000000E+03 0.  1.
</event>
<event>
 4    1  0.1059899E+000  0.1816837E+03  0.7818608E-02  0.1166183E+00
          2   -1    0    0  502    0  0.00000000000E+00  0.00000000000E+00  0.13297385643E+04  0.13297385643E+04  0.00000000000E+00 0. -1.
         -2   -1    0    0    0  501 -0.00000000000E+00 -0.00000000000E+00 -0.50298604804E+02  0.50298604804E+02  0.00000000000E+00 0.  1.
          6    1    1    2  502    0 -0.48344579886E+02  0.32981496115E+02  0.11307855070E+04  0.11452881036E+04  0.17200000000E+03 0. -1.
         -6    1    1    2    0  501  0.48344579886E+02 -0.32981496115E+02  0.14865445249E+03  0.23474906546E+03  0.17200000000E+03 0.  1.
</event>
<event>
 4    1  0.1059899E+000  0.2048302E+03  0.7818608E-02  0.1145727E+00
         -2   -1    0    0    0  501 -0.00000000000E+00  0.00000000000E+00  0.14186540193E+02  0.14186540193E+02  0.00000000000E+00 0.  1.
          2   -1    0    0  502    0  0.00000000000E+00 -0.00000000000E+00 -0.30834070718E+04  0.30834070718E+04  0.00000000000E+00 0. -1.
          6    1    1    2  502    0 -0.65181654200E+02  0.90126437943E+02 -0.12215280603E+04  0.12385823448E+04  0.17200000000E+03 0.  1.
         -6    1    1    2    0  501  0.65181654200E+02 -0.90126437943E+02 -0.18476924713E+04  0.18590112672E+04  0.17200000000E+03 0. -1.
</event>
<event>
 4    1  0.1059899E+000  0.6471067E+03  0.7818608E-02  0.9812223E-01
          2   -1    0    0  502    0  0.00000000000E+00  0.00000000000E+00  0.24668899753E+04  0.24668899753E+04  0.00000000000E+00 0. -1.
         -2   -1    0    0    0  501 -0.00000000000E+00 -0.00000000000E+00 -0.17033421481E+03  0.17033421481E+03  0.00000000000E+00 0.  1.
          6    1    1    2  502    0 -0.79877691902E+02 -0.61869429203E+03  0.10708531691E+04  0.12511888676E+04  0.17200000000E+03 0.  1.
         -6    1    1    2    0  501  0.79877691902E+02  0.61869429203E+03  0.12257025914E+04  0.13860353225E+04  0.17200000000E+03 0. -1.
</event>
<event>
 4    1  0.1059899E+000  0.1773497E+03  0.7818608E-02  0.1170393E+00
         -1   -1    0    0    0  501 -0.00000000000E+00  0.00000000000E+00  0.13040248621E+03  0.13040248621E+03  0.00000000000E+00 0. -1.
          1   -1    0    0  502    0  0.00000000000E+00 -0.00000000000E+00 -0.24183634834E+03  0.24183634834E+03  0.00000000000E+00 0.  1.
          6    1    1    2  502    0 -0.41635583045E+02 -0.11635424986E+02 -0.65274231690E+02  0.18898050220E+03  0.17200000000E+03 0.  1.
         -6    1    1    2    0  501  0.41635583045E+02  0.11635424986E+02 -0.46159630443E+02  0.18325833234E+03  0.17200000000E+03 0. -1.
</event>
<event>
 4    1  0.1059899E+000  0.2392145E+03  0.7818608E-02  0.1120317E+00
         -1   -1    0    0    0  501 -0.00000000000E+00  0.00000000000E+00  0.37096116392E+02  0.37096116392E+02  0.00000000000E+00 0. -1.
          1   -1    0    0  502    0  0.00000000000E+00 -0.00000000000E+00 -0.15762901186E+04  0.15762901186E+04  0.00000000000E+00 0.  1.
          6    1    1    2  502    0 -0.42180493202E+02  0.16081164420E+03 -0.88757368006E+03  0.91924459011E+03  0.17200000000E+03 0.  1.
         -6    1    1    2    0  501  0.42180493202E+02 -0.16081164420E+03 -0.65162032210E+03  0.69414164484E+03  0.17200000000E+03 0. -1.
</event>
<event>
 4    1  0.1059899E+000  0.2002805E+03  0.7818608E-02  0.1149503E+00
         -2   -1    0    0    0  501 -0.00000000000E+00  0.00000000000E+00  0.95851118855E+03  0.95851118855E+03  0.00000000000E+00 0.  1.
          2   -1    0    0  502    0  0.00000000000E+00 -0.00000000000E+00 -0.56625447426E+02  0.56625447426E+02  0.00000000000E+00 0. -1.
          6    1    1    2  502    0  0.78015273922E+02  0.66647411378E+02  0.71023000680E+03  0.73792880616E+03  0.17200000000E+03 0.  1.
         -6    1    1    2    0  501 -0.78015273922E+02 -0.66647411378E+02  0.19165573432E+03  0.27720782981E+03  0.17200000000E+03 0. -1.
</event>
<event>
 4    1  0.1059899E+000  0.2250723E+03  0.7818608E-02  0.1130157E+00
         -2   -1    0    0    0  501 -0.00000000000E+00  0.00000000000E+00  0.62900417710E+02  0.62900417710E+02  0.00000000000E+00 0. -1.
          2   -1    0    0  502    0  0.00000000000E+00 -0.00000000000E+00 -0.82880867666E+03  0.82880867666E+03  0.00000000000E+00 0.  1.
          6    1    1    2  502    0 -0.29422709302E+02 -0.14215427527E+03 -0.30796171025E+03  0.38144193369E+03  0.17200000000E+03 0.  1.
         -6    1    1    2    0  501  0.29422709302E+02  0.14215427527E+03 -0.45794654870E+03  0.51026716068E+03  0.17200000000E+03 0.  1.
</event>
<event>
 4    1  0.1059899E+000  0.2336855E+03  0.7818608E-02  0.1124072E+00
         -4   -1    0    0    0  501 -0.00000000000E+00  0.00000000000E+00  0.32038344329E+03  0.32038344329E+03  0.00000000000E+00 0.  1.
          4   -1    0    0  502    0  0.00000000000E+00 -0.00000000000E+00 -0.24901700567E+03  0.24901700567E+03  0.00000000000E+00 0. -1.
          6    1    1    2  502    0  0.15742010414E+03 -0.15614793184E+02  0.19560118684E+03  0.30474372060E+03  0.17200000000E+03 0.  1.
         -6    1    1    2    0  501 -0.15742010414E+03  0.15614793184E+02 -0.12423474922E+03  0.26465672836E+03  0.17200000000E+03 0. -1.
</event>
<event>
 4    1  0.1059899E+000  0.1782160E+03  0.7818608E-02  0.1169541E+00
         -2   -1    0    0    0  501 -0.00000000000E+00  0.00000000000E+00  0.28931193429E+02  0.28931193429E+02  0.00000000000E+00 0.  1.
          2   -1    0    0  502    0  0.00000000000E+00 -0.00000000000E+00 -0.13276480253E+04  0.13276480253E+04  0.00000000000E+00 0. -1.
          6    1    1    2  502    0 -0.44368329886E+02  0.14436361937E+02 -0.93157628258E+03  0.94846999294E+03  0.17200000000E+03 0. -1.
         -6    1    1    2    0  501  0.44368329886E+02 -0.14436361937E+02 -0.36714054932E+03  0.40810922582E+03  0.17200000000E+03 0.  1.
</event>
<event>
 4    1  0.1059899E+000  0.1814242E+03  0.7818608E-02  0.1166432E+00
         -2   -1    0    0    0  501 -0.00000000000E+00  0.00000000000E+00  0.12592947803E+02  0.12592947803E+02  0.00000000000E+00 0.  1.
          2   -1    0    0  502    0  0.00000000000E+00 -0.00000000000E+00 -0.28296537247E+04  0.28296537247E+04  0.00000000000E+00 0. -1.
          6    1    1    2  502    0 -0.55261704347E+02  0.16639677214E+02 -0.18010865340E+04  0.18102009385E+04  0.17200000000E+03 0. -1.
         -6    1    1    2    0  501  0.55261704347E+02 -0.16639677214E+02 -0.10159742429E+04  0.10320457340E+04  0.17200000000E+03 0. -1.
</event>
<event>
 4    1  0.1059899E+000  0.2139260E+03  0.7818608E-02  0.1138494E+00
          2   -1    0    0  502    0  0.00000000000E+00  0.00000000000E+00  0.13390077789E+04  0.13390077789E+04  0.00000000000E+00 0. -1.
         -2   -1    0    0    0  501 -0.00000000000E+00 -0.00000000000E+00 -0.71097265413E+02  0.71097265413E+02  0.00000000000E+00 0.  1.
          6    1    1    2  502    0  0.12475490284E+03 -0.24830194864E+02  0.11420243689E+04  0.11618881114E+04  0.17200000000E+03 0. -1.
         -6    1    1    2    0  501 -0.12475490284E+03  0.24830194864E+02  0.12588614457E+03  0.24821693285E+03  0.17200000000E+03 0.  1.
</event>
<event>
 4    1  0.1059899E+000  0.2190001E+03  0.7818608E-02  0.1134631E+00
          2   -1    0    0  502    0  0.00000000000E+00  0.00000000000E+00  0.21815185098E+04  0.21815185098E+04  0.00000000000E+00 0.  1.
         -2   -1    0    0    0  501 -0.00000000000E+00 -0.00000000000E+00 -0.31794132062E+02  0.31794132062E+02  0.00000000000E+00 0. -1.
          6    1    1    2  502    0  0.90733956437E+02 -0.10071939447E+03  0.46017962954E+03  0.50963353375E+03  0.17200000000E+03 0.  1.
         -6    1    1    2    0  501 -0.90733956437E+02  0.10071939447E+03  0.16895447481E+04  0.17036791081E+04  0.17200000000E+03 0.  1.
</event>
<event>
 4    1  0.1059899E+000  0.3439996E+03  0.7818608E-02  0.1065105E+00
         -2   -1    0    0    0  501 -0.00000000000E+00  0.00000000000E+00  0.22214105625E+03  0.22214105625E+03  0.00000000000E+00 0.  1.
          2   -1    0    0  502    0  0.00000000000E+00 -0.00000000000E+00 -0.54570254533E+03  0.54570254533E+03  0.00000000000E+00 0. -1.
          6    1    1    2  502    0  0.13678643038E+03 -0.26465298160E+03 -0.22103092477E+03  0.40888922450E+03  0.17200000000E+03 0. -1.
         -6    1    1    2    0  501 -0.13678643038E+03  0.26465298160E+03 -0.10253056431E+03  0.35895437708E+03  0.17200000000E+03 0.  1.
</event>
<event>
 4    1  0.1059899E+000  0.2479147E+03  0.7818608E-02  0.1114630E+00
         -3   -1    0    0    0  501 -0.00000000000E+00  0.00000000000E+00  0.31033060018E+02  0.31033060018E+02  0.00000000000E+00 0. -1.
          3   -1    0    0  502    0  0.00000000000E+00 -0.00000000000E+00 -0.20808711474E+04  0.20808711474E+04  0.00000000000E+00 0.  1.
          6    1    1    2  502    0  0.64278999858E+02 -0.16657101983E+03 -0.12568057930E+04  0.12810240028E+04  0.17200000000E+03 0.  1.
         -6    1    1    2    0  501 -0.64278999858E+02  0.16657101983E+03 -0.79303229438E+03  0.83088020461E+03  0.17200000000E+03 0. -1.
</event>
<event>
 4    1  0.1059899E+000  0.2172819E+03  0.7818608E-02  0.1135926E+00
          2   -1    0    0  502    0  0.00000000000E+00  0.00000000000E+00  0.36293168646E+03  0.36293168646E+03  0.00000000000E+00 0.  1.
         -2   -1    0    0    0  501 -0.00000000000E+00 -0.00000000000E+00 -0.13416781952E+03  0.13416781952E+03  0.00000000000E+00 0. -1.
          6    1    1    2  502    0 -0.83668265829E+02  0.10308764578E+03  0.15774764370E+03  0.26850653718E+03  0.17200000000E+03 0. -1.
         -6    1    1    2    0  501  0.83668265829E+02 -0.10308764578E+03  0.71016223250E+02  0.22859296880E+03  0.17200000000E+03 0. -1.
</event>
<event>
 4    1  0.1059899E+000  0.2012996E+03  0.7818608E-02  0.1148647E+00
          2   -1    0    0  502    0  0.00000000000E+00  0.00000000000E+00  0.12047246761E+04  0.12047246761E+04  0.00000000000E+00 0.  1.
         -2   -1    0    0    0  501 -0.00000000000E+00 -0.00000000000E+00 -0.49237976249E+02  0.49237976249E+02  0.00000000000E+00 0. -1.
          6    1    1    2  502    0  0.86940574541E+02 -0.58127867046E+02  0.22480298943E+03  0.30175800981E+03  0.17200000000E+03 0. -1.
         -6    1    1    2    0  501 -0.86940574541E+02  0.58127867046E+02  0.93068371046E+03  0.95220464257E+03  0.17200000000E+03 0.  1.
</event>
<event>
 4    1  0.1059899E+000  0.1806497E+03  0.7818608E-02  0.1167176E+00
          2   -1    0    0  502    0  0.00000000000E+00  0.00000000000E+00  0.54290923194E+03  0.54290923194E+03  0.00000000000E+00 0. -1.
         -2   -1    0    0    0  501 -0.00000000000E+00 -0.00000000000E+00 -0.60884627118E+02  0.60884627118E+02  0.00000000000E+00 0.  1.
          6    1    1    2  502    0  0.53815871891E+02 -0.12415739235E+02  0.20696062922E+03  0.27471257834E+03  0.17200000000E+03 0.  1.
         -6    1    1    2    0  501 -0.53815871891E+02  0.12415739235E+02  0.27506397560E+03  0.32908128072E+03  0.17200000000E+03 0. -1.
</event>
<event>
 4    1  0.1059899E+000  0.1862216E+03  0.7818608E-02  0.1161914E+00
         -1   -1    0    0    0  501 -0.00000000000E+00  0.00000000000E+00  0.30696739717E+02  0.30696739717E+02  0.00000000000E+00 0.  1.
          1   -1    0    0  502    0  0.00000000000E+00 -0.00000000000E+00 -0.18791790158E+04  0.18791790158E+04  0.00000000000E+00 0. -1.
          6    1    1    2  502    0  0.59075735154E+02  0.40056737509E+02 -0.15273104309E+04  0.15386213429E+04  0.17200000000E+03 0. -1.
         -6    1    1    2    0  501 -0.59075735154E+02 -0.40056737509E+02 -0.32117184523E+03  0.37125441260E+03  0.17200000000E+03 0.  1.
</event>
<event>
 4    1  0.1059899E+000  0.2181464E+03  0.7818608E-02  0.1135273E+00
         -2   -1    0    0    0  501 -0.00000000000E+00  0.00000000000E+00  0.50044710767E+02  0.50044710767E+02  0.00000000000E+00 0. -1.
          2   -1    0    0  502    0  0.00000000000E+00 -0.00000000000E+00 -0.11022362908E+04  0.11022362908E+04  0.00000000000E+00 0.  1.
          6    1    1    2  502    0 -0.11436385842E+03 -0.70176553518E+02 -0.73957386021E+03  0.77107544085E+03  0.17200000000E+03 0.  1.
         -6    1    1    2    0  501  0.11436385842E+03  0.70176553518E+02 -0.31261771985E+03  0.38120556074E+03  0.17200000000E+03 0. -1.
</event>
<event>
 4    1  0.1059899E+000  0.2138937E+03  0.7818608E-02  0.1138519E+00
          2   -1    0    0  502    0  0.00000000000E+00  0.00000000000E+00  0.12354697403E+03  0.12354697403E+03  0.00000000000E+00 0.  1.
         -2   -1    0    0    0  501 -0.00000000000E+00 -0.00000000000E+00 -0.54683825260E+03  0.54683825260E+03  0.00000000000E+00 0. -1.
          6    1    1    2  502    0 -0.16467246111E+02 -0.12607667823E+03 -0.21198738787E+02  0.21494158628E+03  0.17200000000E+03 0.  1.
         -6    1    1    2    0  501  0.16467246111E+02  0.12607667823E+03 -0.40209253978E+03  0.45544364035E+03  0.17200000000E+03 0. -1.
</event>
<event>
 4    1  0.1059899E+000  0.1801193E+03  0.7818608E-02  0.1167688E+00
         -4   -1    0    0    0  501 -0.00000000000E+00  0.00000000000E+00  0.16929368687E+04  0.16929368687E+04  0.00000000000E+00 0.  1.
          4   -1    0    0  502    0  0.00000000000E+00 -0.00000000000E+00 -0.27148738367E+02  0.27148738367E+02  0.00000000000E+00 0. -1.
          6    1    1    2  502    0 -0.53299395610E+02  0.42585150004E+01  0.12993206781E+04  0.13117458538E+04  0.17200000000E+03 0.  1.
         -6    1    1    2    0  501  0.53299395610E+02 -0.42585150004E+01  0.36646745226E+03  0.40833975325E+03  0.17200000000E+03 0. -1.
</event>
<event>
 4    1  0.1059899E+000  0.2207486E+03  0.7818608E-02  0.1133326E+00
         -2   -1    0    0    0  501 -0.00000000000E+00  0.00000000000E+00  0.49823959841E+02  0.49823959841E+02  0.00000000000E+00 0.  1.
          2   -1    0    0  502    0  0.00000000000E+00 -0.00000000000E+00 -0.97805090348E+03  0.97805090348E+03  0.00000000000E+00 0. -1.
          6    1    1    2  502    0  0.77322886048E+02 -0.11474803954E+03 -0.46563596813E+03  0.51531232869E+03  0.17200000000E+03 0. -1.
         -6    1    1    2    0  501 -0.77322886048E+02  0.11474803954E+03 -0.46259097550E+03  0.51256253463E+03  0.17200000000E+03 0.  1.
</event>
<event>
 4    1  0.1059899E+000  0.1939049E+03  0.7818608E-02  0.1154986E+00
          1   -1    0    0  502    0  0.00000000000E+00  0.00000000000E+00  0.27690216963E+04  0.27690216963E+04  0.00000000000E+00 0. -1.
         -1   -1    0    0    0  501 -0.00000000000E+00 -0.00000000000E+00 -0.16499946600E+02  0.16499946600E+02  0.00000000000E+00 0.  1.
          6    1    1    2  502    0 -0.73651798076E+02  0.50897154628E+02  0.79020951004E+03  0.81365236894E+03  0.17200000000E+03 0.  1.
         -6    1    1    2    0  501  0.73651798076E+02 -0.50897154628E+02  0.19623122397E+04  0.19718692740E+04  0.17200000000E+03 0. -1.
</event>
<event>
 4    1  0.1059899E+000  0.1849297E+03  0.7818608E-02  0.1163116E+00
          1   -1    0    0  502    0  0.00000000000E+00  0.00000000000E+00  0.36506252254E+02  0.36506252254E+02  0.00000000000E+00 0. -1.
         -1   -1    0    0    0  501 -0.00000000000E+00 -0.00000000000E+00 -0.94485216180E+03  0.94485216180E+03  0.00000000000E+00 0.  1.
          6    1    1    2  502    0 -0.67836160242E+02 -0.36400552820E+01 -0.40887087764E+03  0.44874757851E+03  0.17200000000E+03 0. -1.
         -6    1    1    2    0  501  0.67836160242E+02  0.36400552820E+01 -0.49947503191E+03  0.53261083554E+03  0.17200000000E+03 0.  1.
</event>
<event>
 4    1  0.1059899E+000  0.2135109E+03  0.7818608E-02  0.1138816E+00
         -2   -1    0    0    0  501 -0.00000000000E+00  0.00000000000E+00  0.16742913336E+03  0.16742913336E+03  0.00000000000E+00 0.  1.
          2   -1    0    0  502    0  0.00000000000E+00 -0.00000000000E+00 -0.36711036045E+03  0.36711036045E+03  0.00000000000E+00 0. -1.
          6    1    1    2  502    0  0.10166150021E+03  0.75284962995E+02  0.36001679543E+02  0.21652484201E+03  0.17200000000E+03 0. -1.
         -6    1    1    2    0  501 -0.10166150021E+03 -0.75284962995E+02 -0.23568290664E+03  0.31801465180E+03  0.17200000000E+03 0. -1.
</event>
<event>
 4    1  0.1059899E+000  0.2657222E+03  0.7818608E-02  0.1103753E+00
         -2   -1    0    0    0  501 -0.00000000000E+00  0.00000000000E+00  0.16922009479E+03  0.16922009479E+03  0.00000000000E+00 0. -1.
          2   -1    0    0  502    0  0.00000000000E+00 -0.00000000000E+00 -0.76408264669E+03  0.76408264669E+03  0.00000000000E+00 0.  1.
          6    1    1    2  502    0  0.15536391054E+03  0.12994748754E+03  0.16965357563E+02  0.26626324864E+03  0.17200000000E+03 0. -1.
         -6    1    1    2    0  501 -0.15536391054E+03 -0.12994748754E+03 -0.61182790947E+03  0.66703949285E+03  0.17200000000E+03 0.  1.
</event>
<event>
 4    1  0.1059899E+000  0.3145314E+03  0.7818608E-02  0.1078194E+00
          2   -1    0    0  502    0  0.00000000000E+00  0.00000000000E+00  0.25313083979E+04  0.25313083979E+04  0.00000000000E+00 0.  1.
         -2   -1    0    0    0  501 -0.00000000000E+00 -0.00000000000E+00 -0.64163600988E+02  0.64163600988E+02  0.00000000000E+00 0. -1.
          6    1    1    2  502    0 -0.22161227248E+03  0.14224619877E+03  0.42221000231E+03  0.52648956915E+03  0.17200000000E+03 0. -1.
         -6    1    1    2    0  501  0.22161227248E+03 -0.14224619877E+03  0.20449347946E+04  0.20689824298E+04  0.17200000000E+03 0.  1.
</event>
<event>
 4    1  0.1059899E+000  0.2441718E+03  0.7818608E-02  0.1117045E+00
          2   -1    0    0  502    0  0.00000000000E+00  0.00000000000E+00  0.12089750846E+03  0.12089750846E+03  0.00000000000E+00 0.  1.
         -2   -1    0    0    0  501 -0.00000000000E+00 -0.00000000000E+00 -0.56133159820E+03  0.56133159820E+03  0.00000000000E+00 0. -1.
          6    1    1    2  502    0  0.35206230217E+02  0.16969492625E+03 -0.10132737995E+03  0.26436165488E+03  0.17200000000E+03 0.  1.
         -6    1    1    2    0  501 -0.35206230217E+02 -0.16969492625E+03 -0.33910670979E+03  0.41786745179E+03  0.17200000000E+03 0. -1.
</event>
<event>
 4    1  0.1059899E+000  0.3856035E+03  0.7818608E-02  0.1048882E+00
         -2   -1    0    0    0  501 -0.00000000000E+00  0.00000000000E+00  0.23652943576E+03  0.23652943576E+03  0.00000000000E+00 0. -1.
          2   -1    0    0  502    0  0.00000000000E+00 -0.00000000000E+00 -0.72119286522E+03  0.72119286522E+03  0.00000000000E+00 0.  1.
          6    1    1    2  502    0 -0.34346032605E+03  0.33780084968E+02 -0.41388396994E+03  0.56567661282E+03  0.17200000000E+03 0.  1.
         -6    1    1    2    0  501  0.34346032605E+03 -0.33780084968E+02 -0.70779459525E+02  0.39204568816E+03  0.17200000000E+03 0. -1.
</event>
<event>
 4    1  0.1059899E+000  0.1737856E+03  0.7818608E-02  0.1173957E+00
         -2   -1    0    0    0  501 -0.00000000000E+00  0.00000000000E+00  0.31605172803E+02  0.31605172803E+02  0.00000000000E+00 0. -1.
          2   -1    0    0  502    0  0.00000000000E+00 -0.00000000000E+00 -0.10248827527E+04  0.10248827527E+04  0.00000000000E+00 0.  1.
          6    1    1    2  502    0 -0.22053148355E+02 -0.11449290433E+02 -0.35927977454E+03  0.39910322474E+03  0.17200000000E+03 0. -1.
         -6    1    1    2    0  501  0.22053148355E+02  0.11449290433E+02 -0.63399780540E+03  0.65738470081E+03  0.17200000000E+03 0.  1.
</event>
<event>
 4    1  0.1059899E+000  0.2076978E+03  0.7818608E-02  0.1143402E+00
         -4   -1    0    0    0  501 -0.00000000000E+00  0.00000000000E+00  0.97444574481E+02  0.97444574481E+02  0.00000000000E+00 0.  1.
          4   -1    0    0  502    0  0.00000000000E+00 -0.00000000000E+00 -0.64132227809E+03  0.64132227809E+03  0.00000000000E+00 0. -1.
          6    1    1    2  502    0 -0.24942646751E+00 -0.11642297122E+03 -0.66370115542E+02  0.21804440529E+03  0.17200000000E+03 0.  1.
         -6    1    1    2    0  501  0.24942646751E+00  0.11642297122E+03 -0.47750758806E+03  0.52072244728E+03  0.17200000000E+03 0. -1.
</event>
<event>
 4    1  0.1059899E+000  0.1745679E+03  0.7818608E-02  0.1173166E+00
         -2   -1    0    0    0  501 -0.00000000000E+00  0.00000000000E+00  0.17858041504E+04  0.17858041504E+04  0.00000000000E+00 0.  1.
          2   -1    0    0  502    0  0.00000000000E+00 -0.00000000000E+00 -0.17588463411E+02  0.17588463411E+02  0.00000000000E+00 0. -1.
          6    1    1    2  502    0 -0.71693029742E+01  0.28957990368E+02  0.10397300185E+04  0.10542829200E+04  0.17200000000E+03 0.  1.
         -6    1    1    2    0  501  0.71693029742E+01 -0.28957990368E+02  0.72848566850E+03  0.74910969379E+03  0.17200000000E+03 0. -1.
</event>
<event>
 4    1  0.1059899E+000  0.3333608E+03  0.7818608E-02  0.1069659E+00
          1   -1    0    0  502    0  0.00000000000E+00  0.00000000000E+00  0.41016316621E+03  0.41016316621E+03  0.00000000000E+00 0. -1.
         -1   -1    0    0    0  501 -0.00000000000E+00 -0.00000000000E+00 -0.27203797155E+03  0.27203797155E+03  0.00000000000E+00 0.  1.
          6    1    1    2  502    0 -0.28406148164E+03 -0.29232074021E+02  0.47388322502E+02  0.33671218067E+03  0.17200000000E+03 0. -1.
         -6    1    1    2    0  501  0.28406148164E+03  0.29232074021E+02  0.90736872159E+02  0.34548895709E+03  0.17200000000E+03 0.  1.
</event>
<event>
 4    1  0.1059899E+000  0.2201239E+03  0.7818608E-02  0.1133791E+00
          1   -1    0    0  502    0  0.00000000000E+00  0.00000000000E+00  0.31538149644E+03  0.31538149644E+03  0.00000000000E+00 0.  1.
         -1   -1    0    0    0  501 -0.00000000000E+00 -0.00000000000E+00 -0.26977230078E+03  0.26977230078E+03  0.00000000000E+00 0. -1.
          6    1    1    2  502    0  0.82853582357E+02  0.10957098081E+03 -0.16916037973E+03  0.27761439087E+03  0.17200000000E+03 0. -1.
         -6    1    1    2    0  501 -0.82853582357E+02 -0.10957098081E+03  0.21476957539E+03  0.30753940635E+03  0.17200000000E+03 0.  1.
</event>
<event>
 4    1  0.1059899E+000  0.1744823E+03  0.7818608E-02  0.1173253E+00
         -2   -1    0    0    0  501 -0.00000000000E+00  0.00000000000E+00  0.22822656138E+02  0.22822656138E+02  0.00000000000E+00 0.  1.
          2   -1    0    0  502    0  0.00000000000E+00 -0.00000000000E+00 -0.13650375780E+04  0.13650375780E+04  0.00000000000E+00 0. -1.
          6    1    1    2  502    0 -0.11824639277E+02 -0.26837230720E+02 -0.56636925035E+03  0.59263663976E+03  0.17200000000E+03 0.  1.
         -6    1    1    2    0  501  0.11824639277E+02  0.26837230720E+02 -0.77584567150E+03  0.79522359436E+03  0.17200000000E+03 0. -1.
</event>
<event>
 4    1  0.1059899E+000  0.1827169E+03  0.7818608E-02  0.1165199E+00
         -4   -1    0    0    0  501 -0.00000000000E+00  0.00000000000E+00  0.51760076478E+02  0.51760076478E+02  0.00000000000E+00 0.  1.
          4   -1    0    0  502    0  0.00000000000E+00 -0.00000000000E+00 -0.66531192691E+03  0.66531192691E+03  0.00000000000E+00 0. -1.
          6    1    1    2  502    0  0.23204045901E+02  0.57122894284E+02 -0.24413565102E+03  0.30493879533E+03  0.17200000000E+03 0.  1.
         -6    1    1    2    0  501 -0.23204045901E+02 -0.57122894284E+02 -0.36941619941E+03  0.41213320806E+03  0.17200000000E+03 0. -1.
</event>
<event>
 4    1  0.1059899E+000  0.3124477E+03  0.7818608E-02  0.1079179E+00
         -2   -1    0    0    0  501 -0.00000000000E+00  0.00000000000E+00  0.41128761825E+03  0.41128761825E+03  0.00000000000E+00 0. -1.
          2   -1    0    0  502    0  0.00000000000E+00 -0.00000000000E+00 -0.24938132994E+03  0.24938132994E+03  0.00000000000E+00 0.  1.
          6    1    1    2  502    0  0.13146130853E+03  0.22529426811E+03  0.84289937813E+01  0.31256140328E+03  0.17200000000E+03 0. -1.
         -6    1    1    2    0  501 -0.13146130853E+03 -0.22529426811E+03  0.15347729452E+03  0.34810754490E+03  0.17200000000E+03 0. -1.
</event>
<event>
 4    1  0.1059899E+000  0.2050096E+03  0.7818608E-02  0.1145580E+00
         -2   -1    0    0    0  501 -0.00000000000E+00  0.00000000000E+00  0.32345459405E+02  0.32345459405E+02  0.00000000000E+00 0.  1.
          2   -1    0    0  502    0  0.00000000000E+00 -0.00000000000E+00 -0.13002646029E+04  0.13002646029E+04  0.00000000000E+00 0. -1.
          6    1    1    2  502    0  0.61387703046E+02 -0.93147574359E+02 -0.61654318999E+03  0.64973411933E+03  0.17200000000E+03 0.  1.
         -6    1    1    2    0  501 -0.61387703046E+02  0.93147574359E+02 -0.65137595352E+03  0.68287594299E+03  0.17200000000E+03 0. -1.
</event>
<event>
 4    1  0.1059899E+000  0.1788140E+03  0.7818608E-02  0.1168956E+00
         -2   -1    0    0    0  501 -0.00000000000E+00  0.00000000000E+00  0.24404652626E+02  0.24404652626E+02  0.00000000000E+00 0.  1.
          2   -1    0    0  502    0  0.00000000000E+00 -0.00000000000E+00 -0.14215288242E+04  0.14215288242E+04  0.00000000000E+00 0. -1.
          6    1    1    2  502    0  0.53175232815E+01 -0.48602076020E+02 -0.90090466881E+03  0.91847899275E+03  0.17200000000E+03 0.  1.
         -6    1    1    2    0  501 -0.53175232815E+01  0.48602076020E+02 -0.49621950281E+03  0.52745448411E+03  0.17200000000E+03 0.  1.
</event>
<event>
 4    1  0.1059899E+000  0.2301074E+03  0.7818608E-02  0.1126564E+00
          2   -1    0    0  502    0  0.00000000000E+00  0.00000000000E+00  0.44366162970E+03  0.44366162970E+03  0.00000000000E+00 0.  1.
         -2   -1    0    0    0  501 -0.00000000000E+00 -0.00000000000E+00 -0.13415541835E+03  0.13415541835E+03  0.00000000000E+00 0. -1.
          6    1    1    2  502    0 -0.12817653117E+03 -0.83283720168E+02  0.58764441352E+02  0.23749244357E+03  0.17200000000E+03 0. -1.
         -6    1    1    2    0  501  0.12817653117E+03  0.83283720168E+02  0.25074177000E+03  0.34032460447E+03  0.17200000000E+03 0.  1.
</event>
<event>
 4    1  0.1059899E+000  0.9026544E+03  0.7818608E-02  0.9422269E-01
          2   -1    0    0  502    0  0.00000000000E+00  0.00000000000E+00  0.80226748281E+03  0.80226748281E+03  0.00000000000E+00 0.  1.
         -2   -1    0    0    0  501 -0.00000000000E+00 -0.00000000000E+00 -0.11525621924E+04  0.11525621924E+04  0.00000000000E+00 0. -1.
          6    1    1    2  502    0  0.66421086987E+03  0.58653632523E+03 -0.51207990744E+03  0.10377912950E+04  0.17200000000E+03 0. -1.
         -6    1    1    2    0  501 -0.66421086987E+03 -0.58653632523E+03  0.16178519784E+03  0.91703838018E+03  0.17200000000E+03 0.  1.
</event>
<event>
 4    1  0.1059899E+000  0.2937330E+03  0.7818608E-02  0.1088416E+00
          2   -1    0    0  502    0  0.00000000000E+00  0.00000000000E+00  0.14882254075E+04  0.14882254075E+04  0.00000000000E+00 0. -1.
         -2   -1    0    0    0  501 -0.00000000000E+00 -0.00000000000E+00 -0.58720870827E+02  0.58720870827E+02  0.00000000000E+00 0.  1.
          6    1    1    2  502    0  0.16237822275E+03 -0.17415044325E+03  0.80195658967E+03  0.85405704483E+03  0.17200000000E+03 0.  1.
         -6    1    1    2    0  501 -0.16237822275E+03  0.17415044325E+03  0.62754794700E+03  0.69288923349E+03  0.17200000000E+03 0.  1.
</event>
<event>
 4    1  0.1059899E+000  0.2237807E+03  0.7818608E-02  0.1131095E+00
         -2   -1    0    0    0  501 -0.00000000000E+00  0.00000000000E+00  0.40239570150E+02  0.40239570150E+02  0.00000000000E+00 0. -1.
          2   -1    0    0  502    0  0.00000000000E+00 -0.00000000000E+00 -0.12804889806E+04  0.12804889806E+04  0.00000000000E+00 0.  1.
          6    1    1    2  502    0 -0.76116472610E+02  0.12124395310E+03 -0.50940367464E+03  0.55639007657E+03  0.17200000000E+03 0. -1.
         -6    1    1    2    0  501  0.76116472610E+02 -0.12124395310E+03 -0.73084573586E+03  0.76433847423E+03  0.17200000000E+03 0.  1.
</event>
<event>
 4    1  0.1059899E+000  0.2057698E+03  0.7818608E-02  0.1144960E+00
          1   -1    0    0  502    0  0.00000000000E+00  0.00000000000E+00  0.10222809291E+04  0.10222809291E+04  0.00000000000E+00 0.  1.
         -1   -1    0    0    0  501 -0.00000000000E+00 -0.00000000000E+00 -0.44811606032E+02  0.44811606032E+02  0.00000000000E+00 0. -1.
          6    1    1    2  502    0 -0.66964022508E+02  0.90956121820E+02  0.63555448674E+03  0.66803495569E+03  0.17200000000E+03 0.  1.
         -6    1    1    2    0  501  0.66964022508E+02 -0.90956121820E+02  0.34191483630E+03  0.39905757942E+03  0.17200000000E+03 0.  1.
</event>
<event>
 4    1  0.1059899E+000  0.1870897E+03  0.7818608E-02  0.1161113E+00
          1   -1    0    0  502    0  0.00000000000E+00  0.00000000000E+00  0.99837747015E+03  0.99837747015E+03  0.00000000000E+00 0. -1.
         -1   -1    0    0    0  501 -0.00000000000E+00 -0.00000000000E+00 -0.35101385936E+02  0.35101385936E+02  0.00000000000E+00 0.  1.
          6    1    1    2  502    0 -0.71995874093E+02 -0.15334893871E+02  0.49949894306E+03  0.53338706300E+03  0.17200000000E+03 0. -1.
         -6    1    1    2    0  501  0.71995874093E+02  0.15334893871E+02  0.46377714115E+03  0.50009179308E+03  0.17200000000E+03 0. -1.
</event>
<event>
 4    1  0.1059899E+000  0.1994828E+03  0.7818608E-02  0.1150176E+00
         -2   -1    0    0    0  501 -0.00000000000E+00  0.00000000000E+00  0.89903835486E+02  0.89903835486E+02  0.00000000000E+00 0. -1.
          2   -1    0    0  502    0  0.00000000000E+00 -0.00000000000E+00 -0.58089428097E+03  0.58089428097E+03  0.00000000000E+00 0.  1.
          6    1    1    2  502    0  0.23482786198E+02  0.98274768280E+02 -0.40913226577E+03  0.45517313434E+03  0.17200000000E+03 0.  1.
         -6    1    1    2    0  501 -0.23482786198E+02 -0.98274768280E+02 -0.81858179716E+02  0.21562498212E+03  0.17200000000E+03 0. -1.
</event>
<event>
 4    1  0.1059899E+000  0.1939057E+03  0.7818608E-02  0.1154985E+00
         -1   -1    0    0    0  501 -0.00000000000E+00  0.00000000000E+00  0.41489950426E+02  0.41489950426E+02  0.00000000000E+00 0. -1.
          1   -1    0    0  502    0  0.00000000000E+00 -0.00000000000E+00 -0.11092754178E+04  0.11092754178E+04  0.00000000000E+00 0.  1.
          6    1    1    2  502    0 -0.86455246462E+02 -0.23257438028E+02 -0.28772325950E+03  0.34696410783E+03  0.17200000000E+03 0. -1.
         -6    1    1    2    0  501  0.86455246462E+02  0.23257438028E+02 -0.78006220791E+03  0.80380126044E+03  0.17200000000E+03 0.  1.
</event>
<event>
 4    1  0.1059899E+000  0.1943011E+03  0.7818608E-02  0.1154638E+00
         -1   -1    0    0    0  501 -0.00000000000E+00  0.00000000000E+00  0.48951328160E+03  0.48951328160E+03  0.00000000000E+00 0. -1.
          1   -1    0    0  502    0  0.00000000000E+00 -0.00000000000E+00 -0.11469482821E+03  0.11469482821E+03  0.00000000000E+00 0.  1.
          6    1    1    2  502    0  0.11519326508E+02  0.89645058415E+02  0.14501876045E+02  0.19484156587E+03  0.17200000000E+03 0. -1.
         -6    1    1    2    0  501 -0.11519326508E+02 -0.89645058415E+02  0.36031657735E+03  0.40936654393E+03  0.17200000000E+03 0. -1.
</event>
<event>
 4    1  0.1059899E+000  0.1933962E+03  0.7818608E-02  0.1155433E+00
          1   -1    0    0  502    0  0.00000000000E+00  0.00000000000E+00  0.11694272059E+04  0.11694272059E+04  0.00000000000E+00 0.  1.
         -1   -1    0    0    0  501 -0.00000000000E+00 -0.00000000000E+00 -0.61913190400E+02  0.61913190400E+02  0.00000000000E+00 0. -1.
          6    1    1    2  502    0 -0.75997159956E+02  0.45194145728E+02  0.12569223640E+03  0.23065259032E+03  0.17200000000E+03 0. -1.
         -6    1    1    2    0  501  0.75997159956E+02 -0.45194145728E+02  0.98182177914E+03  0.10006878060E+04  0.17200000000E+03 0.  1.
</event>
<event>
 4    1  0.1059899E+000  0.3070689E+03  0.7818608E-02  0.1081759E+00
          2   -1    0    0  502    0  0.00000000000E+00  0.00000000000E+00  0.13857467977E+04  0.13857467977E+04  0.00000000000E+00 0. -1.
         -2   -1    0    0    0  501 -0.00000000000E+00 -0.00000000000E+00 -0.80396813317E+02  0.80396813317E+02  0.00000000000E+00 0.  1.
          6    1    1    2  502    0  0.10760280684E+03  0.23049710504E+03  0.94002821450E+03  0.98891067520E+03  0.17200000000E+03 0. -1.
         -6    1    1    2    0  501 -0.10760280684E+03 -0.23049710504E+03  0.36532176986E+03  0.47723293579E+03  0.17200000000E+03 0. -1.
</event>
<event>
 4    1  0.1059899E+000  0.2150769E+03  0.7818608E-02  0.1137608E+00
         -2   -1    0    0    0  501 -0.00000000000E+00  0.00000000000E+00  0.57493662951E+02  0.57493662951E+02  0.00000000000E+00 0. -1.
          2   -1    0    0  502    0  0.00000000000E+00 -0.00000000000E+00 -0.90216915551E+03  0.90216915551E+03  0.00000000000E+00 0.  1.
          6    1    1    2  502    0  0.11212399611E+03 -0.64049026771E+02 -0.26452119526E+03  0.34092452401E+03  0.17200000000E+03 0. -1.
         -6    1    1    2    0  501 -0.11212399611E+03  0.64049026771E+02 -0.58015429731E+03  0.61873829445E+03  0.17200000000E+03 0. -1.
</event>
<event>
 4    1  0.1059899E+000  0.2006670E+03  0.7818608E-02  0.1149177E+00
          2   -1    0    0  502    0  0.00000000000E+00  0.00000000000E+00  0.14861075456E+03  0.14861075456E+03  0.00000000000E+00 0. -1.
         -2   -1    0    0    0  501 -0.00000000000E+00 -0.00000000000E+00 -0.27182164119E+03  0.27182164119E+03  0.00000000000E+00 0.  1.
          6    1    1    2  502    0  0.10061523420E+03  0.23660386034E+02 -0.49754642479E+02  0.20674323125E+03  0.17200000000E+03 0.  1.
         -6    1    1    2    0  501 -0.10061523420E+03 -0.23660386034E+02 -0.73456244154E+02  0.21368916450E+03  0.17200000000E+03 0.  1.
</event>
<event>
 4    1  0.1059899E+000  0.1786714E+03  0.7818608E-02  0.1169095E+00
         -2   -1    0    0    0  501 -0.00000000000E+00  0.00000000000E+00  0.75500059394E+02  0.75500059394E+02  0.00000000000E+00 0. -1.
          2   -1    0    0  502    0  0.00000000000E+00 -0.00000000000E+00 -0.42513853982E+03  0.42513853982E+03  0.00000000000E+00 0.  1.
          6    1    1    2  502    0 -0.54718334705E+01  0.48057735471E+02 -0.15636267802E+03  0.23742951370E+03  0.17200000000E+03 0.  1.
         -6    1    1    2    0  501  0.54718334705E+01 -0.48057735471E+02 -0.19327580241E+03  0.26320908551E+03  0.17200000000E+03 0.  1.
</event>
<event>
 4    1  0.1059899E+000  0.1744635E+03  0.7818608E-02  0.1173271E+00
         -2   -1    0    0    0  501 -0.00000000000E+00  0.00000000000E+00  0.18385582058E+02  0.18385582058E+02  0.00000000000E+00 0. -1.
          2   -1    0    0  502    0  0.00000000000E+00 -0.00000000000E+00 -0.19912821084E+04  0.19912821084E+04  0.00000000000E+00 0.  1.
          6    1    1    2  502    0  0.85761664737E+01 -0.27927660248E+02 -0.57382802679E+03  0.59976337765E+03  0.17200000000E+03 0. -1.
         -6    1    1    2    0  501 -0.85761664737E+01  0.27927660248E+02 -0.13990684996E+04  0.14099043128E+04  0.17200000000E+03 0.  1.
</event>
<event>
 4    1  0.1059899E+000  0.2154326E+03  0.7818608E-02  0.1137335E+00
         -1   -1    0    0    0  501 -0.00000000000E+00  0.00000000000E+00  0.81082363334E+02  0.81082363334E+02  0.00000000000E+00 0.  1.
          1   -1    0    0  502    0  0.00000000000E+00 -0.00000000000E+00 -0.11985938282E+04  0.11985938282E+04  0.00000000000E+00 0. -1.
          6    1    1    2  502    0  0.12275416494E+03 -0.41935778172E+02 -0.10212325471E+04  0.10437083452E+04  0.17200000000E+03 0. -1.
         -6    1    1    2    0  501 -0.12275416494E+03  0.41935778172E+02 -0.96278917708E+02  0.23596784632E+03  0.17200000000E+03 0.  1.
</event>
<event>
 4    1  0.1059899E+000  0.1769471E+03  0.7818608E-02  0.1170791E+00
          2   -1    0    0  502    0  0.00000000000E+00  0.00000000000E+00  0.20923143168E+04  0.20923143168E+04  0.00000000000E+00 0.  1.
         -2   -1    0    0    0  501 -0.00000000000E+00 -0.00000000000E+00 -0.17114535548E+02  0.17114535548E+02  0.00000000000E+00 0. -1.
          6    1    1    2  502    0 -0.39285506626E+02  0.13524873668E+02  0.66376220370E+03  0.68694289159E+03  0.17200000000E+03 0. -1.
         -6    1    1    2    0  501  0.39285506626E+02 -0.13524873668E+02  0.14114375775E+04  0.14224859607E+04  0.17200000000E+03 0.  1.
</event>
<event>
 4    1  0.1059899E+000  0.1809756E+03  0.7818608E-02  0.1166862E+00
          2   -1    0    0  502    0  0.00000000000E+00  0.00000000000E+00  0.19515466179E+04  0.19515466179E+04  0.00000000000E+00 0. -1.
         -2   -1    0    0    0  501 -0.00000000000E+00 -0.00000000000E+00 -0.17040615053E+02  0.17040615053E+02  0.00000000000E+00 0.  1.
          6    1    1    2  502    0  0.20244278871E+02  0.52520008909E+02  0.84615490463E+03  0.86529203439E+03  0.17200000000E+03 0.  1.
         -6    1    1    2    0  501 -0.20244278871E+02 -0.52520008909E+02  0.10883510982E+04  0.11032951985E+04  0.17200000000E+03 0. -1.
</event>
<event>
 4    1  0.1059899E+000  0.1860007E+03  0.7818608E-02  0.1162119E+00
         -2   -1    0    0    0  501 -0.00000000000E+00  0.00000000000E+00  0.23925929688E+02  0.23925929688E+02  0.00000000000E+00 0.  1.
          2   -1    0    0  502    0  0.00000000000E+00 -0.00000000000E+00 -0.16903668194E+04  0.16903668194E+04  0.00000000000E+00 0. -1.
          6    1    1    2  502    0  0.55389720254E+02 -0.44093697600E+02 -0.11591386511E+04  0.11739670727E+04  0.17200000000E+03 0. -1.
         -6    1    1    2    0  501 -0.55389720254E+02  0.44093697600E+02 -0.50730223859E+03  0.54032567638E+03  0.17200000000E+03 0.  1.
</event>
<event>
 4    1  0.1059899E+000  0.1990960E+03  0.7818608E-02  0.1150504E+00
         -2   -1    0    0    0  501 -0.00000000000E+00  0.00000000000E+00  0.43983883998E+02  0.43983883998E+02  0.00000000000E+00 0. -1.
          2   -1    0    0  502    0  0.00000000000E+00 -0.00000000000E+00 -0.98533855238E+03  0.98533855238E+03  0.00000000000E+00 0.  1.
          6    1    1    2  502    0  0.21153324356E+02 -0.98019096500E+02 -0.62105094864E+03  0.65218362998E+03  0.17200000000E+03 0.  1.
         -6    1    1    2    0  501 -0.21153324356E+02  0.98019096500E+02 -0.32030371975E+03  0.37713880640E+03  0.17200000000E+03 0. -1.
</event>
<event>
 4    1  0.1059899E+000  0.2100893E+03  0.7818608E-02  0.1141495E+00
         -2   -1    0    0    0  501 -0.00000000000E+00  0.00000000000E+00  0.11060027189E+03  0.11060027189E+03  0.00000000000E+00 0.  1.
          2   -1    0    0  502    0  0.00000000000E+00 -0.00000000000E+00 -0.40205960450E+03  0.40205960450E+03  0.00000000000E+00 0. -1.
          6    1    1    2  502    0  0.11799899758E+03 -0.25095019828E+02 -0.16782403807E+03  0.26889111403E+03  0.17200000000E+03 0. -1.
         -6    1    1    2    0  501 -0.11799899758E+03  0.25095019828E+02 -0.12363529454E+03  0.24376876237E+03  0.17200000000E+03 0.  1.
</event>
<event>
 4    1  0.1059899E+000  0.2365295E+03  0.7818608E-02  0.1122127E+00
         -2   -1    0    0    0  501 -0.00000000000E+00  0.00000000000E+00  0.49932969368E+02  0.49932969368E+02  0.00000000000E+00 0.  1.
          2   -1    0    0  502    0  0.00000000000E+00 -0.00000000000E+00 -0.12268618993E+04  0.12268618993E+04  0.00000000000E+00 0. -1.
          6    1    1    2  502    0 -0.14720911968E+03 -0.68496001075E+02 -0.77649835752E+03  0.81172404567E+03  0.17200000000E+03 0. -1.
         -6    1    1    2    0  501  0.14720911968E+03  0.68496001075E+02 -0.40043057237E+03  0.46507082296E+03  0.17200000000E+03 0.  1.
</event>
<event>
 4    1  0.1059899E+000  0.1847088E+03  0.7818608E-02  0.1163322E+00
          1   -1    0    0  502    0  0.00000000000E+00  0.00000000000E+00  0.17890065328E+03  0.17890065328E+03  0.00000000000E+00 0.  1.
         -1   -1    0    0    0  501 -0.00000000000E+00 -0.00000000000E+00 -0.19207226875E+03  0.19207226875E+03  0.00000000000E+00 0. -1.
          6    1    1    2  502    0 -0.67318749295E+02  0.12321035997E+01 -0.22232881457E+02  0.18604201973E+03  0.17200000000E+03 0.  1.
         -6    1    1    2    0  501  0.67318749295E+02 -0.12321035997E+01  0.90612659814E+01  0.18493090230E+03  0.17200000000E+03 0. -1.
</event>
<event>
 4    1  0.1059899E+000  0.1958356E+03  0.7818608E-02  0.1153301E+00
          2   -1    0    0  502    0  0.00000000000E+00  0.00000000000E+00  0.37958240022E+02  0.37958240022E+02  0.00000000000E+00 0. -1.
         -2   -1    0    0    0  501 -0.00000000000E+00 -0.00000000000E+00 -0.10218604413E+04  0.10218604413E+04  0.00000000000E+00 0.  1.
          6    1    1    2  502    0 -0.79605244915E+02 -0.49301042658E+02 -0.54816103360E+03  0.58209286766E+03  0.17200000000E+03 0. -1.
         -6    1    1    2    0  501  0.79605244915E+02  0.49301042658E+02 -0.43574116763E+03  0.47772581362E+03  0.17200000000E+03 0. -1.
</event>
<event>
 4    1  0.1059899E+000  0.1746285E+03  0.7818608E-02  0.1173105E+00
          1   -1    0    0  502    0  0.00000000000E+00  0.00000000000E+00  0.19925666392E+03  0.19925666392E+03  0.00000000000E+00 0.  1.
         -1   -1    0    0    0  501 -0.00000000000E+00 -0.00000000000E+00 -0.15866530138E+03  0.15866530138E+03  0.00000000000E+00 0. -1.
          6    1    1    2  502    0  0.20143853220E+02 -0.22479931490E+02  0.53979341565E+02  0.18278099315E+03  0.17200000000E+03 0.  1.
         -6    1    1    2    0  501 -0.20143853220E+02  0.22479931490E+02 -0.13387979020E+02  0.17514097215E+03  0.17200000000E+03 0.  1.
</event>
<event>
 4    1  0.1059899E+000  0.2264247E+03  0.7818608E-02  0.1129182E+00
          2   -1    0    0  502    0  0.00000000000E+00  0.00000000000E+00  0.85779330612E+03  0.85779330612E+03  0.00000000000E+00 0. -1.
         -2   -1    0    0    0  501 -0.00000000000E+00 -0.00000000000E+00 -0.77447894957E+02  0.77447894957E+02  0.00000000000E+00 0.  1.
          6    1    1    2  502    0 -0.15968732114E+02  0.14638691412E+03  0.16674590260E+03  0.28119801753E+03  0.17200000000E+03 0.  1.
         -6    1    1    2    0  501  0.15968732114E+02 -0.14638691412E+03  0.61359950857E+03  0.65404318355E+03  0.17200000000E+03 0.  1.
</event>
<event>
 4    1  0.1059899E+000  0.1748538E+03  0.7818608E-02  0.1172879E+00
          2   -1    0    0  502    0  0.00000000000E+00  0.00000000000E+00  0.36107280138E+04  0.36107280138E+04  0.00000000000E+00 0.  1.
         -2   -1    0    0    0  501 -0.00000000000E+00 -0.00000000000E+00 -0.87968973506E+01  0.87968973506E+01  0.00000000000E+00 0. -1.
          6    1    1    2  502    0 -0.95076482413E+01 -0.29990677051E+02  0.14507644802E+04  0.14612636357E+04  0.17200000000E+03 0. -1.
         -6    1    1    2    0  501  0.95076482413E+01  0.29990677051E+02  0.21511666362E+04  0.21582612754E+04  0.17200000000E+03 0.  1.
</event>
<event>
 4    1  0.1059899E+000  0.2194575E+03  0.7818608E-02  0.1134288E+00
          1   -1    0    0  502    0  0.00000000000E+00  0.00000000000E+00  0.93381795052E+03  0.93381795052E+03  0.00000000000E+00 0.  1.
         -1   -1    0    0    0  501 -0.00000000000E+00 -0.00000000000E+00 -0.51657399436E+02  0.51657399436E+02  0.00000000000E+00 0. -1.
          6    1    1    2  502    0  0.13003854920E+03 -0.40835996241E+02  0.42139347946E+03  0.47511479392E+03  0.17200000000E+03 0.  1.
         -6    1    1    2    0  501 -0.13003854920E+03  0.40835996241E+02  0.46076707162E+03  0.51036055604E+03  0.17200000000E+03 0. -1.
</event>
<event>
 4    1  0.1059899E+000  0.1757341E+03  0.7818608E-02  0.1171997E+00
         -2   -1    0    0    0  501 -0.00000000000E+00  0.00000000000E+00  0.62441261636E+02  0.62441261636E+02  0.00000000000E+00 0. -1.
          2   -1    0    0  502    0  0.00000000000E+00 -0.00000000000E+00 -0.77704554806E+03  0.77704554806E+03  0.00000000000E+00 0.  1.
          6    1    1    2  502    0 -0.16712626224E+02 -0.31924301883E+02 -0.61037176442E+03  0.63516624889E+03  0.17200000000E+03 0.  1.
         -6    1    1    2    0  501  0.16712626224E+02  0.31924301883E+02 -0.10423252201E+03  0.20432056081E+03  0.17200000000E+03 0. -1.
</event>
<event>
 4    1  0.1059899E+000  0.2598390E+03  0.7818608E-02  0.1107240E+00
         -1   -1    0    0    0  501 -0.00000000000E+00  0.00000000000E+00  0.41556664817E+03  0.41556664817E+03  0.00000000000E+00 0. -1.
          1   -1    0    0  502    0  0.00000000000E+00 -0.00000000000E+00 -0.16955264703E+03  0.16955264703E+03  0.00000000000E+00 0.  1.
          6    1    1    2  502    0 -0.19045750653E+03 -0.40721765186E+02  0.63204662203E+02  0.26741569377E+03  0.17200000000E+03 0. -1.
         -6    1    1    2    0  501  0.19045750653E+03  0.40721765186E+02  0.18280933893E+03  0.31770360142E+03  0.17200000000E+03 0.  1.
</event>
<event>
 4    1  0.1059899E+000  0.1979557E+03  0.7818608E-02  0.1151475E+00
          2   -1    0    0  502    0  0.00000000000E+00  0.00000000000E+00  0.89299641468E+03  0.89299641468E+03  0.00000000000E+00 0.  1.
         -2   -1    0    0    0  501 -0.00000000000E+00 -0.00000000000E+00 -0.58070523670E+02  0.58070523670E+02  0.00000000000E+00 0. -1.
          6    1    1    2  502    0 -0.16169670858E+02 -0.96648806823E+02  0.65251937790E+03  0.68188561259E+03  0.17200000000E+03 0.  1.
         -6    1    1    2    0  501  0.16169670858E+02  0.96648806823E+02  0.18240651311E+03  0.26918132577E+03  0.17200000000E+03 0. -1.
</event>
<event>
 4    1  0.1059899E+000  0.2002965E+03  0.7818608E-02  0.1149489E+00
         -1   -1    0    0    0  501 -0.00000000000E+00  0.00000000000E+00  0.11070978791E+04  0.11070978791E+04  0.00000000000E+00 0.  1.
          1   -1    0    0  502    0  0.00000000000E+00 -0.00000000000E+00 -0.36265955495E+02  0.36265955495E+02  0.00000000000E+00 0. -1.
          6    1    1    2  502    0  0.17194263318E+02  0.10118823911E+03  0.55136763626E+03  0.58662166065E+03  0.17200000000E+03 0.  1.
         -6    1    1    2    0  501 -0.17194263318E+02 -0.10118823911E+03  0.51946428732E+03  0.55674217393E+03  0.17200000000E+03 0. -1.
</event>
<event>
 4    1  0.1059899E+000  0.2249243E+03  0.7818608E-02  0.1130264E+00
         -2   -1    0    0    0  501 -0.00000000000E+00  0.00000000000E+00  0.31801844459E+02  0.31801844459E+02  0.00000000000E+00 0. -1.
          2   -1    0    0  502    0  0.00000000000E+00 -0.00000000000E+00 -0.16284644541E+04  0.16284644541E+04  0.00000000000E+00 0.  1.
          6    1    1    2  502    0 -0.37907180631E+02 -0.13989282156E+03 -0.67211397978E+03  0.70875112535E+03  0.17200000000E+03 0. -1.
         -6    1    1    2    0  501  0.37907180631E+02  0.13989282156E+03 -0.92454862984E+03  0.95151517319E+03  0.17200000000E+03 0.  1.
</event>
<event>
 4    1  0.1059899E+000  0.2005800E+03  0.7818608E-02  0.1149251E+00
          2   -1    0    0  502    0  0.00000000000E+00  0.00000000000E+00  0.15723329663E+04  0.15723329663E+04  0.00000000000E+00 0. -1.
         -2   -1    0    0    0  501 -0.00000000000E+00 -0.00000000000E+00 -0.50105489352E+02  0.50105489352E+02  0.00000000000E+00 0.  1.
          6    1    1    2  502    0 -0.73326280510E+02 -0.72605679075E+02  0.13285754364E+04  0.13436312806E+04  0.17200000000E+03 0. -1.
         -6    1    1    2    0  501  0.73326280510E+02  0.72605679075E+02  0.19365204058E+03  0.27880717506E+03  0.17200000000E+03 0.  1.
</event>
<event>
 4    1  0.1059899E+000  0.2257280E+03  0.7818608E-02  0.1129683E+00
         -4   -1    0    0    0  501 -0.00000000000E+00  0.00000000000E+00  0.10032204835E+04  0.10032204835E+04  0.00000000000E+00 0. -1.
          4   -1    0    0  502    0  0.00000000000E+00 -0.00000000000E+00 -0.59059172495E+02  0.59059172495E+02  0.00000000000E+00 0.  1.
          6    1    1    2  502    0 -0.24509199837E+02  0.14411262710E+03  0.27333064440E+03  0.35448947986E+03  0.17200000000E+03 0.  1.
         -6    1    1    2    0  501  0.24509199837E+02 -0.14411262710E+03  0.67083066656E+03  0.70779017609E+03  0.17200000000E+03 0. -1.
</event>
<event>
 4    1  0.1059899E+000  0.1723777E+03  0.7818608E-02  0.1175391E+00
          2   -1    0    0  502    0  0.00000000000E+00  0.00000000000E+00  0.13996677761E+04  0.13996677761E+04  0.00000000000E+00 0. -1.
         -2   -1    0    0    0  501 -0.00000000000E+00 -0.00000000000E+00 -0.23077346761E+02  0.23077346761E+02  0.00000000000E+00 0.  1.
          6    1    1    2  502    0  0.60674190706E+01  0.96574060446E+01  0.48699174900E+03  0.51659949928E+03  0.17200000000E+03 0.  1.
         -6    1    1    2    0  501 -0.60674190706E+01 -0.96574060446E+01  0.88959868031E+03  0.90614562355E+03  0.17200000000E+03 0. -1.
</event>
<event>
 4    1  0.1059899E+000  0.2166387E+03  0.7818608E-02  0.1136414E+00
         -1   -1    0    0    0  501 -0.00000000000E+00  0.00000000000E+00  0.11191528333E+03  0.11191528333E+03  0.00000000000E+00 0.  1.
          1   -1    0    0  502    0  0.00000000000E+00 -0.00000000000E+00 -0.48618810917E+03  0.48618810917E+03  0.00000000000E+00 0. -1.
          6    1    1    2  502    0  0.13057874543E+03  0.17248996147E+02 -0.76260566910E+02  0.22966935079E+03  0.17200000000E+03 0.  1.
         -6    1    1    2    0  501 -0.13057874543E+03 -0.17248996147E+02 -0.29801225892E+03  0.36843404171E+03  0.17200000000E+03 0. -1.
</event>
<event>
 4    1  0.1059899E+000  0.1746062E+03  0.7818608E-02  0.1173128E+00
          1   -1    0    0  502    0  0.00000000000E+00  0.00000000000E+00  0.30285506851E+03  0.30285506851E+03  0.00000000000E+00 0.  1.
         -1   -1    0    0    0  501 -0.00000000000E+00 -0.00000000000E+00 -0.11908845777E+03  0.11908845777E+03  0.00000000000E+00 0. -1.
          6    1    1    2  502    0  0.26250364530E+02  0.14636758118E+02  0.89060475625E+01  0.17483316050E+03  0.17200000000E+03 0.  1.
         -6    1    1    2    0  501 -0.26250364530E+02 -0.14636758118E+02  0.17486056317E+03  0.24711036579E+03  0.17200000000E+03 0. -1.
</event>
<event>
 4    1  0.1059899E+000  0.2460021E+03  0.7818608E-02  0.1115858E+00
         -2   -1    0    0    0  501 -0.00000000000E+00  0.00000000000E+00  0.31720589864E+03  0.31720589864E+03  0.00000000000E+00 0. -1.
          2   -1    0    0  502    0  0.00000000000E+00 -0.00000000000E+00 -0.22677641598E+03  0.22677641598E+03  0.00000000000E+00 0.  1.
          6    1    1    2  502    0  0.10035839273E+03  0.14443418291E+03  0.15357648515E+03  0.29000478785E+03  0.17200000000E+03 0. -1.
         -6    1    1    2    0  501 -0.10035839273E+03 -0.14443418291E+03 -0.63147002493E+02  0.25397752678E+03  0.17200000000E+03 0. -1.
</event>
<event>
 4    1  0.1059899E+000  0.2541020E+03  0.7818608E-02  0.1110740E+00
         -1   -1    0    0    0  501 -0.00000000000E+00  0.00000000000E+00  0.29604467940E+03  0.29604467940E+03  0.00000000000E+00 0.  1.
          1   -1    0    0  502    0  0.00000000000E+00 -0.00000000000E+00 -0.43813734214E+03  0.43813734214E+03  0.00000000000E+00 0. -1.
          6    1    1    2  502    0  0.17304405251E+02 -0.18623748312E+03 -0.33119113195E+03  0.41743910747E+03  0.17200000000E+03 0. -1.
         -6    1    1    2    0  501 -0.17304405251E+02  0.18623748312E+03  0.18909846920E+03  0.31674291407E+03  0.17200000000E+03 0.  1.
</event>
<event>
 4    1  0.1059899E+000  0.1920271E+03  0.7818608E-02  0.1156646E+00
          2   -1    0    0  502    0  0.00000000000E+00  0.00000000000E+00  0.43513692680E+02  0.43513692680E+02  0.00000000000E+00 0.  1.
         -2   -1    0    0    0  501 -0.00000000000E+00 -0.00000000000E+00 -0.97245876564E+03  0.97245876564E+03  0.00000000000E+00 0. -1.
          6    1    1    2  502    0 -0.35009368961E+02 -0.77876546118E+02 -0.28231920108E+03  0.34143600228E+03  0.17200000000E+03 0.  1.
         -6    1    1    2    0  501  0.35009368961E+02  0.77876546118E+02 -0.64662587188E+03  0.67453645605E+03  0.17200000000E+03 0. -1.
</event>
<event>
 4    1  0.1059899E+000  0.3615703E+03  0.7818608E-02  0.1057964E+00
          1   -1    0    0  502    0  0.00000000000E+00  0.00000000000E+00  0.35556183699E+03  0.35556183699E+03  0.00000000000E+00 0. -1.
         -1   -1    0    0    0  501 -0.00000000000E+00 -0.00000000000E+00 -0.36879118340E+03  0.36879118340E+03  0.00000000000E+00 0.  1.
          6    1    1    2  502    0 -0.28055884582E+03  0.14978601788E+03  0.13262079564E+02  0.36181348769E+03  0.17200000000E+03 0. -1.
         -6    1    1    2    0  501  0.28055884582E+03 -0.14978601788E+03 -0.26491425972E+02  0.36253953270E+03  0.17200000000E+03 0. -1.
</event>
<event>
 4    1  0.1059899E+000  0.2290713E+03  0.7818608E-02  0.1127295E+00
          1   -1    0    0  502    0  0.00000000000E+00  0.00000000000E+00  0.22595547545E+04  0.22595547545E+04  0.00000000000E+00 0. -1.
         -1   -1    0    0    0  501 -0.00000000000E+00 -0.00000000000E+00 -0.35975340883E+02  0.35975340883E+02  0.00000000000E+00 0.  1.
          6    1    1    2  502    0 -0.28817774733E+02  0.14852337117E+03  0.42843628486E+03  0.48583053230E+03  0.17200000000E+03 0.  1.
         -6    1    1    2    0  501  0.28817774733E+02 -0.14852337117E+03  0.17951431287E+04  0.18096995631E+04  0.17200000000E+03 0. -1.
</event>
<event>
 4    1  0.1059899E+000  0.1859994E+03  0.7818608E-02  0.1162120E+00
          2   -1    0    0  502    0  0.00000000000E+00  0.00000000000E+00  0.17193179018E+03  0.17193179018E+03  0.00000000000E+00 0. -1.
         -2   -1    0    0    0  501 -0.00000000000E+00 -0.00000000000E+00 -0.32094597114E+03  0.32094597114E+03  0.00000000000E+00 0.  1.
          6    1    1    2  502    0 -0.41870194354E+02 -0.57084841168E+02  0.76011745177E+02  0.20093177367E+03  0.17200000000E+03 0. -1.
         -6    1    1    2    0  501  0.41870194354E+02  0.57084841168E+02 -0.22502592614E+03  0.29194598764E+03  0.17200000000E+03 0. -1.
</event>
<event>
 4    1  0.1059899E+000  0.3027385E+03  0.7818608E-02  0.1083880E+00
         -1   -1    0    0    0  501 -0.00000000000E+00  0.00000000000E+00  0.12002831826E+03  0.12002831826E+03  0.00000000000E+00 0.  1.
          1   -1    0    0  502    0  0.00000000000E+00 -0.00000000000E+00 -0.12887258081E+04  0.12887258081E+04  0.00000000000E+00 0. -1.
          6    1    1    2  502    0 -0.23934158748E+03 -0.69153342371E+02 -0.13470649813E+03  0.33135542986E+03  0.17200000000E+03 0.  1.
         -6    1    1    2    0  501  0.23934158748E+03  0.69153342371E+02 -0.10339909917E+04  0.10773986965E+04  0.17200000000E+03 0. -1.
</event>
<event>
 4    1  0.1059899E+000  0.1864696E+03  0.7818608E-02  0.1161685E+00
         -3   -1    0    0    0  501 -0.00000000000E+00  0.00000000000E+00  0.59191992850E+03  0.59191992850E+03  0.00000000000E+00 0. -1.
          3   -1    0    0  502    0  0.00000000000E+00 -0.00000000000E+00 -0.60298859370E+02  0.60298859370E+02  0.00000000000E+00 0.  1.
          6    1    1    2  502    0  0.32117929177E+02  0.64461978662E+02  0.21342015751E+03  0.28340619559E+03  0.17200000000E+03 0.  1.
         -6    1    1    2    0  501 -0.32117929177E+02 -0.64461978662E+02  0.31820091163E+03  0.36881259229E+03  0.17200000000E+03 0. -1.
</event>
<event>
 4    1  0.1059899E+000  0.2455755E+03  0.7818608E-02  0.1116133E+00
         -2   -1    0    0    0  501 -0.00000000000E+00  0.00000000000E+00  0.65939329264E+02  0.65939329264E+02  0.00000000000E+00 0. -1.
          2   -1    0    0  502    0  0.00000000000E+00 -0.00000000000E+00 -0.10387253746E+04  0.10387253746E+04  0.00000000000E+00 0.  1.
          6    1    1    2  502    0  0.10386376964E+03  0.14119365568E+03 -0.29545119412E+03  0.38418581331E+03  0.17200000000E+03 0. -1.
         -6    1    1    2    0  501 -0.10386376964E+03 -0.14119365568E+03 -0.67733485119E+03  0.72047889052E+03  0.17200000000E+03 0.  1.
</event>
<event>
 4    1  0.1059899E+000  0.2842810E+03  0.7818608E-02  0.1093373E+00
          1   -1    0    0  502    0  0.00000000000E+00  0.00000000000E+00  0.86167536159E+03  0.86167536159E+03  0.00000000000E+00 0. -1.
         -1   -1    0    0    0  501 -0.00000000000E+00 -0.00000000000E+00 -0.20336767704E+03  0.20336767704E+03  0.00000000000E+00 0.  1.
          6    1    1    2  502    0 -0.19265311239E+03 -0.11881281925E+03  0.72004796368E+03  0.77413485758E+03  0.17200000000E+03 0. -1.
         -6    1    1    2    0  501  0.19265311239E+03  0.11881281925E+03 -0.61740279123E+02  0.29090818104E+03  0.17200000000E+03 0.  1.
</event>
<event>
 4    1  0.1059899E+000  0.2336990E+03  0.7818608E-02  0.1124063E+00
         -2   -1    0    0    0  501 -0.00000000000E+00  0.00000000000E+00  0.19350486077E+03  0.19350486077E+03  0.00000000000E+00 0.  1.
          2   -1    0    0  502    0  0.00000000000E+00 -0.00000000000E+00 -0.33112324356E+03  0.33112324356E+03  0.00000000000E+00 0. -1.
          6    1    1    2  502    0  0.66495958732E+02  0.14356006330E+03 -0.16959461415E+03  0.28875168822E+03  0.17200000000E+03 0. -1.
         -6    1    1    2    0  501 -0.66495958732E+02 -0.14356006330E+03  0.31976231351E+02  0.23587641611E+03  0.17200000000E+03 0.  1.
</event>
<event>
 4    1  0.1059899E+000  0.2429497E+03  0.7818608E-02  0.1117843E+00
         -2   -1    0    0    0  501 -0.00000000000E+00  0.00000000000E+00  0.22119230570E+02  0.22119230570E+02  0.00000000000E+00 0. -1.
          2   -1    0    0  502    0  0.00000000000E+00 -0.00000000000E+00 -0.30999672830E+04  0.30999672830E+04  0.00000000000E+00 0.  1.
          6    1    1    2  502    0 -0.72091235948E+01 -0.17143104163E+03 -0.21213273110E+04  0.21351941677E+04  0.17200000000E+03 0.  1.
         -6    1    1    2    0  501  0.72091235948E+01  0.17143104163E+03 -0.95652074140E+03  0.98689234581E+03  0.17200000000E+03 0. -1.
</event>
<event>
 4    1  0.1059899E+000  0.2479502E+03  0.7818608E-02  0.1114607E+00
         -1   -1    0    0    0  501 -0.00000000000E+00  0.00000000000E+00  0.20819526728E+03  0.20819526728E+03  0.00000000000E+00 0.  1.
          1   -1    0    0  502    0  0.00000000000E+00 -0.00000000000E+00 -0.57004518475E+03  0.57004518475E+03  0.00000000000E+00 0. -1.
          6    1    1    2  502    0 -0.91922935630E+02 -0.15311914833E+03  0.89220147851E+02  0.26351382215E+03  0.17200000000E+03 0.  1.
         -6    1    1    2    0  501  0.91922935630E+02  0.15311914833E+03 -0.45107006532E+03  0.51472662988E+03  0.17200000000E+03 0. -1.
</event>
<event>
 4    1  0.1059899E+000  0.2492658E+03  0.7818608E-02  0.1113770E+00
         -2   -1    0    0    0  501 -0.00000000000E+00  0.00000000000E+00  0.74341681990E+02  0.74341681990E+02  0.00000000000E+00 0.  1.
          2   -1    0    0  502    0  0.00000000000E+00 -0.00000000000E+00 -0.10941399257E+04  0.10941399257E+04  0.00000000000E+00 0. -1.
          6    1    1    2  502    0 -0.13138412324E+03 -0.12364315368E+03 -0.79379991094E+03  0.83201665603E+03  0.17200000000E+03 0.  1.
         -6    1    1    2    0  501  0.13138412324E+03  0.12364315368E+03 -0.22599833281E+03  0.33646495171E+03  0.17200000000E+03 0.  1.
</event>
<event>
 4    1  0.1059899E+000  0.1997799E+03  0.7818608E-02  0.1149925E+00
         -4   -1    0    0    0  501 -0.00000000000E+00  0.00000000000E+00  0.54637681871E+03  0.54637681871E+03  0.00000000000E+00 0.  1.
          4   -1    0    0  502    0  0.00000000000E+00 -0.00000000000E+00 -0.94159869679E+02  0.94159869679E+02  0.00000000000E+00 0. -1.
          6    1    1    2  502    0 -0.29175140791E+02  0.97348985616E+02  0.74459608393E+02  0.21320470708E+03  0.17200000000E+03 0. -1.
         -6    1    1    2    0  501  0.29175140791E+02 -0.97348985616E+02  0.37775734064E+03  0.42733198131E+03  0.17200000000E+03 0.  1.
</event>
<event>
 4    1  0.1059899E+000  0.1968070E+03  0.7818608E-02  0.1152461E+00
         -1   -1    0    0    0  501 -0.00000000000E+00  0.00000000000E+00  0.98508059894E+02  0.98508059894E+02  0.00000000000E+00 0. -1.
          1   -1    0    0  502    0  0.00000000000E+00 -0.00000000000E+00 -0.48085067113E+03  0.48085067113E+03  0.00000000000E+00 0.  1.
          6    1    1    2  502    0  0.10750026323E+02 -0.95044398496E+02 -0.31485126530E+03  0.37130084838E+03  0.17200000000E+03 0.  1.
         -6    1    1    2    0  501 -0.10750026323E+02  0.95044398496E+02 -0.67491345938E+02  0.20805788264E+03  0.17200000000E+03 0. -1.
</event>
<event>
 4    1  0.1059899E+000  0.2509318E+03  0.7818608E-02  0.1112717E+00
          3   -1    0    0  502    0  0.00000000000E+00  0.00000000000E+00  0.20521695905E+04  0.20521695905E+04  0.00000000000E+00 0.  1.
         -3   -1    0    0    0  501 -0.00000000000E+00 -0.00000000000E+00 -0.33669435269E+02  0.33669435269E+02  0.00000000000E+00 0. -1.
          6    1    1    2  502    0  0.62869147868E+02  0.17155249107E+03  0.13198540758E+04  0.13434960247E+04  0.17200000000E+03 0.  1.
         -6    1    1    2    0  501 -0.62869147868E+02 -0.17155249107E+03  0.69864607939E+03  0.74234300104E+03  0.17200000000E+03 0. -1.
</event>
<event>
 4    1  0.1059899E+000  0.2216534E+03  0.7818608E-02  0.1132656E+00
          2   -1    0    0  502    0  0.00000000000E+00  0.00000000000E+00  0.44528888486E+03  0.44528888486E+03  0.00000000000E+00 0. -1.
         -2   -1    0    0    0  501 -0.00000000000E+00 -0.00000000000E+00 -0.11786302872E+03  0.11786302872E+03  0.00000000000E+00 0.  1.
          6    1    1    2  502    0 -0.51079921762E+02  0.13014247301E+03  0.23488252725E+03  0.32295514130E+03  0.17200000000E+03 0. -1.
         -6    1    1    2    0  501  0.51079921762E+02 -0.13014247301E+03  0.92543328895E+02  0.24019677227E+03  0.17200000000E+03 0.  1.
</event>
<event>
 4    1  0.1059899E+000  0.1925546E+03  0.7818608E-02  0.1156177E+00
         -1   -1    0    0    0  501 -0.00000000000E+00  0.00000000000E+00  0.22362585032E+02  0.22362585032E+02  0.00000000000E+00 0. -1.
          1   -1    0    0  502    0  0.00000000000E+00 -0.00000000000E+00 -0.16803516311E+04  0.16803516311E+04  0.00000000000E+00 0.  1.
          6    1    1    2  502    0  0.30423125156E+02 -0.81041349861E+02 -0.73081465790E+03  0.75575613205E+03  0.17200000000E+03 0. -1.
         -6    1    1    2    0  501 -0.30423125156E+02  0.81041349861E+02 -0.92717438817E+03  0.94695808409E+03  0.17200000000E+03 0.  1.
</event>
<event>
 4    1  0.1059899E+000  0.2215282E+03  0.7818608E-02  0.1132749E+00
         -1   -1    0    0    0  501 -0.00000000000E+00  0.00000000000E+00  0.31255702666E+03  0.31255702666E+03  0.00000000000E+00 0.  1.
          1   -1    0    0  502    0  0.00000000000E+00 -0.00000000000E+00 -0.27241523722E+03  0.27241523722E+03  0.00000000000E+00 0. -1.
          6    1    1    2  502    0  0.13950311097E+03  0.54445208388E+01 -0.17030030397E+03  0.27942253723E+03  0.17200000000E+03 0. -1.
         -6    1    1    2    0  501 -0.13950311097E+03 -0.54445208388E+01  0.21044209341E+03  0.30554972665E+03  0.17200000000E+03 0.  1.
</event>
<event>
 4    1  0.1059899E+000  0.3595786E+03  0.7818608E-02  0.1058751E+00
         -2   -1    0    0    0  501 -0.00000000000E+00  0.00000000000E+00  0.15453781413E+03  0.15453781413E+03  0.00000000000E+00 0.  1.
          2   -1    0    0  502    0  0.00000000000E+00 -0.00000000000E+00 -0.99518215597E+03  0.99518215597E+03  0.00000000000E+00 0. -1.
          6    1    1    2  502    0  0.18325974036E+03 -0.25715486266E+03 -0.64974973592E+03  0.74261125440E+03  0.17200000000E+03 0. -1.
         -6    1    1    2    0  501 -0.18325974036E+03  0.25715486266E+03 -0.19089460592E+03  0.40710871570E+03  0.17200000000E+03 0. -1.
</event>
<event>
 4    1  0.1059899E+000  0.1744686E+03  0.7818608E-02  0.1173266E+00
          2   -1    0    0  502    0  0.00000000000E+00  0.00000000000E+00  0.29464248845E+04  0.29464248845E+04  0.00000000000E+00 0. -1.
         -2   -1    0    0    0  501 -0.00000000000E+00 -0.00000000000E+00 -0.12392565354E+02  0.12392565354E+02  0.00000000000E+00 0.  1.
          6    1    1    2  502    0 -0.17131904737E+02 -0.23701908922E+02  0.20704288557E+04  0.20777668130E+04  0.17200000000E+03 0. -1.
         -6    1    1    2    0  501  0.17131904737E+02  0.23701908922E+02  0.86360346351E+03  0.88105063693E+03  0.17200000000E+03 0.  1.
</event>
<event>
 4    1  0.1059899E+000  0.2720944E+03  0.7818608E-02  0.1100087E+00
         -1   -1    0    0    0  501 -0.00000000000E+00  0.00000000000E+00  0.80456293136E+02  0.80456293136E+02  0.00000000000E+00 0. -1.
          1   -1    0    0  502    0  0.00000000000E+00 -0.00000000000E+00 -0.16970210335E+04  0.16970210335E+04  0.00000000000E+00 0.  1.
          6    1    1    2  502    0  0.17161791903E+02 -0.21013525206E+03 -0.20698017442E+03  0.34187153123E+03  0.17200000000E+03 0. -1.
         -6    1    1    2    0  501 -0.17161791903E+02  0.21013525206E+03 -0.14095845660E+04  0.14356057954E+04  0.17200000000E+03 0.  1.
</event>
<event>
 4    1  0.1059899E+000  0.2408813E+03  0.7818608E-02  0.1119207E+00
         -4   -1    0    0    0  501 -0.00000000000E+00  0.00000000000E+00  0.25756929055E+03  0.25756929055E+03  0.00000000000E+00 0. -1.
          4   -1    0    0  502    0  0.00000000000E+00 -0.00000000000E+00 -0.23574385472E+03  0.23574385472E+03  0.00000000000E+00 0.  1.
          6    1    1    2  502    0 -0.25445899314E+01 -0.16862189955E+03  0.62892002945E+02  0.24895626921E+03  0.17200000000E+03 0. -1.
         -6    1    1    2    0  501  0.25445899314E+01  0.16862189955E+03 -0.41066567111E+02  0.24435687606E+03  0.17200000000E+03 0.  1.
</event>
<event>
 4    1  0.1059899E+000  0.1739931E+03  0.7818608E-02  0.1173747E+00
         -2   -1    0    0    0  501 -0.00000000000E+00  0.00000000000E+00  0.44187085247E+02  0.44187085247E+02  0.00000000000E+00 0.  1.
          2   -1    0    0  502    0  0.00000000000E+00 -0.00000000000E+00 -0.11196724060E+04  0.11196724060E+04  0.00000000000E+00 0. -1.
          6    1    1    2  502    0  0.25370839516E+02 -0.67763934355E+01 -0.17521217731E+03  0.24692692458E+03  0.17200000000E+03 0.  1.
         -6    1    1    2    0  501 -0.25370839516E+02  0.67763934355E+01 -0.90027314341E+03  0.91693256663E+03  0.17200000000E+03 0. -1.
</event>
<event>
 4    1  0.1059899E+000  0.1860191E+03  0.7818608E-02  0.1162102E+00
          2   -1    0    0  502    0  0.00000000000E+00  0.00000000000E+00  0.13909668733E+04  0.13909668733E+04  0.00000000000E+00 0.  1.
         -2   -1    0    0    0  501 -0.00000000000E+00 -0.00000000000E+00 -0.26557941550E+02  0.26557941550E+02  0.00000000000E+00 0. -1.
          6    1    1    2  502    0  0.64477432437E+02  0.29355718773E+02  0.86051558203E+03  0.88039205155E+03  0.17200000000E+03 0.  1.
         -6    1    1    2    0  501 -0.64477432437E+02 -0.29355718773E+02  0.50389334973E+03  0.53713276331E+03  0.17200000000E+03 0. -1.
</event>
<event>
 4    1  0.1059899E+000  0.2097243E+03  0.7818608E-02  0.1141785E+00
         -2   -1    0    0    0  501 -0.00000000000E+00  0.00000000000E+00  0.17051679506E+03  0.17051679506E+03  0.00000000000E+00 0.  1.
          2   -1    0    0  502    0  0.00000000000E+00 -0.00000000000E+00 -0.25863472339E+03  0.25863472339E+03  0.00000000000E+00 0. -1.
          6    1    1    2  502    0 -0.75856666314E+02  0.92984047866E+02 -0.32992793181E+02  0.21230353597E+03  0.17200000000E+03 0.  1.
         -6    1    1    2    0  501  0.75856666314E+02 -0.92984047866E+02 -0.55125135143E+02  0.21684798248E+03  0.17200000000E+03 0. -1.
</event>
<event>
 4    1  0.1059899E+000  0.1866452E+03  0.7818608E-02  0.1161522E+00
         -2   -1    0    0    0  501 -0.00000000000E+00  0.00000000000E+00  0.18384764554E+02  0.18384764554E+02  0.00000000000E+00 0.  1.
          2   -1    0    0  502    0  0.00000000000E+00 -0.00000000000E+00 -0.22951848001E+04  0.22951848001E+04  0.00000000000E+00 0. -1.
          6    1    1    2  502    0 -0.57490500624E+02  0.44128069115E+02 -0.16215180575E+04  0.16322246337E+04  0.17200000000E+03 0. -1.
         -6    1    1    2    0  501  0.57490500624E+02 -0.44128069115E+02 -0.65528197802E+03  0.68134493090E+03  0.17200000000E+03 0.  1.
</event>
<event>
 4    1  0.1059899E+000  0.2824462E+03  0.7818608E-02  0.1094360E+00
         -2   -1    0    0    0  501 -0.00000000000E+00  0.00000000000E+00  0.21313811428E+03  0.21313811428E+03  0.00000000000E+00 0. -1.
          2   -1    0    0  502    0  0.00000000000E+00 -0.00000000000E+00 -0.48460462435E+03  0.48460462435E+03  0.00000000000E+00 0.  1.
          6    1    1    2  502    0  0.22374247484E+03  0.11453654069E+02 -0.30218342844E+03  0.41363112269E+03  0.17200000000E+03 0.  1.
         -6    1    1    2    0  501 -0.22374247484E+03 -0.11453654069E+02  0.30716918368E+02  0.28411161594E+03  0.17200000000E+03 0. -1.
</event>
<event>
 4    1  0.1059899E+000  0.2199732E+03  0.7818608E-02  0.1133903E+00
         -2   -1    0    0    0  501 -0.00000000000E+00  0.00000000000E+00  0.12934867260E+03  0.12934867260E+03  0.00000000000E+00 0. -1.
          2   -1    0    0  502    0  0.00000000000E+00 -0.00000000000E+00 -0.63145953386E+03  0.63145953386E+03  0.00000000000E+00 0.  1.
          6    1    1    2  502    0 -0.13670801578E+03  0.10730525849E+02 -0.81988818890E+01  0.22012598081E+03  0.17200000000E+03 0. -1.
         -6    1    1    2    0  501  0.13670801578E+03 -0.10730525849E+02 -0.49391197937E+03  0.54068222565E+03  0.17200000000E+03 0.  1.
</event>
<event>
 4    1  0.1059899E+000  0.1900714E+03  0.7818608E-02  0.1158397E+00
          2   -1    0    0  502    0  0.00000000000E+00  0.00000000000E+00  0.61887328452E+03  0.61887328452E+03  0.00000000000E+00 0.  1.
         -2   -1    0    0    0  501 -0.00000000000E+00 -0.00000000000E+00 -0.58830817550E+02  0.58830817550E+02  0.00000000000E+00 0. -1.
          6    1    1    2  502    0  0.80359947406E+02  0.92430401147E+01  0.30982521550E+03  0.36348152511E+03  0.17200000000E+03 0.  1.
         -6    1    1    2    0  501 -0.80359947406E+02 -0.92430401147E+01  0.25021725147E+03  0.31422257696E+03  0.17200000000E+03 0. -1.
</event>
<event>
 4    1  0.1059899E+000  0.1758339E+03  0.7818608E-02  0.1171897E+00
         -3   -1    0    0    0  501 -0.00000000000E+00  0.00000000000E+00  0.14467594959E+03  0.14467594959E+03  0.00000000000E+00 0. -1.
          3   -1    0    0  502    0  0.00000000000E+00 -0.00000000000E+00 -0.24383183396E+03  0.24383183396E+03  0.00000000000E+00 0.  1.
          6    1    1    2  502    0 -0.34958337919E+02 -0.10558360741E+02  0.18706484884E+02  0.17682617721E+03  0.17200000000E+03 0. -1.
         -6    1    1    2    0  501  0.34958337919E+02  0.10558360741E+02 -0.11786236925E+03  0.21168160633E+03  0.17200000000E+03 0.  1.
</event>
<event>
 4    1  0.1059899E+000  0.2120494E+03  0.7818608E-02  0.1139953E+00
         -2   -1    0    0    0  501 -0.00000000000E+00  0.00000000000E+00  0.10223671956E+04  0.10223671956E+04  0.00000000000E+00 0. -1.
          2   -1    0    0  502    0  0.00000000000E+00 -0.00000000000E+00 -0.48145802322E+02  0.48145802322E+02  0.00000000000E+00 0.  1.
          6    1    1    2  502    0 -0.11346922235E+03 -0.50056759574E+02  0.32968735713E+03  0.39199323597E+03  0.17200000000E+03 0.  1.
         -6    1    1    2    0  501  0.11346922235E+03  0.50056759574E+02  0.64453403619E+03  0.67851976199E+03  0.17200000000E+03 0.  1.
</event>
<event>
 4    1  0.1059899E+000  0.2347708E+03  0.7818608E-02  0.1123326E+00
          2   -1    0    0  502    0  0.00000000000E+00  0.00000000000E+00  0.20644642706E+03  0.20644642706E+03  0.00000000000E+00 0.  1.
         -2   -1    0    0    0  501 -0.00000000000E+00 -0.00000000000E+00 -0.26730891093E+03  0.26730891093E+03  0.00000000000E+00 0. -1.
          6    1    1    2  502    0 -0.22865894836E+02  0.15814701821E+03 -0.22138102864E+02  0.23581226455E+03  0.17200000000E+03 0.  1.
         -6    1    1    2    0  501  0.22865894836E+02 -0.15814701821E+03 -0.38724381006E+02  0.23794307344E+03  0.17200000000E+03 0.  1.
</event>
<event>
 4    1  0.1059899E+000  0.1877690E+03  0.7818608E-02  0.1160489E+00
          1   -1    0    0  502    0  0.00000000000E+00  0.00000000000E+00  0.58895072189E+02  0.58895072189E+02  0.00000000000E+00 0.  1.
         -1   -1    0    0    0  501 -0.00000000000E+00 -0.00000000000E+00 -0.61443475158E+03  0.61443475158E+03  0.00000000000E+00 0. -1.
          6    1    1    2  502    0  0.33161746493E+02 -0.67627506387E+02 -0.22379871134E+03  0.29213531839E+03  0.17200000000E+03 0.  1.
         -6    1    1    2    0  501 -0.33161746493E+02  0.67627506387E+02 -0.33174096805E+03  0.38119450538E+03  0.17200000000E+03 0. -1.
</event>
<event>
 4    1  0.1059899E+000  0.2153985E+03  0.7818608E-02  0.1137361E+00
         -1   -1    0    0    0  501 -0.00000000000E+00  0.00000000000E+00  0.70706714741E+02  0.70706714741E+02  0.00000000000E+00 0. -1.
          1   -1    0    0  502    0  0.00000000000E+00 -0.00000000000E+00 -0.79577039146E+03  0.79577039146E+03  0.00000000000E+00 0.  1.
          6    1    1    2  502    0 -0.39154380875E+02  0.12361001033E+03 -0.54398196369E+03  0.58507510374E+03  0.17200000000E+03 0.  1.
         -6    1    1    2    0  501  0.39154380875E+02 -0.12361001033E+03 -0.18108171303E+03  0.28140200246E+03  0.17200000000E+03 0. -1.
</event>
<event>
 4    1  0.1059899E+000  0.1801901E+03  0.7818608E-02  0.1167619E+00
         -2   -1    0    0    0  501 -0.00000000000E+00  0.00000000000E+00  0.65860650112E+02  0.65860650112E+02  0.00000000000E+00 0.  1.
          2   -1    0    0  502    0  0.00000000000E+00 -0.00000000000E+00 -0.58254013155E+03  0.58254013155E+03  0.00000000000E+00 0. -1.
          6    1    1    2  502    0  0.86173945738E+01 -0.53011520705E+02 -0.13122683280E+03  0.22291021166E+03  0.17200000000E+03 0.  1.
         -6    1    1    2    0  501 -0.86173945738E+01  0.53011520705E+02 -0.38545264864E+03  0.42549057000E+03  0.17200000000E+03 0. -1.
</event>
<event>
 4    1  0.1059899E+000  0.2143414E+03  0.7818608E-02  0.1138173E+00
         -2   -1    0    0    0  501 -0.00000000000E+00  0.00000000000E+00  0.24625569051E+03  0.24625569051E+03  0.00000000000E+00 0. -1.
          2   -1    0    0  502    0  0.00000000000E+00 -0.00000000000E+00 -0.18948875328E+03  0.18948875328E+03  0.00000000000E+00 0.  1.
          6    1    1    2  502    0  0.25975346680E+02  0.12523381572E+03  0.13114336926E+01  0.21434539205E+03  0.17200000000E+03 0. -1.
         -6    1    1    2    0  501 -0.25975346680E+02 -0.12523381572E+03  0.55455503536E+02  0.22139905173E+03  0.17200000000E+03 0. -1.
</event>
<event>
 4    1  0.1059899E+000  0.1879254E+03  0.7818608E-02  0.1160346E+00
          1   -1    0    0  502    0  0.00000000000E+00  0.00000000000E+00  0.12895048791E+04  0.12895048791E+04  0.00000000000E+00 0. -1.
         -1   -1    0    0    0  501 -0.00000000000E+00 -0.00000000000E+00 -0.35075101783E+02  0.35075101783E+02  0.00000000000E+00 0.  1.
          6    1    1    2  502    0 -0.75635579528E+02 -0.33505842608E+01  0.31715058253E+03  0.36864679479E+03  0.17200000000E+03 0. -1.
         -6    1    1    2    0  501  0.75635579528E+02  0.33505842608E+01  0.93727919475E+03  0.95593318606E+03  0.17200000000E+03 0. -1.
</event>
<event>
 4    1  0.1059899E+000  0.1939888E+03  0.7818608E-02  0.1154912E+00
         -2   -1    0    0    0  501 -0.00000000000E+00  0.00000000000E+00  0.49591433454E+02  0.49591433454E+02  0.00000000000E+00 0.  1.
          2   -1    0    0  502    0  0.00000000000E+00 -0.00000000000E+00 -0.96132707883E+03  0.96132707883E+03  0.00000000000E+00 0. -1.
          6    1    1    2  502    0 -0.83451964236E+02 -0.32915396768E+02 -0.68785069441E+03  0.71468190930E+03  0.17200000000E+03 0. -1.
         -6    1    1    2    0  501  0.83451964236E+02  0.32915396768E+02 -0.22388495096E+03  0.29623660298E+03  0.17200000000E+03 0.  1.
</event>
<event>
 4    1  0.1059899E+000  0.1791797E+03  0.7818608E-02  0.1168599E+00
         -2   -1    0    0    0  501 -0.00000000000E+00  0.00000000000E+00  0.33560776448E+02  0.33560776448E+02  0.00000000000E+00 0.  1.
          2   -1    0    0  502    0  0.00000000000E+00 -0.00000000000E+00 -0.10180688059E+04  0.10180688059E+04  0.00000000000E+00 0. -1.
          6    1    1    2  502    0  0.10197832061E+02  0.49166914226E+02 -0.36308708717E+03  0.40489210180E+03  0.17200000000E+03 0. -1.
         -6    1    1    2    0  501 -0.10197832061E+02 -0.49166914226E+02 -0.62142094228E+03  0.64673748054E+03  0.17200000000E+03 0. -1.
</event>
<event>
 4    1  0.1059899E+000  0.1857550E+03  0.7818608E-02  0.1162347E+00
          2   -1    0    0  502    0  0.00000000000E+00  0.00000000000E+00  0.13422886964E+04  0.13422886964E+04  0.00000000000E+00 0. -1.
         -2   -1    0    0    0  501 -0.00000000000E+00 -0.00000000000E+00 -0.26780183844E+02  0.26780183844E+02  0.00000000000E+00 0.  1.
          6    1    1    2  502    0 -0.37666129039E+00 -0.70148286742E+02  0.79484880524E+03  0.81626561069E+03  0.17200000000E+03 0. -1.
         -6    1    1    2    0  501  0.37666129039E+00  0.70148286742E+02  0.52065970733E+03  0.55280326957E+03  0.17200000000E+03 0.  1.
</event>
<event>
 4    1  0.1059899E+000  0.2201535E+03  0.7818608E-02  0.1133769E+00
          2   -1    0    0  502    0  0.00000000000E+00  0.00000000000E+00  0.74324064038E+03  0.74324064038E+03  0.00000000000E+00 0. -1.
         -2   -1    0    0    0  501 -0.00000000000E+00 -0.00000000000E+00 -0.83907080589E+02  0.83907080589E+02  0.00000000000E+00 0.  1.
          6    1    1    2  502    0 -0.57855885608E+02 -0.12464455510E+03  0.52488819169E+03  0.56918817836E+03  0.17200000000E+03 0. -1.
         -6    1    1    2    0  501  0.57855885608E+02  0.12464455510E+03  0.13444536810E+03  0.25795954260E+03  0.17200000000E+03 0. -1.
</event>
<event>
 4    1  0.1059899E+000  0.1904245E+03  0.7818608E-02  0.1158079E+00
          1   -1    0    0  502    0  0.00000000000E+00  0.00000000000E+00  0.38930042445E+03  0.38930042445E+03  0.00000000000E+00 0.  1.
         -1   -1    0    0    0  501 -0.00000000000E+00 -0.00000000000E+00 -0.18135170527E+03  0.18135170527E+03  0.00000000000E+00 0. -1.
          6    1    1    2  502    0 -0.77253944063E+02  0.26633197994E+02 -0.95015397911E+02  0.21281312213E+03  0.17200000000E+03 0. -1.
         -6    1    1    2    0  501  0.77253944063E+02 -0.26633197994E+02  0.30296411709E+03  0.35783900759E+03  0.17200000000E+03 0.  1.
</event>
<event>
 4    1  0.1059899E+000  0.2163195E+03  0.7818608E-02  0.1136657E+00
         -2   -1    0    0    0  501 -0.00000000000E+00  0.00000000000E+00  0.10156388210E+03  0.10156388210E+03  0.00000000000E+00 0.  1.
          2   -1    0    0  502    0  0.00000000000E+00 -0.00000000000E+00 -0.73541789074E+03  0.73541789074E+03  0.00000000000E+00 0. -1.
          6    1    1    2  502    0  0.10696723697E+03 -0.75948359459E+02 -0.57268774103E+03  0.61218084895E+03  0.17200000000E+03 0. -1.
         -6    1    1    2    0  501 -0.10696723697E+03  0.75948359459E+02 -0.61166267598E+02  0.22480092389E+03  0.17200000000E+03 0.  1.
</event>
<event>
 4    1  0.1059899E+000  0.3174702E+03  0.7818608E-02  0.1076820E+00
         -2   -1    0    0    0  501 -0.00000000000E+00  0.00000000000E+00  0.10191453030E+03  0.10191453030E+03  0.00000000000E+00 0. -1.
          2   -1    0    0  502    0  0.00000000000E+00 -0.00000000000E+00 -0.20917065079E+04  0.20917065079E+04  0.00000000000E+00 0.  1.
          6    1    1    2  502    0 -0.25370191273E+03 -0.82696291742E+02 -0.17912809542E+04  0.18191961945E+04  0.17200000000E+03 0.  1.
         -6    1    1    2    0  501  0.25370191273E+03  0.82696291742E+02 -0.19851102348E+03  0.37442484377E+03  0.17200000000E+03 0. -1.
</event>
<event>
 4    1  0.1059899E+000  0.1724559E+03  0.7818608E-02  0.1175311E+00
         -1   -1    0    0    0  501 -0.00000000000E+00  0.00000000000E+00  0.13965616746E+02  0.13965616746E+02  0.00000000000E+00 0.  1.
          1   -1    0    0  502    0  0.00000000000E+00 -0.00000000000E+00 -0.25989051458E+04  0.25989051458E+04  0.00000000000E+00 0. -1.
          6    1    1    2  502    0 -0.57429105051E+01 -0.11138682262E+02 -0.18476379327E+04  0.18556688771E+04  0.17200000000E+03 0. -1.
         -6    1    1    2    0  501  0.57429105051E+01  0.11138682262E+02 -0.73730159633E+03  0.75720188537E+03  0.17200000000E+03 0.  1.
</event>
<event>
 4    1  0.1059899E+000  0.1859602E+03  0.7818608E-02  0.1162156E+00
          2   -1    0    0  502    0  0.00000000000E+00  0.00000000000E+00  0.29947434245E+03  0.29947434245E+03  0.00000000000E+00 0.  1.
         -2   -1    0    0    0  501 -0.00000000000E+00 -0.00000000000E+00 -0.12154385965E+03  0.12154385965E+03  0.00000000000E+00 0. -1.
          6    1    1    2  502    0 -0.31142738483E+02 -0.63461088417E+02  0.41918239750E+02  0.19062612289E+03  0.17200000000E+03 0.  1.
         -6    1    1    2    0  501  0.31142738483E+02  0.63461088417E+02  0.13601224306E+03  0.23039207921E+03  0.17200000000E+03 0.  1.
</event>
<event>
 4    1  0.1059899E+000  0.1879091E+03  0.7818608E-02  0.1160361E+00
          2   -1    0    0  502    0  0.00000000000E+00  0.00000000000E+00  0.24271913591E+02  0.24271913591E+02  0.00000000000E+00 0.  1.
         -2   -1    0    0    0  501 -0.00000000000E+00 -0.00000000000E+00 -0.15509954915E+04  0.15509954915E+04  0.00000000000E+00 0. -1.
          6    1    1    2  502    0 -0.72519516146E+02  0.21604344393E+02 -0.56716815992E+03  0.59748602456E+03  0.17200000000E+03 0. -1.
         -6    1    1    2    0  501  0.72519516146E+02 -0.21604344393E+02 -0.95955541799E+03  0.97778138053E+03  0.17200000000E+03 0.  1.
</event>
<event>
 4    1  0.1059899E+000  0.1951946E+03  0.7818608E-02  0.1153858E+00
          2   -1    0    0  502    0  0.00000000000E+00  0.00000000000E+00  0.19962931005E+04  0.19962931005E+04  0.00000000000E+00 0.  1.
         -2   -1    0    0    0  501 -0.00000000000E+00 -0.00000000000E+00 -0.19608855124E+02  0.19608855124E+02  0.00000000000E+00 0. -1.
          6    1    1    2  502    0  0.11406143039E+02  0.91579607438E+02  0.11529579869E+04  0.11693643762E+04  0.17200000000E+03 0.  1.
         -6    1    1    2    0  501 -0.11406143039E+02 -0.91579607438E+02  0.82372625842E+03  0.84653757944E+03  0.17200000000E+03 0.  1.
</event>
<event>
 4    1  0.1059899E+000  0.2752746E+03  0.7818608E-02  0.1098298E+00
          2   -1    0    0  502    0  0.00000000000E+00  0.00000000000E+00  0.44396281061E+03  0.44396281061E+03  0.00000000000E+00 0.  1.
         -2   -1    0    0    0  501 -0.00000000000E+00 -0.00000000000E+00 -0.17375913564E+03  0.17375913564E+03  0.00000000000E+00 0. -1.
          6    1    1    2  502    0 -0.17476467840E+03  0.12509765454E+03  0.93994696146E+02  0.29087990458E+03  0.17200000000E+03 0. -1.
         -6    1    1    2    0  501  0.17476467840E+03 -0.12509765454E+03  0.17620897882E+03  0.32684204167E+03  0.17200000000E+03 0. -1.
</event>
<event>
 4    1  0.1059899E+000  0.2484104E+03  0.7818608E-02  0.1114314E+00
          2   -1    0    0  502    0  0.00000000000E+00  0.00000000000E+00  0.22047480275E+04  0.22047480275E+04  0.00000000000E+00 0. -1.
         -2   -1    0    0    0  501 -0.00000000000E+00 -0.00000000000E+00 -0.52268566513E+02  0.52268566513E+02  0.00000000000E+00 0.  1.
          6    1    1    2  502    0  0.15685391565E+03 -0.86721123753E+02  0.30709346569E+03  0.39498620334E+03  0.17200000000E+03 0.  1.
         -6    1    1    2    0  501 -0.15685391565E+03  0.86721123753E+02  0.18453859953E+04  0.18620303907E+04  0.17200000000E+03 0. -1.
</event>
<event>
 4    1  0.1059899E+000  0.2159429E+03  0.7818608E-02  0.1136944E+00
         -2   -1    0    0    0  501 -0.00000000000E+00  0.00000000000E+00  0.19456204646E+02  0.19456204646E+02  0.00000000000E+00 0. -1.
          2   -1    0    0  502    0  0.00000000000E+00 -0.00000000000E+00 -0.24032377140E+04  0.24032377140E+04  0.00000000000E+00 0.  1.
          6    1    1    2  502    0  0.73138849877E+02 -0.10815747961E+03 -0.11288709025E+04  0.11493393086E+04  0.17200000000E+03 0.  1.
         -6    1    1    2    0  501 -0.73138849877E+02  0.10815747961E+03 -0.12549106069E+04  0.12733546101E+04  0.17200000000E+03 0. -1.
</event>
<event>
 4    1  0.1059899E+000  0.1746685E+03  0.7818608E-02  0.1173065E+00
         -2   -1    0    0    0  501 -0.00000000000E+00  0.00000000000E+00  0.11124103712E+04  0.11124103712E+04  0.00000000000E+00 0.  1.
          2   -1    0    0  502    0  0.00000000000E+00 -0.00000000000E+00 -0.39733102805E+02  0.39733102805E+02  0.00000000000E+00 0. -1.
          6    1    1    2  502    0  0.19505864845E+02 -0.23336616632E+02  0.21572904773E+03  0.27757539242E+03  0.17200000000E+03 0. -1.
         -6    1    1    2    0  501 -0.19505864845E+02  0.23336616632E+02  0.85694822071E+03  0.87456808163E+03  0.17200000000E+03 0.  1.
</event>
<event>
 4    1  0.1059899E+000  0.1921294E+03  0.7818608E-02  0.1156555E+00
          2   -1    0    0  502    0  0.00000000000E+00  0.00000000000E+00  0.10815323122E+03  0.10815323122E+03  0.00000000000E+00 0. -1.
         -2   -1    0    0    0  501 -0.00000000000E+00 -0.00000000000E+00 -0.38505063103E+03  0.38505063103E+03  0.00000000000E+00 0.  1.
          6    1    1    2  502    0  0.76179714176E+02  0.39068487357E+02 -0.22156456349E+03  0.29326532586E+03  0.17200000000E+03 0.  1.
         -6    1    1    2    0  501 -0.76179714176E+02 -0.39068487357E+02 -0.55332836319E+02  0.19993853638E+03  0.17200000000E+03 0. -1.
</event>
<event>
 4    1  0.1059899E+000  0.1762778E+03  0.7818608E-02  0.1171455E+00
         -2   -1    0    0    0  501 -0.00000000000E+00  0.00000000000E+00  0.47513315990E+02  0.47513315990E+02  0.00000000000E+00 0. -1.
          2   -1    0    0  502    0  0.00000000000E+00 -0.00000000000E+00 -0.67800855664E+03  0.67800855664E+03  0.00000000000E+00 0.  1.
          6    1    1    2  502    0 -0.29977954701E+02  0.24314483111E+02 -0.38350582855E+03  0.42207889356E+03  0.17200000000E+03 0.  1.
         -6    1    1    2    0  501  0.29977954701E+02 -0.24314483111E+02 -0.24698941210E+03  0.30344297907E+03  0.17200000000E+03 0. -1.
</event>
<event>
 4    1  0.1059899E+000  0.1959007E+03  0.7818608E-02  0.1153244E+00
          2   -1    0    0  502    0  0.00000000000E+00  0.00000000000E+00  0.32878683595E+02  0.32878683595E+02  0.00000000000E+00 0. -1.
         -2   -1    0    0    0  501 -0.00000000000E+00 -0.00000000000E+00 -0.11672335955E+04  0.11672335955E+04  0.00000000000E+00 0.  1.
          6    1    1    2  502    0 -0.91135791788E+02  0.22075652521E+02 -0.56658756084E+03  0.59949856637E+03  0.17200000000E+03 0.  1.
         -6    1    1    2    0  501  0.91135791788E+02 -0.22075652521E+02 -0.56776735106E+03  0.60061371272E+03  0.17200000000E+03 0.  1.
</event>
<event>
 4    1  0.1059899E+000  0.2053009E+03  0.7818608E-02  0.1145342E+00
         -2   -1    0    0    0  501 -0.00000000000E+00  0.00000000000E+00  0.94051047474E+03  0.94051047474E+03  0.00000000000E+00 0.  1.
          2   -1    0    0  502    0  0.00000000000E+00 -0.00000000000E+00 -0.65927267376E+02  0.65927267376E+02  0.00000000000E+00 0. -1.
          6    1    1    2  502    0  0.74894522651E+02  0.83398313989E+02  0.15251954000E+03  0.25575511409E+03  0.17200000000E+03 0. -1.
         -6    1    1    2    0  501 -0.74894522651E+02 -0.83398313989E+02  0.72206366736E+03  0.75068262803E+03  0.17200000000E+03 0.  1.
</event>
<event>
 4    1  0.1059899E+000  0.1775879E+03  0.7818608E-02  0.1170158E+00
         -1   -1    0    0    0  501 -0.00000000000E+00  0.00000000000E+00  0.57757800637E+03  0.57757800637E+03  0.00000000000E+00 0.  1.
          1   -1    0    0  502    0  0.00000000000E+00 -0.00000000000E+00 -0.87881622019E+02  0.87881622019E+02  0.00000000000E+00 0. -1.
          6    1    1    2  502    0 -0.44117001059E+02  0.26769431425E+01  0.40097426466E+02  0.18205845055E+03  0.17200000000E+03 0. -1.
         -6    1    1    2    0  501  0.44117001059E+02 -0.26769431425E+01  0.44959895788E+03  0.48340117784E+03  0.17200000000E+03 0.  1.
</event>
<event>
 4    1  0.1059899E+000  0.2114741E+03  0.7818608E-02  0.1140404E+00
          2   -1    0    0  502    0  0.00000000000E+00  0.00000000000E+00  0.17994631803E+03  0.17994631803E+03  0.00000000000E+00 0.  1.
         -2   -1    0    0    0  501 -0.00000000000E+00 -0.00000000000E+00 -0.29776610497E+03  0.29776610497E+03  0.00000000000E+00 0. -1.
          6    1    1    2  502    0 -0.30869402755E+02  0.11909812147E+03 -0.15604132039E+03  0.26281205496E+03  0.17200000000E+03 0. -1.
         -6    1    1    2    0  501  0.30869402755E+02 -0.11909812147E+03  0.38221533455E+02  0.21490036804E+03  0.17200000000E+03 0.  1.
</event>
<event>
 4    1  0.1059899E+000  0.1795485E+03  0.7818608E-02  0.1168241E+00
          1   -1    0    0  502    0  0.00000000000E+00  0.00000000000E+00  0.12961660494E+04  0.12961660494E+04  0.00000000000E+00 0.  1.
         -1   -1    0    0    0  501 -0.00000000000E+00 -0.00000000000E+00 -0.26518830523E+02  0.26518830523E+02  0.00000000000E+00 0. -1.
          6    1    1    2  502    0 -0.31578918350E+02  0.40699431990E+02  0.46999535685E+03  0.50312355074E+03  0.17200000000E+03 0. -1.
         -6    1    1    2    0  501  0.31578918350E+02 -0.40699431990E+02  0.79965186205E+03  0.81956132920E+03  0.17200000000E+03 0. -1.
</event>
<event>
 4    1  0.1059899E+000  0.2877922E+03  0.7818608E-02  0.1091508E+00
         -3   -1    0    0    0  501 -0.00000000000E+00  0.00000000000E+00  0.28471430449E+02  0.28471430449E+02  0.00000000000E+00 0.  1.
          3   -1    0    0  502    0  0.00000000000E+00 -0.00000000000E+00 -0.32222471994E+04  0.32222471994E+04  0.00000000000E+00 0. -1.
          6    1    1    2  502    0  0.43144189069E+02  0.22666922915E+03 -0.21036334461E+04  0.21232282110E+04  0.17200000000E+03 0. -1.
         -6    1    1    2    0  501 -0.43144189069E+02 -0.22666922915E+03 -0.10901423229E+04  0.11274904189E+04  0.17200000000E+03 0.  1.
</event>
<event>
 4    1  0.1059899E+000  0.1953786E+03  0.7818608E-02  0.1153698E+00
         -2   -1    0    0    0  501 -0.00000000000E+00  0.00000000000E+00  0.29178327808E+02  0.29178327808E+02  0.00000000000E+00 0.  1.
          2   -1    0    0  502    0  0.00000000000E+00 -0.00000000000E+00 -0.18958429843E+04  0.18958429843E+04  0.00000000000E+00 0. -1.
          6    1    1    2  502    0 -0.67199556016E+02  0.63820138304E+02 -0.14691778262E+04  0.14821120995E+04  0.17200000000E+03 0. -1.
         -6    1    1    2    0  501  0.67199556016E+02 -0.63820138304E+02 -0.39748683022E+03  0.44290921257E+03  0.17200000000E+03 0.  1.
</event>
<event>
 4    1  0.1059899E+000  0.1988827E+03  0.7818608E-02  0.1150685E+00
          2   -1    0    0  502    0  0.00000000000E+00  0.00000000000E+00  0.22311412932E+04  0.22311412932E+04  0.00000000000E+00 0.  1.
         -2   -1    0    0    0  501 -0.00000000000E+00 -0.00000000000E+00 -0.18027442469E+02  0.18027442469E+02  0.00000000000E+00 0. -1.
          6    1    1    2  502    0  0.92084924046E+02 -0.38609615587E+02  0.12514228179E+04  0.12671280143E+04  0.17200000000E+03 0.  1.
         -6    1    1    2    0  501 -0.92084924046E+02  0.38609615587E+02  0.96169103281E+03  0.98204072127E+03  0.17200000000E+03 0.  1.
</event>
<event>
 4    1  0.1059899E+000  0.1843099E+03  0.7818608E-02  0.1163696E+00
          2   -1    0    0  502    0  0.00000000000E+00  0.00000000000E+00  0.15818420768E+03  0.15818420768E+03  0.00000000000E+00 0. -1.
         -2   -1    0    0    0  501 -0.00000000000E+00 -0.00000000000E+00 -0.25062612241E+03  0.25062612241E+03  0.00000000000E+00 0.  1.
          6    1    1    2  502    0  0.21254333849E+02 -0.62724848336E+02  0.31114351237E+02  0.18691777914E+03  0.17200000000E+03 0. -1.
         -6    1    1    2    0  501 -0.21254333849E+02  0.62724848336E+02 -0.12355626597E+03  0.22189255095E+03  0.17200000000E+03 0.  1.
</event>
<event>
 4    1  0.1059899E+000  0.1833153E+03  0.7818608E-02  0.1164632E+00
         -2   -1    0    0    0  501 -0.00000000000E+00  0.00000000000E+00  0.18498648987E+03  0.18498648987E+03  0.00000000000E+00 0. -1.
          2   -1    0    0  502    0  0.00000000000E+00 -0.00000000000E+00 -0.19331544993E+03  0.19331544993E+03  0.00000000000E+00 0.  1.
          6    1    1    2  502    0  0.10541687794E+02  0.62525087321E+02 -0.50610992311E+02  0.19017356880E+03  0.17200000000E+03 0.  1.
         -6    1    1    2    0  501 -0.10541687794E+02 -0.62525087321E+02  0.42282032257E+02  0.18812837101E+03  0.17200000000E+03 0. -1.
</event>
<event>
 4    1  0.1059899E+000  0.1778572E+03  0.7818608E-02  0.1169893E+00
         -1   -1    0    0    0  501 -0.00000000000E+00  0.00000000000E+00  0.20914614080E+03  0.20914614080E+03  0.00000000000E+00 0.  1.
          1   -1    0    0  502    0  0.00000000000E+00 -0.00000000000E+00 -0.70572894684E+03  0.70572894684E+03  0.00000000000E+00 0. -1.
          6    1    1    2  502    0  0.18261718846E+02 -0.41420842979E+02  0.15717577341E+03  0.23735500912E+03  0.17200000000E+03 0.  1.
         -6    1    1    2    0  501 -0.18261718846E+02  0.41420842979E+02 -0.65375857944E+03  0.67752007852E+03  0.17200000000E+03 0. -1.
</event>
<event>
 4    1  0.1059899E+000  0.1923633E+03  0.7818608E-02  0.1156347E+00
         -2   -1    0    0    0  501 -0.00000000000E+00  0.00000000000E+00  0.32951058898E+02  0.32951058898E+02  0.00000000000E+00 0.  1.
          2   -1    0    0  502    0  0.00000000000E+00 -0.00000000000E+00 -0.11543484564E+04  0.11543484564E+04  0.00000000000E+00 0. -1.
          6    1    1    2  502    0  0.73609919914E+02  0.44735064467E+02 -0.46285058047E+03  0.50123278638E+03  0.17200000000E+03 0.  1.
         -6    1    1    2    0  501 -0.73609919914E+02 -0.44735064467E+02 -0.65854681702E+03  0.68606672890E+03  0.17200000000E+03 0. -1.
</event>
<event>
 4    1  0.1059899E+000  0.2741651E+03  0.7818608E-02  0.1098919E+00
          2   -1    0    0  502    0  0.00000000000E+00  0.00000000000E+00  0.84338690710E+03  0.84338690710E+03  0.00000000000E+00 0.  1.
         -2   -1    0    0    0  501 -0.00000000000E+00 -0.00000000000E+00 -0.17192472049E+03  0.17192472049E+03  0.00000000000E+00 0. -1.
          6    1    1    2  502    0 -0.20811474778E+03 -0.47652334578E+02 -0.16571443691E+02  0.27466544373E+03  0.17200000000E+03 0. -1.
         -6    1    1    2    0  501  0.20811474778E+03  0.47652334578E+02  0.68803363030E+03  0.74064618385E+03  0.17200000000E+03 0.  1.
</event>
<event>
 4    1  0.1059899E+000  0.1722579E+03  0.7818608E-02  0.1175513E+00
         -1   -1    0    0    0  501 -0.00000000000E+00  0.00000000000E+00  0.59223488310E+03  0.59223488310E+03  0.00000000000E+00 0. -1.
          1   -1    0    0  502    0  0.00000000000E+00 -0.00000000000E+00 -0.11515177677E+03  0.11515177677E+03  0.00000000000E+00 0.  1.
          6    1    1    2  502    0 -0.48655466829E+01  0.80689912918E+01 -0.27292676915E+02  0.17440662940E+03  0.17200000000E+03 0.  1.
         -6    1    1    2    0  501  0.48655466829E+01 -0.80689912918E+01  0.50437578324E+03  0.53298003047E+03  0.17200000000E+03 0. -1.
</event>
<event>
 4    1  0.1059899E+000  0.1724353E+03  0.7818608E-02  0.1175332E+00
          2   -1    0    0  502    0  0.00000000000E+00  0.00000000000E+00  0.70136669198E+03  0.70136669198E+03  0.00000000000E+00 0.  1.
         -2   -1    0    0    0  501 -0.00000000000E+00 -0.00000000000E+00 -0.42868297369E+02  0.42868297369E+02  0.00000000000E+00 0. -1.
          6    1    1    2  502    0 -0.76974101646E-01 -0.12244163119E+02  0.29011864884E+03  0.33749482346E+03  0.17200000000E+03 0. -1.
         -6    1    1    2    0  501  0.76974101646E-01  0.12244163119E+02  0.36837974577E+03  0.40674016589E+03  0.17200000000E+03 0.  1.
</event>
<event>
 4    1  0.1059899E+000  0.1778629E+03  0.7818608E-02  0.1169888E+00
         -1   -1    0    0    0  501 -0.00000000000E+00  0.00000000000E+00  0.82669037770E+02  0.82669037770E+02  0.00000000000E+00 0. -1.
          1   -1    0    0  502    0  0.00000000000E+00 -0.00000000000E+00 -0.38954678917E+03  0.38954678917E+03  0.00000000000E+00 0.  1.
          6    1    1    2  502    0 -0.80079067008E+01 -0.44576691227E+02 -0.18480270690E+03  0.25649025020E+03  0.17200000000E+03 0.  1.
         -6    1    1    2    0  501  0.80079067008E+01  0.44576691227E+02 -0.12207504450E+03  0.21572557674E+03  0.17200000000E+03 0.  1.
</event>
<event>
 4    1  0.1059899E+000  0.2179988E+03  0.7818608E-02  0.1135384E+00
          2   -1    0    0  502    0  0.00000000000E+00  0.00000000000E+00  0.17135898224E+04  0.17135898224E+04  0.00000000000E+00 0. -1.
         -2   -1    0    0    0  501 -0.00000000000E+00 -0.00000000000E+00 -0.27771657498E+02  0.27771657498E+02  0.00000000000E+00 0.  1.
          6    1    1    2  502    0  0.63175457961E+02  0.11810299364E+03  0.87527827542E+03  0.90201746935E+03  0.17200000000E+03 0.  1.
         -6    1    1    2    0  501 -0.63175457961E+02 -0.11810299364E+03  0.81053988945E+03  0.83934401051E+03  0.17200000000E+03 0.  1.
</event>
<event>
 4    1  0.1059899E+000  0.3205318E+03  0.7818608E-02  0.1075405E+00
         -1   -1    0    0    0  501 -0.00000000000E+00  0.00000000000E+00  0.83974243900E+03  0.83974243900E+03  0.00000000000E+00 0.  1.
          1   -1    0    0  502    0  0.00000000000E+00 -0.00000000000E+00 -0.27762912542E+03  0.27762912542E+03  0.00000000000E+00 0. -1.
          6    1    1    2  502    0 -0.26506865293E+03 -0.53807253921E+02 -0.13676867736E+03  0.34849143813E+03  0.17200000000E+03 0. -1.
         -6    1    1    2    0  501  0.26506865293E+03  0.53807253921E+02  0.69888199095E+03  0.76888012629E+03  0.17200000000E+03 0.  1.
</event>
<event>
 4    1  0.1059899E+000  0.2045737E+03  0.7818608E-02  0.1145937E+00
          2   -1    0    0  502    0  0.00000000000E+00  0.00000000000E+00  0.24185120065E+04  0.24185120065E+04  0.00000000000E+00 0. -1.
         -2   -1    0    0    0  501 -0.00000000000E+00 -0.00000000000E+00 -0.19640117708E+02  0.19640117708E+02  0.00000000000E+00 0.  1.
          6    1    1    2  502    0  0.10246414068E+03 -0.42041842101E+02  0.16198599307E+04  0.16327267413E+04  0.17200000000E+03 0. -1.
         -6    1    1    2    0  501 -0.10246414068E+03  0.42041842101E+02  0.77901195816E+03  0.80542538299E+03  0.17200000000E+03 0.  1.
</event>
<event>
 4    1  0.1059899E+000  0.2480385E+03  0.7818608E-02  0.1114551E+00
          2   -1    0    0  502    0  0.00000000000E+00  0.00000000000E+00  0.29208130191E+04  0.29208130191E+04  0.00000000000E+00 0. -1.
         -2   -1    0    0    0  501 -0.00000000000E+00 -0.00000000000E+00 -0.22296471870E+02  0.22296471870E+02  0.00000000000E+00 0.  1.
          6    1    1    2  502    0 -0.19883694038E+02 -0.17760561844E+03  0.11032388776E+04  0.11307781117E+04  0.17200000000E+03 0. -1.
         -6    1    1    2    0  501  0.19883694038E+02  0.17760561844E+03  0.17952776697E+04  0.18123313792E+04  0.17200000000E+03 0. -1.
</event>
<event>
 4    1  0.1059899E+000  0.2115916E+03  0.7818608E-02  0.1140312E+00
          2   -1    0    0  502    0  0.00000000000E+00  0.00000000000E+00  0.19501212918E+03  0.19501212918E+03  0.00000000000E+00 0. -1.
         -2   -1    0    0    0  501 -0.00000000000E+00 -0.00000000000E+00 -0.25655441315E+03  0.25655441315E+03  0.00000000000E+00 0.  1.
          6    1    1    2  502    0 -0.79862763302E+02 -0.93855926098E+02 -0.10398165124E+03  0.23576085260E+03  0.17200000000E+03 0.  1.
         -6    1    1    2    0  501  0.79862763302E+02  0.93855926098E+02  0.42439367263E+02  0.21580568973E+03  0.17200000000E+03 0. -1.
</event>
<event>
 4    1  0.1059899E+000  0.3788392E+03  0.7818608E-02  0.1051364E+00
          3   -1    0    0  502    0  0.00000000000E+00  0.00000000000E+00  0.25264594258E+03  0.25264594258E+03  0.00000000000E+00 0. -1.
         -3   -1    0    0    0  501 -0.00000000000E+00 -0.00000000000E+00 -0.67376604833E+03  0.67376604833E+03  0.00000000000E+00 0.  1.
          6    1    1    2  502    0 -0.11397187579E+03  0.31771930578E+03 -0.39402819094E+03  0.54660530641E+03  0.17200000000E+03 0.  1.
         -6    1    1    2    0  501  0.11397187579E+03 -0.31771930578E+03 -0.27091914810E+02  0.37980668449E+03  0.17200000000E+03 0. -1.
</event>
<event>
 4    1  0.1059899E+000  0.1739492E+03  0.7818608E-02  0.1173791E+00
         -1   -1    0    0    0  501 -0.00000000000E+00  0.00000000000E+00  0.44832554246E+02  0.44832554246E+02  0.00000000000E+00 0.  1.
          1   -1    0    0  502    0  0.00000000000E+00 -0.00000000000E+00 -0.67669298073E+03  0.67669298073E+03  0.00000000000E+00 0. -1.
          6    1    1    2  502    0 -0.19953652305E+02 -0.16618523643E+02 -0.33440385406E+03  0.37694066002E+03  0.17200000000E+03 0. -1.
         -6    1    1    2    0  501  0.19953652305E+02  0.16618523643E+02 -0.29745657242E+03  0.34458487495E+03  0.17200000000E+03 0. -1.
</event>
<event>
 4    1  0.1059899E+000  0.1962630E+03  0.7818608E-02  0.1152931E+00
         -2   -1    0    0    0  501 -0.00000000000E+00  0.00000000000E+00  0.11811872675E+03  0.11811872675E+03  0.00000000000E+00 0. -1.
          2   -1    0    0  502    0  0.00000000000E+00 -0.00000000000E+00 -0.33440340587E+03  0.33440340587E+03  0.00000000000E+00 0.  1.
          6    1    1    2  502    0  0.12481795603E+01  0.94517669487E+02 -0.72500273795E+02  0.20922580505E+03  0.17200000000E+03 0.  1.
         -6    1    1    2    0  501 -0.12481795603E+01 -0.94517669487E+02 -0.14378440532E+03  0.24329632757E+03  0.17200000000E+03 0.  1.
</event>
<event>
 4    1  0.1059899E+000  0.2618755E+03  0.7818608E-02  0.1106022E+00
         -2   -1    0    0    0  501 -0.00000000000E+00  0.00000000000E+00  0.31391980533E+02  0.31391980533E+02  0.00000000000E+00 0. -1.
          2   -1    0    0  502    0  0.00000000000E+00 -0.00000000000E+00 -0.27074495239E+04  0.27074495239E+04  0.00000000000E+00 0.  1.
          6    1    1    2  502    0  0.18734094881E+03 -0.62435342959E+02 -0.73623646172E+03  0.78142365636E+03  0.17200000000E+03 0. -1.
         -6    1    1    2    0  501 -0.18734094881E+03  0.62435342959E+02 -0.19398210817E+04  0.19574178481E+04  0.17200000000E+03 0.  1.
</event>
<event>
 4    1  0.1059899E+000  0.1885786E+03  0.7818608E-02  0.1159750E+00
         -3   -1    0    0    0  501 -0.00000000000E+00  0.00000000000E+00  0.80856273612E+02  0.80856273612E+02  0.00000000000E+00 0. -1.
          3   -1    0    0  502    0  0.00000000000E+00 -0.00000000000E+00 -0.20959294367E+04  0.20959294367E+04  0.00000000000E+00 0.  1.
          6    1    1    2  502    0  0.44932622187E+02 -0.62920232406E+02 -0.40055743149E+02  0.19278578459E+03  0.17200000000E+03 0. -1.
         -6    1    1    2    0  501 -0.44932622187E+02  0.62920232406E+02 -0.19750174199E+04  0.19839999257E+04  0.17200000000E+03 0.  1.
</event>
<event>
 4    1  0.1059899E+000  0.1786094E+03  0.7818608E-02  0.1169156E+00
          1   -1    0    0  502    0  0.00000000000E+00  0.00000000000E+00  0.10133264193E+03  0.10133264193E+03  0.00000000000E+00 0.  1.
         -1   -1    0    0    0  501 -0.00000000000E+00 -0.00000000000E+00 -0.59330136773E+03  0.59330136773E+03  0.00000000000E+00 0. -1.
          6    1    1    2  502    0 -0.20831317780E+02  0.43397824341E+02 -0.48393572417E+03  0.51584406566E+03  0.17200000000E+03 0. -1.
         -6    1    1    2    0  501  0.20831317780E+02 -0.43397824341E+02 -0.80330016297E+01  0.17878994399E+03  0.17200000000E+03 0.  1.
</event>
<event>
 4    1  0.1059899E+000  0.1750275E+03  0.7818608E-02  0.1172704E+00
          2   -1    0    0  502    0  0.00000000000E+00  0.00000000000E+00  0.20845863627E+03  0.20845863627E+03  0.00000000000E+00 0. -1.
         -2   -1    0    0    0  501 -0.00000000000E+00 -0.00000000000E+00 -0.14863902542E+03  0.14863902542E+03  0.00000000000E+00 0.  1.
          6    1    1    2  502    0 -0.32114644623E+02  0.43890710047E+01  0.48899092591E+02  0.18172984235E+03  0.17200000000E+03 0. -1.
         -6    1    1    2    0  501  0.32114644623E+02 -0.43890710047E+01  0.10920518262E+02  0.17536781935E+03  0.17200000000E+03 0.  1.
</event>
<event>
 4    1  0.1059899E+000  0.1969702E+03  0.7818608E-02  0.1152321E+00
          2   -1    0    0  502    0  0.00000000000E+00  0.00000000000E+00  0.17899803220E+04  0.17899803220E+04  0.00000000000E+00 0.  1.
         -2   -1    0    0    0  501 -0.00000000000E+00 -0.00000000000E+00 -0.23652399708E+02  0.23652399708E+02  0.00000000000E+00 0. -1.
          6    1    1    2  502    0  0.92732870355E+02  0.24776373913E+02  0.11453828138E+04  0.11621957856E+04  0.17200000000E+03 0.  1.
         -6    1    1    2    0  501 -0.92732870355E+02 -0.24776373913E+02  0.62094510850E+03  0.65143693610E+03  0.17200000000E+03 0. -1.
</event>
<event>
 4    1  0.1059899E+000  0.2140483E+03  0.7818608E-02  0.1138400E+00
         -2   -1    0    0    0  501 -0.00000000000E+00  0.00000000000E+00  0.27916122358E+02  0.27916122358E+02  0.00000000000E+00 0.  1.
          2   -1    0    0  502    0  0.00000000000E+00 -0.00000000000E+00 -0.16558349624E+04  0.16558349624E+04  0.00000000000E+00 0. -1.
          6    1    1    2  502    0  0.12565520076E+03 -0.21057995185E+02 -0.73488289807E+03  0.76542115369E+03  0.17200000000E+03 0. -1.
         -6    1    1    2    0  501 -0.12565520076E+03  0.21057995185E+02 -0.89303594193E+03  0.91832993102E+03  0.17200000000E+03 0. -1.
</event>
<event>
 4    1  0.1059899E+000  0.2758524E+03  0.7818608E-02  0.1097976E+00
         -1   -1    0    0    0  501 -0.00000000000E+00  0.00000000000E+00  0.86092102886E+02  0.86092102886E+02  0.00000000000E+00 0. -1.
          1   -1    0    0  502    0  0.00000000000E+00 -0.00000000000E+00 -0.14640170860E+04  0.14640170860E+04  0.00000000000E+00 0.  1.
          6    1    1    2  502    0  0.19335194234E+03 -0.95527881624E+02 -0.20106691953E+03  0.34135385731E+03  0.17200000000E+03 0. -1.
         -6    1    1    2    0  501 -0.19335194234E+03  0.95527881624E+02 -0.11768580636E+04  0.12087553316E+04  0.17200000000E+03 0.  1.
</event>
<event>
 4    1  0.1059899E+000  0.2124257E+03  0.7818608E-02  0.1139659E+00
          2   -1    0    0  502    0  0.00000000000E+00  0.00000000000E+00  0.32759340446E+03  0.32759340446E+03  0.00000000000E+00 0.  1.
         -2   -1    0    0    0  501 -0.00000000000E+00 -0.00000000000E+00 -0.14500877116E+03  0.14500877116E+03  0.00000000000E+00 0. -1.
          6    1    1    2  502    0  0.38645875123E+01  0.12460233686E+03  0.14417580599E+03  0.25673204011E+03  0.17200000000E+03 0.  1.
         -6    1    1    2    0  501 -0.38645875123E+01 -0.12460233686E+03  0.38408827318E+02  0.21587013551E+03  0.17200000000E+03 0. -1.
</event>
<event>
 4    1  0.1059899E+000  0.2843988E+03  0.7818608E-02  0.1093310E+00
          1   -1    0    0  502    0  0.00000000000E+00  0.00000000000E+00  0.18815957525E+04  0.18815957525E+04  0.00000000000E+00 0.  1.
         -1   -1    0    0    0  501 -0.00000000000E+00 -0.00000000000E+00 -0.67231497112E+02  0.67231497112E+02  0.00000000000E+00 0. -1.
          6    1    1    2  502    0 -0.22449464415E+03  0.30013442122E+02  0.32202741236E+03  0.42963275745E+03  0.17200000000E+03 0. -1.
         -6    1    1    2    0  501  0.22449464415E+03 -0.30013442122E+02  0.14923368430E+04  0.15191944921E+04  0.17200000000E+03 0. -1.
</event>
<event>
 4    1  0.1059899E+000  0.2401995E+03  0.7818608E-02  0.1119660E+00
          1   -1    0    0  502    0  0.00000000000E+00  0.00000000000E+00  0.14525738072E+04  0.14525738072E+04  0.00000000000E+00 0.  1.
         -1   -1    0    0    0  501 -0.00000000000E+00 -0.00000000000E+00 -0.50171333045E+02  0.50171333045E+02  0.00000000000E+00 0. -1.
          6    1    1    2  502    0  0.73811553079E+02 -0.15054453702E+03  0.35826017319E+03  0.43133067905E+03  0.17200000000E+03 0. -1.
         -6    1    1    2    0  501 -0.73811553079E+02  0.15054453702E+03  0.10441423010E+04  0.10714144612E+04  0.17200000000E+03 0.  1.
</event>
<event>
 4    1  0.1059899E+000  0.2247187E+03  0.7818608E-02  0.1130413E+00
          1   -1    0    0  502    0  0.00000000000E+00  0.00000000000E+00  0.15706871645E+04  0.15706871645E+04  0.00000000000E+00 0. -1.
         -1   -1    0    0    0  501 -0.00000000000E+00 -0.00000000000E+00 -0.32270605764E+02  0.32270605764E+02  0.00000000000E+00 0.  1.
          6    1    1    2  502    0  0.10312511995E+03 -0.10138893261E+03  0.81808732024E+03  0.84838986885E+03  0.17200000000E+03 0.  1.
         -6    1    1    2    0  501 -0.10312511995E+03  0.10138893261E+03  0.72032923851E+03  0.75456790144E+03  0.17200000000E+03 0. -1.
</event>
<event>
 4    1  0.1059899E+000  0.5519732E+03  0.7818608E-02  0.1001038E+00
         -2   -1    0    0    0  501 -0.00000000000E+00  0.00000000000E+00  0.10514998563E+04  0.10514998563E+04  0.00000000000E+00 0. -1.
          2   -1    0    0  502    0  0.00000000000E+00 -0.00000000000E+00 -0.29242317388E+03  0.29242317388E+03  0.00000000000E+00 0.  1.
          6    1    1    2  502    0  0.46523789570E+03 -0.24216545927E+03  0.44375864478E+03  0.70823452618E+03  0.17200000000E+03 0.  1.
         -6    1    1    2    0  501 -0.46523789570E+03  0.24216545927E+03  0.31531803768E+03  0.63568850403E+03  0.17200000000E+03 0. -1.
</event>
<event>
 4    1  0.1059899E+000  0.2172858E+03  0.7818608E-02  0.1135923E+00
         -2   -1    0    0    0  501 -0.00000000000E+00  0.00000000000E+00  0.12622676944E+03  0.12622676944E+03  0.00000000000E+00 0. -1.
          2   -1    0    0  502    0  0.00000000000E+00 -0.00000000000E+00 -0.39750356914E+03  0.39750356914E+03  0.00000000000E+00 0.  1.
          6    1    1    2  502    0 -0.11656982456E+03 -0.63565600876E+02 -0.19926801980E+03  0.29482342738E+03  0.17200000000E+03 0.  1.
         -6    1    1    2    0  501  0.11656982456E+03  0.63565600876E+02 -0.72008779900E+02  0.22890691120E+03  0.17200000000E+03 0. -1.
</event>
<event>
 4    1  0.1059899E+000  0.1821077E+03  0.7818608E-02  0.1165779E+00
          3   -1    0    0  502    0  0.00000000000E+00  0.00000000000E+00  0.31181749455E+03  0.31181749455E+03  0.00000000000E+00 0. -1.
         -3   -1    0    0    0  501 -0.00000000000E+00 -0.00000000000E+00 -0.10856736179E+03  0.10856736179E+03  0.00000000000E+00 0.  1.
          6    1    1    2  502    0  0.59826128627E+02 -0.20576843534E+00  0.71616857471E+02  0.19568388355E+03  0.17200000000E+03 0.  1.
         -6    1    1    2    0  501 -0.59826128627E+02  0.20576843534E+00  0.13163327529E+03  0.22470097278E+03  0.17200000000E+03 0.  1.
</event>
<event>
 4    1  0.1059899E+000  0.1928670E+03  0.7818608E-02  0.1155901E+00
         -2   -1    0    0    0  501 -0.00000000000E+00  0.00000000000E+00  0.18716875924E+02  0.18716875924E+02  0.00000000000E+00 0. -1.
          2   -1    0    0  502    0  0.00000000000E+00 -0.00000000000E+00 -0.22349085890E+04  0.22349085890E+04  0.00000000000E+00 0.  1.
          6    1    1    2  502    0 -0.41767885959E+02 -0.76610096867E+02 -0.73309781580E+03  0.75804358104E+03  0.17200000000E+03 0. -1.
         -6    1    1    2    0  501  0.41767885959E+02  0.76610096867E+02 -0.14830938973E+04  0.14955818839E+04  0.17200000000E+03 0.  1.
</event>
<event>
 4    1  0.1059899E+000  0.5479856E+03  0.7818608E-02  0.1001961E+00
          1   -1    0    0  502    0  0.00000000000E+00  0.00000000000E+00  0.21825728689E+03  0.21825728689E+03  0.00000000000E+00 0. -1.
         -1   -1    0    0    0  501 -0.00000000000E+00 -0.00000000000E+00 -0.14076112846E+04  0.14076112846E+04  0.00000000000E+00 0.  1.
          6    1    1    2  502    0 -0.51874525683E+03  0.40094913508E+02 -0.71679953624E+03  0.90226926066E+03  0.17200000000E+03 0.  1.
         -6    1    1    2    0  501  0.51874525683E+03 -0.40094913508E+02 -0.47255446143E+03  0.72359931080E+03  0.17200000000E+03 0. -1.
</event>
<event>
 4    1  0.1059899E+000  0.4686023E+03  0.7818608E-02  0.1022315E+00
          1   -1    0    0  502    0  0.00000000000E+00  0.00000000000E+00  0.80002017924E+03  0.80002017924E+03  0.00000000000E+00 0.  1.
         -1   -1    0    0    0  501 -0.00000000000E+00 -0.00000000000E+00 -0.27741044492E+03  0.27741044492E+03  0.00000000000E+00 0. -1.
          6    1    1    2  502    0 -0.38834137975E+03  0.19797755141E+03  0.31669015226E+03  0.56558004794E+03  0.17200000000E+03 0.  1.
         -6    1    1    2    0  501  0.38834137975E+03 -0.19797755141E+03  0.20591958206E+03  0.51185057621E+03  0.17200000000E+03 0.  1.
</event>
<event>
 4    1  0.1059899E+000  0.2102621E+03  0.7818608E-02  0.1141359E+00
         -2   -1    0    0    0  501 -0.00000000000E+00  0.00000000000E+00  0.34036313275E+02  0.34036313275E+02  0.00000000000E+00 0.  1.
          2   -1    0    0  502    0  0.00000000000E+00 -0.00000000000E+00 -0.17553932626E+04  0.17553932626E+04  0.00000000000E+00 0. -1.
          6    1    1    2  502    0 -0.13792185003E+02 -0.12014963519E+03 -0.13169350232E+04  0.13336146425E+04  0.17200000000E+03 0.  1.
         -6    1    1    2    0  501  0.13792185003E+02  0.12014963519E+03 -0.40442192607E+03  0.45581493338E+03  0.17200000000E+03 0.  1.
</event>
<event>
 4    1  0.1059899E+000  0.2220349E+03  0.7818608E-02  0.1132375E+00
          1   -1    0    0  502    0  0.00000000000E+00  0.00000000000E+00  0.18956319072E+04  0.18956319072E+04  0.00000000000E+00 0.  1.
         -1   -1    0    0    0  501 -0.00000000000E+00 -0.00000000000E+00 -0.31412671153E+02  0.31412671153E+02  0.00000000000E+00 0. -1.
          6    1    1    2  502    0  0.14008989126E+03  0.95028816898E+01  0.13318138377E+04  0.13501953862E+04  0.17200000000E+03 0.  1.
         -6    1    1    2    0  501 -0.14008989126E+03 -0.95028816898E+01  0.53240539830E+03  0.57684919219E+03  0.17200000000E+03 0. -1.
</event>
<event>
 4    1  0.1059899E+000  0.1802230E+03  0.7818608E-02  0.1167587E+00
         -1   -1    0    0    0  501 -0.00000000000E+00  0.00000000000E+00  0.75543810820E+02  0.75543810820E+02  0.00000000000E+00 0.  1.
          1   -1    0    0  502    0  0.00000000000E+00 -0.00000000000E+00 -0.44060242287E+03  0.44060242287E+03  0.00000000000E+00 0. -1.
          6    1    1    2  502    0 -0.39504640623E+01 -0.53672364697E+02 -0.14240834304E+03  0.22969646289E+03  0.17200000000E+03 0.  1.
         -6    1    1    2    0  501  0.39504640623E+01  0.53672364697E+02 -0.22265026902E+03  0.28644977080E+03  0.17200000000E+03 0. -1.
</event>
<event>
 4    1  0.1059899E+000  0.2049719E+03  0.7818608E-02  0.1145611E+00
          1   -1    0    0  502    0  0.00000000000E+00  0.00000000000E+00  0.35279696824E+03  0.35279696824E+03  0.00000000000E+00 0.  1.
         -1   -1    0    0    0  501 -0.00000000000E+00 -0.00000000000E+00 -0.15078113938E+03  0.15078113938E+03  0.00000000000E+00 0. -1.
          6    1    1    2  502    0 -0.36262704201E+01  0.11142861658E+03 -0.14431393099E+02  0.20547932143E+03  0.17200000000E+03 0. -1.
         -6    1    1    2    0  501  0.36262704201E+01 -0.11142861658E+03  0.21644722196E+03  0.29809878618E+03  0.17200000000E+03 0.  1.
</event>
<event>
 4    1  0.1059899E+000  0.1826675E+03  0.7818608E-02  0.1165246E+00
          2   -1    0    0  502    0  0.00000000000E+00  0.00000000000E+00  0.18780775309E+04  0.18780775309E+04  0.00000000000E+00 0. -1.
         -2   -1    0    0    0  501 -0.00000000000E+00 -0.00000000000E+00 -0.17767438873E+02  0.17767438873E+02  0.00000000000E+00 0.  1.
          6    1    1    2  502    0 -0.27934000831E+02  0.54800752209E+02  0.93583218673E+03  0.95349321580E+03  0.17200000000E+03 0. -1.
         -6    1    1    2    0  501  0.27934000831E+02 -0.54800752209E+02  0.92447790525E+03  0.94235175394E+03  0.17200000000E+03 0.  1.
</event>
<event>
 4    1  0.1059899E+000  0.1871607E+03  0.7818608E-02  0.1161047E+00
          2   -1    0    0  502    0  0.00000000000E+00  0.00000000000E+00  0.32824162896E+03  0.32824162896E+03  0.00000000000E+00 0.  1.
         -2   -1    0    0    0  501 -0.00000000000E+00 -0.00000000000E+00 -0.10679195164E+03  0.10679195164E+03  0.00000000000E+00 0. -1.
          6    1    1    2  502    0 -0.70223025986E+02  0.22668638458E+02  0.10498325512E+03  0.21459409219E+03  0.17200000000E+03 0.  1.
         -6    1    1    2    0  501  0.70223025986E+02 -0.22668638458E+02  0.11646642219E+03  0.22043948840E+03  0.17200000000E+03 0.  1.
</event>
<event>
 4    1  0.1059899E+000  0.1753772E+03  0.7818608E-02  0.1172354E+00
         -1   -1    0    0    0  501 -0.00000000000E+00  0.00000000000E+00  0.18401906189E+03  0.18401906189E+03  0.00000000000E+00 0.  1.
          1   -1    0    0  502    0  0.00000000000E+00 -0.00000000000E+00 -0.18647026975E+03  0.18647026975E+03  0.00000000000E+00 0. -1.
          6    1    1    2  502    0 -0.27619006056E+02  0.20256758563E+02  0.58415774759E+02  0.18485007034E+03  0.17200000000E+03 0.  1.
         -6    1    1    2    0  501  0.27619006056E+02 -0.20256758563E+02 -0.60866982618E+02  0.18563926130E+03  0.17200000000E+03 0. -1.
</event>
<event>
 4    1  0.1059899E+000  0.1827151E+03  0.7818608E-02  0.1165201E+00
         -1   -1    0    0    0  501 -0.00000000000E+00  0.00000000000E+00  0.35448087389E+03  0.35448087389E+03  0.00000000000E+00 0. -1.
          1   -1    0    0  502    0  0.00000000000E+00 -0.00000000000E+00 -0.10114721838E+03  0.10114721838E+03  0.00000000000E+00 0.  1.
          6    1    1    2  502    0 -0.22718423927E+01  0.61608818264E+02  0.18645990491E+03  0.26105957920E+03  0.17200000000E+03 0.  1.
         -6    1    1    2    0  501  0.22718423927E+01 -0.61608818264E+02  0.66873750607E+02  0.19456851306E+03  0.17200000000E+03 0.  1.
</event>
<event>
 4    1  0.1059899E+000  0.3419200E+03  0.7818608E-02  0.1065981E+00
          2   -1    0    0  502    0  0.00000000000E+00  0.00000000000E+00  0.76670447037E+03  0.76670447037E+03  0.00000000000E+00 0.  1.
         -2   -1    0    0    0  501 -0.00000000000E+00 -0.00000000000E+00 -0.15694082031E+03  0.15694082031E+03  0.00000000000E+00 0. -1.
          6    1    1    2  502    0  0.21162850748E+03  0.20624901368E+03  0.38271701217E+03  0.51320716307E+03  0.17200000000E+03 0. -1.
         -6    1    1    2    0  501 -0.21162850748E+03 -0.20624901368E+03  0.22704663788E+03  0.41043812761E+03  0.17200000000E+03 0. -1.
</event>
<event>
 4    1  0.1059899E+000  0.2544041E+03  0.7818608E-02  0.1110553E+00
         -1   -1    0    0    0  501 -0.00000000000E+00  0.00000000000E+00  0.15490884805E+03  0.15490884805E+03  0.00000000000E+00 0. -1.
          1   -1    0    0  502    0  0.00000000000E+00 -0.00000000000E+00 -0.44488105007E+03  0.44488105007E+03  0.00000000000E+00 0.  1.
          6    1    1    2  502    0 -0.18338551413E+03 -0.38822834096E+02 -0.70999706508E+02  0.26412576089E+03  0.17200000000E+03 0. -1.
         -6    1    1    2    0  501  0.18338551413E+03  0.38822834096E+02 -0.21897249550E+03  0.33566413724E+03  0.17200000000E+03 0.  1.
</event>
<event>
 4    1  0.1059899E+000  0.2431588E+03  0.7818608E-02  0.1117706E+00
          2   -1    0    0  502    0  0.00000000000E+00  0.00000000000E+00  0.33022227795E+04  0.33022227795E+04  0.00000000000E+00 0.  1.
         -2   -1    0    0    0  501 -0.00000000000E+00 -0.00000000000E+00 -0.18816800869E+02  0.18816800869E+02  0.00000000000E+00 0. -1.
          6    1    1    2  502    0 -0.68541931387E+02  0.15762050882E+03  0.20072361371E+04  0.20219107625E+04  0.17200000000E+03 0. -1.
         -6    1    1    2    0  501  0.68541931387E+02 -0.15762050882E+03  0.12761698415E+04  0.12991288179E+04  0.17200000000E+03 0. -1.
</event>
<event>
 4    1  0.1059899E+000  0.1808021E+03  0.7818608E-02  0.1167029E+00
          3   -1    0    0  502    0  0.00000000000E+00  0.00000000000E+00  0.94731947888E+02  0.94731947888E+02  0.00000000000E+00 0.  1.
         -3   -1    0    0    0  501 -0.00000000000E+00 -0.00000000000E+00 -0.35604415568E+03  0.35604415568E+03  0.00000000000E+00 0. -1.
          6    1    1    2  502    0  0.42202819443E+02 -0.36391202156E+02 -0.91090893283E+02  0.20245233612E+03  0.17200000000E+03 0.  1.
         -6    1    1    2    0  501 -0.42202819443E+02  0.36391202156E+02 -0.17022131451E+03  0.24832376744E+03  0.17200000000E+03 0. -1.
</event>
<event>
 4    1  0.1059899E+000  0.2161121E+03  0.7818608E-02  0.1136815E+00
         -1   -1    0    0    0  501 -0.00000000000E+00  0.00000000000E+00  0.20112446436E+04  0.20112446436E+04  0.00000000000E+00 0.  1.
          1   -1    0    0  502    0  0.00000000000E+00 -0.00000000000E+00 -0.28837233755E+02  0.28837233755E+02  0.00000000000E+00 0. -1.
          6    1    1    2  502    0  0.72152579626E+02 -0.10915321648E+03  0.14413340105E+04  0.14574457620E+04  0.17200000000E+03 0.  1.
         -6    1    1    2    0  501 -0.72152579626E+02  0.10915321648E+03  0.54107339937E+03  0.58263611536E+03  0.17200000000E+03 0. -1.
</event>
<event>
 4    1  0.1059899E+000  0.2039460E+03  0.7818608E-02  0.1146452E+00
         -2   -1    0    0    0  501 -0.00000000000E+00  0.00000000000E+00  0.31219206067E+03  0.31219206067E+03  0.00000000000E+00 0. -1.
          2   -1    0    0  502    0  0.00000000000E+00 -0.00000000000E+00 -0.17849759900E+03  0.17849759900E+03  0.00000000000E+00 0.  1.
          6    1    1    2  502    0  0.36559419434E+01 -0.10952892809E+03 -0.56703458813E+02  0.21168191761E+03  0.17200000000E+03 0.  1.
         -6    1    1    2    0  501 -0.36559419434E+01  0.10952892809E+03  0.19039792048E+03  0.27900774205E+03  0.17200000000E+03 0. -1.
</event>
<event>
 4    1  0.1059899E+000  0.2787300E+03  0.7818608E-02  0.1096385E+00
          2   -1    0    0  502    0  0.00000000000E+00  0.00000000000E+00  0.54061162279E+03  0.54061162279E+03  0.00000000000E+00 0.  1.
         -2   -1    0    0    0  501 -0.00000000000E+00 -0.00000000000E+00 -0.14670357317E+03  0.14670357317E+03  0.00000000000E+00 0. -1.
          6    1    1    2  502    0 -0.20343691787E+03 -0.81974491175E+02  0.24605851531E+03  0.37179993237E+03  0.17200000000E+03 0.  1.
         -6    1    1    2    0  501  0.20343691787E+03  0.81974491175E+02  0.14784953431E+03  0.31551526358E+03  0.17200000000E+03 0. -1.
</event>
<event>
 4    1  0.1059899E+000  0.1908672E+03  0.7818608E-02  0.1157682E+00
         -2   -1    0    0    0  501 -0.00000000000E+00  0.00000000000E+00  0.50160129508E+02  0.50160129508E+02  0.00000000000E+00 0.  1.
          2   -1    0    0  502    0  0.00000000000E+00 -0.00000000000E+00 -0.11229133308E+04  0.11229133308E+04  0.00000000000E+00 0. -1.
          6    1    1    2  502    0  0.55914531280E+02 -0.60990481575E+02 -0.88496824545E+03  0.90531710970E+03  0.17200000000E+03 0. -1.
         -6    1    1    2    0  501 -0.55914531280E+02  0.60990481575E+02 -0.18778495583E+03  0.26775635060E+03  0.17200000000E+03 0.  1.
</event>
<event>
 4    1  0.1059899E+000  0.5359108E+03  0.7818608E-02  0.1004809E+00
         -2   -1    0    0    0  501 -0.00000000000E+00  0.00000000000E+00  0.56007879828E+03  0.56007879828E+03  0.00000000000E+00 0. -1.
          2   -1    0    0  502    0  0.00000000000E+00 -0.00000000000E+00 -0.66500802771E+03  0.66500802771E+03  0.00000000000E+00 0.  1.
          6    1    1    2  502    0  0.19751705783E+02 -0.50717481107E+03  0.24059944256E+03  0.58744234664E+03  0.17200000000E+03 0. -1.
         -6    1    1    2    0  501 -0.19751705783E+02  0.50717481107E+03 -0.34552867199E+03  0.63764447934E+03  0.17200000000E+03 0.  1.
</event>
<event>
 4    1  0.1059899E+000  0.2301818E+03  0.7818608E-02  0.1126512E+00
         -2   -1    0    0    0  501 -0.00000000000E+00  0.00000000000E+00  0.57192081578E+02  0.57192081578E+02  0.00000000000E+00 0. -1.
          2   -1    0    0  502    0  0.00000000000E+00 -0.00000000000E+00 -0.10478336035E+04  0.10478336035E+04  0.00000000000E+00 0.  1.
          6    1    1    2  502    0  0.65271197318E+02 -0.13834493712E+03 -0.68339846487E+03  0.72112212045E+03  0.17200000000E+03 0. -1.
         -6    1    1    2    0  501 -0.65271197318E+02  0.13834493712E+03 -0.30724305707E+03  0.38390356464E+03  0.17200000000E+03 0. -1.
</event>
<event>
 4    1  0.1059899E+000  0.1861094E+03  0.7818608E-02  0.1162018E+00
         -2   -1    0    0    0  501 -0.00000000000E+00  0.00000000000E+00  0.27192742783E+02  0.27192742783E+02  0.00000000000E+00 0.  1.
          2   -1    0    0  502    0  0.00000000000E+00 -0.00000000000E+00 -0.14778841601E+04  0.14778841601E+04  0.00000000000E+00 0. -1.
          6    1    1    2  502    0  0.25495012801E+02 -0.66353004838E+02 -0.10050298710E+04  0.10221163136E+04  0.17200000000E+03 0. -1.
         -6    1    1    2    0  501 -0.25495012801E+02  0.66353004838E+02 -0.44566154625E+03  0.48296058922E+03  0.17200000000E+03 0.  1.
</event>
<event>
 4    1  0.1059899E+000  0.2016449E+03  0.7818608E-02  0.1148359E+00
          1   -1    0    0  502    0  0.00000000000E+00  0.00000000000E+00  0.13737338598E+03  0.13737338598E+03  0.00000000000E+00 0. -1.
         -1   -1    0    0    0  501 -0.00000000000E+00 -0.00000000000E+00 -0.31663196272E+03  0.31663196272E+03  0.00000000000E+00 0.  1.
          6    1    1    2  502    0 -0.61997106344E+02 -0.85047167548E+02 -0.31664220035E+02  0.20411586105E+03  0.17200000000E+03 0. -1.
         -6    1    1    2    0  501  0.61997106344E+02  0.85047167548E+02 -0.14759435671E+03  0.24988948764E+03  0.17200000000E+03 0.  1.
</event>
<event>
 4    1  0.1059899E+000  0.1768647E+03  0.7818608E-02  0.1170872E+00
          2   -1    0    0  502    0  0.00000000000E+00  0.00000000000E+00  0.27699900606E+04  0.27699900606E+04  0.00000000000E+00 0.  1.
         -2   -1    0    0    0  501 -0.00000000000E+00 -0.00000000000E+00 -0.11343118274E+02  0.11343118274E+02  0.00000000000E+00 0. -1.
          6    1    1    2  502    0 -0.38410759113E+02  0.14890597772E+02  0.12867576512E+04  0.12988557923E+04  0.17200000000E+03 0. -1.
         -6    1    1    2    0  501  0.38410759113E+02 -0.14890597772E+02  0.14718892911E+04  0.14824773866E+04  0.17200000000E+03 0.  1.
</event>
<event>
 4    1  0.1059899E+000  0.2024744E+03  0.7818608E-02  0.1147668E+00
         -1   -1    0    0    0  501 -0.00000000000E+00  0.00000000000E+00  0.14875092072E+02  0.14875092072E+02  0.00000000000E+00 0. -1.
          1   -1    0    0  502    0  0.00000000000E+00 -0.00000000000E+00 -0.27604262165E+04  0.27604262165E+04  0.00000000000E+00 0.  1.
          6    1    1    2  502    0 -0.22867389149E+02  0.10435026200E+03 -0.14282819736E+04  0.14425620578E+04  0.17200000000E+03 0. -1.
         -6    1    1    2    0  501  0.22867389149E+02 -0.10435026200E+03 -0.13172691508E+04  0.13327392507E+04  0.17200000000E+03 0. -1.
</event>
<event>
 4    1  0.1059899E+000  0.1833463E+03  0.7818608E-02  0.1164603E+00
          2   -1    0    0  502    0  0.00000000000E+00  0.00000000000E+00  0.62443254145E+03  0.62443254145E+03  0.00000000000E+00 0. -1.
         -2   -1    0    0    0  501 -0.00000000000E+00 -0.00000000000E+00 -0.55315192870E+02  0.55315192870E+02  0.00000000000E+00 0.  1.
          6    1    1    2  502    0 -0.99347124596E+01 -0.62714903867E+02  0.22894716543E+03  0.29331324934E+03  0.17200000000E+03 0.  1.
         -6    1    1    2    0  501  0.99347124596E+01  0.62714903867E+02  0.34017018314E+03  0.38643448498E+03  0.17200000000E+03 0. -1.
</event>
<event>
 4    1  0.1059899E+000  0.1749493E+03  0.7818608E-02  0.1172783E+00
         -2   -1    0    0    0  501 -0.00000000000E+00  0.00000000000E+00  0.11115051070E+02  0.11115051070E+02  0.00000000000E+00 0.  1.
          2   -1    0    0  502    0  0.00000000000E+00 -0.00000000000E+00 -0.27740841434E+04  0.27740841434E+04  0.00000000000E+00 0. -1.
          6    1    1    2  502    0  0.28834607932E+02  0.13849398456E+02 -0.15009319556E+04  0.15110936357E+04  0.17200000000E+03 0. -1.
         -6    1    1    2    0  501 -0.28834607932E+02 -0.13849398456E+02 -0.12620371367E+04  0.12741055588E+04  0.17200000000E+03 0. -1.
</event>
<event>
 4    1  0.1059899E+000  0.1816574E+03  0.7818608E-02  0.1166209E+00
         -2   -1    0    0    0  501 -0.00000000000E+00  0.00000000000E+00  0.17767012071E+02  0.17767012071E+02  0.00000000000E+00 0.  1.
          2   -1    0    0  502    0  0.00000000000E+00 -0.00000000000E+00 -0.18597245321E+04  0.18597245321E+04  0.00000000000E+00 0. -1.
          6    1    1    2  502    0  0.57439356277E+02  0.10776598102E+02 -0.88737726930E+03  0.90578023426E+03  0.17200000000E+03 0. -1.
         -6    1    1    2    0  501 -0.57439356277E+02 -0.10776598102E+02 -0.95458025075E+03  0.97171130993E+03  0.17200000000E+03 0.  1.
</event>
<event>
 4    1  0.1059899E+000  0.2061933E+03  0.7818608E-02  0.1144616E+00
          2   -1    0    0  502    0  0.00000000000E+00  0.00000000000E+00  0.18650634976E+04  0.18650634976E+04  0.00000000000E+00 0. -1.
         -2   -1    0    0    0  501 -0.00000000000E+00 -0.00000000000E+00 -0.24652061453E+02  0.24652061453E+02  0.00000000000E+00 0.  1.
          6    1    1    2  502    0 -0.50120940069E+02 -0.10207627182E+03  0.66093368798E+03  0.69235035481E+03  0.17200000000E+03 0.  1.
         -6    1    1    2    0  501  0.50120940069E+02  0.10207627182E+03  0.11794777481E+04  0.11973652042E+04  0.17200000000E+03 0. -1.
</event>
<event>
 4    1  0.1059899E+000  0.1738996E+03  0.7818608E-02  0.1173841E+00
         -1   -1    0    0    0  501 -0.00000000000E+00  0.00000000000E+00  0.25920875226E+03  0.25920875226E+03  0.00000000000E+00 0. -1.
          1   -1    0    0  502    0  0.00000000000E+00 -0.00000000000E+00 -0.11919936812E+03  0.11919936812E+03  0.00000000000E+00 0.  1.
          6    1    1    2  502    0  0.12460042029E+02  0.22401074311E+02  0.42426083571E+02  0.17900009314E+03  0.17200000000E+03 0.  1.
         -6    1    1    2    0  501 -0.12460042029E+02 -0.22401074311E+02  0.97583300569E+02  0.19940802724E+03  0.17200000000E+03 0. -1.
</event>
<event>
 4    1  0.1059899E+000  0.2523116E+03  0.7818608E-02  0.1111853E+00
          2   -1    0    0  502    0  0.00000000000E+00  0.00000000000E+00  0.59830579724E+03  0.59830579724E+03  0.00000000000E+00 0. -1.
         -2   -1    0    0    0  501 -0.00000000000E+00 -0.00000000000E+00 -0.18029311930E+03  0.18029311930E+03  0.00000000000E+00 0.  1.
          6    1    1    2  502    0 -0.18457376350E+03  0.31114519767E+01 -0.40217313188E+02  0.25549674672E+03  0.17200000000E+03 0.  1.
         -6    1    1    2    0  501  0.18457376350E+03 -0.31114519767E+01  0.45822999112E+03  0.52310216982E+03  0.17200000000E+03 0. -1.
</event>
<event>
 4    1  0.1059899E+000  0.1900965E+03  0.7818608E-02  0.1158374E+00
          2   -1    0    0  502    0  0.00000000000E+00  0.00000000000E+00  0.43800606388E+03  0.43800606388E+03  0.00000000000E+00 0. -1.
         -2   -1    0    0    0  501 -0.00000000000E+00 -0.00000000000E+00 -0.13257236653E+03  0.13257236653E+03  0.00000000000E+00 0.  1.
          6    1    1    2  502    0  0.49743165136E+02  0.63861454860E+02  0.32804285802E+03  0.37914216937E+03  0.17200000000E+03 0. -1.
         -6    1    1    2    0  501 -0.49743165136E+02 -0.63861454860E+02 -0.22609160679E+02  0.19143626104E+03  0.17200000000E+03 0.  1.
</event>
<event>
 4    1  0.1059899E+000  0.1747869E+03  0.7818608E-02  0.1172946E+00
          2   -1    0    0  502    0  0.00000000000E+00  0.00000000000E+00  0.19166320903E+04  0.19166320903E+04  0.00000000000E+00 0.  1.
         -2   -1    0    0    0  501 -0.00000000000E+00 -0.00000000000E+00 -0.18145853692E+02  0.18145853692E+02  0.00000000000E+00 0. -1.
          6    1    1    2  502    0  0.16343932479E+02 -0.26444799195E+02  0.61192871779E+03  0.63640176554E+03  0.17200000000E+03 0. -1.
         -6    1    1    2    0  501 -0.16343932479E+02  0.26444799195E+02  0.12865575189E+04  0.12983761785E+04  0.17200000000E+03 0.  1.
</event>
<event>
 4    1  0.1059899E+000  0.2074471E+03  0.7818608E-02  0.1143604E+00
         -1   -1    0    0    0  501 -0.00000000000E+00  0.00000000000E+00  0.28312580222E+02  0.28312580222E+02  0.00000000000E+00 0. -1.
          1   -1    0    0  502    0  0.00000000000E+00 -0.00000000000E+00 -0.15730666661E+04  0.15730666661E+04  0.00000000000E+00 0.  1.
          6    1    1    2  502    0 -0.11192365541E+03 -0.30387268692E+02 -0.91948007919E+03  0.94259106020E+03  0.17200000000E+03 0.  1.
         -6    1    1    2    0  501  0.11192365541E+03  0.30387268692E+02 -0.62527400669E+03  0.65878818613E+03  0.17200000000E+03 0. -1.
</event>
<event>
 4    1  0.1059899E+000  0.1989704E+03  0.7818608E-02  0.1150611E+00
          1   -1    0    0  502    0  0.00000000000E+00  0.00000000000E+00  0.64713072282E+03  0.64713072282E+03  0.00000000000E+00 0. -1.
         -1   -1    0    0    0  501 -0.00000000000E+00 -0.00000000000E+00 -0.65017912038E+02  0.65017912038E+02  0.00000000000E+00 0.  1.
          6    1    1    2  502    0  0.81710661316E+02  0.57693859733E+02  0.20450626896E+03  0.28532793005E+03  0.17200000000E+03 0. -1.
         -6    1    1    2    0  501 -0.81710661316E+02 -0.57693859733E+02  0.37760654182E+03  0.42682070481E+03  0.17200000000E+03 0.  1.
</event>
<event>
 4    1  0.1059899E+000  0.2097040E+03  0.7818608E-02  0.1141801E+00
         -1   -1    0    0    0  501 -0.00000000000E+00  0.00000000000E+00  0.45121638457E+02  0.45121638457E+02  0.00000000000E+00 0.  1.
          1   -1    0    0  502    0  0.00000000000E+00 -0.00000000000E+00 -0.12688171433E+04  0.12688171433E+04  0.00000000000E+00 0. -1.
          6    1    1    2  502    0  0.41785389861E+02  0.11245324906E+03 -0.29549160337E+03  0.36234105438E+03  0.17200000000E+03 0.  1.
         -6    1    1    2    0  501 -0.41785389861E+02 -0.11245324906E+03 -0.92820390153E+03  0.95159772743E+03  0.17200000000E+03 0. -1.
</event>
<event>
 4    1  0.1059899E+000  0.2080942E+03  0.7818608E-02  0.1143084E+00
         -3   -1    0    0    0  501 -0.00000000000E+00  0.00000000000E+00  0.10028609047E+04  0.10028609047E+04  0.00000000000E+00 0. -1.
          3   -1    0    0  502    0  0.00000000000E+00 -0.00000000000E+00 -0.44065454802E+02  0.44065454802E+02  0.00000000000E+00 0.  1.
          6    1    1    2  502    0  0.11124724298E+03  0.36650164589E+02  0.55361514227E+03  0.59143292890E+03  0.17200000000E+03 0. -1.
         -6    1    1    2    0  501 -0.11124724298E+03 -0.36650164589E+02  0.40518030763E+03  0.45549343061E+03  0.17200000000E+03 0. -1.
</event>
<event>
 4    1  0.1059899E+000  0.2202872E+03  0.7818608E-02  0.1133669E+00
         -2   -1    0    0    0  501 -0.00000000000E+00  0.00000000000E+00  0.16186652425E+03  0.16186652425E+03  0.00000000000E+00 0.  1.
          2   -1    0    0  502    0  0.00000000000E+00 -0.00000000000E+00 -0.30112293427E+03  0.30112293427E+03  0.00000000000E+00 0. -1.
          6    1    1    2  502    0  0.13387870412E+03 -0.31920833478E+02 -0.54243534767E+02  0.22686737996E+03  0.17200000000E+03 0. -1.
         -6    1    1    2    0  501 -0.13387870412E+03  0.31920833478E+02 -0.85012875251E+02  0.23612207856E+03  0.17200000000E+03 0.  1.
</event>
<event>
 4    1  0.1059899E+000  0.1886594E+03  0.7818608E-02  0.1159676E+00
          2   -1    0    0  502    0  0.00000000000E+00  0.00000000000E+00  0.54340041475E+03  0.54340041475E+03  0.00000000000E+00 0.  1.
         -2   -1    0    0    0  501 -0.00000000000E+00 -0.00000000000E+00 -0.80507739468E+02  0.80507739468E+02  0.00000000000E+00 0. -1.
          6    1    1    2  502    0 -0.68912752212E+02  0.35488275705E+02  0.36613734402E+03  0.41188461954E+03  0.17200000000E+03 0.  1.
         -6    1    1    2    0  501  0.68912752212E+02 -0.35488275705E+02  0.96755331268E+02  0.21202353468E+03  0.17200000000E+03 0. -1.
</event>
<event>
 4    1  0.1059899E+000  0.1780599E+03  0.7818608E-02  0.1169694E+00
          2   -1    0    0  502    0  0.00000000000E+00  0.00000000000E+00  0.16421829857E+04  0.16421829857E+04  0.00000000000E+00 0.  1.
         -2   -1    0    0    0  501 -0.00000000000E+00 -0.00000000000E+00 -0.19643049570E+02  0.19643049570E+02  0.00000000000E+00 0. -1.
          6    1    1    2  502    0 -0.18887658894E+02 -0.42007050026E+02  0.91997940621E+03  0.93705252988E+03  0.17200000000E+03 0.  1.
         -6    1    1    2    0  501  0.18887658894E+02  0.42007050026E+02  0.70256052996E+03  0.72477350542E+03  0.17200000000E+03 0. -1.
</event>
<event>
 4    1  0.1059899E+000  0.1922855E+03  0.7818608E-02  0.1156416E+00
         -2   -1    0    0    0  501 -0.00000000000E+00  0.00000000000E+00  0.80119277988E+02  0.80119277988E+02  0.00000000000E+00 0. -1.
          2   -1    0    0  502    0  0.00000000000E+00 -0.00000000000E+00 -0.50761896679E+03  0.50761896679E+03  0.00000000000E+00 0.  1.
          6    1    1    2  502    0  0.81633215983E+02  0.26939467232E+02 -0.12515611912E+03  0.22942922874E+03  0.17200000000E+03 0.  1.
         -6    1    1    2    0  501 -0.81633215983E+02 -0.26939467232E+02 -0.30234356969E+03  0.35830901604E+03  0.17200000000E+03 0.  1.
</event>
<event>
 4    1  0.1059899E+000  0.1775511E+03  0.7818608E-02  0.1170194E+00
         -2   -1    0    0    0  501 -0.00000000000E+00  0.00000000000E+00  0.74171220230E+02  0.74171220230E+02  0.00000000000E+00 0. -1.
          2   -1    0    0  502    0  0.00000000000E+00 -0.00000000000E+00 -0.10363854615E+04  0.10363854615E+04  0.00000000000E+00 0.  1.
          6    1    1    2  502    0 -0.26429098546E+02 -0.35240432357E+02 -0.90758831855E+03  0.92479237739E+03  0.17200000000E+03 0.  1.
         -6    1    1    2    0  501  0.26429098546E+02  0.35240432357E+02 -0.54625922686E+02  0.18576430430E+03  0.17200000000E+03 0. -1.
</event>
<event>
 4    1  0.1059899E+000  0.1836761E+03  0.7818608E-02  0.1164292E+00
         -2   -1    0    0    0  501 -0.00000000000E+00  0.00000000000E+00  0.24851863087E+02  0.24851863087E+02  0.00000000000E+00 0. -1.
          2   -1    0    0  502    0  0.00000000000E+00 -0.00000000000E+00 -0.13947187170E+04  0.13947187170E+04  0.00000000000E+00 0.  1.
          6    1    1    2  502    0  0.39526515066E+02 -0.50897506823E+02 -0.56901631217E+03  0.59792680581E+03  0.17200000000E+03 0.  1.
         -6    1    1    2    0  501 -0.39526515066E+02  0.50897506823E+02 -0.80085054175E+03  0.82164377428E+03  0.17200000000E+03 0. -1.
</event>
<event>
 4    1  0.1059899E+000  0.1888382E+03  0.7818608E-02  0.1159513E+00
         -2   -1    0    0    0  501 -0.00000000000E+00  0.00000000000E+00  0.16070167890E+02  0.16070167890E+02  0.00000000000E+00 0.  1.
          2   -1    0    0  502    0  0.00000000000E+00 -0.00000000000E+00 -0.22930636484E+04  0.22930636484E+04  0.00000000000E+00 0. -1.
          6    1    1    2  502    0 -0.28828613145E+02 -0.72420951226E+02 -0.13459788506E+04  0.13591611197E+04  0.17200000000E+03 0.  1.
         -6    1    1    2    0  501  0.28828613145E+02  0.72420951226E+02 -0.93101462996E+03  0.94997269661E+03  0.17200000000E+03 0. -1.
</event>
<event>
 4    1  0.1059899E+000  0.1989801E+03  0.7818608E-02  0.1150602E+00
         -2   -1    0    0    0  501 -0.00000000000E+00  0.00000000000E+00  0.15487437583E+03  0.15487437583E+03  0.00000000000E+00 0. -1.
          2   -1    0    0  502    0  0.00000000000E+00 -0.00000000000E+00 -0.51418983981E+03  0.51418983981E+03  0.00000000000E+00 0.  1.
          6    1    1    2  502    0 -0.90913068264E+02  0.41760090118E+02 -0.41687305789E+03  0.46192665815E+03  0.17200000000E+03 0.  1.
         -6    1    1    2    0  501  0.90913068264E+02 -0.41760090118E+02  0.57557593919E+02  0.20713755750E+03  0.17200000000E+03 0. -1.
</event>
<event>
 4    1  0.1059899E+000  0.2626762E+03  0.7818608E-02  0.1105546E+00
          2   -1    0    0  502    0  0.00000000000E+00  0.00000000000E+00  0.38779775034E+03  0.38779775034E+03  0.00000000000E+00 0. -1.
         -2   -1    0    0    0  501 -0.00000000000E+00 -0.00000000000E+00 -0.20153867418E+03  0.20153867418E+03  0.00000000000E+00 0.  1.
          6    1    1    2  502    0 -0.38949121501E+02 -0.19467349470E+03  0.19399407711E+03  0.32654632988E+03  0.17200000000E+03 0. -1.
         -6    1    1    2    0  501  0.38949121501E+02  0.19467349470E+03 -0.77350009520E+01  0.26279009465E+03  0.17200000000E+03 0.  1.
</event>
<event>
 4    1  0.1059899E+000  0.2227721E+03  0.7818608E-02  0.1131833E+00
          2   -1    0    0  502    0  0.00000000000E+00  0.00000000000E+00  0.18813023195E+03  0.18813023195E+03  0.00000000000E+00 0.  1.
         -2   -1    0    0    0  501 -0.00000000000E+00 -0.00000000000E+00 -0.26399136165E+03  0.26399136165E+03  0.00000000000E+00 0. -1.
          6    1    1    2  502    0 -0.50084712052E+01  0.14148606473E+03 -0.31729982951E+02  0.22502040600E+03  0.17200000000E+03 0. -1.
         -6    1    1    2    0  501  0.50084712052E+01 -0.14148606473E+03 -0.44131146755E+02  0.22710118760E+03  0.17200000000E+03 0. -1.
</event>
<event>
 4    1  0.1059899E+000  0.2404745E+03  0.7818608E-02  0.1119477E+00
         -1   -1    0    0    0  501 -0.00000000000E+00  0.00000000000E+00  0.31915420682E+03  0.31915420682E+03  0.00000000000E+00 0. -1.
          1   -1    0    0  502    0  0.00000000000E+00 -0.00000000000E+00 -0.28209015553E+03  0.28209015553E+03  0.00000000000E+00 0.  1.
          6    1    1    2  502    0  0.42149570003E+02 -0.16268806657E+03  0.19832387110E+03  0.31170555193E+03  0.17200000000E+03 0. -1.
         -6    1    1    2    0  501 -0.42149570003E+02  0.16268806657E+03 -0.16125981981E+03  0.28953881042E+03  0.17200000000E+03 0. -1.
</event>
<event>
 4    1  0.1059899E+000  0.1986361E+03  0.7818608E-02  0.1150895E+00
          2   -1    0    0  502    0  0.00000000000E+00  0.00000000000E+00  0.75410595402E+03  0.75410595402E+03  0.00000000000E+00 0. -1.
         -2   -1    0    0    0  501 -0.00000000000E+00 -0.00000000000E+00 -0.54951726019E+02  0.54951726019E+02  0.00000000000E+00 0.  1.
          6    1    1    2  502    0 -0.10168774392E+02 -0.98837626642E+02  0.26108191900E+03  0.32805494790E+03  0.17200000000E+03 0. -1.
         -6    1    1    2    0  501  0.10168774392E+02  0.98837626642E+02  0.43807230900E+03  0.48100273214E+03  0.17200000000E+03 0. -1.
</event>
<event>
 4    1  0.1059899E+000  0.1835137E+03  0.7818608E-02  0.1164445E+00
         -1   -1    0    0    0  501 -0.00000000000E+00  0.00000000000E+00  0.32085506689E+02  0.32085506689E+02  0.00000000000E+00 0.  1.
          1   -1    0    0  502    0  0.00000000000E+00 -0.00000000000E+00 -0.27772658096E+04  0.27772658096E+04  0.00000000000E+00 0. -1.
          6    1    1    2  502    0  0.78494253922E+01  0.63495505712E+02 -0.26470217043E+03  0.32209397969E+03  0.17200000000E+03 0.  1.
         -6    1    1    2    0  501 -0.78494253922E+01 -0.63495505712E+02 -0.24804781324E+04  0.24872573366E+04  0.17200000000E+03 0. -1.
</event>
<event>
 4    1  0.1059899E+000  0.2144869E+03  0.7818608E-02  0.1138061E+00
          3   -1    0    0  502    0  0.00000000000E+00  0.00000000000E+00  0.30677863114E+02  0.30677863114E+02  0.00000000000E+00 0.  1.
         -3   -1    0    0    0  501 -0.00000000000E+00 -0.00000000000E+00 -0.15284994211E+04  0.15284994211E+04  0.00000000000E+00 0. -1.
          6    1    1    2  502    0 -0.12807727799E+03 -0.41037346716E+01 -0.85610007303E+03  0.88255989305E+03  0.17200000000E+03 0.  1.
         -6    1    1    2    0  501  0.12807727799E+03  0.41037346716E+01 -0.64172148495E+03  0.67661739116E+03  0.17200000000E+03 0.  1.
</event>
<event>
 4    1  0.1059899E+000  0.3259849E+03  0.7818608E-02  0.1072927E+00
         -2   -1    0    0    0  501 -0.00000000000E+00  0.00000000000E+00  0.26232412279E+03  0.26232412279E+03  0.00000000000E+00 0. -1.
          2   -1    0    0  502    0  0.00000000000E+00 -0.00000000000E+00 -0.43016044943E+03  0.43016044943E+03  0.00000000000E+00 0.  1.
          6    1    1    2  502    0 -0.15132267378E+03  0.23191294277E+03 -0.33795075962E+00  0.32598508990E+03  0.17200000000E+03 0. -1.
         -6    1    1    2    0  501  0.15132267378E+03 -0.23191294277E+03 -0.16749837588E+03  0.36649948233E+03  0.17200000000E+03 0.  1.
</event>
<event>
 4    1  0.1059899E+000  0.2019121E+03  0.7818608E-02  0.1148136E+00
          2   -1    0    0  502    0  0.00000000000E+00  0.00000000000E+00  0.99109598248E+03  0.99109598248E+03  0.00000000000E+00 0.  1.
         -2   -1    0    0    0  501 -0.00000000000E+00 -0.00000000000E+00 -0.44231865654E+02  0.44231865654E+02  0.00000000000E+00 0. -1.
          6    1    1    2  502    0  0.99065813221E+01  0.10529171867E+03  0.61041261249E+03  0.64294015574E+03  0.17200000000E+03 0.  1.
         -6    1    1    2    0  501 -0.99065813221E+01 -0.10529171867E+03  0.33645150433E+03  0.39238769239E+03  0.17200000000E+03 0. -1.
</event>
<event>
 4    1  0.1059899E+000  0.1783451E+03  0.7818608E-02  0.1169414E+00
         -1   -1    0    0    0  501 -0.00000000000E+00  0.00000000000E+00  0.19508357310E+03  0.19508357310E+03  0.00000000000E+00 0.  1.
          1   -1    0    0  502    0  0.00000000000E+00 -0.00000000000E+00 -0.16570668384E+03  0.16570668384E+03  0.00000000000E+00 0. -1.
          6    1    1    2  502    0  0.40667046552E+02 -0.23856967724E+02  0.37561066347E+02  0.18225750270E+03  0.17200000000E+03 0.  1.
         -6    1    1    2    0  501 -0.40667046552E+02  0.23856967724E+02 -0.81841770853E+01  0.17853275425E+03  0.17200000000E+03 0. -1.
</event>
<event>
 4    1  0.1059899E+000  0.1832460E+03  0.7818608E-02  0.1164698E+00
          1   -1    0    0  502    0  0.00000000000E+00  0.00000000000E+00  0.35715295164E+03  0.35715295164E+03  0.00000000000E+00 0. -1.
         -1   -1    0    0    0  501 -0.00000000000E+00 -0.00000000000E+00 -0.10973514244E+03  0.10973514244E+03  0.00000000000E+00 0.  1.
          6    1    1    2  502    0  0.15864649660E+02 -0.61183543777E+02  0.21205449122E+03  0.28026098620E+03  0.17200000000E+03 0. -1.
         -6    1    1    2    0  501 -0.15864649660E+02  0.61183543777E+02  0.35363317971E+02  0.18662710788E+03  0.17200000000E+03 0.  1.
</event>
<event>
 4    1  0.1059899E+000  0.2081871E+03  0.7818608E-02  0.1143010E+00
          1   -1    0    0  502    0  0.00000000000E+00  0.00000000000E+00  0.29309480022E+03  0.29309480022E+03  0.00000000000E+00 0.  1.
         -1   -1    0    0    0  501 -0.00000000000E+00 -0.00000000000E+00 -0.16587315829E+03  0.16587315829E+03  0.00000000000E+00 0. -1.
          6    1    1    2  502    0 -0.32905536042E+01 -0.11724774388E+03  0.13919990785E+03  0.25043656988E+03  0.17200000000E+03 0.  1.
         -6    1    1    2    0  501  0.32905536042E+01  0.11724774388E+03 -0.11978265921E+02  0.20853138863E+03  0.17200000000E+03 0. -1.
</event>
<event>
 4    1  0.1059899E+000  0.2161226E+03  0.7818608E-02  0.1136807E+00
         -1   -1    0    0    0  501 -0.00000000000E+00  0.00000000000E+00  0.39567784218E+03  0.39567784218E+03  0.00000000000E+00 0. -1.
          1   -1    0    0  502    0  0.00000000000E+00 -0.00000000000E+00 -0.17935300367E+03  0.17935300367E+03  0.00000000000E+00 0.  1.
          6    1    1    2  502    0  0.53799531639E+02  0.11929210248E+03  0.27625735308E+03  0.35075222088E+03  0.17200000000E+03 0. -1.
         -6    1    1    2    0  501 -0.53799531639E+02 -0.11929210248E+03 -0.59932514574E+02  0.22427862498E+03  0.17200000000E+03 0.  1.
</event>
<event>
 4    1  0.1059899E+000  0.1990154E+03  0.7818608E-02  0.1150572E+00
          1   -1    0    0  502    0  0.00000000000E+00  0.00000000000E+00  0.57181713813E+03  0.57181713813E+03  0.00000000000E+00 0. -1.
         -1   -1    0    0    0  501 -0.00000000000E+00 -0.00000000000E+00 -0.82126190844E+02  0.82126190844E+02  0.00000000000E+00 0.  1.
          6    1    1    2  502    0 -0.99667222852E+02 -0.94653848191E+01  0.11545481070E+03  0.23008033844E+03  0.17200000000E+03 0.  1.
         -6    1    1    2    0  501  0.99667222852E+02  0.94653848191E+01  0.37423613659E+03  0.42386299054E+03  0.17200000000E+03 0. -1.
</event>
<event>
 4    1  0.1059899E+000  0.2168280E+03  0.7818608E-02  0.1136270E+00
          1   -1    0    0  502    0  0.00000000000E+00  0.00000000000E+00  0.96438301821E+03  0.96438301821E+03  0.00000000000E+00 0.  1.
         -1   -1    0    0    0  501 -0.00000000000E+00 -0.00000000000E+00 -0.56055834960E+02  0.56055834960E+02  0.00000000000E+00 0. -1.
          6    1    1    2  502    0 -0.71808484265E+01  0.13182872732E+03  0.26997626166E+03  0.34626804616E+03  0.17200000000E+03 0. -1.
         -6    1    1    2    0  501  0.71808484265E+01 -0.13182872732E+03  0.63835092159E+03  0.67417080701E+03  0.17200000000E+03 0.  1.
</event>
<event>
 4    1  0.1059899E+000  0.1839884E+03  0.7818608E-02  0.1163998E+00
         -1   -1    0    0    0  501 -0.00000000000E+00  0.00000000000E+00  0.25284745031E+02  0.25284745031E+02  0.00000000000E+00 0.  1.
          1   -1    0    0  502    0  0.00000000000E+00 -0.00000000000E+00 -0.13388220306E+04  0.13388220306E+04  0.00000000000E+00 0. -1.
          6    1    1    2  502    0 -0.65092951848E+02 -0.55340870993E+01 -0.65589779192E+03  0.68121482070E+03  0.17200000000E+03 0.  1.
         -6    1    1    2    0  501  0.65092951848E+02  0.55340870993E+01 -0.65763949368E+03  0.68289195496E+03  0.17200000000E+03 0.  1.
</event>
<event>
 4    1  0.1059899E+000  0.2154131E+03  0.7818608E-02  0.1137350E+00
          1   -1    0    0  502    0  0.00000000000E+00  0.00000000000E+00  0.15071666289E+04  0.15071666289E+04  0.00000000000E+00 0. -1.
         -1   -1    0    0    0  501 -0.00000000000E+00 -0.00000000000E+00 -0.67122037726E+02  0.67122037726E+02  0.00000000000E+00 0.  1.
          6    1    1    2  502    0 -0.11057867976E+03 -0.67758096430E+02  0.14088969580E+03  0.25739601868E+03  0.17200000000E+03 0.  1.
         -6    1    1    2    0  501  0.11057867976E+03  0.67758096430E+02  0.12991548954E+04  0.13168926480E+04  0.17200000000E+03 0. -1.
</event>
<event>
 4    1  0.1059899E+000  0.2087724E+03  0.7818608E-02  0.1142542E+00
         -2   -1    0    0    0  501 -0.00000000000E+00  0.00000000000E+00  0.10050228607E+03  0.10050228607E+03  0.00000000000E+00 0. -1.
          2   -1    0    0  502    0  0.00000000000E+00 -0.00000000000E+00 -0.82870600834E+03  0.82870600834E+03  0.00000000000E+00 0.  1.
          6    1    1    2  502    0  0.27635679193E+02  0.11505733998E+03 -0.68487292662E+03  0.71598662548E+03  0.17200000000E+03 0.  1.
         -6    1    1    2    0  501 -0.27635679193E+02 -0.11505733998E+03 -0.43330795649E+02  0.21322166892E+03  0.17200000000E+03 0. -1.
</event>
<event>
 4    1  0.1059899E+000  0.2346979E+03  0.7818608E-02  0.1123376E+00
         -2   -1    0    0    0  501 -0.00000000000E+00  0.00000000000E+00  0.38398873476E+02  0.38398873476E+02  0.00000000000E+00 0.  1.
          2   -1    0    0  502    0  0.00000000000E+00 -0.00000000000E+00 -0.19923107469E+04  0.19923107469E+04  0.00000000000E+00 0. -1.
          6    1    1    2  502    0  0.22229081420E+02  0.15812964243E+03 -0.43969728103E+03  0.49841430038E+03  0.17200000000E+03 0.  1.
         -6    1    1    2    0  501 -0.22229081420E+02 -0.15812964243E+03 -0.15142145924E+04  0.15322953200E+04  0.17200000000E+03 0. -1.
</event>
<event>
 4    1  0.1059899E+000  0.1898565E+03  0.7818608E-02  0.1158591E+00
          1   -1    0    0  502    0  0.00000000000E+00  0.00000000000E+00  0.17030356042E+04  0.17030356042E+04  0.00000000000E+00 0. -1.
         -1   -1    0    0    0  501 -0.00000000000E+00 -0.00000000000E+00 -0.21198108008E+02  0.21198108008E+02  0.00000000000E+00 0.  1.
          6    1    1    2  502    0  0.48084491920E+01 -0.80239362772E+02  0.80706846269E+03  0.82909889639E+03  0.17200000000E+03 0. -1.
         -6    1    1    2    0  501 -0.48084491920E+01  0.80239362772E+02  0.87476903353E+03  0.89513481585E+03  0.17200000000E+03 0. -1.
</event>
<event>
 4    1  0.1059899E+000  0.1942496E+03  0.7818608E-02  0.1154683E+00
          2   -1    0    0  502    0  0.00000000000E+00  0.00000000000E+00  0.38268513967E+03  0.38268513967E+03  0.00000000000E+00 0.  1.
         -2   -1    0    0    0  501 -0.00000000000E+00 -0.00000000000E+00 -0.17721184968E+03  0.17721184968E+03  0.00000000000E+00 0. -1.
          6    1    1    2  502    0  0.19901531493E+02  0.88050109591E+02 -0.83718670489E+02  0.21152235944E+03  0.17200000000E+03 0. -1.
         -6    1    1    2    0  501 -0.19901531493E+02 -0.88050109591E+02  0.28919196048E+03  0.34837462990E+03  0.17200000000E+03 0.  1.
</event>
<event>
 4    1  0.1059899E+000  0.1863367E+03  0.7818608E-02  0.1161807E+00
          2   -1    0    0  502    0  0.00000000000E+00  0.00000000000E+00  0.53635102745E+03  0.53635102745E+03  0.00000000000E+00 0.  1.
         -2   -1    0    0    0  501 -0.00000000000E+00 -0.00000000000E+00 -0.67769951030E+02  0.67769951030E+02  0.00000000000E+00 0. -1.
          6    1    1    2  502    0 -0.65178353915E+02  0.29818691280E+02  0.17038193478E+03  0.25249034807E+03  0.17200000000E+03 0. -1.
         -6    1    1    2    0  501  0.65178353915E+02 -0.29818691280E+02  0.29819914163E+03  0.35163063041E+03  0.17200000000E+03 0. -1.
</event>
<event>
 4    1  0.1059899E+000  0.2279694E+03  0.7818608E-02  0.1128077E+00
          3   -1    0    0  502    0  0.00000000000E+00  0.00000000000E+00  0.14364634375E+03  0.14364634375E+03  0.00000000000E+00 0.  1.
         -3   -1    0    0    0  501 -0.00000000000E+00 -0.00000000000E+00 -0.42009633612E+03  0.42009633612E+03  0.00000000000E+00 0. -1.
          6    1    1    2  502    0 -0.14852883736E+03  0.18033857683E+02 -0.33215513380E+02  0.23037644384E+03  0.17200000000E+03 0.  1.
         -6    1    1    2    0  501  0.14852883736E+03 -0.18033857683E+02 -0.24323447899E+03  0.33336623602E+03  0.17200000000E+03 0. -1.
</event>
<event>
 4    1  0.1059899E+000  0.1789150E+03  0.7818608E-02  0.1168857E+00
         -1   -1    0    0    0  501 -0.00000000000E+00  0.00000000000E+00  0.20338968049E+03  0.20338968049E+03  0.00000000000E+00 0. -1.
          1   -1    0    0  502    0  0.00000000000E+00 -0.00000000000E+00 -0.18533130225E+03  0.18533130225E+03  0.00000000000E+00 0.  1.
          6    1    1    2  502    0 -0.29197766944E+02 -0.39674740365E+02 -0.66443805546E+02  0.19085432642E+03  0.17200000000E+03 0.  1.
         -6    1    1    2    0  501  0.29197766944E+02  0.39674740365E+02  0.84502183793E+02  0.19786665632E+03  0.17200000000E+03 0. -1.
</event>
<event>
 4    1  0.1059899E+000  0.1924651E+03  0.7818608E-02  0.1156257E+00
          2   -1    0    0  502    0  0.00000000000E+00  0.00000000000E+00  0.28963247691E+03  0.28963247691E+03  0.00000000000E+00 0. -1.
         -2   -1    0    0    0  501 -0.00000000000E+00 -0.00000000000E+00 -0.14741667426E+03  0.14741667426E+03  0.00000000000E+00 0.  1.
          6    1    1    2  502    0  0.34396483470E+02 -0.79219310343E+02  0.15062766517E+03  0.24440030835E+03  0.17200000000E+03 0. -1.
         -6    1    1    2    0  501 -0.34396483470E+02  0.79219310343E+02 -0.84118625239E+01  0.19264884281E+03  0.17200000000E+03 0.  1.
</event>
<event>
 4    1  0.1059899E+000  0.2662115E+03  0.7818608E-02  0.1103468E+00
         -3   -1    0    0    0  501 -0.00000000000E+00  0.00000000000E+00  0.19991237402E+04  0.19991237402E+04  0.00000000000E+00 0.  1.
          3   -1    0    0  502    0  0.00000000000E+00 -0.00000000000E+00 -0.38189905474E+02  0.38189905474E+02  0.00000000000E+00 0. -1.
          6    1    1    2  502    0  0.15951374375E+03  0.12585676909E+03  0.12533246683E+04  0.12812850132E+04  0.17200000000E+03 0. -1.
         -6    1    1    2    0  501 -0.15951374375E+03 -0.12585676909E+03  0.70760916636E+03  0.75602863245E+03  0.17200000000E+03 0.  1.
</event>
<event>
 4    1  0.1059899E+000  0.1952122E+03  0.7818608E-02  0.1153843E+00
          1   -1    0    0  502    0  0.00000000000E+00  0.00000000000E+00  0.10783518488E+04  0.10783518488E+04  0.00000000000E+00 0. -1.
         -1   -1    0    0    0  501 -0.00000000000E+00 -0.00000000000E+00 -0.35429654545E+02  0.35429654545E+02  0.00000000000E+00 0.  1.
          6    1    1    2  502    0  0.97856480220E+01 -0.91804393906E+02  0.54964087183E+03  0.58327771570E+03  0.17200000000E+03 0. -1.
         -6    1    1    2    0  501 -0.97856480220E+01  0.91804393906E+02  0.49328132239E+03  0.53050378761E+03  0.17200000000E+03 0. -1.
</event>
<event>
 4    1  0.1059899E+000  0.1804814E+03  0.7818608E-02  0.1167338E+00
         -2   -1    0    0    0  501 -0.00000000000E+00  0.00000000000E+00  0.20997123377E+03  0.20997123377E+03  0.00000000000E+00 0.  1.
          2   -1    0    0  502    0  0.00000000000E+00 -0.00000000000E+00 -0.16064288745E+03  0.16064288745E+03  0.00000000000E+00 0. -1.
          6    1    1    2  502    0 -0.48729882395E+01 -0.54459064753E+02  0.58981997977E+02  0.18987472668E+03  0.17200000000E+03 0. -1.
         -6    1    1    2    0  501  0.48729882395E+01  0.54459064753E+02 -0.96536516626E+01  0.18073939454E+03  0.17200000000E+03 0. -1.
</event>
<event>
 4    1  0.1059899E+000  0.1826308E+03  0.7818608E-02  0.1165281E+00
          2   -1    0    0  502    0  0.00000000000E+00  0.00000000000E+00  0.12767219157E+04  0.12767219157E+04  0.00000000000E+00 0. -1.
         -2   -1    0    0    0  501 -0.00000000000E+00 -0.00000000000E+00 -0.28844439362E+02  0.28844439362E+02  0.00000000000E+00 0.  1.
          6    1    1    2  502    0  0.69046122647E+01 -0.61010885588E+02  0.82438593871E+03  0.84437324553E+03  0.17200000000E+03 0. -1.
         -6    1    1    2    0  501 -0.69046122647E+01  0.61010885588E+02  0.42349153760E+03  0.46119310950E+03  0.17200000000E+03 0.  1.
</event>
<event>
 4    1  0.1059899E+000  0.1796982E+03  0.7818608E-02  0.1168095E+00
         -2   -1    0    0    0  501 -0.00000000000E+00  0.00000000000E+00  0.23573740210E+02  0.23573740210E+02  0.00000000000E+00 0. -1.
          2   -1    0    0  502    0  0.00000000000E+00 -0.00000000000E+00 -0.13920301276E+04  0.13920301276E+04  0.00000000000E+00 0.  1.
          6    1    1    2  502    0 -0.44991915589E+02 -0.26137344728E+02 -0.77366309915E+03  0.79425815970E+03  0.17200000000E+03 0. -1.
         -6    1    1    2    0  501  0.44991915589E+02  0.26137344728E+02 -0.59479328827E+03  0.62134570814E+03  0.17200000000E+03 0. -1.
</event>
<event>
 4    1  0.1059899E+000  0.1895280E+03  0.7818608E-02  0.1158888E+00
         -2   -1    0    0    0  501 -0.00000000000E+00  0.00000000000E+00  0.23713869671E+03  0.23713869671E+03  0.00000000000E+00 0. -1.
          2   -1    0    0  502    0  0.00000000000E+00 -0.00000000000E+00 -0.18385064882E+03  0.18385064882E+03  0.00000000000E+00 0.  1.
          6    1    1    2  502    0 -0.43537153413E+02 -0.66643790558E+02  0.11497426942E+03  0.22167535085E+03  0.17200000000E+03 0. -1.
         -6    1    1    2    0  501  0.43537153413E+02  0.66643790558E+02 -0.61686221524E+02  0.19931399467E+03  0.17200000000E+03 0.  1.
</event>
<event>
 4    1  0.1059899E+000  0.1753424E+03  0.7818608E-02  0.1172388E+00
         -1   -1    0    0    0  501 -0.00000000000E+00  0.00000000000E+00  0.31761500805E+02  0.31761500805E+02  0.00000000000E+00 0. -1.
          1   -1    0    0  502    0  0.00000000000E+00 -0.00000000000E+00 -0.97747254125E+03  0.97747254125E+03  0.00000000000E+00 0.  1.
          6    1    1    2  502    0  0.24039437050E+02  0.24146521553E+02 -0.52254625750E+03  0.55118013413E+03  0.17200000000E+03 0.  1.
         -6    1    1    2    0  501 -0.24039437050E+02 -0.24146521553E+02 -0.42316478295E+03  0.45805390793E+03  0.17200000000E+03 0.  1.
</event>
<event>
 4    1  0.1059899E+000  0.2597845E+03  0.7818608E-02  0.1107273E+00
         -1   -1    0    0    0  501 -0.00000000000E+00  0.00000000000E+00  0.31922993657E+02  0.31922993657E+02  0.00000000000E+00 0. -1.
          1   -1    0    0  502    0  0.00000000000E+00 -0.00000000000E+00 -0.22795225483E+04  0.22795225483E+04  0.00000000000E+00 0.  1.
          6    1    1    2  502    0  0.20052873387E+01 -0.19467914630E+03 -0.14351476653E+04  0.14584707101E+04  0.17200000000E+03 0.  1.
         -6    1    1    2    0  501 -0.20052873387E+01  0.19467914630E+03 -0.81245188936E+03  0.85297483181E+03  0.17200000000E+03 0. -1.
</event>
<event>
 4    1  0.1059899E+000  0.2230022E+03  0.7818608E-02  0.1131664E+00
         -2   -1    0    0    0  501 -0.00000000000E+00  0.00000000000E+00  0.16334572713E+03  0.16334572713E+03  0.00000000000E+00 0.  1.
          2   -1    0    0  502    0  0.00000000000E+00 -0.00000000000E+00 -0.39370087575E+03  0.39370087575E+03  0.00000000000E+00 0. -1.
          6    1    1    2  502    0 -0.64371354370E+02 -0.12650021804E+03  0.17437829935E+02  0.22368293261E+03  0.17200000000E+03 0.  1.
         -6    1    1    2    0  501  0.64371354370E+02  0.12650021804E+03 -0.24779297856E+03  0.33336367026E+03  0.17200000000E+03 0. -1.
</event>
<event>
 4    1  0.1059899E+000  0.2096047E+03  0.7818608E-02  0.1141879E+00
          2   -1    0    0  502    0  0.00000000000E+00  0.00000000000E+00  0.86392605525E+02  0.86392605525E+02  0.00000000000E+00 0.  1.
         -2   -1    0    0    0  501 -0.00000000000E+00 -0.00000000000E+00 -0.51516960918E+03  0.51516960918E+03  0.00000000000E+00 0. -1.
          6    1    1    2  502    0 -0.50952668807E+02  0.10841570941E+03 -0.24850797991E+03  0.32510053304E+03  0.17200000000E+03 0. -1.
         -6    1    1    2    0  501  0.50952668807E+02 -0.10841570941E+03 -0.18026902374E+03  0.27646168166E+03  0.17200000000E+03 0.  1.
</event>
<event>
 4    1  0.1059899E+000  0.1746229E+03  0.7818608E-02  0.1173111E+00
          1   -1    0    0  502    0  0.00000000000E+00  0.00000000000E+00  0.25163541222E+03  0.25163541222E+03  0.00000000000E+00 0. -1.
         -1   -1    0    0    0  501 -0.00000000000E+00 -0.00000000000E+00 -0.13278312602E+03  0.13278312602E+03  0.00000000000E+00 0.  1.
          6    1    1    2  502    0 -0.96712856716E+01 -0.28559415317E+02  0.11624477606E+03  0.20977612336E+03  0.17200000000E+03 0. -1.
         -6    1    1    2    0  501  0.96712856716E+01  0.28559415317E+02  0.26075101432E+01  0.17464241489E+03  0.17200000000E+03 0.  1.
</event>
<event>
 4    1  0.1059899E+000  0.1949278E+03  0.7818608E-02  0.1154090E+00
         -1   -1    0    0    0  501 -0.00000000000E+00  0.00000000000E+00  0.75680617335E+02  0.75680617335E+02  0.00000000000E+00 0.  1.
          1   -1    0    0  502    0  0.00000000000E+00 -0.00000000000E+00 -0.19320867206E+04  0.19320867206E+04  0.00000000000E+00 0. -1.
          6    1    1    2  502    0  0.55434778114E+02  0.73074260812E+02 -0.64546940158E+02  0.20533672273E+03  0.17200000000E+03 0.  1.
         -6    1    1    2    0  501 -0.55434778114E+02 -0.73074260812E+02 -0.17918591632E+04  0.18024306153E+04  0.17200000000E+03 0. -1.
</event>
<event>
 4    1  0.1059899E+000  0.2264691E+03  0.7818608E-02  0.1129150E+00
          1   -1    0    0  502    0  0.00000000000E+00  0.00000000000E+00  0.37054196891E+03  0.37054196891E+03  0.00000000000E+00 0.  1.
         -1   -1    0    0    0  501 -0.00000000000E+00 -0.00000000000E+00 -0.59378982400E+03  0.59378982400E+03  0.00000000000E+00 0. -1.
          6    1    1    2  502    0 -0.13751104119E+03 -0.52867655278E+02 -0.53386939574E+03  0.57991793137E+03  0.17200000000E+03 0. -1.
         -6    1    1    2    0  501  0.13751104119E+03  0.52867655278E+02  0.31062154065E+03  0.38441386154E+03  0.17200000000E+03 0.  1.
</event>
<event>
 4    1  0.1059899E+000  0.2466691E+03  0.7818608E-02  0.1115428E+00
          2   -1    0    0  502    0  0.00000000000E+00  0.00000000000E+00  0.22426032847E+03  0.22426032847E+03  0.00000000000E+00 0. -1.
         -2   -1    0    0    0  501 -0.00000000000E+00 -0.00000000000E+00 -0.28167382176E+03  0.28167382176E+03  0.00000000000E+00 0.  1.
          6    1    1    2  502    0  0.65617371757E+02 -0.16418285787E+03  0.19800095419E+02  0.24746251044E+03  0.17200000000E+03 0.  1.
         -6    1    1    2    0  501 -0.65617371757E+02  0.16418285787E+03 -0.77213588712E+02  0.25847163979E+03  0.17200000000E+03 0.  1.
</event>
<event>
 4    1  0.1059899E+000  0.1996278E+03  0.7818608E-02  0.1150053E+00
         -1   -1    0    0    0  501 -0.00000000000E+00  0.00000000000E+00  0.11976395840E+03  0.11976395840E+03  0.00000000000E+00 0.  1.
          1   -1    0    0  502    0  0.00000000000E+00 -0.00000000000E+00 -0.34065851587E+03  0.34065851587E+03  0.00000000000E+00 0. -1.
          6    1    1    2  502    0  0.20388539585E+02  0.99255134766E+02 -0.75367543920E+02  0.21338121051E+03  0.17200000000E+03 0. -1.
         -6    1    1    2    0  501 -0.20388539585E+02 -0.99255134766E+02 -0.14552701356E+03  0.24704126376E+03  0.17200000000E+03 0.  1.
</event>
<event>
 4    1  0.1059899E+000  0.2014892E+03  0.7818608E-02  0.1148489E+00
          2   -1    0    0  502    0  0.00000000000E+00  0.00000000000E+00  0.41016389765E+03  0.41016389765E+03  0.00000000000E+00 0.  1.
         -2   -1    0    0    0  501 -0.00000000000E+00 -0.00000000000E+00 -0.10604395804E+03  0.10604395804E+03  0.00000000000E+00 0. -1.
          6    1    1    2  502    0 -0.90866323057E+02  0.52509136083E+02  0.85442974704E+02  0.21885703088E+03  0.17200000000E+03 0. -1.
         -6    1    1    2    0  501  0.90866323057E+02 -0.52509136083E+02  0.21867696490E+03  0.29735082481E+03  0.17200000000E+03 0.  1.
</event>
<event>
 4    1  0.1059899E+000  0.1825599E+03  0.7818608E-02  0.1165348E+00
         -2   -1    0    0    0  501 -0.00000000000E+00  0.00000000000E+00  0.70737439142E+02  0.70737439142E+02  0.00000000000E+00 0. -1.
          2   -1    0    0  502    0  0.00000000000E+00 -0.00000000000E+00 -0.56718023088E+03  0.56718023088E+03  0.00000000000E+00 0.  1.
          6    1    1    2  502    0 -0.25702666450E+02  0.55529294939E+02 -0.37946319034E+03  0.42109433917E+03  0.17200000000E+03 0.  1.
         -6    1    1    2    0  501  0.25702666450E+02 -0.55529294939E+02 -0.11697960140E+03  0.21682333086E+03  0.17200000000E+03 0. -1.
</event>
<event>
 4    1  0.1059899E+000  0.2176143E+03  0.7818608E-02  0.1135674E+00
         -1   -1    0    0    0  501 -0.00000000000E+00  0.00000000000E+00  0.69416670790E+02  0.69416670790E+02  0.00000000000E+00 0.  1.
          1   -1    0    0  502    0  0.00000000000E+00 -0.00000000000E+00 -0.81201855747E+03  0.81201855747E+03  0.00000000000E+00 0. -1.
          6    1    1    2  502    0 -0.13273283740E+03 -0.12408697749E+02 -0.19508405460E+03  0.29225634341E+03  0.17200000000E+03 0.  1.
         -6    1    1    2    0  501  0.13273283740E+03  0.12408697749E+02 -0.54751783208E+03  0.58917888485E+03  0.17200000000E+03 0. -1.
</event>
<event>
 4    1  0.1059899E+000  0.2745163E+03  0.7818608E-02  0.1098722E+00
          1   -1    0    0  502    0  0.00000000000E+00  0.00000000000E+00  0.11021308859E+03  0.11021308859E+03  0.00000000000E+00 0. -1.
         -1   -1    0    0    0  501 -0.00000000000E+00 -0.00000000000E+00 -0.68494644742E+03  0.68494644742E+03  0.00000000000E+00 0.  1.
          6    1    1    2  502    0  0.21278586222E+03 -0.22302373678E+02 -0.27081442921E+03  0.38561596712E+03  0.17200000000E+03 0. -1.
         -6    1    1    2    0  501 -0.21278586222E+03  0.22302373678E+02 -0.30391892962E+03  0.40954356889E+03  0.17200000000E+03 0.  1.
</event>
<event>
 4    1  0.1059899E+000  0.2067802E+03  0.7818608E-02  0.1144141E+00
          2   -1    0    0  502    0  0.00000000000E+00  0.00000000000E+00  0.24904109655E+03  0.24904109655E+03  0.00000000000E+00 0.  1.
         -2   -1    0    0    0  501 -0.00000000000E+00 -0.00000000000E+00 -0.17171753557E+03  0.17171753557E+03  0.00000000000E+00 0. -1.
          6    1    1    2  502    0  0.71875558224E+01 -0.11455303344E+03  0.41288162389E+02  0.21086197093E+03  0.17200000000E+03 0.  1.
         -6    1    1    2    0  501 -0.71875558224E+01  0.11455303344E+03  0.36035398599E+02  0.20989666120E+03  0.17200000000E+03 0. -1.
</event>
<event>
 4    1  0.1059899E+000  0.6549958E+03  0.7818608E-02  0.9797450E-01
          2   -1    0    0  502    0  0.00000000000E+00  0.00000000000E+00  0.20622746137E+04  0.20622746137E+04  0.00000000000E+00 0.  1.
         -2   -1    0    0    0  501 -0.00000000000E+00 -0.00000000000E+00 -0.24882130388E+03  0.24882130388E+03  0.00000000000E+00 0. -1.
          6    1    1    2  502    0 -0.54748682638E+03  0.31574305605E+03  0.13745871045E+04  0.15226651669E+04  0.17200000000E+03 0. -1.
         -6    1    1    2    0  501  0.54748682638E+03 -0.31574305605E+03  0.43886620529E+03  0.78843075070E+03  0.17200000000E+03 0.  1.
</event>
<event>
 4    1  0.1059899E+000  0.1963282E+03  0.7818608E-02  0.1152874E+00
         -2   -1    0    0    0  501 -0.00000000000E+00  0.00000000000E+00  0.30897782063E+02  0.30897782063E+02  0.00000000000E+00 0. -1.
          2   -1    0    0  502    0  0.00000000000E+00 -0.00000000000E+00 -0.15228380556E+04  0.15228380556E+04  0.00000000000E+00 0.  1.
          6    1    1    2  502    0 -0.59024410936E+02 -0.74005922015E+02 -0.10763086458E+04  0.10940681234E+04  0.17200000000E+03 0.  1.
         -6    1    1    2    0  501  0.59024410936E+02  0.74005922015E+02 -0.41563162777E+03  0.45966771431E+03  0.17200000000E+03 0. -1.
</event>
<event>
 4    1  0.1059899E+000  0.1764342E+03  0.7818608E-02  0.1171299E+00
          2   -1    0    0  502    0  0.00000000000E+00  0.00000000000E+00  0.12267945978E+04  0.12267945978E+04  0.00000000000E+00 0.  1.
         -2   -1    0    0    0  501 -0.00000000000E+00 -0.00000000000E+00 -0.26252456575E+02  0.26252456575E+02  0.00000000000E+00 0. -1.
          6    1    1    2  502    0 -0.26064747238E+02 -0.29422175698E+02  0.71485986658E+03  0.73631084762E+03  0.17200000000E+03 0.  1.
         -6    1    1    2    0  501  0.26064747238E+02  0.29422175698E+02  0.48568227464E+03  0.51673620676E+03  0.17200000000E+03 0. -1.
</event>
<event>
 4    1  0.1059899E+000  0.2310274E+03  0.7818608E-02  0.1125919E+00
         -2   -1    0    0    0  501 -0.00000000000E+00  0.00000000000E+00  0.91655080763E+02  0.91655080763E+02  0.00000000000E+00 0.  1.
          2   -1    0    0  502    0  0.00000000000E+00 -0.00000000000E+00 -0.58251266442E+03  0.58251266442E+03  0.00000000000E+00 0. -1.
          6    1    1    2  502    0  0.38283012157E+01  0.15419148354E+03 -0.25136821786E+03  0.34140833387E+03  0.17200000000E+03 0.  1.
         -6    1    1    2    0  501 -0.38283012157E+01 -0.15419148354E+03 -0.23948936580E+03  0.33275941131E+03  0.17200000000E+03 0.  1.
</event>
<event>
 4    1  0.1059899E+000  0.2561044E+03  0.7818608E-02  0.1109507E+00
          2   -1    0    0  502    0  0.00000000000E+00  0.00000000000E+00  0.92800637679E+03  0.92800637679E+03  0.00000000000E+00 0. -1.
         -2   -1    0    0    0  501 -0.00000000000E+00 -0.00000000000E+00 -0.78212258453E+02  0.78212258453E+02  0.00000000000E+00 0.  1.
          6    1    1    2  502    0  0.51225479889E+02  0.18270575630E+03  0.26874376432E+03  0.37123126759E+03  0.17200000000E+03 0.  1.
         -6    1    1    2    0  501 -0.51225479889E+02 -0.18270575630E+03  0.58105035401E+03  0.63498736765E+03  0.17200000000E+03 0. -1.
</event>
<event>
 4    1  0.1059899E+000  0.1976516E+03  0.7818608E-02  0.1151736E+00
          2   -1    0    0  502    0  0.00000000000E+00  0.00000000000E+00  0.11365512297E+04  0.11365512297E+04  0.00000000000E+00 0. -1.
         -2   -1    0    0    0  501 -0.00000000000E+00 -0.00000000000E+00 -0.35221709302E+02  0.35221709302E+02  0.00000000000E+00 0.  1.
          6    1    1    2  502    0 -0.65089386246E+02  0.72426128081E+02  0.64163534400E+03  0.67138817900E+03  0.17200000000E+03 0. -1.
         -6    1    1    2    0  501  0.65089386246E+02 -0.72426128081E+02  0.45969417644E+03  0.50038476004E+03  0.17200000000E+03 0.  1.
</event>
<event>
 4    1  0.1059899E+000  0.2612445E+03  0.7818608E-02  0.1106398E+00
          2   -1    0    0  502    0  0.00000000000E+00  0.00000000000E+00  0.79255927287E+03  0.79255927287E+03  0.00000000000E+00 0.  1.
         -2   -1    0    0    0  501 -0.00000000000E+00 -0.00000000000E+00 -0.10995668700E+03  0.10995668700E+03  0.00000000000E+00 0. -1.
          6    1    1    2  502    0  0.19402151814E+03 -0.31942358291E+02  0.13115961920E+03  0.29232090152E+03  0.17200000000E+03 0. -1.
         -6    1    1    2    0  501 -0.19402151814E+03  0.31942358291E+02  0.55144296666E+03  0.61019505835E+03  0.17200000000E+03 0.  1.
</event>
<event>
 4    1  0.1059899E+000  0.2741082E+03  0.7818608E-02  0.1098951E+00
          2   -1    0    0  502    0  0.00000000000E+00  0.00000000000E+00  0.10637721130E+04  0.10637721130E+04  0.00000000000E+00 0.  1.
         -2   -1    0    0    0  501 -0.00000000000E+00 -0.00000000000E+00 -0.81444673402E+02  0.81444673402E+02  0.00000000000E+00 0. -1.
          6    1    1    2  502    0  0.91239072717E+02  0.19294227846E+03  0.69981109828E+03  0.75157891435E+03  0.17200000000E+03 0.  1.
         -6    1    1    2    0  501 -0.91239072717E+02 -0.19294227846E+03  0.28251634132E+03  0.39363787206E+03  0.17200000000E+03 0. -1.
</event>
<event>
 4    1  0.1059899E+000  0.2000218E+03  0.7818608E-02  0.1149721E+00
         -3   -1    0    0    0  501 -0.00000000000E+00  0.00000000000E+00  0.41367821158E+02  0.41367821158E+02  0.00000000000E+00 0. -1.
          3   -1    0    0  502    0  0.00000000000E+00 -0.00000000000E+00 -0.11157572525E+04  0.11157572525E+04  0.00000000000E+00 0.  1.
          6    1    1    2  502    0  0.26348877793E+02  0.98642999562E+02 -0.32604430334E+03  0.38250959787E+03  0.17200000000E+03 0. -1.
         -6    1    1    2    0  501 -0.26348877793E+02 -0.98642999562E+02 -0.74834512801E+03  0.77461547579E+03  0.17200000000E+03 0.  1.
</event>
<event>
 4    1  0.1059899E+000  0.2721527E+03  0.7818608E-02  0.1100054E+00
          1   -1    0    0  502    0  0.00000000000E+00  0.00000000000E+00  0.23294561273E+04  0.23294561273E+04  0.00000000000E+00 0.  1.
         -1   -1    0    0    0  501 -0.00000000000E+00 -0.00000000000E+00 -0.32180585249E+02  0.32180585249E+02  0.00000000000E+00 0. -1.
          6    1    1    2  502    0 -0.21051439471E+03  0.12913918485E+02  0.10195286501E+04  0.10552278181E+04  0.17200000000E+03 0. -1.
         -6    1    1    2    0  501  0.21051439471E+03 -0.12913918485E+02  0.12777468919E+04  0.13064088945E+04  0.17200000000E+03 0.  1.
</event>
<event>
 4    1  0.1059899E+000  0.2222423E+03  0.7818608E-02  0.1132222E+00
          2   -1    0    0  502    0  0.00000000000E+00  0.00000000000E+00  0.68253759181E+03  0.68253759181E+03  0.00000000000E+00 0.  1.
         -2   -1    0    0    0  501 -0.00000000000E+00 -0.00000000000E+00 -0.92771543843E+02  0.92771543843E+02  0.00000000000E+00 0. -1.
          6    1    1    2  502    0  0.34695990342E+02  0.13639584984E+03  0.47669615866E+03  0.52595709643E+03  0.17200000000E+03 0.  1.
         -6    1    1    2    0  501 -0.34695990342E+02 -0.13639584984E+03  0.11306988931E+03  0.24935203923E+03  0.17200000000E+03 0. -1.
</event>
<event>
 4    1  0.1059899E+000  0.1841905E+03  0.7818608E-02  0.1163808E+00
          2   -1    0    0  502    0  0.00000000000E+00  0.00000000000E+00  0.16022023889E+04  0.16022023889E+04  0.00000000000E+00 0.  1.
         -2   -1    0    0    0  501 -0.00000000000E+00 -0.00000000000E+00 -0.31012594528E+02  0.31012594528E+02  0.00000000000E+00 0. -1.
          6    1    1    2  502    0  0.14695139416E+01 -0.65878622566E+02  0.32566099239E+03  0.37414066118E+03  0.17200000000E+03 0. -1.
         -6    1    1    2    0  501 -0.14695139416E+01  0.65878622566E+02  0.12455288020E+04  0.12590743222E+04  0.17200000000E+03 0.  1.
</event>
<event>
 4    1  0.1059899E+000  0.1732712E+03  0.7818608E-02  0.1174479E+00
         -1   -1    0    0    0  501 -0.00000000000E+00  0.00000000000E+00  0.17869841420E+03  0.17869841420E+03  0.00000000000E+00 0.  1.
          1   -1    0    0  502    0  0.00000000000E+00 -0.00000000000E+00 -0.17893812226E+03  0.17893812226E+03  0.00000000000E+00 0. -1.
          6    1    1    2  502    0 -0.32253730339E+01  0.20700334931E+02 -0.44313209492E+02  0.17884788909E+03  0.17200000000E+03 0. -1.
         -6    1    1    2    0  501  0.32253730339E+01 -0.20700334931E+02  0.44073501435E+02  0.17878864736E+03  0.17200000000E+03 0.  1.
</event>
<event>
 4    1  0.1059899E+000  0.1850361E+03  0.7818608E-02  0.1163016E+00
         -2   -1    0    0    0  501 -0.00000000000E+00  0.00000000000E+00  0.35230651019E+02  0.35230651019E+02  0.00000000000E+00 0.  1.
          2   -1    0    0  502    0  0.00000000000E+00 -0.00000000000E+00 -0.99223391151E+03  0.99223391151E+03  0.00000000000E+00 0. -1.
          6    1    1    2  502    0 -0.63292873628E+02 -0.25462887618E+02 -0.40483965469E+03  0.44512188500E+03  0.17200000000E+03 0.  1.
         -6    1    1    2    0  501  0.63292873628E+02  0.25462887618E+02 -0.55216360580E+03  0.58234267753E+03  0.17200000000E+03 0. -1.
</event>
<event>
 4    1  0.1059899E+000  0.2313791E+03  0.7818608E-02  0.1125673E+00
         -1   -1    0    0    0  501 -0.00000000000E+00  0.00000000000E+00  0.27630270083E+02  0.27630270083E+02  0.00000000000E+00 0.  1.
          1   -1    0    0  502    0  0.00000000000E+00 -0.00000000000E+00 -0.22760581784E+04  0.22760581784E+04  0.00000000000E+00 0. -1.
          6    1    1    2  502    0 -0.48467510930E+02  0.14698028651E+03 -0.68003593585E+03  0.71832108300E+03  0.17200000000E+03 0. -1.
         -6    1    1    2    0  501  0.48467510930E+02 -0.14698028651E+03 -0.15683919725E+04  0.15853673655E+04  0.17200000000E+03 0.  1.
</event>
<event>
 4    1  0.1059899E+000  0.1899000E+03  0.7818608E-02  0.1158552E+00
          1   -1    0    0  502    0  0.00000000000E+00  0.00000000000E+00  0.52020332657E+03  0.52020332657E+03  0.00000000000E+00 0. -1.
         -1   -1    0    0    0  501 -0.00000000000E+00 -0.00000000000E+00 -0.12832242659E+03  0.12832242659E+03  0.00000000000E+00 0.  1.
          6    1    1    2  502    0  0.37002648473E+02  0.71475843954E+02  0.41581263385E+03  0.45712376741E+03  0.17200000000E+03 0. -1.
         -6    1    1    2    0  501 -0.37002648473E+02 -0.71475843954E+02 -0.23931733863E+02  0.19140198575E+03  0.17200000000E+03 0.  1.
</event>
<event>
 4    1  0.1059899E+000  0.2576437E+03  0.7818608E-02  0.1108567E+00
         -4   -1    0    0    0  501 -0.00000000000E+00  0.00000000000E+00  0.12092820083E+03  0.12092820083E+03  0.00000000000E+00 0. -1.
          4   -1    0    0  502    0  0.00000000000E+00 -0.00000000000E+00 -0.56607456155E+03  0.56607456155E+03  0.00000000000E+00 0.  1.
          6    1    1    2  502    0 -0.48930217784E+02  0.18547801632E+03 -0.28236538292E+03  0.38224399305E+03  0.17200000000E+03 0. -1.
         -6    1    1    2    0  501  0.48930217784E+02 -0.18547801632E+03 -0.16278097780E+03  0.30475876933E+03  0.17200000000E+03 0.  1.
</event>
<event>
 4    1  0.1059899E+000  0.1798097E+03  0.7818608E-02  0.1167987E+00
         -2   -1    0    0    0  501 -0.00000000000E+00  0.00000000000E+00  0.39439756024E+02  0.39439756024E+02  0.00000000000E+00 0. -1.
          2   -1    0    0  502    0  0.00000000000E+00 -0.00000000000E+00 -0.82362405486E+03  0.82362405486E+03  0.00000000000E+00 0.  1.
          6    1    1    2  502    0 -0.98635735928E+01 -0.51480456450E+02 -0.36257263393E+03  0.40471031907E+03  0.17200000000E+03 0.  1.
         -6    1    1    2    0  501  0.98635735928E+01  0.51480456450E+02 -0.42161166490E+03  0.45835349182E+03  0.17200000000E+03 0.  1.
</event>
<event>
 4    1  0.1059899E+000  0.3746928E+03  0.7818608E-02  0.1052913E+00
         -1   -1    0    0    0  501 -0.00000000000E+00  0.00000000000E+00  0.19277254698E+03  0.19277254698E+03  0.00000000000E+00 0.  1.
          1   -1    0    0  502    0  0.00000000000E+00 -0.00000000000E+00 -0.86764779332E+03  0.86764779332E+03  0.00000000000E+00 0. -1.
          6    1    1    2  502    0  0.13203062668E+03  0.30557912712E+03 -0.54992784580E+03  0.66544370528E+03  0.17200000000E+03 0. -1.
         -6    1    1    2    0  501 -0.13203062668E+03 -0.30557912712E+03 -0.12494740054E+03  0.39497663502E+03  0.17200000000E+03 0.  1.
</event>
<event>
 4    1  0.1059899E+000  0.1919189E+03  0.7818608E-02  0.1156742E+00
          2   -1    0    0  502    0  0.00000000000E+00  0.00000000000E+00  0.74208173089E+03  0.74208173089E+03  0.00000000000E+00 0.  1.
         -2   -1    0    0    0  501 -0.00000000000E+00 -0.00000000000E+00 -0.51106262618E+02  0.51106262618E+02  0.00000000000E+00 0. -1.
          6    1    1    2  502    0  0.12757329034E+02  0.84179031753E+02  0.27818583325E+03  0.33796481570E+03  0.17200000000E+03 0. -1.
         -6    1    1    2    0  501 -0.12757329034E+02 -0.84179031753E+02  0.41278963502E+03  0.45522317781E+03  0.17200000000E+03 0. -1.
</event>
<event>
 4    1  0.1059899E+000  0.2058738E+03  0.7818608E-02  0.1144876E+00
         -2   -1    0    0    0  501 -0.00000000000E+00  0.00000000000E+00  0.15120466026E+03  0.15120466026E+03  0.00000000000E+00 0. -1.
          2   -1    0    0  502    0  0.00000000000E+00 -0.00000000000E+00 -0.28427894417E+03  0.28427894417E+03  0.00000000000E+00 0.  1.
          6    1    1    2  502    0 -0.10960252368E+03  0.28058952148E+02 -0.40805650165E+02  0.20987881998E+03  0.17200000000E+03 0.  1.
         -6    1    1    2    0  501  0.10960252368E+03 -0.28058952148E+02 -0.92268633752E+02  0.22560478445E+03  0.17200000000E+03 0.  1.
</event>
<event>
 4    1  0.1059899E+000  0.1885326E+03  0.7818608E-02  0.1159792E+00
          3   -1    0    0  502    0  0.00000000000E+00  0.00000000000E+00  0.23388481901E+03  0.23388481901E+03  0.00000000000E+00 0. -1.
         -3   -1    0    0    0  501 -0.00000000000E+00 -0.00000000000E+00 -0.20453602677E+03  0.20453602677E+03  0.00000000000E+00 0.  1.
          6    1    1    2  502    0  0.70950417741E+02  0.30439514121E+02  0.12579902526E+03  0.22664933389E+03  0.17200000000E+03 0. -1.
         -6    1    1    2    0  501 -0.70950417741E+02 -0.30439514121E+02 -0.96450233025E+02  0.21177151189E+03  0.17200000000E+03 0.  1.
</event>
<event>
 4    1  0.1059899E+000  0.2768021E+03  0.7818608E-02  0.1097449E+00
         -3   -1    0    0    0  501 -0.00000000000E+00  0.00000000000E+00  0.14604949442E+04  0.14604949442E+04  0.00000000000E+00 0.  1.
          3   -1    0    0  502    0  0.00000000000E+00 -0.00000000000E+00 -0.58017005495E+02  0.58017005495E+02  0.00000000000E+00 0. -1.
          6    1    1    2  502    0  0.13562956266E+03 -0.16923359631E+03  0.93619261033E+03  0.97625610985E+03  0.17200000000E+03 0.  1.
         -6    1    1    2    0  501 -0.13562956266E+03  0.16923359631E+03  0.46628532839E+03  0.54225583986E+03  0.17200000000E+03 0. -1.
</event>
<event>
 4    1  0.1059899E+000  0.1849950E+03  0.7818608E-02  0.1163055E+00
         -1   -1    0    0    0  501 -0.00000000000E+00  0.00000000000E+00  0.15005919913E+02  0.15005919913E+02  0.00000000000E+00 0.  1.
          1   -1    0    0  502    0  0.00000000000E+00 -0.00000000000E+00 -0.22885131365E+04  0.22885131365E+04  0.00000000000E+00 0. -1.
          6    1    1    2  502    0  0.27044223413E+02  0.62512026340E+02 -0.12042967564E+04  0.12184226775E+04  0.17200000000E+03 0. -1.
         -6    1    1    2    0  501 -0.27044223413E+02 -0.62512026340E+02 -0.10692104602E+04  0.10850963790E+04  0.17200000000E+03 0.  1.
</event>
<event>
 4    1  0.1059899E+000  0.1975330E+03  0.7818608E-02  0.1151837E+00
         -2   -1    0    0    0  501 -0.00000000000E+00  0.00000000000E+00  0.97805994490E+03  0.97805994490E+03  0.00000000000E+00 0.  1.
          2   -1    0    0  502    0  0.00000000000E+00 -0.00000000000E+00 -0.57718236281E+02  0.57718236281E+02  0.00000000000E+00 0. -1.
          6    1    1    2  502    0 -0.57996355991E+02  0.77921253123E+02  0.17237897653E+03  0.26217133815E+03  0.17200000000E+03 0. -1.
         -6    1    1    2    0  501  0.57996355991E+02 -0.77921253123E+02  0.74796273208E+03  0.77360684303E+03  0.17200000000E+03 0.  1.
</event>
<event>
 4    1  0.1059899E+000  0.1847138E+03  0.7818608E-02  0.1163317E+00
         -2   -1    0    0    0  501 -0.00000000000E+00  0.00000000000E+00  0.32145853403E+02  0.32145853403E+02  0.00000000000E+00 0.  1.
          2   -1    0    0  502    0  0.00000000000E+00 -0.00000000000E+00 -0.12683816309E+04  0.12683816309E+04  0.00000000000E+00 0. -1.
          6    1    1    2  502    0 -0.51519940961E+02 -0.43369279683E+02 -0.88080807713E+03  0.89996781469E+03  0.17200000000E+03 0. -1.
         -6    1    1    2    0  501  0.51519940961E+02  0.43369279683E+02 -0.35542770039E+03  0.40055966964E+03  0.17200000000E+03 0.  1.
</event>
<event>
 4    1  0.1059899E+000  0.1829327E+03  0.7818608E-02  0.1164995E+00
          2   -1    0    0  502    0  0.00000000000E+00  0.00000000000E+00  0.12590640848E+04  0.12590640848E+04  0.00000000000E+00 0.  1.
         -2   -1    0    0    0  501 -0.00000000000E+00 -0.00000000000E+00 -0.43159562042E+02  0.43159562042E+02  0.00000000000E+00 0. -1.
          6    1    1    2  502    0  0.88488708494E+01  0.61660788883E+02  0.20438130468E+03  0.27429194867E+03  0.17200000000E+03 0. -1.
         -6    1    1    2    0  501 -0.88488708494E+01 -0.61660788883E+02  0.10115232181E+04  0.10279316982E+04  0.17200000000E+03 0.  1.
</event>
<event>
 4    1  0.1059899E+000  0.1803559E+03  0.7818608E-02  0.1167459E+00
          1   -1    0    0  502    0  0.00000000000E+00  0.00000000000E+00  0.42738178366E+02  0.42738178366E+02  0.00000000000E+00 0. -1.
         -1   -1    0    0    0  501 -0.00000000000E+00 -0.00000000000E+00 -0.88632080316E+03  0.88632080316E+03  0.00000000000E+00 0.  1.
          6    1    1    2  502    0 -0.32042920370E+02 -0.43789440988E+02 -0.59639221000E+03  0.62306655506E+03  0.17200000000E+03 0.  1.
         -6    1    1    2    0  501  0.32042920370E+02  0.43789440988E+02 -0.24719041480E+03  0.30599242647E+03  0.17200000000E+03 0. -1.
</event>
<event>
 4    1  0.1059899E+000  0.1755338E+03  0.7818608E-02  0.1172197E+00
          3   -1    0    0  502    0  0.00000000000E+00  0.00000000000E+00  0.20276345101E+03  0.20276345101E+03  0.00000000000E+00 0. -1.
         -3   -1    0    0    0  501 -0.00000000000E+00 -0.00000000000E+00 -0.15198184608E+03  0.15198184608E+03  0.00000000000E+00 0.  1.
          6    1    1    2  502    0  0.34221634489E+02  0.75499484374E+01  0.23309853316E+02  0.17707476175E+03  0.17200000000E+03 0. -1.
         -6    1    1    2    0  501 -0.34221634489E+02 -0.75499484374E+01  0.27471751620E+02  0.17767053533E+03  0.17200000000E+03 0.  1.
</event>
<event>
 4    1  0.1059899E+000  0.2000350E+03  0.7818608E-02  0.1149709E+00
          2   -1    0    0  502    0  0.00000000000E+00  0.00000000000E+00  0.12260883492E+04  0.12260883492E+04  0.00000000000E+00 0.  1.
         -2   -1    0    0    0  501 -0.00000000000E+00 -0.00000000000E+00 -0.33052437910E+02  0.33052437910E+02  0.00000000000E+00 0. -1.
          6    1    1    2  502    0 -0.12439154819E+02  0.10136705314E+03  0.66722713767E+03  0.69656734439E+03  0.17200000000E+03 0.  1.
         -6    1    1    2    0  501  0.12439154819E+02 -0.10136705314E+03  0.52580877366E+03  0.56257344276E+03  0.17200000000E+03 0. -1.
</event>
<event>
 4    1  0.1059899E+000  0.1794611E+03  0.7818608E-02  0.1168326E+00
         -2   -1    0    0    0  501 -0.00000000000E+00  0.00000000000E+00  0.22866458769E+03  0.22866458769E+03  0.00000000000E+00 0.  1.
          2   -1    0    0  502    0  0.00000000000E+00 -0.00000000000E+00 -0.16723975240E+03  0.16723975240E+03  0.00000000000E+00 0. -1.
          6    1    1    2  502    0 -0.34525967858E+02 -0.37818744332E+02  0.10935323327E+03  0.21015334759E+03  0.17200000000E+03 0.  1.
         -6    1    1    2    0  501  0.34525967858E+02  0.37818744332E+02 -0.47928397977E+02  0.18575099249E+03  0.17200000000E+03 0. -1.
</event>
<event>
 4    1  0.1059899E+000  0.3671877E+03  0.7818608E-02  0.1055774E+00
          1   -1    0    0  502    0  0.00000000000E+00  0.00000000000E+00  0.14872270181E+04  0.14872270181E+04  0.00000000000E+00 0. -1.
         -1   -1    0    0    0  501 -0.00000000000E+00 -0.00000000000E+00 -0.13838858226E+03  0.13838858226E+03  0.00000000000E+00 0.  1.
          6    1    1    2  502    0 -0.17636685693E+03  0.27228208902E+03  0.19706265460E+03  0.41672592199E+03  0.17200000000E+03 0.  1.
         -6    1    1    2    0  501  0.17636685693E+03 -0.27228208902E+03  0.11517757813E+04  0.12088896784E+04  0.17200000000E+03 0. -1.
</event>
<event>
 4    1  0.1059899E+000  0.1798057E+03  0.7818608E-02  0.1167991E+00
         -2   -1    0    0    0  501 -0.00000000000E+00  0.00000000000E+00  0.38169370831E+03  0.38169370831E+03  0.00000000000E+00 0.  1.
          2   -1    0    0  502    0  0.00000000000E+00 -0.00000000000E+00 -0.86333509527E+02  0.86333509527E+02  0.00000000000E+00 0. -1.
          6    1    1    2  502    0  0.16282231296E+02  0.49809301701E+02  0.11550676721E+03  0.21370982866E+03  0.17200000000E+03 0.  1.
         -6    1    1    2    0  501 -0.16282231296E+02 -0.49809301701E+02  0.17985343157E+03  0.25431738918E+03  0.17200000000E+03 0.  1.
</event>
<event>
 4    1  0.1059899E+000  0.4447992E+03  0.7818608E-02  0.1029284E+00
          2   -1    0    0  502    0  0.00000000000E+00  0.00000000000E+00  0.27766219064E+03  0.27766219064E+03  0.00000000000E+00 0. -1.
         -2   -1    0    0    0  501 -0.00000000000E+00 -0.00000000000E+00 -0.71442551945E+03  0.71442551945E+03  0.00000000000E+00 0.  1.
          6    1    1    2  502    0 -0.56440392841E+02 -0.40629640958E+03 -0.24384379127E+03  0.50725347207E+03  0.17200000000E+03 0. -1.
         -6    1    1    2    0  501  0.56440392841E+02  0.40629640958E+03 -0.19291953754E+03  0.48483423801E+03  0.17200000000E+03 0.  1.
</event>
<event>
 4    1  0.1059899E+000  0.1877288E+03  0.7818608E-02  0.1160526E+00
          2   -1    0    0  502    0  0.00000000000E+00  0.00000000000E+00  0.19494661588E+02  0.19494661588E+02  0.00000000000E+00 0. -1.
         -2   -1    0    0    0  501 -0.00000000000E+00 -0.00000000000E+00 -0.19579979073E+04  0.19579979073E+04  0.00000000000E+00 0.  1.
          6    1    1    2  502    0 -0.73618027647E+02  0.15442656816E+02 -0.69538610225E+03  0.72028044597E+03  0.17200000000E+03 0. -1.
         -6    1    1    2    0  501  0.73618027647E+02 -0.15442656816E+02 -0.12431171435E+04  0.12572121229E+04  0.17200000000E+03 0.  1.
</event>
<event>
 4    1  0.1059899E+000  0.1734654E+03  0.7818608E-02  0.1174281E+00
          2   -1    0    0  502    0  0.00000000000E+00  0.00000000000E+00  0.35469943428E+03  0.35469943428E+03  0.00000000000E+00 0. -1.
         -2   -1    0    0    0  501 -0.00000000000E+00 -0.00000000000E+00 -0.87880779227E+02  0.87880779227E+02  0.00000000000E+00 0.  1.
          6    1    1    2  502    0 -0.94414431442E+01 -0.20423070111E+02  0.92199416934E+02  0.19644585800E+03  0.17200000000E+03 0.  1.
         -6    1    1    2    0  501  0.94414431442E+01  0.20423070111E+02  0.17461923812E+03  0.24613435551E+03  0.17200000000E+03 0. -1.
</event>
<event>
 4    1  0.1059899E+000  0.2128523E+03  0.7818608E-02  0.1139327E+00
         -2   -1    0    0    0  501 -0.00000000000E+00  0.00000000000E+00  0.22546787578E+03  0.22546787578E+03  0.00000000000E+00 0. -1.
          2   -1    0    0  502    0  0.00000000000E+00 -0.00000000000E+00 -0.33563528220E+03  0.33563528220E+03  0.00000000000E+00 0.  1.
          6    1    1    2  502    0 -0.42783364104E+01  0.12531476517E+03  0.12264229476E+03  0.24565672593E+03  0.17200000000E+03 0. -1.
         -6    1    1    2    0  501  0.42783364104E+01 -0.12531476517E+03 -0.23280970118E+03  0.31544643205E+03  0.17200000000E+03 0.  1.
</event>
<event>
 4    1  0.1059899E+000  0.1922383E+03  0.7818608E-02  0.1156458E+00
         -1   -1    0    0    0  501 -0.00000000000E+00  0.00000000000E+00  0.60313722683E+03  0.60313722683E+03  0.00000000000E+00 0.  1.
          1   -1    0    0  502    0  0.00000000000E+00 -0.00000000000E+00 -0.63438155366E+02  0.63438155366E+02  0.00000000000E+00 0. -1.
          6    1    1    2  502    0 -0.10784403726E+02  0.85177906204E+02  0.33143284958E+03  0.38314920442E+03  0.17200000000E+03 0.  1.
         -6    1    1    2    0  501  0.10784403726E+02 -0.85177906204E+02  0.20826622188E+03  0.28342617777E+03  0.17200000000E+03 0. -1.
</event>
<event>
 4    1  0.1059899E+000  0.2641316E+03  0.7818608E-02  0.1104686E+00
         -2   -1    0    0    0  501 -0.00000000000E+00  0.00000000000E+00  0.17377682911E+03  0.17377682911E+03  0.00000000000E+00 0.  1.
          2   -1    0    0  502    0  0.00000000000E+00 -0.00000000000E+00 -0.42071266254E+03  0.42071266254E+03  0.00000000000E+00 0. -1.
          6    1    1    2  502    0  0.12821929467E+03  0.15408208469E+03 -0.59890936193E+02  0.27083648312E+03  0.17200000000E+03 0.  1.
         -6    1    1    2    0  501 -0.12821929467E+03 -0.15408208469E+03 -0.18704489725E+03  0.32365300854E+03  0.17200000000E+03 0. -1.
</event>
<event>
 4    1  0.1059899E+000  0.2976238E+03  0.7818608E-02  0.1086435E+00
         -2   -1    0    0    0  501 -0.00000000000E+00  0.00000000000E+00  0.33234850720E+02  0.33234850720E+02  0.00000000000E+00 0.  1.
          2   -1    0    0  502    0  0.00000000000E+00 -0.00000000000E+00 -0.26925593723E+04  0.26925593723E+04  0.00000000000E+00 0. -1.
          6    1    1    2  502    0 -0.24012345925E+03  0.36560455282E+02 -0.11924619252E+04  0.12290424670E+04  0.17200000000E+03 0. -1.
         -6    1    1    2    0  501  0.24012345925E+03 -0.36560455282E+02 -0.14668625964E+04  0.14967517561E+04  0.17200000000E+03 0.  1.
</event>
<event>
 4    1  0.1059899E+000  0.2064485E+03  0.7818608E-02  0.1144410E+00
         -1   -1    0    0    0  501 -0.00000000000E+00  0.00000000000E+00  0.21390445987E+03  0.21390445987E+03  0.00000000000E+00 0. -1.
          1   -1    0    0  502    0  0.00000000000E+00 -0.00000000000E+00 -0.22601851382E+03  0.22601851382E+03  0.00000000000E+00 0.  1.
          6    1    1    2  502    0 -0.10287963163E+03 -0.49525357970E+02 -0.81752027718E+02  0.22204588202E+03  0.17200000000E+03 0.  1.
         -6    1    1    2    0  501  0.10287963163E+03  0.49525357970E+02  0.69637973766E+02  0.21787709167E+03  0.17200000000E+03 0. -1.
</event>
<event>
 4    1  0.1059899E+000  0.2214838E+03  0.7818608E-02  0.1132782E+00
         -2   -1    0    0    0  501 -0.00000000000E+00  0.00000000000E+00  0.53847099082E+02  0.53847099082E+02  0.00000000000E+00 0.  1.
          2   -1    0    0  502    0  0.00000000000E+00 -0.00000000000E+00 -0.15672044416E+04  0.15672044416E+04  0.00000000000E+00 0. -1.
          6    1    1    2  502    0 -0.35867689509E+02 -0.13485027365E+03 -0.23220795182E+03  0.32089814637E+03  0.17200000000E+03 0.  1.
         -6    1    1    2    0  501  0.35867689509E+02  0.13485027365E+03 -0.12811493907E+04  0.13001533943E+04  0.17200000000E+03 0. -1.
</event>
<event>
 4    1  0.1059899E+000  0.2115555E+03  0.7818608E-02  0.1140340E+00
         -2   -1    0    0    0  501 -0.00000000000E+00  0.00000000000E+00  0.52575715994E+02  0.52575715994E+02  0.00000000000E+00 0.  1.
          2   -1    0    0  502    0  0.00000000000E+00 -0.00000000000E+00 -0.85151151135E+03  0.85151151135E+03  0.00000000000E+00 0. -1.
          6    1    1    2  502    0  0.83499289035E+02 -0.90551679696E+02 -0.40719742074E+03  0.45887414115E+03  0.17200000000E+03 0. -1.
         -6    1    1    2    0  501 -0.83499289035E+02  0.90551679696E+02 -0.39173837462E+03  0.44521308619E+03  0.17200000000E+03 0.  1.
</event>
<event>
 4    1  0.1059899E+000  0.1777409E+03  0.7818608E-02  0.1170008E+00
          2   -1    0    0  502    0  0.00000000000E+00  0.00000000000E+00  0.20836956025E+04  0.20836956025E+04  0.00000000000E+00 0.  1.
         -2   -1    0    0    0  501 -0.00000000000E+00 -0.00000000000E+00 -0.20156235548E+02  0.20156235548E+02  0.00000000000E+00 0. -1.
          6    1    1    2  502    0 -0.12103285288E+02  0.43143044575E+02  0.50812150805E+03  0.53831150718E+03  0.17200000000E+03 0. -1.
         -6    1    1    2    0  501  0.12103285288E+02 -0.43143044575E+02  0.15554178589E+04  0.15655403309E+04  0.17200000000E+03 0.  1.
</event>
<event>
 4    1  0.1059899E+000  0.1760085E+03  0.7818608E-02  0.1171723E+00
          1   -1    0    0  502    0  0.00000000000E+00  0.00000000000E+00  0.69388404895E+03  0.69388404895E+03  0.00000000000E+00 0. -1.
         -1   -1    0    0    0  501 -0.00000000000E+00 -0.00000000000E+00 -0.48346529300E+02  0.48346529300E+02  0.00000000000E+00 0.  1.
          6    1    1    2  502    0  0.32976331430E+02 -0.17537293034E+02  0.22009227614E+03  0.28181484187E+03  0.17200000000E+03 0.  1.
         -6    1    1    2    0  501 -0.32976331430E+02  0.17537293034E+02  0.42544524351E+03  0.46041573638E+03  0.17200000000E+03 0. -1.
</event>
<event>
 4    1  0.1059899E+000  0.1786333E+03  0.7818608E-02  0.1169132E+00
          2   -1    0    0  502    0  0.00000000000E+00  0.00000000000E+00  0.27613608672E+04  0.27613608672E+04  0.00000000000E+00 0. -1.
         -2   -1    0    0    0  501 -0.00000000000E+00 -0.00000000000E+00 -0.11604326607E+02  0.11604326607E+02  0.00000000000E+00 0.  1.
          6    1    1    2  502    0  0.13284344954E+02 -0.46361265670E+02  0.12852549215E+04  0.12976093611E+04  0.17200000000E+03 0.  1.
         -6    1    1    2    0  501 -0.13284344954E+02  0.46361265670E+02  0.14645016190E+04  0.14753558326E+04  0.17200000000E+03 0. -1.
</event>
<event>
 4    1  0.1059899E+000  0.2012540E+03  0.7818608E-02  0.1148685E+00
          2   -1    0    0  502    0  0.00000000000E+00  0.00000000000E+00  0.28648784677E+03  0.28648784677E+03  0.00000000000E+00 0.  1.
         -2   -1    0    0    0  501 -0.00000000000E+00 -0.00000000000E+00 -0.15718039161E+03  0.15718039161E+03  0.00000000000E+00 0. -1.
          6    1    1    2  502    0  0.41014129305E+01  0.10441440974E+03  0.13499094937E+03  0.24233395751E+03  0.17200000000E+03 0.  1.
         -6    1    1    2    0  501 -0.41014129305E+01 -0.10441440974E+03 -0.56834942141E+01  0.20133428088E+03  0.17200000000E+03 0. -1.
</event>
<event>
 4    1  0.1059899E+000  0.1920079E+03  0.7818608E-02  0.1156663E+00
         -2   -1    0    0    0  501 -0.00000000000E+00  0.00000000000E+00  0.62508368517E+02  0.62508368517E+02  0.00000000000E+00 0.  1.
          2   -1    0    0  502    0  0.00000000000E+00 -0.00000000000E+00 -0.67348020080E+03  0.67348020080E+03  0.00000000000E+00 0. -1.
          6    1    1    2  502    0  0.54725104014E+02  0.65484404548E+02 -0.43520571493E+03  0.47567957551E+03  0.17200000000E+03 0. -1.
         -6    1    1    2    0  501 -0.54725104014E+02 -0.65484404548E+02 -0.17576611736E+03  0.26030899381E+03  0.17200000000E+03 0. -1.
</event>
<event>
 4    1  0.1059899E+000  0.1917510E+03  0.7818608E-02  0.1156891E+00
          3   -1    0    0  502    0  0.00000000000E+00  0.00000000000E+00  0.17304086796E+03  0.17304086796E+03  0.00000000000E+00 0.  1.
         -3   -1    0    0    0  501 -0.00000000000E+00 -0.00000000000E+00 -0.21435201529E+03  0.21435201529E+03  0.00000000000E+00 0. -1.
          6    1    1    2  502    0  0.84614918464E+02 -0.49771108039E+01 -0.25746332381E+01  0.19176831019E+03  0.17200000000E+03 0.  1.
         -6    1    1    2    0  501 -0.84614918464E+02  0.49771108039E+01 -0.38736514096E+02  0.19562457306E+03  0.17200000000E+03 0. -1.
</event>
<event>
 4    1  0.1059899E+000  0.6827789E+03  0.7818608E-02  0.9747144E-01
         -1   -1    0    0    0  501 -0.00000000000E+00  0.00000000000E+00  0.62992404596E+03  0.62992404596E+03  0.00000000000E+00 0.  1.
          1   -1    0    0  502    0  0.00000000000E+00 -0.00000000000E+00 -0.77839568431E+03  0.77839568431E+03  0.00000000000E+00 0. -1.
          6    1    1    2  502    0 -0.49511887133E+03 -0.43756180098E+03  0.82015528844E+02  0.68768711883E+03  0.17200000000E+03 0.  1.
         -6    1    1    2    0  501  0.49511887133E+03  0.43756180098E+03 -0.23048716719E+03  0.72063261144E+03  0.17200000000E+03 0. -1.
</event>
<event>
 4    1  0.1059899E+000  0.1853804E+03  0.7818608E-02  0.1162695E+00
         -2   -1    0    0    0  501 -0.00000000000E+00  0.00000000000E+00  0.89414033999E+02  0.89414033999E+02  0.00000000000E+00 0.  1.
          2   -1    0    0  502    0  0.00000000000E+00 -0.00000000000E+00 -0.40330843336E+03  0.40330843336E+03  0.00000000000E+00 0. -1.
          6    1    1    2  502    0  0.63562068641E+02  0.27235073422E+02 -0.10352694659E+03  0.21232925956E+03  0.17200000000E+03 0.  1.
         -6    1    1    2    0  501 -0.63562068641E+02 -0.27235073422E+02 -0.21036745277E+03  0.28039320780E+03  0.17200000000E+03 0. -1.
</event>
<event>
 4    1  0.1059899E+000  0.2326472E+03  0.7818608E-02  0.1124790E+00
          2   -1    0    0  502    0  0.00000000000E+00  0.00000000000E+00  0.28661966492E+03  0.28661966492E+03  0.00000000000E+00 0.  1.
         -2   -1    0    0    0  501 -0.00000000000E+00 -0.00000000000E+00 -0.20629585206E+03  0.20629585206E+03  0.00000000000E+00 0. -1.
          6    1    1    2  502    0  0.23187058124E+02  0.15492926251E+03 -0.31533490324E+02  0.23477452387E+03  0.17200000000E+03 0.  1.
         -6    1    1    2    0  501 -0.23187058124E+02 -0.15492926251E+03  0.11185730318E+03  0.25814099311E+03  0.17200000000E+03 0.  1.
</event>
<event>
 4    1  0.1059899E+000  0.1960005E+03  0.7818608E-02  0.1153158E+00
         -1   -1    0    0    0  501 -0.00000000000E+00  0.00000000000E+00  0.55599965134E+03  0.55599965134E+03  0.00000000000E+00 0.  1.
          1   -1    0    0  502    0  0.00000000000E+00 -0.00000000000E+00 -0.74100407531E+02  0.74100407531E+02  0.00000000000E+00 0. -1.
          6    1    1    2  502    0 -0.52860842915E+02  0.77704086209E+02  0.32284057552E+03  0.37768006425E+03  0.17200000000E+03 0.  1.
         -6    1    1    2    0  501  0.52860842915E+02 -0.77704086209E+02  0.15905866829E+03  0.25241999462E+03  0.17200000000E+03 0. -1.
</event>
<event>
 4    1  0.1059899E+000  0.1939303E+03  0.7818608E-02  0.1154963E+00
          2   -1    0    0  502    0  0.00000000000E+00  0.00000000000E+00  0.30326005739E+04  0.30326005739E+04  0.00000000000E+00 0. -1.
         -2   -1    0    0    0  501 -0.00000000000E+00 -0.00000000000E+00 -0.12427978599E+02  0.12427978599E+02  0.00000000000E+00 0.  1.
          6    1    1    2  502    0 -0.89229168318E+02 -0.79441903979E+01  0.14398794863E+04  0.14528805490E+04  0.17200000000E+03 0.  1.
         -6    1    1    2    0  501  0.89229168318E+02  0.79441903979E+01  0.15802931090E+04  0.15921480035E+04  0.17200000000E+03 0.  1.
</event>
<event>
 4    1  0.1059899E+000  0.2901636E+03  0.7818608E-02  0.1090264E+00
         -2   -1    0    0    0  501 -0.00000000000E+00  0.00000000000E+00  0.92314246036E+02  0.92314246036E+02  0.00000000000E+00 0.  1.
          2   -1    0    0  502    0  0.00000000000E+00 -0.00000000000E+00 -0.11301228658E+04  0.11301228658E+04  0.00000000000E+00 0. -1.
          6    1    1    2  502    0  0.13145631822E+03 -0.19321011392E+03 -0.78740024286E+03  0.83916271019E+03  0.17200000000E+03 0. -1.
         -6    1    1    2    0  501 -0.13145631822E+03  0.19321011392E+03 -0.25040837687E+03  0.38327440161E+03  0.17200000000E+03 0.  1.
</event>
<event>
 4    1  0.1059899E+000  0.1751728E+03  0.7818608E-02  0.1172558E+00
         -2   -1    0    0    0  501 -0.00000000000E+00  0.00000000000E+00  0.38603375111E+03  0.38603375111E+03  0.00000000000E+00 0. -1.
          2   -1    0    0  502    0  0.00000000000E+00 -0.00000000000E+00 -0.10709557586E+03  0.10709557586E+03  0.00000000000E+00 0.  1.
          6    1    1    2  502    0 -0.95873168949E+01  0.31774354980E+02  0.26465328798E+03  0.31737499762E+03  0.17200000000E+03 0. -1.
         -6    1    1    2    0  501  0.95873168949E+01 -0.31774354980E+02  0.14284887272E+02  0.17575432935E+03  0.17200000000E+03 0.  1.
</event>
<event>
 4    1  0.1059899E+000  0.3717787E+03  0.7818608E-02  0.1054015E+00
          2   -1    0    0  502    0  0.00000000000E+00  0.00000000000E+00  0.70514087208E+03  0.70514087208E+03  0.00000000000E+00 0. -1.
         -2   -1    0    0    0  501 -0.00000000000E+00 -0.00000000000E+00 -0.23288586015E+03  0.23288586015E+03  0.00000000000E+00 0.  1.
          6    1    1    2  502    0 -0.65865714524E+02 -0.32295060028E+03  0.42274197641E+03  0.56296550622E+03  0.17200000000E+03 0. -1.
         -6    1    1    2    0  501  0.65865714524E+02  0.32295060028E+03  0.49513035519E+02  0.37506122602E+03  0.17200000000E+03 0. -1.
</event>
<event>
 4    1  0.1059899E+000  0.3229034E+03  0.7818608E-02  0.1074321E+00
          1   -1    0    0  502    0  0.00000000000E+00  0.00000000000E+00  0.30400358974E+03  0.30400358974E+03  0.00000000000E+00 0. -1.
         -1   -1    0    0    0  501 -0.00000000000E+00 -0.00000000000E+00 -0.35372175344E+03  0.35372175344E+03  0.00000000000E+00 0.  1.
          6    1    1    2  502    0 -0.19985444098E+03 -0.18638880772E+03 -0.82172844231E+02  0.33319508033E+03  0.17200000000E+03 0.  1.
         -6    1    1    2    0  501  0.19985444098E+03  0.18638880772E+03  0.32454680528E+02  0.32453026286E+03  0.17200000000E+03 0.  1.
</event>
<event>
 4    1  0.1059899E+000  0.2342417E+03  0.7818608E-02  0.1123689E+00
         -1   -1    0    0    0  501 -0.00000000000E+00  0.00000000000E+00  0.14697988628E+03  0.14697988628E+03  0.00000000000E+00 0. -1.
          1   -1    0    0  502    0  0.00000000000E+00 -0.00000000000E+00 -0.37354085813E+03  0.37354085813E+03  0.00000000000E+00 0.  1.
          6    1    1    2  502    0 -0.72680611645E+02  0.14143097572E+03 -0.11973810699E+03  0.26307110534E+03  0.17200000000E+03 0. -1.
         -6    1    1    2    0  501  0.72680611645E+02 -0.14143097572E+03 -0.10682286486E+03  0.25744963907E+03  0.17200000000E+03 0.  1.
</event>
<event>
 4    1  0.1059899E+000  0.1983277E+03  0.7818608E-02  0.1151158E+00
         -2   -1    0    0    0  501 -0.00000000000E+00  0.00000000000E+00  0.10036452289E+03  0.10036452289E+03  0.00000000000E+00 0. -1.
          2   -1    0    0  502    0  0.00000000000E+00 -0.00000000000E+00 -0.44341763307E+03  0.44341763307E+03  0.00000000000E+00 0.  1.
          6    1    1    2  502    0 -0.16328798445E+02 -0.97381981507E+02 -0.78859909763E+02  0.21343093812E+03  0.17200000000E+03 0.  1.
         -6    1    1    2    0  501  0.16328798445E+02  0.97381981507E+02 -0.26419320041E+03  0.33035121783E+03  0.17200000000E+03 0.  1.
</event>
<event>
 4    1  0.1059899E+000  0.2126008E+03  0.7818608E-02  0.1139523E+00
         -1   -1    0    0    0  501 -0.00000000000E+00  0.00000000000E+00  0.54878075543E+02  0.54878075543E+02  0.00000000000E+00 0. -1.
          1   -1    0    0  502    0  0.00000000000E+00 -0.00000000000E+00 -0.82386068070E+03  0.82386068070E+03  0.00000000000E+00 0.  1.
          6    1    1    2  502    0  0.98339557239E+02 -0.77100266703E+02 -0.39187514454E+03  0.44583096410E+03  0.17200000000E+03 0.  1.
         -6    1    1    2    0  501 -0.98339557239E+02  0.77100266703E+02 -0.37710746062E+03  0.43290779214E+03  0.17200000000E+03 0.  1.
</event>
<event>
 4    1  0.1059899E+000  0.1777906E+03  0.7818608E-02  0.1169959E+00
          2   -1    0    0  502    0  0.00000000000E+00  0.00000000000E+00  0.17746153957E+04  0.17746153957E+04  0.00000000000E+00 0. -1.
         -2   -1    0    0    0  501 -0.00000000000E+00 -0.00000000000E+00 -0.18713816571E+02  0.18713816571E+02  0.00000000000E+00 0.  1.
          6    1    1    2  502    0  0.45000828098E+02  0.63809050583E+00  0.68111522447E+03  0.70393709286E+03  0.17200000000E+03 0. -1.
         -6    1    1    2    0  501 -0.45000828098E+02 -0.63809050583E+00  0.10747863547E+04  0.10893921194E+04  0.17200000000E+03 0. -1.
</event>
<event>
 4    1  0.1059899E+000  0.1948627E+03  0.7818608E-02  0.1154147E+00
         -1   -1    0    0    0  501 -0.00000000000E+00  0.00000000000E+00  0.40534223314E+02  0.40534223314E+02  0.00000000000E+00 0.  1.
          1   -1    0    0  502    0  0.00000000000E+00 -0.00000000000E+00 -0.10430550615E+04  0.10430550615E+04  0.00000000000E+00 0. -1.
          6    1    1    2  502    0 -0.76275731035E+02  0.50690110601E+02 -0.67420446134E+03  0.70179992173E+03  0.17200000000E+03 0. -1.
         -6    1    1    2    0  501  0.76275731035E+02 -0.50690110601E+02 -0.32831637688E+03  0.38178936311E+03  0.17200000000E+03 0.  1.
</event>
<event>
 4    1  0.1059899E+000  0.2441221E+03  0.7818608E-02  0.1117077E+00
         -2   -1    0    0    0  501 -0.00000000000E+00  0.00000000000E+00  0.10172106301E+03  0.10172106301E+03  0.00000000000E+00 0.  1.
          2   -1    0    0  502    0  0.00000000000E+00 -0.00000000000E+00 -0.68766935852E+03  0.68766935852E+03  0.00000000000E+00 0. -1.
          6    1    1    2  502    0 -0.21826383723E+02 -0.17185812648E+03 -0.14111585527E+03  0.28197391949E+03  0.17200000000E+03 0.  1.
         -6    1    1    2    0  501  0.21826383723E+02  0.17185812648E+03 -0.44483244024E+03  0.50741650205E+03  0.17200000000E+03 0. -1.
</event>
<event>
 4    1  0.1059899E+000  0.2026066E+03  0.7818608E-02  0.1147558E+00
         -1   -1    0    0    0  501 -0.00000000000E+00  0.00000000000E+00  0.20014681071E+02  0.20014681071E+02  0.00000000000E+00 0.  1.
          1   -1    0    0  502    0  0.00000000000E+00 -0.00000000000E+00 -0.22617934408E+04  0.22617934408E+04  0.00000000000E+00 0. -1.
          6    1    1    2  502    0 -0.65876940879E+02  0.84413718747E+02 -0.14692149495E+04  0.14831190158E+04  0.17200000000E+03 0. -1.
         -6    1    1    2    0  501  0.65876940879E+02 -0.84413718747E+02 -0.77256381027E+03  0.79868910609E+03  0.17200000000E+03 0. -1.
</event>
<event>
 4    1  0.1059899E+000  0.1869788E+03  0.7818608E-02  0.1161215E+00
          2   -1    0    0  502    0  0.00000000000E+00  0.00000000000E+00  0.58027357305E+03  0.58027357305E+03  0.00000000000E+00 0.  1.
         -2   -1    0    0    0  501 -0.00000000000E+00 -0.00000000000E+00 -0.60430454305E+02  0.60430454305E+02  0.00000000000E+00 0. -1.
          6    1    1    2  502    0  0.54752856527E+02  0.48776841231E+02  0.24238003506E+03  0.30611948147E+03  0.17200000000E+03 0.  1.
         -6    1    1    2    0  501 -0.54752856527E+02 -0.48776841231E+02  0.27746308368E+03  0.33458454588E+03  0.17200000000E+03 0. -1.
</event>
<event>
 4    1  0.1059899E+000  0.1725631E+03  0.7818608E-02  0.1175201E+00
         -2   -1    0    0    0  501 -0.00000000000E+00  0.00000000000E+00  0.12814298287E+02  0.12814298287E+02  0.00000000000E+00 0.  1.
          2   -1    0    0  502    0  0.00000000000E+00 -0.00000000000E+00 -0.27942299662E+04  0.27942299662E+04  0.00000000000E+00 0. -1.
          6    1    1    2  502    0 -0.88975935764E+01 -0.10717776192E+02 -0.19665845276E+04  0.19741410137E+04  0.17200000000E+03 0. -1.
         -6    1    1    2    0  501  0.88975935764E+01  0.10717776192E+02 -0.81483114031E+03  0.83290325076E+03  0.17200000000E+03 0.  1.
</event>
<event>
 4    1  0.1059899E+000  0.2130974E+03  0.7818608E-02  0.1139136E+00
          2   -1    0    0  502    0  0.00000000000E+00  0.00000000000E+00  0.44627899357E+03  0.44627899357E+03  0.00000000000E+00 0.  1.
         -2   -1    0    0    0  501 -0.00000000000E+00 -0.00000000000E+00 -0.10842492712E+03  0.10842492712E+03  0.00000000000E+00 0. -1.
          6    1    1    2  502    0 -0.12251624053E+03  0.28570402921E+02  0.23772452036E+03  0.31925451398E+03  0.17200000000E+03 0.  1.
         -6    1    1    2    0  501  0.12251624053E+03 -0.28570402921E+02  0.10012954609E+03  0.23544940670E+03  0.17200000000E+03 0. -1.
</event>
<event>
 4    1  0.1059899E+000  0.2603206E+03  0.7818608E-02  0.1106951E+00
         -1   -1    0    0    0  501 -0.00000000000E+00  0.00000000000E+00  0.28376272822E+04  0.28376272822E+04  0.00000000000E+00 0.  1.
          1   -1    0    0  502    0  0.00000000000E+00 -0.00000000000E+00 -0.38264468864E+02  0.38264468864E+02  0.00000000000E+00 0. -1.
          6    1    1    2  502    0 -0.14409563934E+03  0.13198209538E+03  0.22812757620E+04  0.22960805580E+04  0.17200000000E+03 0.  1.
         -6    1    1    2    0  501  0.14409563934E+03 -0.13198209538E+03  0.51808705130E+03  0.57981119298E+03  0.17200000000E+03 0. -1.
</event>
<event>
 4    1  0.1059899E+000  0.1755512E+03  0.7818608E-02  0.1172179E+00
          1   -1    0    0  502    0  0.00000000000E+00  0.00000000000E+00  0.82093913085E+02  0.82093913085E+02  0.00000000000E+00 0. -1.
         -1   -1    0    0    0  501 -0.00000000000E+00 -0.00000000000E+00 -0.38914378338E+03  0.38914378338E+03  0.00000000000E+00 0.  1.
          6    1    1    2  502    0 -0.34896579760E+02 -0.40581557229E+01 -0.19780135896E+03  0.26446855676E+03  0.17200000000E+03 0.  1.
         -6    1    1    2    0  501  0.34896579760E+02  0.40581557229E+01 -0.10924851133E+03  0.20676913971E+03  0.17200000000E+03 0.  1.
</event>
<event>
 4    1  0.1059899E+000  0.2468598E+03  0.7818608E-02  0.1115306E+00
          2   -1    0    0  502    0  0.00000000000E+00  0.00000000000E+00  0.13196557844E+04  0.13196557844E+04  0.00000000000E+00 0. -1.
         -2   -1    0    0    0  501 -0.00000000000E+00 -0.00000000000E+00 -0.49723143703E+02  0.49723143703E+02  0.00000000000E+00 0.  1.
          6    1    1    2  502    0  0.17463566280E+03 -0.29294296113E+02  0.45215692155E+03  0.51515594941E+03  0.17200000000E+03 0.  1.
         -6    1    1    2    0  501 -0.17463566280E+03  0.29294296113E+02  0.81777571919E+03  0.85422297874E+03  0.17200000000E+03 0. -1.
</event>
<event>
 4    1  0.1059899E+000  0.1883525E+03  0.7818608E-02  0.1159956E+00
          2   -1    0    0  502    0  0.00000000000E+00  0.00000000000E+00  0.27632833995E+03  0.27632833995E+03  0.00000000000E+00 0.  1.
         -2   -1    0    0    0  501 -0.00000000000E+00 -0.00000000000E+00 -0.14792762875E+03  0.14792762875E+03  0.00000000000E+00 0. -1.
          6    1    1    2  502    0  0.76372137442E+02  0.77430931907E+01 -0.12899747485E+02  0.18879370317E+03  0.17200000000E+03 0. -1.
         -6    1    1    2    0  501 -0.76372137442E+02 -0.77430931907E+01  0.14130045868E+03  0.23546226554E+03  0.17200000000E+03 0.  1.
</event>
<event>
 4    1  0.1059899E+000  0.1731362E+03  0.7818608E-02  0.1174616E+00
          3   -1    0    0  502    0  0.00000000000E+00  0.00000000000E+00  0.24203340249E+03  0.24203340249E+03  0.00000000000E+00 0. -1.
         -3   -1    0    0    0  501 -0.00000000000E+00 -0.00000000000E+00 -0.13018283907E+03  0.13018283907E+03  0.00000000000E+00 0.  1.
          6    1    1    2  502    0 -0.70907100566E+01  0.18489720098E+02  0.96968708513E+02  0.19844162454E+03  0.17200000000E+03 0. -1.
         -6    1    1    2    0  501  0.70907100566E+01 -0.18489720098E+02  0.14881854908E+02  0.17377461703E+03  0.17200000000E+03 0.  1.
</event>
<event>
 4    1  0.1059899E+000  0.1774876E+03  0.7818608E-02  0.1170257E+00
          1   -1    0    0  502    0  0.00000000000E+00  0.00000000000E+00  0.41466335041E+02  0.41466335041E+02  0.00000000000E+00 0.  1.
         -1   -1    0    0    0  501 -0.00000000000E+00 -0.00000000000E+00 -0.10093369582E+04  0.10093369582E+04  0.00000000000E+00 0. -1.
          6    1    1    2  502    0 -0.36842579017E+02 -0.23674379791E+02 -0.74522986645E+03  0.76607402105E+03  0.17200000000E+03 0. -1.
         -6    1    1    2    0  501  0.36842579017E+02  0.23674379791E+02 -0.22264075668E+03  0.28472927216E+03  0.17200000000E+03 0.  1.
</event>
<event>
 4    1  0.1059899E+000  0.1979160E+03  0.7818608E-02  0.1151509E+00
          1   -1    0    0  502    0  0.00000000000E+00  0.00000000000E+00  0.11401633721E+03  0.11401633721E+03  0.00000000000E+00 0. -1.
         -1   -1    0    0    0  501 -0.00000000000E+00 -0.00000000000E+00 -0.35139125639E+03  0.35139125639E+03  0.00000000000E+00 0.  1.
          6    1    1    2  502    0 -0.37328676360E+02 -0.90517020539E+02 -0.15344042556E+03  0.25042908234E+03  0.17200000000E+03 0.  1.
         -6    1    1    2    0  501  0.37328676360E+02  0.90517020539E+02 -0.83934493619E+02  0.21497851126E+03  0.17200000000E+03 0. -1.
</event>
<event>
 4    1  0.1059899E+000  0.2377761E+03  0.7818608E-02  0.1121283E+00
          1   -1    0    0  502    0  0.00000000000E+00  0.00000000000E+00  0.53497220668E+03  0.53497220668E+03  0.00000000000E+00 0.  1.
         -1   -1    0    0    0  501 -0.00000000000E+00 -0.00000000000E+00 -0.11801302734E+03  0.11801302734E+03  0.00000000000E+00 0. -1.
          6    1    1    2  502    0 -0.16249045737E+03  0.23459136308E+02  0.10294617001E+03  0.25910498593E+03  0.17200000000E+03 0. -1.
         -6    1    1    2    0  501  0.16249045737E+03 -0.23459136308E+02  0.31401300933E+03  0.39388024809E+03  0.17200000000E+03 0. -1.
</event>
<event>
 4    1  0.1059899E+000  0.2012230E+03  0.7818608E-02  0.1148711E+00
         -4   -1    0    0    0  501 -0.00000000000E+00  0.00000000000E+00  0.38198667062E+03  0.38198667062E+03  0.00000000000E+00 0.  1.
          4   -1    0    0  502    0  0.00000000000E+00 -0.00000000000E+00 -0.10774336905E+03  0.10774336905E+03  0.00000000000E+00 0. -1.
          6    1    1    2  502    0  0.92887844722E+02 -0.47734118580E+02  0.10597652830E+03  0.22742410234E+03  0.17200000000E+03 0. -1.
         -6    1    1    2    0  501 -0.92887844722E+02  0.47734118580E+02  0.16826677326E+03  0.26230593733E+03  0.17200000000E+03 0. -1.
</event>
