<event>
 4    1  0.4531281E+000  0.2711000E+03  0.7546771E-02  0.1100652E+00
         21   -1    0    0  501  502  0.00000000000E+00  0.00000000000E+00  0.22529759065E+03  0.22529759065E+03  0.00000000000E+00 0. -1.
         21   -1    0    0  502  503 -0.00000000000E+00 -0.00000000000E+00 -0.68406985898E+03  0.68406985898E+03  0.00000000000E+00 0. -1.
          6    1    1    2  501    0  0.10833574402E+03  0.17840843094E+03  0.99475582203E+02  0.28877429442E+03  0.17300000000E+03 0. -1.
         -6    1    1    2    0  503 -0.10833574402E+03 -0.17840843094E+03 -0.55824785053E+03  0.62059315520E+03  0.17300000000E+03 0. -1.
<mgrwt>
<rscale>  2 0.27109998E+03</rscale>
<asrwt>0</asrwt>
<pdfrwt beam="1">  1       21 0.34661169E-01 0.27109998E+03</pdfrwt>
<pdfrwt beam="2">  1       21 0.10524151E+00 0.27109998E+03</pdfrwt>
<totfact> 0.55287130E+03</totfact>
</mgrwt>
</event>
<event>
 4    1  0.4531281E+000  0.2382966E+03  0.7546771E-02  0.1120933E+00
         21   -1    0    0  503  502  0.00000000000E+00  0.00000000000E+00  0.12472697004E+03  0.12472697004E+03  0.00000000000E+00 0.  1.
         21   -1    0    0  501  503 -0.00000000000E+00 -0.00000000000E+00 -0.61678486118E+03  0.61678486118E+03  0.00000000000E+00 0.  1.
          6    1    1    2  501    0 -0.15966631425E+03  0.36918077223E+02 -0.43575131855E+03  0.49665328747E+03  0.17300000000E+03 0.  1.
         -6    1    1    2    0  502  0.15966631425E+03 -0.36918077223E+02 -0.56306572588E+02  0.24485854376E+03  0.17300000000E+03 0.  1.
<mgrwt>
<rscale>  2 0.23829661E+03</rscale>
<asrwt>0</asrwt>
<pdfrwt beam="1">  1       21 0.19188765E-01 0.23829661E+03</pdfrwt>
<pdfrwt beam="2">  1       21 0.94889979E-01 0.23829661E+03</pdfrwt>
<totfact> 0.22574889E+04</totfact>
</mgrwt>
</event>
<event>
 4    1  0.4531281E+000  0.4150147E+03  0.7546771E-02  0.1038701E+00
         21   -1    0    0  503  502  0.00000000000E+00  0.00000000000E+00  0.43632233184E+03  0.43632233184E+03  0.00000000000E+00 0. -1.
         21   -1    0    0  501  503 -0.00000000000E+00 -0.00000000000E+00 -0.39503753975E+03  0.39503753975E+03  0.00000000000E+00 0. -1.
          6    1    1    2  501    0 -0.31224614134E+03 -0.21168494478E+03  0.93798614327E+01  0.41512064563E+03  0.17300000000E+03 0. -1.
         -6    1    1    2    0  502  0.31224614134E+03  0.21168494478E+03  0.31904930658E+02  0.41623922596E+03  0.17300000000E+03 0. -1.
<mgrwt>
<rscale>  2 0.41501466E+03</rscale>
<asrwt>0</asrwt>
<pdfrwt beam="1">  1       21 0.67126513E-01 0.41501466E+03</pdfrwt>
<pdfrwt beam="2">  1       21 0.60775006E-01 0.41501466E+03</pdfrwt>
<totfact> 0.45522038E+03</totfact>
</mgrwt>
</event>
<event>
 4    1  0.4531281E+000  0.5018568E+03  0.7546771E-02  0.1013295E+00
         21   -1    0    0  503  502  0.00000000000E+00  0.00000000000E+00  0.54628974627E+03  0.54628974627E+03  0.00000000000E+00 0.  1.
         21   -1    0    0  501  503 -0.00000000000E+00 -0.00000000000E+00 -0.52815676754E+03  0.52815676754E+03  0.00000000000E+00 0. -1.
          6    1    1    2  501    0 -0.47023592672E+03  0.28450871704E+02 -0.18244537420E+03  0.53399119229E+03  0.17300000000E+03 0. -1.
         -6    1    1    2    0  502  0.47023592672E+03 -0.28450871704E+02  0.20057835293E+03  0.54045532151E+03  0.17300000000E+03 0.  1.
<mgrwt>
<rscale>  2 0.50185683E+03</rscale>
<asrwt>0</asrwt>
<pdfrwt beam="1">  1       21 0.84044576E-01 0.50185683E+03</pdfrwt>
<pdfrwt beam="2">  1       21 0.81254888E-01 0.50185683E+03</pdfrwt>
<totfact> 0.13720485E+03</totfact>
</mgrwt>
</event>
<event>
 4    1  0.4531281E+000  0.2193675E+03  0.7546771E-02  0.1134355E+00
         21   -1    0    0  501  502  0.00000000000E+00  0.00000000000E+00  0.64805821000E+03  0.64805821000E+03  0.00000000000E+00 0.  1.
         21   -1    0    0  502  503 -0.00000000000E+00 -0.00000000000E+00 -0.90338622116E+02  0.90338622116E+02  0.00000000000E+00 0.  1.
          6    1    1    2  501    0  0.74883704521E+02  0.11218533400E+03  0.43463683318E+03  0.48685859869E+03  0.17300000000E+03 0.  1.
         -6    1    1    2    0  503 -0.74883704521E+02 -0.11218533400E+03  0.12308275470E+03  0.25153823342E+03  0.17300000000E+03 0.  1.
<mgrwt>
<rscale>  2 0.21936754E+03</rscale>
<asrwt>0</asrwt>
<pdfrwt beam="1">  1       21 0.99701260E-01 0.21936754E+03</pdfrwt>
<pdfrwt beam="2">  1       21 0.13898250E-01 0.21936754E+03</pdfrwt>
<totfact> 0.36724634E+04</totfact>
</mgrwt>
</event>
<event>
 4    1  0.4531281E+000  0.2170533E+03  0.7546771E-02  0.1136099E+00
         21   -1    0    0  503  502  0.00000000000E+00  0.00000000000E+00  0.30310300113E+03  0.30310300113E+03  0.00000000000E+00 0.  1.
         21   -1    0    0  501  503 -0.00000000000E+00 -0.00000000000E+00 -0.26099794264E+03  0.26099794264E+03  0.00000000000E+00 0. -1.
          6    1    1    2  501    0  0.79788399717E+02  0.10400460411E+03 -0.15832521983E+03  0.26866153733E+03  0.17300000000E+03 0. -1.
         -6    1    1    2    0  502 -0.79788399717E+02 -0.10400460411E+03  0.20043027833E+03  0.29543940644E+03  0.17300000000E+03 0.  1.
<mgrwt>
<rscale>  2 0.21705333E+03</rscale>
<asrwt>0</asrwt>
<pdfrwt beam="1">  1       21 0.46631231E-01 0.21705333E+03</pdfrwt>
<pdfrwt beam="2">  1       21 0.40153530E-01 0.21705333E+03</pdfrwt>
<totfact> 0.25967488E+04</totfact>
</mgrwt>
</event>
<event>
 4    1  0.4531281E+000  0.1944104E+03  0.7546771E-02  0.1154542E+00
         21   -1    0    0  501  502  0.00000000000E+00  0.00000000000E+00  0.43114691149E+02  0.43114691149E+02  0.00000000000E+00 0. -1.
         21   -1    0    0  502  503 -0.00000000000E+00 -0.00000000000E+00 -0.94239652593E+03  0.94239652593E+03  0.00000000000E+00 0. -1.
          6    1    1    2  501    0  0.86654488378E+02  0.18905437434E+02 -0.31946408107E+03  0.37396886904E+03  0.17300000000E+03 0. -1.
         -6    1    1    2    0  503 -0.86654488378E+02 -0.18905437434E+02 -0.57981775371E+03  0.61154234803E+03  0.17300000000E+03 0. -1.
<mgrwt>
<rscale>  2 0.19441043E+03</rscale>
<asrwt>0</asrwt>
<pdfrwt beam="1">  1       21 0.66330298E-02 0.19441043E+03</pdfrwt>
<pdfrwt beam="2">  1       21 0.14498407E+00 0.19441043E+03</pdfrwt>
<totfact> 0.54186885E+04</totfact>
</mgrwt>
</event>
<event>
 4    1  0.4531281E+000  0.1887495E+03  0.7546771E-02  0.1159594E+00
         21   -1    0    0  501  502  0.00000000000E+00  0.00000000000E+00  0.92356385349E+03  0.92356385349E+03  0.00000000000E+00 0.  1.
         21   -1    0    0  502  503 -0.00000000000E+00 -0.00000000000E+00 -0.73226952694E+02  0.73226952694E+02  0.00000000000E+00 0.  1.
          6    1    1    2  501    0  0.37422263579E+02  0.65551210569E+02  0.76801754349E+03  0.79087125003E+03  0.17300000000E+03 0.  1.
         -6    1    1    2    0  503 -0.37422263579E+02 -0.65551210569E+02  0.82319357306E+02  0.20591955615E+03  0.17300000000E+03 0.  1.
<mgrwt>
<rscale>  2 0.18874954E+03</rscale>
<asrwt>0</asrwt>
<pdfrwt beam="1">  1       21 0.14208674E+00 0.18874954E+03</pdfrwt>
<pdfrwt beam="2">  1       21 0.11265686E-01 0.18874954E+03</pdfrwt>
<totfact> 0.22677050E+04</totfact>
</mgrwt>
</event>
<event>
 4    1  0.4531281E+000  0.1773158E+03  0.7546771E-02  0.1170426E+00
         21   -1    0    0  503  502  0.00000000000E+00  0.00000000000E+00  0.28542346569E+04  0.28542346569E+04  0.00000000000E+00 0.  1.
         21   -1    0    0  501  503 -0.00000000000E+00 -0.00000000000E+00 -0.26786796905E+02  0.26786796905E+02  0.00000000000E+00 0.  1.
          6    1    1    2  501    0 -0.37070397823E+02 -0.11733424524E+02  0.30840020817E+03  0.35574088329E+03  0.17300000000E+03 0.  1.
         -6    1    1    2    0  502  0.37070397823E+02  0.11733424524E+02  0.25190476518E+04  0.25252805705E+04  0.17300000000E+03 0.  1.
<mgrwt>
<rscale>  2 0.17731579E+03</rscale>
<asrwt>0</asrwt>
<pdfrwt beam="1">  1       21 0.43911278E+00 0.17731579E+03</pdfrwt>
<pdfrwt beam="2">  1       21 0.41210479E-02 0.17731579E+03</pdfrwt>
<totfact> 0.18744888E+03</totfact>
</mgrwt>
</event>
<event>
 4    1  0.4531281E+000  0.2859768E+03  0.7546771E-02  0.1092469E+00
         21   -1    0    0  503  502  0.00000000000E+00  0.00000000000E+00  0.37466076682E+02  0.37466076682E+02  0.00000000000E+00 0.  1.
         21   -1    0    0  501  503 -0.00000000000E+00 -0.00000000000E+00 -0.21832513915E+04  0.21832513915E+04  0.00000000000E+00 0.  1.
          6    1    1    2  501    0 -0.65150529568E+02  0.21819514260E+03 -0.10880049894E+04  0.11249611410E+04  0.17300000000E+03 0.  1.
         -6    1    1    2    0  502  0.65150529568E+02 -0.21819514260E+03 -0.10577803253E+04  0.10957563271E+04  0.17300000000E+03 0.  1.
<mgrwt>
<rscale>  2 0.28597677E+03</rscale>
<asrwt>0</asrwt>
<pdfrwt beam="1">  1       21 0.57640104E-02 0.28597677E+03</pdfrwt>
<pdfrwt beam="2">  1       21 0.33588491E+00 0.28597677E+03</pdfrwt>
<totfact> 0.40589368E+03</totfact>
</mgrwt>
</event>
<event>
 4    1  0.4531281E+000  0.3026519E+03  0.7546771E-02  0.1083922E+00
         21   -1    0    0  501  502  0.00000000000E+00  0.00000000000E+00  0.92561249101E+03  0.92561249101E+03  0.00000000000E+00 0. -1.
         21   -1    0    0  502  503 -0.00000000000E+00 -0.00000000000E+00 -0.31015054055E+03  0.31015054055E+03  0.00000000000E+00 0.  1.
          6    1    1    2  501    0  0.21670437601E+02  0.24738551783E+03  0.81759763953E+03  0.87181655322E+03  0.17300000000E+03 0. -1.
         -6    1    1    2    0  503 -0.21670437601E+02 -0.24738551783E+03 -0.20213568908E+03  0.36394647834E+03  0.17300000000E+03 0.  1.
<mgrwt>
<rscale>  2 0.30265195E+03</rscale>
<asrwt>0</asrwt>
<pdfrwt beam="1">  1       21 0.14240192E+00 0.30265195E+03</pdfrwt>
<pdfrwt beam="2">  1       21 0.47715468E-01 0.30265195E+03</pdfrwt>
<totfact> 0.13166302E+03</totfact>
</mgrwt>
</event>
<event>
 4    1  0.4531281E+000  0.1913304E+03  0.7546771E-02  0.1157267E+00
         21   -1    0    0  501  502  0.00000000000E+00  0.00000000000E+00  0.23076165268E+02  0.23076165268E+02  0.00000000000E+00 0. -1.
         21   -1    0    0  502  503 -0.00000000000E+00 -0.00000000000E+00 -0.16328921643E+04  0.16328921643E+04  0.00000000000E+00 0. -1.
          6    1    1    2  501    0 -0.62071459247E+01  0.81485041272E+02 -0.66515138846E+03  0.69212261210E+03  0.17300000000E+03 0. -1.
         -6    1    1    2    0  503  0.62071459247E+01 -0.81485041272E+02 -0.94466461062E+03  0.96384571751E+03  0.17300000000E+03 0. -1.
<mgrwt>
<rscale>  2 0.19133045E+03</rscale>
<asrwt>0</asrwt>
<pdfrwt beam="1">  1       21 0.35501795E-02 0.19133045E+03</pdfrwt>
<pdfrwt beam="2">  1       21 0.25121416E+00 0.19133045E+03</pdfrwt>
<totfact> 0.31322577E+04</totfact>
</mgrwt>
</event>
<event>
 4    1  0.4531281E+000  0.1897229E+03  0.7546771E-02  0.1158711E+00
         21   -1    0    0  503  502  0.00000000000E+00  0.00000000000E+00  0.56686347226E+03  0.56686347226E+03  0.00000000000E+00 0.  1.
         21   -1    0    0  501  503 -0.00000000000E+00 -0.00000000000E+00 -0.69179788688E+02  0.69179788688E+02  0.00000000000E+00 0.  1.
          6    1    1    2  501    0 -0.34530323856E+02  0.69810125230E+02  0.15770314062E+03  0.24670848671E+03  0.17300000000E+03 0.  1.
         -6    1    1    2    0  502  0.34530323856E+02 -0.69810125230E+02  0.33998054295E+03  0.38933477424E+03  0.17300000000E+03 0.  1.
<mgrwt>
<rscale>  2 0.18972295E+03</rscale>
<asrwt>0</asrwt>
<pdfrwt beam="1">  1       21 0.87209762E-01 0.18972295E+03</pdfrwt>
<pdfrwt beam="2">  1       21 0.10643045E-01 0.18972295E+03</pdfrwt>
<totfact> 0.82201141E+04</totfact>
</mgrwt>
</event>
<event>
 4    1  0.4531281E+000  0.2627939E+03  0.7546771E-02  0.1105476E+00
         21   -1    0    0  501  502  0.00000000000E+00  0.00000000000E+00  0.37351469348E+03  0.37351469348E+03  0.00000000000E+00 0.  1.
         21   -1    0    0  502  503 -0.00000000000E+00 -0.00000000000E+00 -0.19808840578E+03  0.19808840578E+03  0.00000000000E+00 0.  1.
          6    1    1    2  501    0 -0.18061443180E+03 -0.80685012759E+02  0.16147454415E+03  0.30843909069E+03  0.17300000000E+03 0.  1.
         -6    1    1    2    0  503  0.18061443180E+03  0.80685012759E+02  0.13951743551E+02  0.26316400857E+03  0.17300000000E+03 0.  1.
<mgrwt>
<rscale>  2 0.26279392E+03</rscale>
<asrwt>0</asrwt>
<pdfrwt beam="1">  1       21 0.57463799E-01 0.26279392E+03</pdfrwt>
<pdfrwt beam="2">  1       21 0.30475139E-01 0.26279392E+03</pdfrwt>
<totfact> 0.28370645E+04</totfact>
</mgrwt>
</event>
<event>
 4    1  0.4531281E+000  0.1819042E+03  0.7546771E-02  0.1165973E+00
         21   -1    0    0  503  502  0.00000000000E+00  0.00000000000E+00  0.39155278543E+03  0.39155278543E+03  0.00000000000E+00 0. -1.
         21   -1    0    0  501  503 -0.00000000000E+00 -0.00000000000E+00 -0.12682634323E+03  0.12682634323E+03  0.00000000000E+00 0. -1.
          6    1    1    2  501    0 -0.18605945660E+02 -0.53046625907E+02 -0.17356823970E+02  0.18273036166E+03  0.17300000000E+03 0. -1.
         -6    1    1    2    0  502  0.18605945660E+02  0.53046625907E+02  0.28208326617E+03  0.33564876700E+03  0.17300000000E+03 0. -1.
<mgrwt>
<rscale>  2 0.18190417E+03</rscale>
<asrwt>0</asrwt>
<pdfrwt beam="1">  1       21 0.60238889E-01 0.18190417E+03</pdfrwt>
<pdfrwt beam="2">  1       21 0.19511745E-01 0.18190417E+03</pdfrwt>
<totfact> 0.62400100E+04</totfact>
</mgrwt>
</event>
<event>
 4    1  0.4531281E+000  0.1956088E+03  0.7546771E-02  0.1153498E+00
         21   -1    0    0  501  502  0.00000000000E+00  0.00000000000E+00  0.18728485579E+03  0.18728485579E+03  0.00000000000E+00 0.  1.
         21   -1    0    0  502  503 -0.00000000000E+00 -0.00000000000E+00 -0.38474890833E+03  0.38474890833E+03  0.00000000000E+00 0.  1.
          6    1    1    2  501    0  0.13074000940E+02  0.90348549251E+02  0.97142034233E+02  0.21840184218E+03  0.17300000000E+03 0.  1.
         -6    1    1    2    0  503 -0.13074000940E+02 -0.90348549251E+02 -0.29460608678E+03  0.35363192194E+03  0.17300000000E+03 0.  1.
<mgrwt>
<rscale>  2 0.19560877E+03</rscale>
<asrwt>0</asrwt>
<pdfrwt beam="1">  1       21 0.28813055E-01 0.19560877E+03</pdfrwt>
<pdfrwt beam="2">  1       21 0.59192139E-01 0.19560877E+03</pdfrwt>
<totfact> 0.30699397E+04</totfact>
</mgrwt>
</event>
<event>
 4    1  0.4531281E+000  0.1856405E+03  0.7546771E-02  0.1162453E+00
         21   -1    0    0  503  502  0.00000000000E+00  0.00000000000E+00  0.66022415771E+02  0.66022415771E+02  0.00000000000E+00 0. -1.
         21   -1    0    0  501  503 -0.00000000000E+00 -0.00000000000E+00 -0.52606611032E+03  0.52606611032E+03  0.00000000000E+00 0. -1.
          6    1    1    2  501    0  0.61152333780E+02  0.28174062323E+02 -0.25611264759E+03  0.31631641433E+03  0.17300000000E+03 0. -1.
         -6    1    1    2    0  502 -0.61152333780E+02 -0.28174062323E+02 -0.20393104695E+03  0.27577211176E+03  0.17300000000E+03 0. -1.
<mgrwt>
<rscale>  2 0.18564047E+03</rscale>
<asrwt>0</asrwt>
<pdfrwt beam="1">  1       21 0.10157295E-01 0.18564047E+03</pdfrwt>
<pdfrwt beam="2">  1       21 0.80933247E-01 0.18564047E+03</pdfrwt>
<totfact> 0.10604090E+05</totfact>
</mgrwt>
</event>
<event>
 4    1  0.4531281E+000  0.1974641E+03  0.7546771E-02  0.1151896E+00
         21   -1    0    0  503  502  0.00000000000E+00  0.00000000000E+00  0.37812228303E+03  0.37812228303E+03  0.00000000000E+00 0. -1.
         21   -1    0    0  501  503 -0.00000000000E+00 -0.00000000000E+00 -0.10968442744E+03  0.10968442744E+03  0.00000000000E+00 0. -1.
          6    1    1    2  501    0  0.57028151888E+02  0.76229033935E+02  0.74551893781E+02  0.21106885272E+03  0.17300000000E+03 0. -1.
         -6    1    1    2    0  502 -0.57028151888E+02 -0.76229033935E+02  0.19388596181E+03  0.27673785774E+03  0.17300000000E+03 0. -1.
<mgrwt>
<rscale>  2 0.19746411E+03</rscale>
<asrwt>0</asrwt>
<pdfrwt beam="1">  1       21 0.58172658E-01 0.19746411E+03</pdfrwt>
<pdfrwt beam="2">  1       21 0.16874527E-01 0.19746411E+03</pdfrwt>
<totfact> 0.87382069E+04</totfact>
</mgrwt>
</event>
<event>
 4    1  0.4531281E+000  0.1938275E+03  0.7546771E-02  0.1155054E+00
         21   -1    0    0  503  502  0.00000000000E+00  0.00000000000E+00  0.13231725741E+03  0.13231725741E+03  0.00000000000E+00 0. -1.
         21   -1    0    0  501  503 -0.00000000000E+00 -0.00000000000E+00 -0.31634313970E+03  0.31634313970E+03  0.00000000000E+00 0. -1.
          6    1    1    2  501    0 -0.85220795426E+02  0.19430222300E+02 -0.20207893641E+02  0.19487810672E+03  0.17300000000E+03 0. -1.
         -6    1    1    2    0  502  0.85220795426E+02 -0.19430222300E+02 -0.16381798865E+03  0.25378229039E+03  0.17300000000E+03 0. -1.
<mgrwt>
<rscale>  2 0.19382755E+03</rscale>
<asrwt>0</asrwt>
<pdfrwt beam="1">  1       21 0.20356501E-01 0.19382755E+03</pdfrwt>
<pdfrwt beam="2">  1       21 0.48668175E-01 0.19382755E+03</pdfrwt>
<totfact> 0.89978400E+04</totfact>
</mgrwt>
</event>
<event>
 4    1  0.4531281E+000  0.1796069E+03  0.7546771E-02  0.1168184E+00
         21   -1    0    0  501  502  0.00000000000E+00  0.00000000000E+00  0.22693644416E+03  0.22693644416E+03  0.00000000000E+00 0. -1.
         21   -1    0    0  502  503 -0.00000000000E+00 -0.00000000000E+00 -0.44743161413E+03  0.44743161413E+03  0.00000000000E+00 0.  1.
          6    1    1    2  501    0 -0.43175079924E+02 -0.21576813788E+02  0.16827161826E+03  0.24611782530E+03  0.17300000000E+03 0.  1.
         -6    1    1    2    0  503  0.43175079924E+02  0.21576813788E+02 -0.38876678823E+03  0.42825023299E+03  0.17300000000E+03 0.  1.
<mgrwt>
<rscale>  2 0.17960692E+03</rscale>
<asrwt>0</asrwt>
<pdfrwt beam="1">  1       21 0.34913299E-01 0.17960692E+03</pdfrwt>
<pdfrwt beam="2">  1       21 0.68835632E-01 0.17960692E+03</pdfrwt>
<totfact> 0.15331386E+04</totfact>
</mgrwt>
</event>
<event>
 4    1  0.4531281E+000  0.1736170E+03  0.7546771E-02  0.1174128E+00
         21   -1    0    0  501  502  0.00000000000E+00  0.00000000000E+00  0.40840469380E+03  0.40840469380E+03  0.00000000000E+00 0.  1.
         21   -1    0    0  502  503 -0.00000000000E+00 -0.00000000000E+00 -0.10895932092E+03  0.10895932092E+03  0.00000000000E+00 0.  1.
          6    1    1    2  501    0 -0.14621694952E+02 -0.25024905502E+00  0.29665424796E+03  0.34372459822E+03  0.17300000000E+03 0.  1.
         -6    1    1    2    0  503  0.14621694952E+02  0.25024905502E+00  0.27911249244E+01  0.17363941651E+03  0.17300000000E+03 0.  1.
<mgrwt>
<rscale>  2 0.17361698E+03</rscale>
<asrwt>0</asrwt>
<pdfrwt beam="1">  1       21 0.62831491E-01 0.17361698E+03</pdfrwt>
<pdfrwt beam="2">  1       21 0.16762973E-01 0.17361698E+03</pdfrwt>
<totfact> 0.75715209E+04</totfact>
</mgrwt>
</event>
<event>
 4    1  0.4531281E+000  0.1793561E+03  0.7546771E-02  0.1168428E+00
         21   -1    0    0  501  502  0.00000000000E+00  0.00000000000E+00  0.82467774101E+02  0.82467774101E+02  0.00000000000E+00 0. -1.
         21   -1    0    0  502  503 -0.00000000000E+00 -0.00000000000E+00 -0.39541888694E+03  0.39541888694E+03  0.00000000000E+00 0. -1.
          6    1    1    2  501    0 -0.41640098274E+02  0.22488446531E+02 -0.12869829640E+03  0.22075298301E+03  0.17300000000E+03 0.  1.
         -6    1    1    2    0  503  0.41640098274E+02 -0.22488446531E+02 -0.18425281644E+03  0.25713367803E+03  0.17300000000E+03 0.  1.
<mgrwt>
<rscale>  2 0.17935615E+03</rscale>
<asrwt>0</asrwt>
<pdfrwt beam="1">  1       21 0.12687350E-01 0.17935615E+03</pdfrwt>
<pdfrwt beam="2">  1       21 0.60833675E-01 0.17935615E+03</pdfrwt>
<totfact> 0.13419997E+05</totfact>
</mgrwt>
</event>
<event>
 4    1  0.4531281E+000  0.1955592E+03  0.7546771E-02  0.1153541E+00
         21   -1    0    0  501  502  0.00000000000E+00  0.00000000000E+00  0.51453399034E+02  0.51453399034E+02  0.00000000000E+00 0. -1.
         21   -1    0    0  502  503 -0.00000000000E+00 -0.00000000000E+00 -0.75364638475E+03  0.75364638475E+03  0.00000000000E+00 0.  1.
          6    1    1    2  501    0 -0.54376602092E+02  0.73195565178E+02 -0.39834697398E+03  0.44376087851E+03  0.17300000000E+03 0. -1.
         -6    1    1    2    0  503  0.54376602092E+02 -0.73195565178E+02 -0.30384601174E+03  0.36133890528E+03  0.17300000000E+03 0. -1.
<mgrwt>
<rscale>  2 0.19555921E+03</rscale>
<asrwt>0</asrwt>
<pdfrwt beam="1">  1       21 0.79159077E-02 0.19555921E+03</pdfrwt>
<pdfrwt beam="2">  1       21 0.11594560E+00 0.19555921E+03</pdfrwt>
<totfact> 0.70142986E+04</totfact>
</mgrwt>
</event>
<event>
 4    1  0.4531281E+000  0.1860213E+03  0.7546771E-02  0.1162100E+00
         21   -1    0    0  501  502  0.00000000000E+00  0.00000000000E+00  0.11715580931E+04  0.11715580931E+04  0.00000000000E+00 0.  1.
         21   -1    0    0  502  503 -0.00000000000E+00 -0.00000000000E+00 -0.29958749025E+02  0.29958749025E+02  0.00000000000E+00 0.  1.
          6    1    1    2  501    0  0.60856886923E+02  0.31166534295E+02  0.64210793356E+03  0.66851066700E+03  0.17300000000E+03 0.  1.
         -6    1    1    2    0  503 -0.60856886923E+02 -0.31166534295E+02  0.49949141047E+03  0.53300617508E+03  0.17300000000E+03 0.  1.
<mgrwt>
<rscale>  2 0.18602127E+03</rscale>
<asrwt>0</asrwt>
<pdfrwt beam="1">  1       21 0.18023967E+00 0.18602127E+03</pdfrwt>
<pdfrwt beam="2">  1       21 0.46090392E-02 0.18602127E+03</pdfrwt>
<totfact> 0.56186417E+04</totfact>
</mgrwt>
</event>
<event>
 4    1  0.4531281E+000  0.1824482E+03  0.7546771E-02  0.1165455E+00
         21   -1    0    0  501  502  0.00000000000E+00  0.00000000000E+00  0.14793791245E+03  0.14793791245E+03  0.00000000000E+00 0. -1.
         21   -1    0    0  502  503 -0.00000000000E+00 -0.00000000000E+00 -0.22626462747E+03  0.22626462747E+03  0.00000000000E+00 0. -1.
          6    1    1    2  501    0  0.57902353769E+02 -0.23779356491E+01 -0.25224487939E+02  0.18418363647E+03  0.17300000000E+03 0.  1.
         -6    1    1    2    0  503 -0.57902353769E+02  0.23779356491E+01 -0.53102227076E+02  0.19001890346E+03  0.17300000000E+03 0.  1.
<mgrwt>
<rscale>  2 0.18244818E+03</rscale>
<asrwt>0</asrwt>
<pdfrwt beam="1">  1       21 0.22759679E-01 0.18244818E+03</pdfrwt>
<pdfrwt beam="2">  1       21 0.34809942E-01 0.18244818E+03</pdfrwt>
<totfact> 0.14449943E+05</totfact>
</mgrwt>
</event>
<event>
 4    1  0.4531281E+000  0.2151733E+03  0.7546771E-02  0.1137534E+00
         21   -1    0    0  503  502  0.00000000000E+00  0.00000000000E+00  0.10065071005E+03  0.10065071005E+03  0.00000000000E+00 0. -1.
         21   -1    0    0  501  503 -0.00000000000E+00 -0.00000000000E+00 -0.46028296135E+03  0.46028296135E+03  0.00000000000E+00 0.  1.
          6    1    1    2  501    0 -0.88710294469E+02  0.92201067744E+02 -0.18674237134E+03  0.28490747005E+03  0.17300000000E+03 0.  1.
         -6    1    1    2    0  502  0.88710294469E+02 -0.92201067744E+02 -0.17288987996E+03  0.27602620135E+03  0.17300000000E+03 0. -1.
<mgrwt>
<rscale>  2 0.21517331E+03</rscale>
<asrwt>0</asrwt>
<pdfrwt beam="1">  1       21 0.15484725E-01 0.21517331E+03</pdfrwt>
<pdfrwt beam="2">  1       21 0.70812763E-01 0.21517331E+03</pdfrwt>
<totfact> 0.66186784E+04</totfact>
</mgrwt>
</event>
<event>
 4    1  0.4531281E+000  0.2755024E+03  0.7546771E-02  0.1098171E+00
         21   -1    0    0  503  502  0.00000000000E+00  0.00000000000E+00  0.10347530976E+04  0.10347530976E+04  0.00000000000E+00 0.  1.
         21   -1    0    0  501  503 -0.00000000000E+00 -0.00000000000E+00 -0.10522181646E+03  0.10522181646E+03  0.00000000000E+00 0. -1.
          6    1    1    2  501    0 -0.20696667555E+03 -0.56012210607E+02  0.15107627902E+03  0.31420632490E+03  0.17300000000E+03 0.  1.
         -6    1    1    2    0  502  0.20696667555E+03  0.56012210607E+02  0.77845500210E+03  0.82576858914E+03  0.17300000000E+03 0. -1.
<mgrwt>
<rscale>  2 0.27550240E+03</rscale>
<asrwt>0</asrwt>
<pdfrwt beam="1">  1       21 0.15919278E+00 0.27550240E+03</pdfrwt>
<pdfrwt beam="2">  1       21 0.16187973E-01 0.27550240E+03</pdfrwt>
<totfact> 0.82322055E+03</totfact>
</mgrwt>
</event>
<event>
 4    1  0.4531281E+000  0.1944361E+03  0.7546771E-02  0.1154520E+00
         21   -1    0    0  501  502  0.00000000000E+00  0.00000000000E+00  0.10778290621E+04  0.10778290621E+04  0.00000000000E+00 0. -1.
         21   -1    0    0  502  503 -0.00000000000E+00 -0.00000000000E+00 -0.68957925200E+02  0.68957925200E+02  0.00000000000E+00 0. -1.
          6    1    1    2  501    0 -0.22468880853E+02  0.85857749150E+02  0.90636318695E+03  0.92698415863E+03  0.17300000000E+03 0. -1.
         -6    1    1    2    0  503  0.22468880853E+02 -0.85857749150E+02  0.10250794999E+03  0.21980282870E+03  0.17300000000E+03 0. -1.
<mgrwt>
<rscale>  2 0.19443612E+03</rscale>
<asrwt>0</asrwt>
<pdfrwt beam="1">  1       21 0.16581984E+00 0.19443612E+03</pdfrwt>
<pdfrwt beam="2">  1       21 0.10608912E-01 0.19443612E+03</pdfrwt>
<totfact> 0.16674577E+04</totfact>
</mgrwt>
</event>
<event>
 4    1  0.4531281E+000  0.2563227E+03  0.7546771E-02  0.1109373E+00
         21   -1    0    0  501  502  0.00000000000E+00  0.00000000000E+00  0.35923267610E+03  0.35923267610E+03  0.00000000000E+00 0. -1.
         21   -1    0    0  502  503 -0.00000000000E+00 -0.00000000000E+00 -0.35178439642E+03  0.35178439642E+03  0.00000000000E+00 0. -1.
          6    1    1    2  501    0 -0.17421322193E+03 -0.73634882295E+02  0.25005271335E+03  0.35808895828E+03  0.17300000000E+03 0. -1.
         -6    1    1    2    0  503  0.17421322193E+03  0.73634882295E+02 -0.24260443367E+03  0.35292811424E+03  0.17300000000E+03 0. -1.
<mgrwt>
<rscale>  2 0.25632273E+03</rscale>
<asrwt>0</asrwt>
<pdfrwt beam="1">  1       21 0.55266566E-01 0.25632273E+03</pdfrwt>
<pdfrwt beam="2">  1       21 0.54120676E-01 0.25632273E+03</pdfrwt>
<totfact> 0.95789622E+03</totfact>
</mgrwt>
</event>
<event>
 4    1  0.4531281E+000  0.4654845E+03  0.7546771E-02  0.1023202E+00
         21   -1    0    0  501  502  0.00000000000E+00  0.00000000000E+00  0.59381548367E+03  0.59381548367E+03  0.00000000000E+00 0.  1.
         21   -1    0    0  502  503 -0.00000000000E+00 -0.00000000000E+00 -0.60481996214E+03  0.60481996214E+03  0.00000000000E+00 0.  1.
          6    1    1    2  501    0  0.27126476483E+03 -0.33639600559E+03  0.37197308857E+03  0.59585218288E+03  0.17300000000E+03 0.  1.
         -6    1    1    2    0  503 -0.27126476483E+03  0.33639600559E+03 -0.38297756704E+03  0.60278326293E+03  0.17300000000E+03 0.  1.
<mgrwt>
<rscale>  2 0.46548453E+03</rscale>
<asrwt>0</asrwt>
<pdfrwt beam="1">  1       21 0.91356228E-01 0.46548453E+03</pdfrwt>
<pdfrwt beam="2">  1       21 0.93049225E-01 0.46548453E+03</pdfrwt>
<totfact> 0.83032333E+02</totfact>
</mgrwt>
</event>
<event>
 4    1  0.4531281E+000  0.1915339E+03  0.7546771E-02  0.1157085E+00
         21   -1    0    0  503  502  0.00000000000E+00  0.00000000000E+00  0.53446494054E+02  0.53446494054E+02  0.00000000000E+00 0. -1.
         21   -1    0    0  501  503 -0.00000000000E+00 -0.00000000000E+00 -0.10680818786E+04  0.10680818786E+04  0.00000000000E+00 0.  1.
          6    1    1    2  501    0  0.66394682261E+02  0.48455893919E+02 -0.84254046523E+03  0.86403684125E+03  0.17300000000E+03 0.  1.
         -6    1    1    2    0  502 -0.66394682261E+02 -0.48455893919E+02 -0.17209491930E+03  0.25749153139E+03  0.17300000000E+03 0. -1.
<mgrwt>
<rscale>  2 0.19153388E+03</rscale>
<asrwt>0</asrwt>
<pdfrwt beam="1">  1       21 0.82225374E-02 0.19153388E+03</pdfrwt>
<pdfrwt beam="2">  1       21 0.16432029E+00 0.19153388E+03</pdfrwt>
<totfact> 0.26809524E+04</totfact>
</mgrwt>
</event>
<event>
 4    1  0.4531281E+000  0.1908804E+03  0.7546771E-02  0.1157670E+00
         21   -1    0    0  501  502  0.00000000000E+00  0.00000000000E+00  0.72987766758E+03  0.72987766758E+03  0.00000000000E+00 0. -1.
         21   -1    0    0  502  503 -0.00000000000E+00 -0.00000000000E+00 -0.57662990649E+02  0.57662990649E+02  0.00000000000E+00 0.  1.
          6    1    1    2  501    0  0.26166681717E+02  0.76299678815E+02  0.48040350878E+03  0.51693603808E+03  0.17300000000E+03 0. -1.
         -6    1    1    2    0  503 -0.26166681717E+02 -0.76299678815E+02  0.19181116816E+03  0.27060462016E+03  0.17300000000E+03 0. -1.
<mgrwt>
<rscale>  2 0.19088042E+03</rscale>
<asrwt>0</asrwt>
<pdfrwt beam="1">  1       21 0.11228887E+00 0.19088042E+03</pdfrwt>
<pdfrwt beam="2">  1       21 0.88712299E-02 0.19088042E+03</pdfrwt>
<totfact> 0.62297997E+04</totfact>
</mgrwt>
</event>
<event>
 4    1  0.4531281E+000  0.2956917E+03  0.7546771E-02  0.1087414E+00
         21   -1    0    0  503  502  0.00000000000E+00  0.00000000000E+00  0.97176826765E+03  0.97176826765E+03  0.00000000000E+00 0. -1.
         21   -1    0    0  501  503 -0.00000000000E+00 -0.00000000000E+00 -0.10498064296E+03  0.10498064296E+03  0.00000000000E+00 0.  1.
          6    1    1    2  501    0 -0.11545618307E+03 -0.21017726002E+03  0.22984171293E+03  0.37451411701E+03  0.17300000000E+03 0.  1.
         -6    1    1    2    0  502  0.11545618307E+03  0.21017726002E+03  0.63694591175E+03  0.70223479359E+03  0.17300000000E+03 0. -1.
<mgrwt>
<rscale>  2 0.29569175E+03</rscale>
<asrwt>0</asrwt>
<pdfrwt beam="1">  1       21 0.14950280E+00 0.29569175E+03</pdfrwt>
<pdfrwt beam="2">  1       21 0.16150869E-01 0.29569175E+03</pdfrwt>
<totfact> 0.96900033E+03</totfact>
</mgrwt>
</event>
<event>
 4    1  0.4531281E+000  0.2108634E+03  0.7546771E-02  0.1140884E+00
         21   -1    0    0  501  502  0.00000000000E+00  0.00000000000E+00  0.35595204768E+03  0.35595204768E+03  0.00000000000E+00 0. -1.
         21   -1    0    0  502  503 -0.00000000000E+00 -0.00000000000E+00 -0.20319243823E+03  0.20319243823E+03  0.00000000000E+00 0. -1.
          6    1    1    2  501    0  0.82707027996E+02  0.87714924957E+02  0.24990463066E+03  0.32697963999E+03  0.17300000000E+03 0. -1.
         -6    1    1    2    0  503 -0.82707027996E+02 -0.87714924957E+02 -0.97145021211E+02  0.23216484593E+03  0.17300000000E+03 0. -1.
<mgrwt>
<rscale>  2 0.21086337E+03</rscale>
<asrwt>0</asrwt>
<pdfrwt beam="1">  1       21 0.54761853E-01 0.21086337E+03</pdfrwt>
<pdfrwt beam="2">  1       21 0.31260375E-01 0.21086337E+03</pdfrwt>
<totfact> 0.30649369E+04</totfact>
</mgrwt>
</event>
<event>
 4    1  0.4531281E+000  0.1760511E+03  0.7546771E-02  0.1171680E+00
         21   -1    0    0  501  502  0.00000000000E+00  0.00000000000E+00  0.16244692325E+04  0.16244692325E+04  0.00000000000E+00 0.  1.
         21   -1    0    0  502  503 -0.00000000000E+00 -0.00000000000E+00 -0.42377855945E+02  0.42377855945E+02  0.00000000000E+00 0.  1.
          6    1    1    2  501    0 -0.32053868625E+02 -0.61281304545E+01  0.14090040820E+04  0.14199600373E+04  0.17300000000E+03 0.  1.
         -6    1    1    2    0  503  0.32053868625E+02  0.61281304545E+01  0.17308729453E+03  0.24688705111E+03  0.17300000000E+03 0.  1.
<mgrwt>
<rscale>  2 0.17605114E+03</rscale>
<asrwt>0</asrwt>
<pdfrwt beam="1">  1       21 0.24991830E+00 0.17605114E+03</pdfrwt>
<pdfrwt beam="2">  1       21 0.65196714E-02 0.17605114E+03</pdfrwt>
<totfact> 0.11566770E+04</totfact>
</mgrwt>
</event>
<event>
 4    1  0.4531281E+000  0.1847223E+03  0.7546771E-02  0.1163310E+00
         21   -1    0    0  503  502  0.00000000000E+00  0.00000000000E+00  0.12161469101E+03  0.12161469101E+03  0.00000000000E+00 0.  1.
         21   -1    0    0  501  503 -0.00000000000E+00 -0.00000000000E+00 -0.40442108310E+03  0.40442108310E+03  0.00000000000E+00 0.  1.
          6    1    1    2  501    0 -0.20010014683E+02 -0.61586636789E+02 -0.28695098030E+03  0.34126702099E+03  0.17300000000E+03 0.  1.
         -6    1    1    2    0  502  0.20010014683E+02  0.61586636789E+02  0.41445882142E+01  0.18476875312E+03  0.17300000000E+03 0.  1.
<mgrwt>
<rscale>  2 0.18472226E+03</rscale>
<asrwt>0</asrwt>
<pdfrwt beam="1">  1       21 0.18709953E-01 0.18472226E+03</pdfrwt>
<pdfrwt beam="2">  1       21 0.62218627E-01 0.18472226E+03</pdfrwt>
<totfact> 0.62845921E+04</totfact>
</mgrwt>
</event>
<event>
 4    1  0.4531281E+000  0.1756920E+03  0.7546771E-02  0.1172039E+00
         21   -1    0    0  503  502  0.00000000000E+00  0.00000000000E+00  0.75026856626E+02  0.75026856626E+02  0.00000000000E+00 0. -1.
         21   -1    0    0  501  503 -0.00000000000E+00 -0.00000000000E+00 -0.44428416565E+03  0.44428416565E+03  0.00000000000E+00 0. -1.
          6    1    1    2  501    0  0.21116545242E+02  0.22198039297E+02 -0.25524716647E+03  0.30986896815E+03  0.17300000000E+03 0. -1.
         -6    1    1    2    0  502 -0.21116545242E+02 -0.22198039297E+02 -0.11401014256E+03  0.20944205413E+03  0.17300000000E+03 0. -1.
<mgrwt>
<rscale>  2 0.17569195E+03</rscale>
<asrwt>0</asrwt>
<pdfrwt beam="1">  1       21 0.11542593E-01 0.17569195E+03</pdfrwt>
<pdfrwt beam="2">  1       21 0.68351410E-01 0.17569195E+03</pdfrwt>
<totfact> 0.12358233E+05</totfact>
</mgrwt>
</event>
<event>
 4    1  0.4531281E+000  0.2328099E+03  0.7546771E-02  0.1124677E+00
         21   -1    0    0  503  502  0.00000000000E+00  0.00000000000E+00  0.47074165462E+02  0.47074165462E+02  0.00000000000E+00 0. -1.
         21   -1    0    0  501  503 -0.00000000000E+00 -0.00000000000E+00 -0.12654650666E+04  0.12654650666E+04  0.00000000000E+00 0. -1.
          6    1    1    2  501    0 -0.13893064730E+03  0.70496435875E+02 -0.80623923414E+03  0.83917946525E+03  0.17300000000E+03 0. -1.
         -6    1    1    2    0  502  0.13893064730E+03 -0.70496435875E+02 -0.41215166703E+03  0.47335976684E+03  0.17300000000E+03 0. -1.
<mgrwt>
<rscale>  2 0.23280995E+03</rscale>
<asrwt>0</asrwt>
<pdfrwt beam="1">  1       21 0.72421792E-02 0.23280995E+03</pdfrwt>
<pdfrwt beam="2">  1       21 0.19468693E+00 0.23280995E+03</pdfrwt>
<totfact> 0.20147987E+04</totfact>
</mgrwt>
</event>
<event>
 4    1  0.4531281E+000  0.1854704E+03  0.7546771E-02  0.1162611E+00
         21   -1    0    0  501  502  0.00000000000E+00  0.00000000000E+00  0.26814174118E+02  0.26814174118E+02  0.00000000000E+00 0. -1.
         21   -1    0    0  502  503 -0.00000000000E+00 -0.00000000000E+00 -0.12841021531E+04  0.12841021531E+04  0.00000000000E+00 0. -1.
          6    1    1    2  501    0  0.62260525504E+01 -0.66569463791E+02 -0.64889928809E+03  0.67488483708E+03  0.17300000000E+03 0. -1.
         -6    1    1    2    0  503 -0.62260525504E+01  0.66569463791E+02 -0.60838869090E+03  0.63603149015E+03  0.17300000000E+03 0. -1.
<mgrwt>
<rscale>  2 0.18547037E+03</rscale>
<asrwt>0</asrwt>
<pdfrwt beam="1">  1       21 0.41252580E-02 0.18547037E+03</pdfrwt>
<pdfrwt beam="2">  1       21 0.19755416E+00 0.18547037E+03</pdfrwt>
<totfact> 0.52046660E+04</totfact>
</mgrwt>
</event>
<event>
 4    1  0.4531281E+000  0.2334684E+03  0.7546771E-02  0.1124222E+00
         21   -1    0    0  501  502  0.00000000000E+00  0.00000000000E+00  0.15296929391E+03  0.15296929391E+03  0.00000000000E+00 0.  1.
         21   -1    0    0  502  503 -0.00000000000E+00 -0.00000000000E+00 -0.37225814251E+03  0.37225814251E+03  0.00000000000E+00 0.  1.
          6    1    1    2  501    0  0.11847464550E+03 -0.10267558310E+03 -0.55321807823E+02  0.23993336453E+03  0.17300000000E+03 0.  1.
         -6    1    1    2    0  503 -0.11847464550E+03  0.10267558310E+03 -0.16396704078E+03  0.28529407189E+03  0.17300000000E+03 0.  1.
<mgrwt>
<rscale>  2 0.23346845E+03</rscale>
<asrwt>0</asrwt>
<pdfrwt beam="1">  1       21 0.23533738E-01 0.23346845E+03</pdfrwt>
<pdfrwt beam="2">  1       21 0.57270483E-01 0.23346845E+03</pdfrwt>
<totfact> 0.47723574E+04</totfact>
</mgrwt>
</event>
<event>
 4    1  0.4531281E+000  0.1749748E+03  0.7546771E-02  0.1172757E+00
         21   -1    0    0  503  502  0.00000000000E+00  0.00000000000E+00  0.15841089659E+03  0.15841089659E+03  0.00000000000E+00 0. -1.
         21   -1    0    0  501  503 -0.00000000000E+00 -0.00000000000E+00 -0.19390852772E+03  0.19390852772E+03  0.00000000000E+00 0. -1.
          6    1    1    2  501    0  0.94775114062E+01 -0.24441176935E+02 -0.27851562063E+02  0.17717760542E+03  0.17300000000E+03 0. -1.
         -6    1    1    2    0  502 -0.94775114062E+01  0.24441176935E+02 -0.76460690721E+01  0.17514181889E+03  0.17300000000E+03 0. -1.
<mgrwt>
<rscale>  2 0.17497484E+03</rscale>
<asrwt>0</asrwt>
<pdfrwt beam="1">  1       21 0.24370907E-01 0.17497484E+03</pdfrwt>
<pdfrwt beam="2">  1       21 0.29832081E-01 0.17497484E+03</pdfrwt>
<totfact> 0.17223235E+05</totfact>
</mgrwt>
</event>
<event>
 4    1  0.4531281E+000  0.1931985E+03  0.7546771E-02  0.1155608E+00
         21   -1    0    0  503  502  0.00000000000E+00  0.00000000000E+00  0.74892242646E+02  0.74892242646E+02  0.00000000000E+00 0.  1.
         21   -1    0    0  501  503 -0.00000000000E+00 -0.00000000000E+00 -0.61780362108E+03  0.61780362108E+03  0.00000000000E+00 0.  1.
          6    1    1    2  501    0 -0.76259613721E+02 -0.39763635380E+02 -0.42372456369E+03  0.46569107921E+03  0.17300000000E+03 0.  1.
         -6    1    1    2    0  502  0.76259613721E+02  0.39763635380E+02 -0.11918681475E+03  0.22700478452E+03  0.17300000000E+03 0.  1.
<mgrwt>
<rscale>  2 0.19319854E+03</rscale>
<asrwt>0</asrwt>
<pdfrwt beam="1">  1       21 0.11521884E-01 0.19319854E+03</pdfrwt>
<pdfrwt beam="2">  1       21 0.95046709E-01 0.19319854E+03</pdfrwt>
<totfact> 0.58376372E+04</totfact>
</mgrwt>
</event>
<event>
 4    1  0.4531281E+000  0.2847489E+03  0.7546771E-02  0.1093123E+00
         21   -1    0    0  503  502  0.00000000000E+00  0.00000000000E+00  0.99242051048E+03  0.99242051048E+03  0.00000000000E+00 0. -1.
         21   -1    0    0  501  503 -0.00000000000E+00 -0.00000000000E+00 -0.92451968449E+02  0.92451968449E+02  0.00000000000E+00 0.  1.
          6    1    1    2  501    0 -0.18038755124E+03 -0.13643046570E+03  0.26501035481E+03  0.38898898284E+03  0.17300000000E+03 0. -1.
         -6    1    1    2    0  502  0.18038755124E+03  0.13643046570E+03  0.63495818722E+03  0.69588349609E+03  0.17300000000E+03 0.  1.
<mgrwt>
<rscale>  2 0.28474891E+03</rscale>
<asrwt>0</asrwt>
<pdfrwt beam="1">  1       21 0.15268007E+00 0.28474891E+03</pdfrwt>
<pdfrwt beam="2">  1       21 0.14223380E-01 0.28474891E+03</pdfrwt>
<totfact> 0.11635675E+04</totfact>
</mgrwt>
</event>
<event>
 4    1  0.4531281E+000  0.1823787E+03  0.7546771E-02  0.1165521E+00
         21   -1    0    0  503  502  0.00000000000E+00  0.00000000000E+00  0.71283911462E+03  0.71283911462E+03  0.00000000000E+00 0.  1.
         21   -1    0    0  501  503 -0.00000000000E+00 -0.00000000000E+00 -0.10187518491E+03  0.10187518491E+03  0.00000000000E+00 0. -1.
          6    1    1    2  501    0 -0.57510889303E+02 -0.50476393424E+01  0.55896100214E+01  0.18246431101E+03  0.17300000000E+03 0. -1.
         -6    1    1    2    0  502  0.57510889303E+02  0.50476393424E+01  0.60537431969E+03  0.63224998853E+03  0.17300000000E+03 0.  1.
<mgrwt>
<rscale>  2 0.18237867E+03</rscale>
<asrwt>0</asrwt>
<pdfrwt beam="1">  1       21 0.10966755E+00 0.18237867E+03</pdfrwt>
<pdfrwt beam="2">  1       21 0.15673106E-01 0.18237867E+03</pdfrwt>
<totfact> 0.23970245E+04</totfact>
</mgrwt>
</event>
<event>
 4    1  0.4531281E+000  0.2626781E+03  0.7546771E-02  0.1105545E+00
         21   -1    0    0  501  502  0.00000000000E+00  0.00000000000E+00  0.14764363523E+04  0.14764363523E+04  0.00000000000E+00 0. -1.
         21   -1    0    0  502  503 -0.00000000000E+00 -0.00000000000E+00 -0.46864858952E+02  0.46864858952E+02  0.00000000000E+00 0.  1.
          6    1    1    2  501    0  0.15678434784E+03 -0.12037203344E+03  0.67453680643E+03  0.72387820895E+03  0.17300000000E+03 0.  1.
         -6    1    1    2    0  503 -0.15678434784E+03  0.12037203344E+03  0.75503468693E+03  0.79942300231E+03  0.17300000000E+03 0. -1.
<mgrwt>
<rscale>  2 0.26267805E+03</rscale>
<asrwt>0</asrwt>
<pdfrwt beam="1">  1       21 0.22714402E+00 0.26267805E+03</pdfrwt>
<pdfrwt beam="2">  1       21 0.72099794E-02 0.26267805E+03</pdfrwt>
<totfact> 0.12399348E+04</totfact>
</mgrwt>
</event>
<event>
 4    1  0.4531281E+000  0.3469048E+03  0.7546771E-02  0.1063893E+00
         21   -1    0    0  501  502  0.00000000000E+00  0.00000000000E+00  0.61919973763E+02  0.61919973763E+02  0.00000000000E+00 0.  1.
         21   -1    0    0  502  503 -0.00000000000E+00 -0.00000000000E+00 -0.21878554715E+04  0.21878554715E+04  0.00000000000E+00 0. -1.
          6    1    1    2  501    0  0.26728669427E+03 -0.13773795296E+03 -0.14388831008E+04  0.14801106372E+04  0.17300000000E+03 0. -1.
         -6    1    1    2    0  503 -0.26728669427E+03  0.13773795296E+03 -0.68705239697E+03  0.76966480809E+03  0.17300000000E+03 0.  1.
<mgrwt>
<rscale>  2 0.34690477E+03</rscale>
<asrwt>0</asrwt>
<pdfrwt beam="1">  1       21 0.95261500E-02 0.34690477E+03</pdfrwt>
<pdfrwt beam="2">  1       21 0.33659314E+00 0.34690477E+03</pdfrwt>
<totfact> 0.15893884E+03</totfact>
</mgrwt>
</event>
<event>
 4    1  0.4531281E+000  0.1916409E+03  0.7546771E-02  0.1156990E+00
         21   -1    0    0  501  502  0.00000000000E+00  0.00000000000E+00  0.57570220679E+02  0.57570220679E+02  0.00000000000E+00 0.  1.
         21   -1    0    0  502  503 -0.00000000000E+00 -0.00000000000E+00 -0.69306800913E+03  0.69306800913E+03  0.00000000000E+00 0.  1.
          6    1    1    2  501    0  0.18249750998E+02 -0.80400147112E+02 -0.21189510618E+03  0.28570224551E+03  0.17300000000E+03 0.  1.
         -6    1    1    2    0  503 -0.18249750998E+02  0.80400147112E+02 -0.42360268227E+03  0.46493598429E+03  0.17300000000E+03 0.  1.
<mgrwt>
<rscale>  2 0.19164091E+03</rscale>
<asrwt>0</asrwt>
<pdfrwt beam="1">  1       21 0.88569573E-02 0.19164091E+03</pdfrwt>
<pdfrwt beam="2">  1       21 0.10662584E+00 0.19164091E+03</pdfrwt>
<totfact> 0.70774590E+04</totfact>
</mgrwt>
</event>
<event>
 4    1  0.4531281E+000  0.1762098E+03  0.7546771E-02  0.1171522E+00
         21   -1    0    0  503  502  0.00000000000E+00  0.00000000000E+00  0.12898598075E+03  0.12898598075E+03  0.00000000000E+00 0. -1.
         21   -1    0    0  501  503 -0.00000000000E+00 -0.00000000000E+00 -0.42325603350E+03  0.42325603350E+03  0.00000000000E+00 0.  1.
          6    1    1    2  501    0  0.25825761257E+02 -0.21305234614E+02 -0.32846462122E+03  0.37274507423E+03  0.17300000000E+03 0.  1.
         -6    1    1    2    0  502 -0.25825761257E+02  0.21305234614E+02  0.34194568467E+02  0.17949694003E+03  0.17300000000E+03 0.  1.
<mgrwt>
<rscale>  2 0.17620977E+03</rscale>
<asrwt>0</asrwt>
<pdfrwt beam="1">  1       21 0.19843997E-01 0.17620977E+03</pdfrwt>
<pdfrwt beam="2">  1       21 0.65116314E-01 0.17620977E+03</pdfrwt>
<totfact> 0.51252347E+04</totfact>
</mgrwt>
</event>
<event>
 4    1  0.4531281E+000  0.2973733E+03  0.7546771E-02  0.1086561E+00
         21   -1    0    0  501  502  0.00000000000E+00  0.00000000000E+00  0.23236058696E+03  0.23236058696E+03  0.00000000000E+00 0. -1.
         21   -1    0    0  502  503 -0.00000000000E+00 -0.00000000000E+00 -0.40338340807E+03  0.40338340807E+03  0.00000000000E+00 0.  1.
          6    1    1    2  501    0  0.23368607711E+03 -0.62391303743E+02 -0.99271375211E+01  0.29753891422E+03  0.17300000000E+03 0.  1.
         -6    1    1    2    0  503 -0.23368607711E+03  0.62391303743E+02 -0.16109568358E+03  0.33820508081E+03  0.17300000000E+03 0. -1.
<mgrwt>
<rscale>  2 0.29737326E+03</rscale>
<asrwt>0</asrwt>
<pdfrwt beam="1">  1       21 0.35747783E-01 0.29737326E+03</pdfrwt>
<pdfrwt beam="2">  1       21 0.62058986E-01 0.29737326E+03</pdfrwt>
<totfact> 0.17233987E+04</totfact>
</mgrwt>
</event>
<event>
 4    1  0.4531281E+000  0.1972154E+03  0.7546771E-02  0.1152110E+00
         21   -1    0    0  501  502  0.00000000000E+00  0.00000000000E+00  0.17317491615E+03  0.17317491615E+03  0.00000000000E+00 0.  1.
         21   -1    0    0  502  503 -0.00000000000E+00 -0.00000000000E+00 -0.24660157116E+03  0.24660157116E+03  0.00000000000E+00 0.  1.
          6    1    1    2  501    0 -0.94139706925E+02 -0.10131039843E+02 -0.99415611055E+02  0.22085603028E+03  0.17300000000E+03 0.  1.
         -6    1    1    2    0  503  0.94139706925E+02  0.10131039843E+02  0.25988956048E+02  0.19892045703E+03  0.17300000000E+03 0.  1.
<mgrwt>
<rscale>  2 0.19721542E+03</rscale>
<asrwt>0</asrwt>
<pdfrwt beam="1">  1       21 0.26642295E-01 0.19721542E+03</pdfrwt>
<pdfrwt beam="2">  1       21 0.37938703E-01 0.19721542E+03</pdfrwt>
<totfact> 0.89674361E+04</totfact>
</mgrwt>
</event>
<event>
 4    1  0.4531281E+000  0.1959267E+03  0.7546771E-02  0.1153222E+00
         21   -1    0    0  501  502  0.00000000000E+00  0.00000000000E+00  0.79448437490E+02  0.79448437490E+02  0.00000000000E+00 0. -1.
         21   -1    0    0  502  503 -0.00000000000E+00 -0.00000000000E+00 -0.83252428855E+03  0.83252428855E+03  0.00000000000E+00 0.  1.
          6    1    1    2  501    0 -0.35423130278E+02 -0.84873339842E+02 -0.81155245843E+02  0.21206946009E+03  0.17300000000E+03 0. -1.
         -6    1    1    2    0  503  0.35423130278E+02  0.84873339842E+02 -0.67192060522E+03  0.69990326596E+03  0.17300000000E+03 0.  1.
<mgrwt>
<rscale>  2 0.19592673E+03</rscale>
<asrwt>0</asrwt>
<pdfrwt beam="1">  1       21 0.12222837E-01 0.19592673E+03</pdfrwt>
<pdfrwt beam="2">  1       21 0.12808066E+00 0.19592673E+03</pdfrwt>
<totfact> 0.25429505E+04</totfact>
</mgrwt>
</event>
<event>
 4    1  0.4531281E+000  0.1841108E+03  0.7546771E-02  0.1163883E+00
         21   -1    0    0  501  502  0.00000000000E+00  0.00000000000E+00  0.75117381129E+02  0.75117381129E+02  0.00000000000E+00 0.  1.
         21   -1    0    0  502  503 -0.00000000000E+00 -0.00000000000E+00 -0.10176625691E+04  0.10176625691E+04  0.00000000000E+00 0.  1.
          6    1    1    2  501    0  0.75153516950E+01  0.62540564685E+02 -0.63641943620E+02  0.19480015331E+03  0.17300000000E+03 0.  1.
         -6    1    1    2    0  503 -0.75153516950E+01 -0.62540564685E+02 -0.87890324438E+03  0.89797979695E+03  0.17300000000E+03 0.  1.
<mgrwt>
<rscale>  2 0.18411084E+03</rscale>
<asrwt>0</asrwt>
<pdfrwt beam="1">  1       21 0.11556521E-01 0.18411084E+03</pdfrwt>
<pdfrwt beam="2">  1       21 0.15656346E+00 0.18411084E+03</pdfrwt>
<totfact> 0.16848438E+04</totfact>
</mgrwt>
</event>
<event>
 4    1  0.4531281E+000  0.1822113E+03  0.7546771E-02  0.1165680E+00
         21   -1    0    0  501  502  0.00000000000E+00  0.00000000000E+00  0.44388583429E+02  0.44388583429E+02  0.00000000000E+00 0.  1.
         21   -1    0    0  502  503 -0.00000000000E+00 -0.00000000000E+00 -0.75126559636E+03  0.75126559636E+03  0.00000000000E+00 0. -1.
          6    1    1    2  501    0  0.47431267676E+02  0.31972541001E+02 -0.37981995607E+03  0.42126496123E+03  0.17300000000E+03 0.  1.
         -6    1    1    2    0  503 -0.47431267676E+02 -0.31972541001E+02 -0.32705705686E+03  0.37438921856E+03  0.17300000000E+03 0.  1.
<mgrwt>
<rscale>  2 0.18221133E+03</rscale>
<asrwt>0</asrwt>
<pdfrwt beam="1">  1       21 0.68290137E-02 0.18221133E+03</pdfrwt>
<pdfrwt beam="2">  1       21 0.11557931E+00 0.18221133E+03</pdfrwt>
<totfact> 0.91839057E+04</totfact>
</mgrwt>
</event>
<event>
 4    1  0.4531281E+000  0.1906837E+03  0.7546771E-02  0.1157846E+00
         21   -1    0    0  503  502  0.00000000000E+00  0.00000000000E+00  0.52929421975E+03  0.52929421975E+03  0.00000000000E+00 0.  1.
         21   -1    0    0  501  503 -0.00000000000E+00 -0.00000000000E+00 -0.69244273798E+02  0.69244273798E+02  0.00000000000E+00 0.  1.
          6    1    1    2  501    0  0.69001757766E+02 -0.40866141791E+02  0.20338999173E+03  0.27879701013E+03  0.17300000000E+03 0.  1.
         -6    1    1    2    0  502 -0.69001757766E+02  0.40866141791E+02  0.25665995422E+03  0.31974148342E+03  0.17300000000E+03 0.  1.
<mgrwt>
<rscale>  2 0.19068373E+03</rscale>
<asrwt>0</asrwt>
<pdfrwt beam="1">  1       21 0.81429878E-01 0.19068373E+03</pdfrwt>
<pdfrwt beam="2">  1       21 0.10652966E-01 0.19068373E+03</pdfrwt>
<totfact> 0.95935506E+04</totfact>
</mgrwt>
</event>
<event>
 4    1  0.4531281E+000  0.1753927E+03  0.7546771E-02  0.1172338E+00
         21   -1    0    0  501  502  0.00000000000E+00  0.00000000000E+00  0.32369188194E+02  0.32369188194E+02  0.00000000000E+00 0.  1.
         21   -1    0    0  502  503 -0.00000000000E+00 -0.00000000000E+00 -0.98901031865E+03  0.98901031865E+03  0.00000000000E+00 0.  1.
          6    1    1    2  501    0  0.19813705676E+02 -0.21000550354E+02 -0.57926777697E+03  0.60523860046E+03  0.17300000000E+03 0. -1.
         -6    1    1    2    0  503 -0.19813705676E+02  0.21000550354E+02 -0.37737335348E+03  0.41614090639E+03  0.17300000000E+03 0. -1.
<mgrwt>
<rscale>  2 0.17539272E+03</rscale>
<asrwt>0</asrwt>
<pdfrwt beam="1">  1       21 0.49798755E-02 0.17539272E+03</pdfrwt>
<pdfrwt beam="2">  1       21 0.15215542E+00 0.17539272E+03</pdfrwt>
<totfact> 0.78658885E+04</totfact>
</mgrwt>
</event>
<event>
 4    1  0.4531281E+000  0.1937986E+03  0.7546771E-02  0.1155079E+00
         21   -1    0    0  503  502  0.00000000000E+00  0.00000000000E+00  0.16850317881E+03  0.16850317881E+03  0.00000000000E+00 0. -1.
         21   -1    0    0  501  503 -0.00000000000E+00 -0.00000000000E+00 -0.30463671431E+03  0.30463671431E+03  0.00000000000E+00 0. -1.
          6    1    1    2  501    0  0.40230540524E+02 -0.77526662875E+02 -0.19061310939E+03  0.27182942688E+03  0.17300000000E+03 0. -1.
         -6    1    1    2    0  502 -0.40230540524E+02  0.77526662875E+02  0.54479573885E+02  0.20131046624E+03  0.17300000000E+03 0. -1.
<mgrwt>
<rscale>  2 0.19379855E+03</rscale>
<asrwt>0</asrwt>
<pdfrwt beam="1">  1       21 0.25923566E-01 0.19379855E+03</pdfrwt>
<pdfrwt beam="2">  1       21 0.46867187E-01 0.19379855E+03</pdfrwt>
<totfact> 0.61556587E+04</totfact>
</mgrwt>
</event>
<event>
 4    1  0.4531281E+000  0.2230477E+03  0.7546771E-02  0.1131631E+00
         21   -1    0    0  501  502  0.00000000000E+00  0.00000000000E+00  0.53967820862E+03  0.53967820862E+03  0.00000000000E+00 0.  1.
         21   -1    0    0  502  503 -0.00000000000E+00 -0.00000000000E+00 -0.11575957334E+03  0.11575957334E+03  0.00000000000E+00 0.  1.
          6    1    1    2  501    0  0.62231978494E+02 -0.12628725518E+03  0.35985108934E+03  0.42337110963E+03  0.17300000000E+03 0.  1.
         -6    1    1    2    0  503 -0.62231978494E+02  0.12628725518E+03  0.64067545933E+02  0.23206667234E+03  0.17300000000E+03 0.  1.
<mgrwt>
<rscale>  2 0.22304773E+03</rscale>
<asrwt>0</asrwt>
<pdfrwt beam="1">  1       21 0.83027415E-01 0.22304773E+03</pdfrwt>
<pdfrwt beam="2">  1       21 0.17809166E-01 0.22304773E+03</pdfrwt>
<totfact> 0.35629945E+04</totfact>
</mgrwt>
</event>
<event>
 4    1  0.4531281E+000  0.1820100E+03  0.7546771E-02  0.1165872E+00
         21   -1    0    0  503  502  0.00000000000E+00  0.00000000000E+00  0.18158785788E+03  0.18158785788E+03  0.00000000000E+00 0. -1.
         21   -1    0    0  501  503 -0.00000000000E+00 -0.00000000000E+00 -0.23251620070E+03  0.23251620070E+03  0.00000000000E+00 0. -1.
          6    1    1    2  501    0 -0.10129982533E+02  0.55641950093E+02 -0.12155862284E+03  0.21887014859E+03  0.17300000000E+03 0. -1.
         -6    1    1    2    0  502  0.10129982533E+02 -0.55641950093E+02  0.70630280025E+02  0.19523391000E+03  0.17300000000E+03 0. -1.
<mgrwt>
<rscale>  2 0.18201001E+03</rscale>
<asrwt>0</asrwt>
<pdfrwt beam="1">  1       21 0.27936593E-01 0.18201001E+03</pdfrwt>
<pdfrwt beam="2">  1       21 0.35771723E-01 0.18201001E+03</pdfrwt>
<totfact> 0.92591272E+04</totfact>
</mgrwt>
</event>
<event>
 4    1  0.4531281E+000  0.2360949E+03  0.7546771E-02  0.1122422E+00
         21   -1    0    0  501  502  0.00000000000E+00  0.00000000000E+00  0.31552008307E+03  0.31552008307E+03  0.00000000000E+00 0. -1.
         21   -1    0    0  502  503 -0.00000000000E+00 -0.00000000000E+00 -0.18190820771E+03  0.18190820771E+03  0.00000000000E+00 0.  1.
          6    1    1    2  501    0 -0.16059342010E+03  0.46426887608E+01  0.10903832379E+03  0.26005798814E+03  0.17300000000E+03 0.  1.
         -6    1    1    2    0  503  0.16059342010E+03 -0.46426887608E+01  0.24573551578E+02  0.23737030264E+03  0.17300000000E+03 0.  1.
<mgrwt>
<rscale>  2 0.23609490E+03</rscale>
<asrwt>0</asrwt>
<pdfrwt beam="1">  1       21 0.48541551E-01 0.23609490E+03</pdfrwt>
<pdfrwt beam="2">  1       21 0.27985878E-01 0.23609490E+03</pdfrwt>
<totfact> 0.48440180E+04</totfact>
</mgrwt>
</event>
<event>
 4    1  0.4531281E+000  0.1752847E+03  0.7546771E-02  0.1172446E+00
         21   -1    0    0  501  502  0.00000000000E+00  0.00000000000E+00  0.50573078708E+03  0.50573078708E+03  0.00000000000E+00 0. -1.
         21   -1    0    0  502  503 -0.00000000000E+00 -0.00000000000E+00 -0.66782615050E+02  0.66782615050E+02  0.00000000000E+00 0. -1.
          6    1    1    2  501    0 -0.28046591963E+02  0.30190823645E+01  0.30548710880E+03  0.35220320813E+03  0.17300000000E+03 0.  1.
         -6    1    1    2    0  503  0.28046591963E+02 -0.30190823645E+01  0.13346106323E+03  0.22031019400E+03  0.17300000000E+03 0.  1.
<mgrwt>
<rscale>  2 0.17528470E+03</rscale>
<asrwt>0</asrwt>
<pdfrwt beam="1">  1       21 0.77804734E-01 0.17528470E+03</pdfrwt>
<pdfrwt beam="2">  1       21 0.10274249E-01 0.17528470E+03</pdfrwt>
<totfact> 0.11402492E+05</totfact>
</mgrwt>
</event>
<event>
 4    1  0.4531281E+000  0.2007872E+03  0.7546771E-02  0.1149077E+00
         21   -1    0    0  501  502  0.00000000000E+00  0.00000000000E+00  0.74329199083E+02  0.74329199083E+02  0.00000000000E+00 0.  1.
         21   -1    0    0  502  503 -0.00000000000E+00 -0.00000000000E+00 -0.55344370826E+03  0.55344370826E+03  0.00000000000E+00 0. -1.
          6    1    1    2  501    0 -0.94894604212E+02 -0.37168465555E+02 -0.19519922134E+03  0.28003252802E+03  0.17300000000E+03 0. -1.
         -6    1    1    2    0  503  0.94894604212E+02  0.37168465555E+02 -0.28391528784E+03  0.34774037932E+03  0.17300000000E+03 0.  1.
<mgrwt>
<rscale>  2 0.20078715E+03</rscale>
<asrwt>0</asrwt>
<pdfrwt beam="1">  1       21 0.11435262E-01 0.20078715E+03</pdfrwt>
<pdfrwt beam="2">  1       21 0.85145183E-01 0.20078715E+03</pdfrwt>
<totfact> 0.76057798E+04</totfact>
</mgrwt>
</event>
<event>
 4    1  0.4531281E+000  0.2103589E+03  0.7546771E-02  0.1141282E+00
         21   -1    0    0  503  502  0.00000000000E+00  0.00000000000E+00  0.40025349576E+02  0.40025349576E+02  0.00000000000E+00 0. -1.
         21   -1    0    0  501  503 -0.00000000000E+00 -0.00000000000E+00 -0.11065569227E+04  0.11065569227E+04  0.00000000000E+00 0. -1.
          6    1    1    2  501    0 -0.11705820079E+03 -0.24884749263E+02 -0.55037654462E+03  0.58920727591E+03  0.17300000000E+03 0. -1.
         -6    1    1    2    0  502  0.11705820079E+03  0.24884749263E+02 -0.51615502846E+03  0.55737499632E+03  0.17300000000E+03 0. -1.
<mgrwt>
<rscale>  2 0.21035891E+03</rscale>
<asrwt>0</asrwt>
<pdfrwt beam="1">  1       21 0.61577477E-02 0.21035891E+03</pdfrwt>
<pdfrwt beam="2">  1       21 0.17023948E+00 0.21035891E+03</pdfrwt>
<totfact> 0.39652505E+04</totfact>
</mgrwt>
</event>
<event>
 4    1  0.4531281E+000  0.2155672E+03  0.7546771E-02  0.1137232E+00
         21   -1    0    0  501  502  0.00000000000E+00  0.00000000000E+00  0.57930006628E+03  0.57930006628E+03  0.00000000000E+00 0. -1.
         21   -1    0    0  502  503 -0.00000000000E+00 -0.00000000000E+00 -0.82487012453E+02  0.82487012453E+02  0.00000000000E+00 0.  1.
          6    1    1    2  501    0 -0.12299106378E+03 -0.37595491107E+02  0.30330883886E+03  0.37210949256E+03  0.17300000000E+03 0. -1.
         -6    1    1    2    0  503  0.12299106378E+03  0.37595491107E+02  0.19350421496E+03  0.28967758617E+03  0.17300000000E+03 0.  1.
<mgrwt>
<rscale>  2 0.21556721E+03</rscale>
<asrwt>0</asrwt>
<pdfrwt beam="1">  1       21 0.89123085E-01 0.21556721E+03</pdfrwt>
<pdfrwt beam="2">  1       21 0.12690310E-01 0.21556721E+03</pdfrwt>
<totfact> 0.56419745E+04</totfact>
</mgrwt>
</event>
<event>
 4    1  0.4531281E+000  0.1922225E+03  0.7546771E-02  0.1156472E+00
         21   -1    0    0  501  502  0.00000000000E+00  0.00000000000E+00  0.31566629750E+03  0.31566629750E+03  0.00000000000E+00 0.  1.
         21   -1    0    0  502  503 -0.00000000000E+00 -0.00000000000E+00 -0.22646395464E+03  0.22646395464E+03  0.00000000000E+00 0.  1.
          6    1    1    2  501    0  0.69696293523E+02 -0.46507210604E+02  0.23301194018E+03  0.30206631430E+03  0.17300000000E+03 0.  1.
         -6    1    1    2    0  503 -0.69696293523E+02  0.46507210604E+02 -0.14380959732E+03  0.24006393784E+03  0.17300000000E+03 0.  1.
<mgrwt>
<rscale>  2 0.19222251E+03</rscale>
<asrwt>0</asrwt>
<pdfrwt beam="1">  1       21 0.48564046E-01 0.19222251E+03</pdfrwt>
<pdfrwt beam="2">  1       21 0.34840608E-01 0.19222251E+03</pdfrwt>
<totfact> 0.32158978E+04</totfact>
</mgrwt>
</event>
<event>
 4    1  0.4531281E+000  0.1808781E+03  0.7546771E-02  0.1166956E+00
         21   -1    0    0  501  502  0.00000000000E+00  0.00000000000E+00  0.95670340180E+03  0.95670340180E+03  0.00000000000E+00 0. -1.
         21   -1    0    0  502  503 -0.00000000000E+00 -0.00000000000E+00 -0.36589886307E+02  0.36589886307E+02  0.00000000000E+00 0. -1.
          6    1    1    2  501    0 -0.38776719948E+02 -0.35836678802E+02  0.33306395120E+03  0.37900989056E+03  0.17300000000E+03 0. -1.
         -6    1    1    2    0  503  0.38776719948E+02  0.35836678802E+02  0.58704956430E+03  0.61428339755E+03  0.17300000000E+03 0. -1.
<mgrwt>
<rscale>  2 0.18087814E+03</rscale>
<asrwt>0</asrwt>
<pdfrwt beam="1">  1       21 0.14718512E+00 0.18087814E+03</pdfrwt>
<pdfrwt beam="2">  1       21 0.56292140E-02 0.18087814E+03</pdfrwt>
<totfact> 0.69496475E+04</totfact>
</mgrwt>
</event>
<event>
 4    1  0.4531281E+000  0.2314741E+03  0.7546771E-02  0.1125606E+00
         21   -1    0    0  503  502  0.00000000000E+00  0.00000000000E+00  0.11125376845E+04  0.11125376845E+04  0.00000000000E+00 0. -1.
         21   -1    0    0  501  503 -0.00000000000E+00 -0.00000000000E+00 -0.64337234615E+02  0.64337234615E+02  0.00000000000E+00 0. -1.
          6    1    1    2  501    0  0.14673389638E+03 -0.46048280591E+02  0.22903662198E+03  0.32563484872E+03  0.17300000000E+03 0. -1.
         -6    1    1    2    0  502 -0.14673389638E+03  0.46048280591E+02  0.81916382787E+03  0.85124007036E+03  0.17300000000E+03 0. -1.
<mgrwt>
<rscale>  2 0.23147415E+03</rscale>
<asrwt>0</asrwt>
<pdfrwt beam="1">  1       21 0.17115963E+00 0.23147415E+03</pdfrwt>
<pdfrwt beam="2">  1       21 0.98980369E-02 0.23147415E+03</pdfrwt>
<totfact> 0.16848293E+04</totfact>
</mgrwt>
</event>
<event>
 4    1  0.4531281E+000  0.2046331E+03  0.7546771E-02  0.1145888E+00
         21   -1    0    0  501  502  0.00000000000E+00  0.00000000000E+00  0.27610814359E+03  0.27610814359E+03  0.00000000000E+00 0.  1.
         21   -1    0    0  502  503 -0.00000000000E+00 -0.00000000000E+00 -0.36653906870E+03  0.36653906870E+03  0.00000000000E+00 0. -1.
          6    1    1    2  501    0  0.10487428041E+03 -0.30775110626E+02  0.20080938043E+03  0.28670390544E+03  0.17300000000E+03 0.  1.
         -6    1    1    2    0  503 -0.10487428041E+03  0.30775110626E+02 -0.29124030554E+03  0.35594330686E+03  0.17300000000E+03 0. -1.
<mgrwt>
<rscale>  2 0.20463314E+03</rscale>
<asrwt>0</asrwt>
<pdfrwt beam="1">  1       21 0.42478176E-01 0.20463314E+03</pdfrwt>
<pdfrwt beam="2">  1       21 0.56390625E-01 0.20463314E+03</pdfrwt>
<totfact> 0.15655104E+04</totfact>
</mgrwt>
</event>
<event>
 4    1  0.4531281E+000  0.1789336E+03  0.7546771E-02  0.1168839E+00
         21   -1    0    0  501  502  0.00000000000E+00  0.00000000000E+00  0.18384437425E+03  0.18384437425E+03  0.00000000000E+00 0.  1.
         21   -1    0    0  502  503 -0.00000000000E+00 -0.00000000000E+00 -0.56515803270E+03  0.56515803270E+03  0.00000000000E+00 0.  1.
          6    1    1    2  501    0 -0.44856560535E+02 -0.87247137881E+01  0.12084377122E+03  0.21591768963E+03  0.17300000000E+03 0.  1.
         -6    1    1    2    0  503  0.44856560535E+02  0.87247137881E+01 -0.50215742967E+03  0.53308471731E+03  0.17300000000E+03 0.  1.
<mgrwt>
<rscale>  2 0.17893360E+03</rscale>
<asrwt>0</asrwt>
<pdfrwt beam="1">  1       21 0.28283750E-01 0.17893360E+03</pdfrwt>
<pdfrwt beam="2">  1       21 0.86947390E-01 0.17893360E+03</pdfrwt>
<totfact> 0.13716228E+04</totfact>
</mgrwt>
</event>
<event>
 4    1  0.4531281E+000  0.1895478E+03  0.7546771E-02  0.1158870E+00
         21   -1    0    0  501  502  0.00000000000E+00  0.00000000000E+00  0.37131623885E+03  0.37131623885E+03  0.00000000000E+00 0. -1.
         21   -1    0    0  502  503 -0.00000000000E+00 -0.00000000000E+00 -0.35478203356E+03  0.35478203356E+03  0.00000000000E+00 0. -1.
          6    1    1    2  501    0  0.54737554850E+02  0.54801177036E+02  0.31787599576E+03  0.37009933477E+03  0.17300000000E+03 0. -1.
         -6    1    1    2    0  503 -0.54737554850E+02 -0.54801177036E+02 -0.30134179048E+03  0.35599893764E+03  0.17300000000E+03 0. -1.
<mgrwt>
<rscale>  2 0.18954780E+03</rscale>
<asrwt>0</asrwt>
<pdfrwt beam="1">  1       21 0.57125575E-01 0.18954780E+03</pdfrwt>
<pdfrwt beam="2">  1       21 0.54581851E-01 0.18954780E+03</pdfrwt>
<totfact> 0.91431192E+03</totfact>
</mgrwt>
</event>
<event>
 4    1  0.4531281E+000  0.1912271E+03  0.7546771E-02  0.1157359E+00
         21   -1    0    0  503  502  0.00000000000E+00  0.00000000000E+00  0.12651601335E+04  0.12651601335E+04  0.00000000000E+00 0.  1.
         21   -1    0    0  501  503 -0.00000000000E+00 -0.00000000000E+00 -0.28910663255E+02  0.28910663255E+02  0.00000000000E+00 0.  1.
          6    1    1    2  501    0  0.75944464225E+02  0.29516556038E+02  0.62817790614E+03  0.65663937628E+03  0.17300000000E+03 0.  1.
         -6    1    1    2    0  502 -0.75944464225E+02 -0.29516556038E+02  0.60807156410E+03  0.63743142046E+03  0.17300000000E+03 0.  1.
<mgrwt>
<rscale>  2 0.19122706E+03</rscale>
<asrwt>0</asrwt>
<pdfrwt beam="1">  1       21 0.19463998E+00 0.19122706E+03</pdfrwt>
<pdfrwt beam="2">  1       21 0.44477953E-02 0.19122706E+03</pdfrwt>
<totfact> 0.47719776E+04</totfact>
</mgrwt>
</event>
<event>
 4    1  0.4531281E+000  0.2477628E+03  0.7546771E-02  0.1114727E+00
         21   -1    0    0  501  502  0.00000000000E+00  0.00000000000E+00  0.66177741623E+03  0.66177741623E+03  0.00000000000E+00 0. -1.
         21   -1    0    0  502  503 -0.00000000000E+00 -0.00000000000E+00 -0.10385237821E+03  0.10385237821E+03  0.00000000000E+00 0.  1.
          6    1    1    2  501    0 -0.55328264735E+02  0.16851163932E+03  0.40407349622E+03  0.47398499957E+03  0.17300000000E+03 0.  1.
         -6    1    1    2    0  503  0.55328264735E+02 -0.16851163932E+03  0.15385154180E+03  0.29164479487E+03  0.17300000000E+03 0.  1.
<mgrwt>
<rscale>  2 0.24776277E+03</rscale>
<asrwt>0</asrwt>
<pdfrwt beam="1">  1       21 0.10181191E+00 0.24776277E+03</pdfrwt>
<pdfrwt beam="2">  1       21 0.15977289E-01 0.24776277E+03</pdfrwt>
<totfact> 0.26696057E+04</totfact>
</mgrwt>
</event>
<event>
 4    1  0.4531281E+000  0.2279748E+03  0.7546771E-02  0.1128073E+00
         21   -1    0    0  501  502  0.00000000000E+00  0.00000000000E+00  0.52152979335E+03  0.52152979335E+03  0.00000000000E+00 0. -1.
         21   -1    0    0  502  503 -0.00000000000E+00 -0.00000000000E+00 -0.15634050765E+03  0.15634050765E+03  0.00000000000E+00 0. -1.
          6    1    1    2  501    0  0.98515100962E+02 -0.11107790810E+03  0.38668417356E+03  0.44888436915E+03  0.17300000000E+03 0. -1.
         -6    1    1    2    0  503 -0.98515100962E+02  0.11107790810E+03 -0.21494887859E+02  0.22898593186E+03  0.17300000000E+03 0. -1.
<mgrwt>
<rscale>  2 0.22797484E+03</rscale>
<asrwt>0</asrwt>
<pdfrwt beam="1">  1       21 0.80235352E-01 0.22797484E+03</pdfrwt>
<pdfrwt beam="2">  1       21 0.24052386E-01 0.22797484E+03</pdfrwt>
<totfact> 0.21830739E+04</totfact>
</mgrwt>
</event>
<event>
 4    1  0.4531281E+000  0.1750558E+03  0.7546771E-02  0.1172676E+00
         21   -1    0    0  501  502  0.00000000000E+00  0.00000000000E+00  0.66733724968E+02  0.66733724968E+02  0.00000000000E+00 0.  1.
         21   -1    0    0  502  503 -0.00000000000E+00 -0.00000000000E+00 -0.13056663714E+04  0.13056663714E+04  0.00000000000E+00 0.  1.
          6    1    1    2  501    0 -0.18036369539E+02 -0.19754073488E+02 -0.66959147542E+02  0.18742481555E+03  0.17300000000E+03 0.  1.
         -6    1    1    2    0  503  0.18036369539E+02  0.19754073488E+02 -0.11719734989E+04  0.11849752808E+04  0.17300000000E+03 0.  1.
<mgrwt>
<rscale>  2 0.17505580E+03</rscale>
<asrwt>0</asrwt>
<pdfrwt beam="1">  1       21 0.10266726E-01 0.17505580E+03</pdfrwt>
<pdfrwt beam="2">  1       21 0.20087176E+00 0.17505580E+03</pdfrwt>
<totfact> 0.10424439E+04</totfact>
</mgrwt>
</event>
<event>
 4    1  0.4531281E+000  0.2358721E+03  0.7546771E-02  0.1122574E+00
         21   -1    0    0  503  502  0.00000000000E+00  0.00000000000E+00  0.86297084230E+03  0.86297084230E+03  0.00000000000E+00 0. -1.
         21   -1    0    0  501  503 -0.00000000000E+00 -0.00000000000E+00 -0.72609311323E+02  0.72609311323E+02  0.00000000000E+00 0. -1.
          6    1    1    2  501    0 -0.15522145701E+03 -0.40161290606E+02  0.23855912280E+03  0.33547888912E+03  0.17300000000E+03 0. -1.
         -6    1    1    2    0  502  0.15522145701E+03  0.40161290606E+02  0.55180240818E+03  0.60010126450E+03  0.17300000000E+03 0. -1.
<mgrwt>
<rscale>  2 0.23587206E+03</rscale>
<asrwt>0</asrwt>
<pdfrwt beam="1">  1       21 0.13276474E+00 0.23587206E+03</pdfrwt>
<pdfrwt beam="2">  1       21 0.11170664E-01 0.23587206E+03</pdfrwt>
<totfact> 0.26652654E+04</totfact>
</mgrwt>
</event>
<event>
 4    1  0.4531281E+000  0.2963474E+03  0.7546771E-02  0.1087081E+00
         21   -1    0    0  503  502  0.00000000000E+00  0.00000000000E+00  0.10459044832E+04  0.10459044832E+04  0.00000000000E+00 0.  1.
         21   -1    0    0  501  503 -0.00000000000E+00 -0.00000000000E+00 -0.14848864630E+03  0.14848864630E+03  0.00000000000E+00 0.  1.
          6    1    1    2  501    0  0.24059973458E+03  0.21397236551E+01  0.55047024810E+02  0.30141663133E+03  0.17300000000E+03 0.  1.
         -6    1    1    2    0  502 -0.24059973458E+03 -0.21397236551E+01  0.84236881206E+03  0.89297649814E+03  0.17300000000E+03 0.  1.
<mgrwt>
<rscale>  2 0.29634745E+03</rscale>
<asrwt>0</asrwt>
<pdfrwt beam="1">  1       21 0.16090838E+00 0.29634745E+03</pdfrwt>
<pdfrwt beam="2">  1       21 0.22844408E-01 0.29634745E+03</pdfrwt>
<totfact> 0.41365216E+03</totfact>
</mgrwt>
</event>
<event>
 4    1  0.4531281E+000  0.1799716E+03  0.7546771E-02  0.1167831E+00
         21   -1    0    0  503  502  0.00000000000E+00  0.00000000000E+00  0.52684010280E+02  0.52684010280E+02  0.00000000000E+00 0. -1.
         21   -1    0    0  501  503 -0.00000000000E+00 -0.00000000000E+00 -0.64647142649E+03  0.64647142649E+03  0.00000000000E+00 0.  1.
          6    1    1    2  501    0  0.34944609267E+01  0.49482893917E+02 -0.37427748548E+03  0.41529917431E+03  0.17300000000E+03 0.  1.
         -6    1    1    2    0  502 -0.34944609267E+01 -0.49482893917E+02 -0.21950993073E+03  0.28385626246E+03  0.17300000000E+03 0. -1.
<mgrwt>
<rscale>  2 0.17997158E+03</rscale>
<asrwt>0</asrwt>
<pdfrwt beam="1">  1       21 0.81052327E-02 0.17997158E+03</pdfrwt>
<pdfrwt beam="2">  1       21 0.99457138E-01 0.17997158E+03</pdfrwt>
<totfact> 0.98062641E+04</totfact>
</mgrwt>
</event>
<event>
 4    1  0.4531281E+000  0.3882330E+03  0.7546771E-02  0.1047932E+00
         21   -1    0    0  503  502  0.00000000000E+00  0.00000000000E+00  0.27169347274E+03  0.27169347274E+03  0.00000000000E+00 0.  1.
         21   -1    0    0  501  503 -0.00000000000E+00 -0.00000000000E+00 -0.63060856239E+03  0.63060856239E+03  0.00000000000E+00 0.  1.
          6    1    1    2  501    0 -0.15076946318E+03 -0.31315238291E+03 -0.33592133355E+03  0.51338873019E+03  0.17300000000E+03 0.  1.
         -6    1    1    2    0  502  0.15076946318E+03  0.31315238291E+03 -0.22993756101E+02  0.38891330495E+03  0.17300000000E+03 0.  1.
<mgrwt>
<rscale>  2 0.38823298E+03</rscale>
<asrwt>0</asrwt>
<pdfrwt beam="1">  1       21 0.41798996E-01 0.38823298E+03</pdfrwt>
<pdfrwt beam="2">  1       21 0.97016701E-01 0.38823298E+03</pdfrwt>
<totfact> 0.43522595E+03</totfact>
</mgrwt>
</event>
<event>
 4    1  0.4531281E+000  0.2044015E+03  0.7546771E-02  0.1146078E+00
         21   -1    0    0  501  502  0.00000000000E+00  0.00000000000E+00  0.50706918644E+03  0.50706918644E+03  0.00000000000E+00 0.  1.
         21   -1    0    0  502  503 -0.00000000000E+00 -0.00000000000E+00 -0.14947599225E+03  0.14947599225E+03  0.00000000000E+00 0.  1.
          6    1    1    2  501    0  0.10512419688E+03 -0.28281820147E+02  0.39870847397E+03  0.44804955679E+03  0.17300000000E+03 0.  1.
         -6    1    1    2    0  503 -0.10512419688E+03  0.28281820147E+02 -0.41115279782E+02  0.20849562190E+03  0.17300000000E+03 0.  1.
<mgrwt>
<rscale>  2 0.20440146E+03</rscale>
<asrwt>0</asrwt>
<pdfrwt beam="1">  1       21 0.78010643E-01 0.20440146E+03</pdfrwt>
<pdfrwt beam="2">  1       21 0.22996307E-01 0.20440146E+03</pdfrwt>
<totfact> 0.25669582E+04</totfact>
</mgrwt>
</event>
<event>
 4    1  0.4531281E+000  0.2805965E+03  0.7546771E-02  0.1095364E+00
         21   -1    0    0  503  502  0.00000000000E+00  0.00000000000E+00  0.12447385827E+03  0.12447385827E+03  0.00000000000E+00 0.  1.
         21   -1    0    0  501  503 -0.00000000000E+00 -0.00000000000E+00 -0.77765586837E+03  0.77765586837E+03  0.00000000000E+00 0.  1.
          6    1    1    2  501    0 -0.16215577792E+03  0.15003633539E+03 -0.52144363993E+03  0.59214682965E+03  0.17300000000E+03 0.  1.
         -6    1    1    2    0  502  0.16215577792E+03 -0.15003633539E+03 -0.13173837018E+03  0.30998289699E+03  0.17300000000E+03 0.  1.
<mgrwt>
<rscale>  2 0.28059650E+03</rscale>
<asrwt>0</asrwt>
<pdfrwt beam="1">  1       21 0.19149824E-01 0.28059650E+03</pdfrwt>
<pdfrwt beam="2">  1       21 0.11963936E+00 0.28059650E+03</pdfrwt>
<totfact> 0.12644907E+04</totfact>
</mgrwt>
</event>
<event>
 4    1  0.4531281E+000  0.2606847E+03  0.7546771E-02  0.1106733E+00
         21   -1    0    0  501  502  0.00000000000E+00  0.00000000000E+00  0.46502265108E+03  0.46502265108E+03  0.00000000000E+00 0.  1.
         21   -1    0    0  502  503 -0.00000000000E+00 -0.00000000000E+00 -0.15658207687E+03  0.15658207687E+03  0.00000000000E+00 0. -1.
          6    1    1    2  501    0 -0.12256472351E+03 -0.15167529101E+03  0.23449742854E+03  0.35063592136E+03  0.17300000000E+03 0.  1.
         -6    1    1    2    0  503  0.12256472351E+03  0.15167529101E+03  0.73943145667E+02  0.27096880659E+03  0.17300000000E+03 0. -1.
<mgrwt>
<rscale>  2 0.26068469E+03</rscale>
<asrwt>0</asrwt>
<pdfrwt beam="1">  1       21 0.71541946E-01 0.26068469E+03</pdfrwt>
<pdfrwt beam="2">  1       21 0.24089550E-01 0.26068469E+03</pdfrwt>
<totfact> 0.27740526E+04</totfact>
</mgrwt>
</event>
<event>
 4    1  0.4531281E+000  0.1907734E+03  0.7546771E-02  0.1157766E+00
         21   -1    0    0  503  502  0.00000000000E+00  0.00000000000E+00  0.14295828218E+03  0.14295828218E+03  0.00000000000E+00 0. -1.
         21   -1    0    0  501  503 -0.00000000000E+00 -0.00000000000E+00 -0.63262614605E+03  0.63262614605E+03  0.00000000000E+00 0. -1.
          6    1    1    2  501    0  0.48392739447E+02  0.64215509601E+02 -0.54461019641E+03  0.57705697720E+03  0.17300000000E+03 0. -1.
         -6    1    1    2    0  502 -0.48392739447E+02 -0.64215509601E+02  0.54942332537E+02  0.19852745102E+03  0.17300000000E+03 0. -1.
<mgrwt>
<rscale>  2 0.19077340E+03</rscale>
<asrwt>0</asrwt>
<pdfrwt beam="1">  1       21 0.21993582E-01 0.19077340E+03</pdfrwt>
<pdfrwt beam="2">  1       21 0.97327098E-01 0.19077340E+03</pdfrwt>
<totfact> 0.16923881E+04</totfact>
</mgrwt>
</event>
<event>
 4    1  0.4531281E+000  0.2065624E+03  0.7546771E-02  0.1144317E+00
         21   -1    0    0  503  502  0.00000000000E+00  0.00000000000E+00  0.76604851379E+02  0.76604851379E+02  0.00000000000E+00 0. -1.
         21   -1    0    0  501  503 -0.00000000000E+00 -0.00000000000E+00 -0.55864140427E+03  0.55864140427E+03  0.00000000000E+00 0. -1.
          6    1    1    2  501    0  0.16017740952E+02  0.11172493876E+03 -0.25829472538E+03  0.33073281531E+03  0.17300000000E+03 0. -1.
         -6    1    1    2    0  502 -0.16017740952E+02 -0.11172493876E+03 -0.22374182751E+03  0.30451344033E+03  0.17300000000E+03 0. -1.
<mgrwt>
<rscale>  2 0.20656241E+03</rscale>
<asrwt>0</asrwt>
<pdfrwt beam="1">  1       21 0.11785362E-01 0.20656241E+03</pdfrwt>
<pdfrwt beam="2">  1       21 0.85944830E-01 0.20656241E+03</pdfrwt>
<totfact> 0.70353478E+04</totfact>
</mgrwt>
</event>
<event>
 4    1  0.4531281E+000  0.1767190E+03  0.7546771E-02  0.1171017E+00
         21   -1    0    0  501  502  0.00000000000E+00  0.00000000000E+00  0.31963616005E+03  0.31963616005E+03  0.00000000000E+00 0. -1.
         21   -1    0    0  502  503 -0.00000000000E+00 -0.00000000000E+00 -0.98113822247E+02  0.98113822247E+02  0.00000000000E+00 0. -1.
          6    1    1    2  501    0 -0.18616001942E+02 -0.30887937153E+02  0.12426644151E+03  0.21603649848E+03  0.17300000000E+03 0. -1.
         -6    1    1    2    0  503  0.18616001942E+02  0.30887937153E+02  0.97255896291E+02  0.20171348382E+03  0.17300000000E+03 0. -1.
<mgrwt>
<rscale>  2 0.17671904E+03</rscale>
<asrwt>0</asrwt>
<pdfrwt beam="1">  1       21 0.49174793E-01 0.17671904E+03</pdfrwt>
<pdfrwt beam="2">  1       21 0.15094434E-01 0.17671904E+03</pdfrwt>
<totfact> 0.15378066E+05</totfact>
</mgrwt>
</event>
<event>
 4    1  0.4531281E+000  0.1865533E+03  0.7546771E-02  0.1161607E+00
         21   -1    0    0  501  502  0.00000000000E+00  0.00000000000E+00  0.14687680590E+04  0.14687680590E+04  0.00000000000E+00 0. -1.
         21   -1    0    0  502  503 -0.00000000000E+00 -0.00000000000E+00 -0.46773643416E+02  0.46773643416E+02  0.00000000000E+00 0. -1.
          6    1    1    2  501    0  0.65676583444E+02  0.23658704823E+02  0.12432824527E+04  0.12572006224E+04  0.17300000000E+03 0. -1.
         -6    1    1    2    0  503 -0.65676583444E+02 -0.23658704823E+02  0.17871196297E+03  0.25834108004E+03  0.17300000000E+03 0. -1.
<mgrwt>
<rscale>  2 0.18655334E+03</rscale>
<asrwt>0</asrwt>
<pdfrwt beam="1">  1       21 0.22596428E+00 0.18655334E+03</pdfrwt>
<pdfrwt beam="2">  1       21 0.71959463E-02 0.18655334E+03</pdfrwt>
<totfact> 0.13412894E+04</totfact>
</mgrwt>
</event>
<event>
 4    1  0.4531281E+000  0.2272178E+03  0.7546771E-02  0.1128613E+00
         21   -1    0    0  503  502  0.00000000000E+00  0.00000000000E+00  0.58616398142E+03  0.58616398142E+03  0.00000000000E+00 0. -1.
         21   -1    0    0  501  503 -0.00000000000E+00 -0.00000000000E+00 -0.20324830074E+03  0.20324830074E+03  0.00000000000E+00 0. -1.
          6    1    1    2  501    0  0.86951303232E+02  0.11890508103E+03 -0.10566177733E+03  0.25058403504E+03  0.17300000000E+03 0. -1.
         -6    1    1    2    0  502 -0.86951303232E+02 -0.11890508103E+03  0.48857745801E+03  0.53882824713E+03  0.17300000000E+03 0. -1.
<mgrwt>
<rscale>  2 0.22721784E+03</rscale>
<asrwt>0</asrwt>
<pdfrwt beam="1">  1       21 0.90179073E-01 0.22721784E+03</pdfrwt>
<pdfrwt beam="2">  1       21 0.31268970E-01 0.22721784E+03</pdfrwt>
<totfact> 0.10043605E+04</totfact>
</mgrwt>
</event>
<event>
 4    1  0.4531281E+000  0.2539902E+03  0.7546771E-02  0.1110809E+00
         21   -1    0    0  503  502  0.00000000000E+00  0.00000000000E+00  0.15149321263E+03  0.15149321263E+03  0.00000000000E+00 0.  1.
         21   -1    0    0  501  503 -0.00000000000E+00 -0.00000000000E+00 -0.44434971342E+03  0.44434971342E+03  0.00000000000E+00 0.  1.
          6    1    1    2  501    0 -0.10621769637E+03 -0.15264285617E+03 -0.85614276565E+02  0.26803142524E+03  0.17300000000E+03 0.  1.
         -6    1    1    2    0  502  0.10621769637E+03  0.15264285617E+03 -0.20724222423E+03  0.32781150081E+03  0.17300000000E+03 0.  1.
<mgrwt>
<rscale>  2 0.25399024E+03</rscale>
<asrwt>0</asrwt>
<pdfrwt beam="1">  1       21 0.23306649E-01 0.25399024E+03</pdfrwt>
<pdfrwt beam="2">  1       21 0.68361493E-01 0.25399024E+03</pdfrwt>
<totfact> 0.32784717E+04</totfact>
</mgrwt>
</event>
<event>
 4    1  0.4531281E+000  0.1848447E+03  0.7546771E-02  0.1163195E+00
         21   -1    0    0  503  502  0.00000000000E+00  0.00000000000E+00  0.47012099213E+02  0.47012099213E+02  0.00000000000E+00 0.  1.
         21   -1    0    0  501  503 -0.00000000000E+00 -0.00000000000E+00 -0.73200906599E+03  0.73200906599E+03  0.00000000000E+00 0. -1.
          6    1    1    2  501    0  0.22003957189E+02 -0.61272944405E+02 -0.37541316869E+03  0.41845261987E+03  0.17300000000E+03 0.  1.
         -6    1    1    2    0  502 -0.22003957189E+02  0.61272944405E+02 -0.30958379809E+03  0.36056854534E+03  0.17300000000E+03 0.  1.
<mgrwt>
<rscale>  2 0.18484466E+03</rscale>
<asrwt>0</asrwt>
<pdfrwt beam="1">  1       21 0.72326309E-02 0.18484466E+03</pdfrwt>
<pdfrwt beam="2">  1       21 0.11261678E+00 0.18484466E+03</pdfrwt>
<totfact> 0.88491919E+04</totfact>
</mgrwt>
</event>
<event>
 4    1  0.4531281E+000  0.2217967E+03  0.7546771E-02  0.1132551E+00
         21   -1    0    0  503  502  0.00000000000E+00  0.00000000000E+00  0.75116659285E+02  0.75116659285E+02  0.00000000000E+00 0. -1.
         21   -1    0    0  501  503 -0.00000000000E+00 -0.00000000000E+00 -0.67248481296E+03  0.67248481296E+03  0.00000000000E+00 0.  1.
          6    1    1    2  501    0  0.82000256513E+02 -0.11198547425E+03 -0.35913266234E+03  0.42210195175E+03  0.17300000000E+03 0.  1.
         -6    1    1    2    0  502 -0.82000256513E+02  0.11198547425E+03 -0.23823549134E+03  0.32549952050E+03  0.17300000000E+03 0. -1.
<mgrwt>
<rscale>  2 0.22179673E+03</rscale>
<asrwt>0</asrwt>
<pdfrwt beam="1">  1       21 0.11556409E-01 0.22179673E+03</pdfrwt>
<pdfrwt beam="2">  1       21 0.10345921E+00 0.22179673E+03</pdfrwt>
<totfact> 0.46816154E+04</totfact>
</mgrwt>
</event>
<event>
 4    1  0.4531281E+000  0.1999061E+03  0.7546771E-02  0.1149818E+00
         21   -1    0    0  501  502  0.00000000000E+00  0.00000000000E+00  0.86773770702E+03  0.86773770702E+03  0.00000000000E+00 0.  1.
         21   -1    0    0  502  503 -0.00000000000E+00 -0.00000000000E+00 -0.48192250769E+03  0.48192250769E+03  0.00000000000E+00 0.  1.
          6    1    1    2  501    0 -0.93196108959E+02  0.36714197927E+02  0.83468406840E+03  0.85828896131E+03  0.17300000000E+03 0.  1.
         -6    1    1    2    0  503  0.93196108959E+02 -0.36714197927E+02 -0.44886886907E+03  0.49137125340E+03  0.17300000000E+03 0.  1.
<mgrwt>
<rscale>  2 0.19990610E+03</rscale>
<asrwt>0</asrwt>
<pdfrwt beam="1">  1       21 0.13349811E+00 0.19990610E+03</pdfrwt>
<pdfrwt beam="2">  1       21 0.74141924E-01 0.19990610E+03</pdfrwt>
<totfact> 0.65415280E+02</totfact>
</mgrwt>
</event>
<event>
 4    1  0.4531281E+000  0.1916616E+03  0.7546771E-02  0.1156971E+00
         21   -1    0    0  501  502  0.00000000000E+00  0.00000000000E+00  0.91907536540E+02  0.91907536540E+02  0.00000000000E+00 0.  1.
         21   -1    0    0  502  503 -0.00000000000E+00 -0.00000000000E+00 -0.63137271887E+03  0.63137271887E+03  0.00000000000E+00 0.  1.
          6    1    1    2  501    0  0.80239350725E+02 -0.19152397313E+02 -0.50661962710E+02  0.19824429927E+03  0.17300000000E+03 0.  1.
         -6    1    1    2    0  503 -0.80239350725E+02  0.19152397313E+02 -0.48880321962E+03  0.52503595614E+03  0.17300000000E+03 0.  1.
<mgrwt>
<rscale>  2 0.19166160E+03</rscale>
<asrwt>0</asrwt>
<pdfrwt beam="1">  1       21 0.14139620E-01 0.19166160E+03</pdfrwt>
<pdfrwt beam="2">  1       21 0.97134268E-01 0.19166160E+03</pdfrwt>
<totfact> 0.38421768E+04</totfact>
</mgrwt>
</event>
<event>
 4    1  0.4531281E+000  0.1735640E+03  0.7546771E-02  0.1174181E+00
         21   -1    0    0  503  502  0.00000000000E+00  0.00000000000E+00  0.10638706224E+03  0.10638706224E+03  0.00000000000E+00 0. -1.
         21   -1    0    0  501  503 -0.00000000000E+00 -0.00000000000E+00 -0.78045124414E+03  0.78045124414E+03  0.00000000000E+00 0. -1.
          6    1    1    2  501    0  0.90717814417E+01  0.10637365408E+02 -0.69098657336E+03  0.71245132839E+03  0.17300000000E+03 0. -1.
         -6    1    1    2    0  502 -0.90717814417E+01 -0.10637365408E+02  0.16922391459E+02  0.17438697799E+03  0.17300000000E+03 0. -1.
<mgrwt>
<rscale>  2 0.17356397E+03</rscale>
<asrwt>0</asrwt>
<pdfrwt beam="1">  1       21 0.16367241E-01 0.17356397E+03</pdfrwt>
<pdfrwt beam="2">  1       21 0.12006942E+00 0.17356397E+03</pdfrwt>
<totfact> 0.17863100E+04</totfact>
</mgrwt>
</event>
<event>
 4    1  0.4531281E+000  0.2961908E+03  0.7546771E-02  0.1087160E+00
         21   -1    0    0  501  502  0.00000000000E+00  0.00000000000E+00  0.21442642328E+03  0.21442642328E+03  0.00000000000E+00 0.  1.
         21   -1    0    0  502  503 -0.00000000000E+00 -0.00000000000E+00 -0.41075029419E+03  0.41075029419E+03  0.00000000000E+00 0.  1.
          6    1    1    2  501    0 -0.86239619569E+02  0.22441639144E+03 -0.11777470771E+03  0.31874734588E+03  0.17300000000E+03 0.  1.
         -6    1    1    2    0  503  0.86239619569E+02 -0.22441639144E+03 -0.78549163197E+02  0.30642937158E+03  0.17300000000E+03 0.  1.
<mgrwt>
<rscale>  2 0.29619080E+03</rscale>
<asrwt>0</asrwt>
<pdfrwt beam="1">  1       21 0.32988681E-01 0.29619080E+03</pdfrwt>
<pdfrwt beam="2">  1       21 0.63192353E-01 0.29619080E+03</pdfrwt>
<totfact> 0.19462717E+04</totfact>
</mgrwt>
</event>
<event>
 4    1  0.4531281E+000  0.1745093E+03  0.7546771E-02  0.1173225E+00
         21   -1    0    0  501  502  0.00000000000E+00  0.00000000000E+00  0.16239352320E+03  0.16239352320E+03  0.00000000000E+00 0. -1.
         21   -1    0    0  502  503 -0.00000000000E+00 -0.00000000000E+00 -0.19201687110E+03  0.19201687110E+03  0.00000000000E+00 0. -1.
          6    1    1    2  501    0 -0.17566874506E+02 -0.14694124604E+02  0.12279122547E+02  0.17494081636E+03  0.17300000000E+03 0.  1.
         -6    1    1    2    0  503  0.17566874506E+02  0.14694124604E+02 -0.41902470453E+02  0.17946957795E+03  0.17300000000E+03 0.  1.
<mgrwt>
<rscale>  2 0.17450935E+03</rscale>
<asrwt>0</asrwt>
<pdfrwt beam="1">  1       21 0.24983619E-01 0.17450935E+03</pdfrwt>
<pdfrwt beam="2">  1       21 0.29541057E-01 0.17450935E+03</pdfrwt>
<totfact> 0.16746989E+05</totfact>
</mgrwt>
</event>
<event>
 4    1  0.4531281E+000  0.1861430E+03  0.7546771E-02  0.1161987E+00
         21   -1    0    0  501  502  0.00000000000E+00  0.00000000000E+00  0.69993492382E+02  0.69993492382E+02  0.00000000000E+00 0.  1.
         21   -1    0    0  502  503 -0.00000000000E+00 -0.00000000000E+00 -0.73144801081E+03  0.73144801081E+03  0.00000000000E+00 0.  1.
          6    1    1    2  501    0  0.68061573153E+02 -0.93719158178E+01 -0.10291031394E+03  0.21269636400E+03  0.17300000000E+03 0.  1.
         -6    1    1    2    0  503 -0.68061573153E+02  0.93719158178E+01 -0.55854420450E+03  0.58874513919E+03  0.17300000000E+03 0.  1.
<mgrwt>
<rscale>  2 0.18614298E+03</rscale>
<asrwt>0</asrwt>
<pdfrwt beam="1">  1       21 0.10768229E-01 0.18614298E+03</pdfrwt>
<pdfrwt beam="2">  1       21 0.11253046E+00 0.18614298E+03</pdfrwt>
<totfact> 0.44141677E+04</totfact>
</mgrwt>
</event>
<event>
 4    1  0.4531281E+000  0.2705920E+03  0.7546771E-02  0.1100941E+00
         21   -1    0    0  503  502  0.00000000000E+00  0.00000000000E+00  0.89462080034E+03  0.89462080034E+03  0.00000000000E+00 0. -1.
         21   -1    0    0  501  503 -0.00000000000E+00 -0.00000000000E+00 -0.83200268460E+02  0.83200268460E+02  0.00000000000E+00 0.  1.
          6    1    1    2  501    0 -0.14574902768E+03  0.14848662634E+03  0.46811424954E+03  0.54069493052E+03  0.17300000000E+03 0. -1.
         -6    1    1    2    0  502  0.14574902768E+03 -0.14848662634E+03  0.34330628235E+03  0.43712613828E+03  0.17300000000E+03 0.  1.
<mgrwt>
<rscale>  2 0.27059205E+03</rscale>
<asrwt>0</asrwt>
<pdfrwt beam="1">  1       21 0.13763396E+00 0.27059205E+03</pdfrwt>
<pdfrwt beam="2">  1       21 0.12800042E-01 0.27059205E+03</pdfrwt>
<totfact> 0.18681981E+04</totfact>
</mgrwt>
</event>
<event>
 4    1  0.4531281E+000  0.1786344E+03  0.7546771E-02  0.1169131E+00
         21   -1    0    0  501  502  0.00000000000E+00  0.00000000000E+00  0.45668171257E+02  0.45668171257E+02  0.00000000000E+00 0. -1.
         21   -1    0    0  502  503 -0.00000000000E+00 -0.00000000000E+00 -0.74218911642E+03  0.74218911642E+03  0.00000000000E+00 0. -1.
          6    1    1    2  501    0  0.26183417409E+02 -0.35995322354E+02 -0.44357180726E+03  0.47819052978E+03  0.17300000000E+03 0. -1.
         -6    1    1    2    0  503 -0.26183417409E+02  0.35995322354E+02 -0.25294913790E+03  0.30966675789E+03  0.17300000000E+03 0. -1.
<mgrwt>
<rscale>  2 0.17863436E+03</rscale>
<asrwt>0</asrwt>
<pdfrwt beam="1">  1       21 0.70258733E-02 0.17863436E+03</pdfrwt>
<pdfrwt beam="2">  1       21 0.11418293E+00 0.17863436E+03</pdfrwt>
<totfact> 0.90217259E+04</totfact>
</mgrwt>
</event>
<event>
 4    1  0.4531281E+000  0.1732616E+03  0.7546771E-02  0.1174489E+00
         21   -1    0    0  503  502  0.00000000000E+00  0.00000000000E+00  0.54578602189E+03  0.54578602189E+03  0.00000000000E+00 0. -1.
         21   -1    0    0  501  503 -0.00000000000E+00 -0.00000000000E+00 -0.67208696524E+02  0.67208696524E+02  0.00000000000E+00 0. -1.
          6    1    1    2  501    0  0.95164523382E+01 -0.73631256307E-01  0.36990727700E+03  0.40847394270E+03  0.17300000000E+03 0. -1.
         -6    1    1    2    0  502 -0.95164523382E+01  0.73631256307E-01  0.10867004836E+03  0.20452077571E+03  0.17300000000E+03 0. -1.
<mgrwt>
<rscale>  2 0.17326156E+03</rscale>
<asrwt>0</asrwt>
<pdfrwt beam="1">  1       21 0.83967077E-01 0.17326156E+03</pdfrwt>
<pdfrwt beam="2">  1       21 0.10339800E-01 0.17326156E+03</pdfrwt>
<totfact> 0.94999926E+04</totfact>
</mgrwt>
</event>
<event>
 4    1  0.4531281E+000  0.2070225E+03  0.7546771E-02  0.1143946E+00
         21   -1    0    0  501  502  0.00000000000E+00  0.00000000000E+00  0.71541604304E+02  0.71541604304E+02  0.00000000000E+00 0. -1.
         21   -1    0    0  502  503 -0.00000000000E+00 -0.00000000000E+00 -0.12386243800E+04  0.12386243800E+04  0.00000000000E+00 0. -1.
          6    1    1    2  501    0 -0.12832404919E+02 -0.11298072117E+03 -0.11281797890E+03  0.23576728004E+03  0.17300000000E+03 0. -1.
         -6    1    1    2    0  503  0.12832404919E+02  0.11298072117E+03 -0.10542647968E+04  0.10743987043E+04  0.17300000000E+03 0. -1.
<mgrwt>
<rscale>  2 0.20702250E+03</rscale>
<asrwt>0</asrwt>
<pdfrwt beam="1">  1       21 0.11006401E-01 0.20702250E+03</pdfrwt>
<pdfrwt beam="2">  1       21 0.19055758E+00 0.20702250E+03</pdfrwt>
<totfact> 0.10466037E+04</totfact>
</mgrwt>
</event>
<event>
 4    1  0.4531281E+000  0.1948196E+03  0.7546771E-02  0.1154185E+00
         21   -1    0    0  503  502  0.00000000000E+00  0.00000000000E+00  0.25515768988E+03  0.25515768988E+03  0.00000000000E+00 0.  1.
         21   -1    0    0  501  503 -0.00000000000E+00 -0.00000000000E+00 -0.15538455640E+03  0.15538455640E+03  0.00000000000E+00 0.  1.
          6    1    1    2  501    0  0.72524842810E+02 -0.52591028461E+02  0.74700834950E+01  0.19496274323E+03  0.17300000000E+03 0.  1.
         -6    1    1    2    0  502 -0.72524842810E+02  0.52591028461E+02  0.92303049982E+02  0.21557950305E+03  0.17300000000E+03 0.  1.
<mgrwt>
<rscale>  2 0.19481958E+03</rscale>
<asrwt>0</asrwt>
<pdfrwt beam="1">  1       21 0.39255029E-01 0.19481958E+03</pdfrwt>
<pdfrwt beam="2">  1       21 0.23905317E-01 0.19481958E+03</pdfrwt>
<totfact> 0.10311711E+05</totfact>
</mgrwt>
</event>
<event>
 4    1  0.4531281E+000  0.2238610E+03  0.7546771E-02  0.1131037E+00
         21   -1    0    0  501  502  0.00000000000E+00  0.00000000000E+00  0.27361592986E+03  0.27361592986E+03  0.00000000000E+00 0.  1.
         21   -1    0    0  502  503 -0.00000000000E+00 -0.00000000000E+00 -0.30843324453E+03  0.30843324453E+03  0.00000000000E+00 0.  1.
          6    1    1    2  501    0 -0.12636004287E+03 -0.64945150423E+02  0.16806806283E+03  0.27992964606E+03  0.17300000000E+03 0.  1.
         -6    1    1    2    0  503  0.12636004287E+03  0.64945150423E+02 -0.20288537750E+03  0.30211952833E+03  0.17300000000E+03 0.  1.
<mgrwt>
<rscale>  2 0.22386097E+03</rscale>
<asrwt>0</asrwt>
<pdfrwt beam="1">  1       21 0.42094759E-01 0.22386097E+03</pdfrwt>
<pdfrwt beam="2">  1       21 0.47451268E-01 0.22386097E+03</pdfrwt>
<totfact> 0.22669744E+04</totfact>
</mgrwt>
</event>
<event>
 4    1  0.4531281E+000  0.2186383E+03  0.7546771E-02  0.1134902E+00
         21   -1    0    0  501  502  0.00000000000E+00  0.00000000000E+00  0.97792963199E+02  0.97792963199E+02  0.00000000000E+00 0. -1.
         21   -1    0    0  502  503 -0.00000000000E+00 -0.00000000000E+00 -0.72317393530E+03  0.72317393530E+03  0.00000000000E+00 0. -1.
          6    1    1    2  501    0 -0.13225295684E+03 -0.19567201128E+02 -0.79014261137E+02  0.23247789877E+03  0.17300000000E+03 0. -1.
         -6    1    1    2    0  503  0.13225295684E+03  0.19567201128E+02 -0.54636671097E+03  0.58848899973E+03  0.17300000000E+03 0. -1.
<mgrwt>
<rscale>  2 0.21863833E+03</rscale>
<asrwt>0</asrwt>
<pdfrwt beam="1">  1       21 0.15045072E-01 0.21863833E+03</pdfrwt>
<pdfrwt beam="2">  1       21 0.11125752E+00 0.21863833E+03</pdfrwt>
<totfact> 0.24411292E+04</totfact>
</mgrwt>
</event>
<event>
 4    1  0.4531281E+000  0.2299864E+03  0.7546771E-02  0.1126649E+00
         21   -1    0    0  503  502  0.00000000000E+00  0.00000000000E+00  0.44423662078E+02  0.44423662078E+02  0.00000000000E+00 0.  1.
         21   -1    0    0  501  503 -0.00000000000E+00 -0.00000000000E+00 -0.13519566251E+04  0.13519566251E+04  0.00000000000E+00 0.  1.
          6    1    1    2  501    0 -0.34669442612E+02  0.14752213964E+03 -0.89492169610E+03  0.92400140373E+03  0.17300000000E+03 0.  1.
         -6    1    1    2    0  502  0.34669442612E+02 -0.14752213964E+03 -0.41261126687E+03  0.47237888341E+03  0.17300000000E+03 0.  1.
<mgrwt>
<rscale>  2 0.22998642E+03</rscale>
<asrwt>0</asrwt>
<pdfrwt beam="1">  1       21 0.68344095E-02 0.22998642E+03</pdfrwt>
<pdfrwt beam="2">  1       21 0.20799333E+00 0.22998642E+03</pdfrwt>
<totfact> 0.18315743E+04</totfact>
</mgrwt>
</event>
<event>
 4    1  0.4531281E+000  0.3153027E+03  0.7546771E-02  0.1077832E+00
         21   -1    0    0  503  502  0.00000000000E+00  0.00000000000E+00  0.14109305544E+04  0.14109305544E+04  0.00000000000E+00 0.  1.
         21   -1    0    0  501  503 -0.00000000000E+00 -0.00000000000E+00 -0.14661903453E+03  0.14661903453E+03  0.00000000000E+00 0.  1.
          6    1    1    2  501    0 -0.25054217690E+03 -0.81947764988E+02  0.70882843672E+02  0.32317208438E+03  0.17300000000E+03 0.  1.
         -6    1    1    2    0  502  0.25054217690E+03  0.81947764988E+02  0.11934286762E+04  0.12343775045E+04  0.17300000000E+03 0.  1.
<mgrwt>
<rscale>  2 0.31530274E+03</rscale>
<asrwt>0</asrwt>
<pdfrwt beam="1">  1       21 0.21706623E+00 0.31530274E+03</pdfrwt>
<pdfrwt beam="2">  1       21 0.22556776E-01 0.31530274E+03</pdfrwt>
<totfact> 0.17403944E+03</totfact>
</mgrwt>
</event>
<event>
 4    1  0.4531281E+000  0.1778947E+03  0.7546771E-02  0.1169856E+00
         21   -1    0    0  501  502  0.00000000000E+00  0.00000000000E+00  0.69773691104E+03  0.69773691104E+03  0.00000000000E+00 0.  1.
         21   -1    0    0  502  503 -0.00000000000E+00 -0.00000000000E+00 -0.56587597003E+02  0.56587597003E+02  0.00000000000E+00 0.  1.
          6    1    1    2  501    0  0.19038754251E+02 -0.36810831162E+02  0.48860571762E+03  0.51998274851E+03  0.17300000000E+03 0.  1.
         -6    1    1    2    0  503 -0.19038754251E+02  0.36810831162E+02  0.15254359642E+03  0.23434175953E+03  0.17300000000E+03 0.  1.
<mgrwt>
<rscale>  2 0.17789466E+03</rscale>
<asrwt>0</asrwt>
<pdfrwt beam="1">  1       21 0.10734413E+00 0.17789466E+03</pdfrwt>
<pdfrwt beam="2">  1       21 0.87057846E-02 0.17789466E+03</pdfrwt>
<totfact> 0.72224306E+04</totfact>
</mgrwt>
</event>
<event>
 4    1  0.4531281E+000  0.1915119E+03  0.7546771E-02  0.1157105E+00
         21   -1    0    0  503  502  0.00000000000E+00  0.00000000000E+00  0.14235137210E+03  0.14235137210E+03  0.00000000000E+00 0.  1.
         21   -1    0    0  501  503 -0.00000000000E+00 -0.00000000000E+00 -0.40533976671E+03  0.40533976671E+03  0.00000000000E+00 0. -1.
          6    1    1    2  501    0  0.74337068405E+02 -0.34954427544E+02 -0.29679368727E+03  0.35321849406E+03  0.17300000000E+03 0. -1.
         -6    1    1    2    0  502 -0.74337068405E+02  0.34954427544E+02  0.33805292656E+02  0.19447264475E+03  0.17300000000E+03 0.  1.
<mgrwt>
<rscale>  2 0.19151191E+03</rscale>
<asrwt>0</asrwt>
<pdfrwt beam="1">  1       21 0.21900211E-01 0.19151191E+03</pdfrwt>
<pdfrwt beam="2">  1       21 0.62359964E-01 0.19151191E+03</pdfrwt>
<totfact> 0.46453206E+04</totfact>
</mgrwt>
</event>
<event>
 4    1  0.4531281E+000  0.2628651E+03  0.7546771E-02  0.1105434E+00
         21   -1    0    0  503  502  0.00000000000E+00  0.00000000000E+00  0.11522040958E+04  0.11522040958E+04  0.00000000000E+00 0.  1.
         21   -1    0    0  501  503 -0.00000000000E+00 -0.00000000000E+00 -0.45225458098E+03  0.45225458098E+03  0.00000000000E+00 0. -1.
          6    1    1    2  501    0 -0.65595598345E+02  0.18672519642E+03 -0.39717468948E+03  0.47628333528E+03  0.17300000000E+03 0. -1.
         -6    1    1    2    0  502  0.65595598345E+02 -0.18672519642E+03  0.10971242043E+04  0.11281753415E+04  0.17300000000E+03 0.  1.
<mgrwt>
<rscale>  2 0.26286514E+03</rscale>
<asrwt>0</asrwt>
<pdfrwt beam="1">  1       21 0.17726217E+00 0.26286514E+03</pdfrwt>
<pdfrwt beam="2">  1       21 0.69577628E-01 0.26286514E+03</pdfrwt>
<totfact> 0.33111790E+02</totfact>
</mgrwt>
</event>
<event>
 4    1  0.4531281E+000  0.1807471E+03  0.7546771E-02  0.1167082E+00
         21   -1    0    0  501  502  0.00000000000E+00  0.00000000000E+00  0.68935468732E+02  0.68935468732E+02  0.00000000000E+00 0.  1.
         21   -1    0    0  502  503 -0.00000000000E+00 -0.00000000000E+00 -0.25032516538E+04  0.25032516538E+04  0.00000000000E+00 0.  1.
          6    1    1    2  501    0  0.52476520673E+01  0.52086090168E+02 -0.59187736098E+02  0.19019118472E+03  0.17300000000E+03 0.  1.
         -6    1    1    2    0  503 -0.52476520673E+01 -0.52086090168E+02 -0.23751284490E+04  0.23819959378E+04  0.17300000000E+03 0.  1.
<mgrwt>
<rscale>  2 0.18074706E+03</rscale>
<asrwt>0</asrwt>
<pdfrwt beam="1">  1       21 0.10605458E-01 0.18074706E+03</pdfrwt>
<pdfrwt beam="2">  1       21 0.38511560E+00 0.18074706E+03</pdfrwt>
<totfact> 0.80236789E+02</totfact>
</mgrwt>
</event>
<event>
 4    1  0.4531281E+000  0.1830775E+03  0.7546771E-02  0.1164857E+00
         21   -1    0    0  503  502  0.00000000000E+00  0.00000000000E+00  0.10448056360E+04  0.10448056360E+04  0.00000000000E+00 0.  1.
         21   -1    0    0  501  503 -0.00000000000E+00 -0.00000000000E+00 -0.34813404521E+02  0.34813404521E+02  0.00000000000E+00 0.  1.
          6    1    1    2  501    0 -0.49921325856E+02  0.33109293404E+02  0.35373778608E+03  0.39830614530E+03  0.17300000000E+03 0.  1.
         -6    1    1    2    0  502  0.49921325856E+02 -0.33109293404E+02  0.65625444540E+03  0.68131289522E+03  0.17300000000E+03 0.  1.
<mgrwt>
<rscale>  2 0.18307748E+03</rscale>
<asrwt>0</asrwt>
<pdfrwt beam="1">  1       21 0.16073930E+00 0.18307748E+03</pdfrwt>
<pdfrwt beam="2">  1       21 0.53559092E-02 0.18307748E+03</pdfrwt>
<totfact> 0.59813329E+04</totfact>
</mgrwt>
</event>
<event>
 4    1  0.4531281E+000  0.1970821E+03  0.7546771E-02  0.1152224E+00
         21   -1    0    0  503  502  0.00000000000E+00  0.00000000000E+00  0.59518211478E+03  0.59518211478E+03  0.00000000000E+00 0. -1.
         21   -1    0    0  501  503 -0.00000000000E+00 -0.00000000000E+00 -0.73911218663E+02  0.73911218663E+02  0.00000000000E+00 0. -1.
          6    1    1    2  501    0 -0.45979511920E+02 -0.82451326269E+02  0.14617626748E+03  0.24537489255E+03  0.17300000000E+03 0. -1.
         -6    1    1    2    0  502  0.45979511920E+02  0.82451326269E+02  0.37509462864E+03  0.42371844089E+03  0.17300000000E+03 0. -1.
<mgrwt>
<rscale>  2 0.19708206E+03</rscale>
<asrwt>0</asrwt>
<pdfrwt beam="1">  1       21 0.91566476E-01 0.19708206E+03</pdfrwt>
<pdfrwt beam="2">  1       21 0.11370957E-01 0.19708206E+03</pdfrwt>
<totfact> 0.65073662E+04</totfact>
</mgrwt>
</event>
<event>
 4    1  0.4531281E+000  0.1811310E+03  0.7546771E-02  0.1166713E+00
         21   -1    0    0  503  502  0.00000000000E+00  0.00000000000E+00  0.12641623875E+04  0.12641623875E+04  0.00000000000E+00 0.  1.
         21   -1    0    0  501  503 -0.00000000000E+00 -0.00000000000E+00 -0.29008519719E+02  0.29008519719E+02  0.00000000000E+00 0.  1.
          6    1    1    2  501    0  0.22536369395E+02  0.48698608567E+02  0.40771863187E+03  0.44614227013E+03  0.17300000000E+03 0.  1.
         -6    1    1    2    0  502 -0.22536369395E+02 -0.48698608567E+02  0.82743523591E+03  0.84702863709E+03  0.17300000000E+03 0.  1.
<mgrwt>
<rscale>  2 0.18113101E+03</rscale>
<asrwt>0</asrwt>
<pdfrwt beam="1">  1       21 0.19448648E+00 0.18113101E+03</pdfrwt>
<pdfrwt beam="2">  1       21 0.44628502E-02 0.18113101E+03</pdfrwt>
<totfact> 0.47871689E+04</totfact>
</mgrwt>
</event>
<event>
 4    1  0.4531281E+000  0.2618423E+03  0.7546771E-02  0.1106041E+00
         21   -1    0    0  501  502  0.00000000000E+00  0.00000000000E+00  0.44000718178E+03  0.44000718178E+03  0.00000000000E+00 0.  1.
         21   -1    0    0  502  503 -0.00000000000E+00 -0.00000000000E+00 -0.21357667806E+03  0.21357667806E+03  0.00000000000E+00 0.  1.
          6    1    1    2  501    0  0.95582658236E+02  0.17174504074E+03  0.28315693580E+03  0.38566728389E+03  0.17300000000E+03 0.  1.
         -6    1    1    2    0  503 -0.95582658236E+02 -0.17174504074E+03 -0.56726432087E+02  0.26791657595E+03  0.17300000000E+03 0.  1.
<mgrwt>
<rscale>  2 0.26184233E+03</rscale>
<asrwt>0</asrwt>
<pdfrwt beam="1">  1       21 0.67693412E-01 0.26184233E+03</pdfrwt>
<pdfrwt beam="2">  1       21 0.32857951E-01 0.26184233E+03</pdfrwt>
<totfact> 0.17118216E+04</totfact>
</mgrwt>
</event>
<event>
 4    1  0.4531281E+000  0.1903684E+03  0.7546771E-02  0.1158129E+00
         21   -1    0    0  503  502  0.00000000000E+00  0.00000000000E+00  0.65944485053E+03  0.65944485053E+03  0.00000000000E+00 0.  1.
         21   -1    0    0  501  503 -0.00000000000E+00 -0.00000000000E+00 -0.55595121328E+02  0.55595121328E+02  0.00000000000E+00 0.  1.
          6    1    1    2  501    0  0.74721060290E+02  0.26979398416E+02  0.34027277903E+03  0.38990471777E+03  0.17300000000E+03 0. -1.
         -6    1    1    2    0  502 -0.74721060290E+02 -0.26979398416E+02  0.26357695017E+03  0.32513525409E+03  0.17300000000E+03 0. -1.
<mgrwt>
<rscale>  2 0.19036839E+03</rscale>
<asrwt>0</asrwt>
<pdfrwt beam="1">  1       21 0.10145305E+00 0.19036839E+03</pdfrwt>
<pdfrwt beam="2">  1       21 0.85530961E-02 0.19036839E+03</pdfrwt>
<totfact> 0.84798920E+04</totfact>
</mgrwt>
</event>
<event>
 4    1  0.4531281E+000  0.1874499E+03  0.7546771E-02  0.1160782E+00
         21   -1    0    0  501  502  0.00000000000E+00  0.00000000000E+00  0.42906632855E+03  0.42906632855E+03  0.00000000000E+00 0. -1.
         21   -1    0    0  502  503 -0.00000000000E+00 -0.00000000000E+00 -0.21168777583E+03  0.21168777583E+03  0.00000000000E+00 0. -1.
          6    1    1    2  501    0 -0.71680235946E+02  0.83913440844E+01  0.35955558735E+03  0.40548451422E+03  0.17300000000E+03 0. -1.
         -6    1    1    2    0  503  0.71680235946E+02 -0.83913440844E+01 -0.14217703462E+03  0.23526959016E+03  0.17300000000E+03 0. -1.
<mgrwt>
<rscale>  2 0.18744992E+03</rscale>
<asrwt>0</asrwt>
<pdfrwt beam="1">  1       21 0.66010204E-01 0.18744992E+03</pdfrwt>
<pdfrwt beam="2">  1       21 0.32567350E-01 0.18744992E+03</pdfrwt>
<totfact> 0.19181602E+04</totfact>
</mgrwt>
</event>
<event>
 4    1  0.4531281E+000  0.1817388E+03  0.7546771E-02  0.1166131E+00
         21   -1    0    0  503  502  0.00000000000E+00  0.00000000000E+00  0.97620196344E+02  0.97620196344E+02  0.00000000000E+00 0.  1.
         21   -1    0    0  501  503 -0.00000000000E+00 -0.00000000000E+00 -0.43138679497E+03  0.43138679497E+03  0.00000000000E+00 0.  1.
          6    1    1    2  501    0 -0.53482617694E+02  0.15479322015E+02 -0.44042018227E+02  0.18699919565E+03  0.17300000000E+03 0.  1.
         -6    1    1    2    0  502  0.53482617694E+02 -0.15479322015E+02 -0.28972458040E+03  0.34200779566E+03  0.17300000000E+03 0.  1.
<mgrwt>
<rscale>  2 0.18173882E+03</rscale>
<asrwt>0</asrwt>
<pdfrwt beam="1">  1       21 0.15018492E-01 0.18173882E+03</pdfrwt>
<pdfrwt beam="2">  1       21 0.66367198E-01 0.18173882E+03</pdfrwt>
<totfact> 0.81887530E+04</totfact>
</mgrwt>
</event>
<event>
 4    1  0.4531281E+000  0.2023507E+03  0.7546771E-02  0.1147771E+00
         21   -1    0    0  503  502  0.00000000000E+00  0.00000000000E+00  0.57948361797E+03  0.57948361797E+03  0.00000000000E+00 0. -1.
         21   -1    0    0  501  503 -0.00000000000E+00 -0.00000000000E+00 -0.72545494175E+02  0.72545494175E+02  0.00000000000E+00 0. -1.
          6    1    1    2  501    0  0.10463929329E+03 -0.82103873498E+01  0.20089787956E+03  0.28514163177E+03  0.17300000000E+03 0.  1.
         -6    1    1    2    0  502 -0.10463929329E+03  0.82103873498E+01  0.30604024424E+03  0.36688748037E+03  0.17300000000E+03 0.  1.
<mgrwt>
<rscale>  2 0.20235067E+03</rscale>
<asrwt>0</asrwt>
<pdfrwt beam="1">  1       21 0.89151323E-01 0.20235067E+03</pdfrwt>
<pdfrwt beam="2">  1       21 0.11160846E-01 0.20235067E+03</pdfrwt>
<totfact> 0.71396464E+04</totfact>
</mgrwt>
</event>
<event>
 4    1  0.4531281E+000  0.2294967E+03  0.7546771E-02  0.1126995E+00
         21   -1    0    0  501  502  0.00000000000E+00  0.00000000000E+00  0.98700980400E+02  0.98700980400E+02  0.00000000000E+00 0. -1.
         21   -1    0    0  502  503 -0.00000000000E+00 -0.00000000000E+00 -0.57457844456E+03  0.57457844456E+03  0.00000000000E+00 0. -1.
          6    1    1    2  501    0 -0.80661806484E+02 -0.12741032411E+03 -0.14805776183E+03  0.27311136657E+03  0.17300000000E+03 0. -1.
         -6    1    1    2    0  503  0.80661806484E+02  0.12741032411E+03 -0.32781970233E+03  0.40016805838E+03  0.17300000000E+03 0. -1.
<mgrwt>
<rscale>  2 0.22949666E+03</rscale>
<asrwt>0</asrwt>
<pdfrwt beam="1">  1       21 0.15184766E-01 0.22949666E+03</pdfrwt>
<pdfrwt beam="2">  1       21 0.88396685E-01 0.22949666E+03</pdfrwt>
<totfact> 0.41242206E+04</totfact>
</mgrwt>
</event>
<event>
 4    1  0.4531281E+000  0.1773285E+03  0.7546771E-02  0.1170414E+00
         21   -1    0    0  503  502  0.00000000000E+00  0.00000000000E+00  0.62134735374E+03  0.62134735374E+03  0.00000000000E+00 0. -1.
         21   -1    0    0  501  503 -0.00000000000E+00 -0.00000000000E+00 -0.17330476291E+03  0.17330476291E+03  0.00000000000E+00 0. -1.
          6    1    1    2  501    0  0.27265927947E+02  0.27802492429E+02 -0.11029504509E+03  0.20883104746E+03  0.17300000000E+03 0. -1.
         -6    1    1    2    0  502 -0.27265927947E+02 -0.27802492429E+02  0.55833763592E+03  0.58582106918E+03  0.17300000000E+03 0. -1.
<mgrwt>
<rscale>  2 0.17732854E+03</rscale>
<asrwt>0</asrwt>
<pdfrwt beam="1">  1       21 0.95591900E-01 0.17732854E+03</pdfrwt>
<pdfrwt beam="2">  1       21 0.26662271E-01 0.17732854E+03</pdfrwt>
<totfact> 0.12353026E+04</totfact>
</mgrwt>
</event>
<event>
 4    1  0.4531281E+000  0.2116822E+03  0.7546771E-02  0.1140241E+00
         21   -1    0    0  503  502  0.00000000000E+00  0.00000000000E+00  0.18495457559E+03  0.18495457559E+03  0.00000000000E+00 0.  1.
         21   -1    0    0  501  503 -0.00000000000E+00 -0.00000000000E+00 -0.34833932286E+03  0.34833932286E+03  0.00000000000E+00 0.  1.
          6    1    1    2  501    0  0.11742383589E+03 -0.33045341613E+02 -0.22883068340E+03  0.31172557402E+03  0.17300000000E+03 0.  1.
         -6    1    1    2    0  502 -0.11742383589E+03  0.33045341613E+02  0.65445936127E+02  0.22156832443E+03  0.17300000000E+03 0.  1.
<mgrwt>
<rscale>  2 0.21168220E+03</rscale>
<asrwt>0</asrwt>
<pdfrwt beam="1">  1       21 0.28454550E-01 0.21168220E+03</pdfrwt>
<pdfrwt beam="2">  1       21 0.53590665E-01 0.21168220E+03</pdfrwt>
<totfact> 0.38532732E+04</totfact>
</mgrwt>
</event>
<event>
 4    1  0.4531281E+000  0.2344569E+03  0.7546771E-02  0.1123542E+00
         21   -1    0    0  503  502  0.00000000000E+00  0.00000000000E+00  0.31189388890E+03  0.31189388890E+03  0.00000000000E+00 0. -1.
         21   -1    0    0  501  503 -0.00000000000E+00 -0.00000000000E+00 -0.24219843220E+03  0.24219843220E+03  0.00000000000E+00 0.  1.
          6    1    1    2  501    0  0.98114481990E+02 -0.12415540830E+03 -0.10972362026E+03  0.25886152636E+03  0.17300000000E+03 0.  1.
         -6    1    1    2    0  502 -0.98114481990E+02  0.12415540830E+03  0.17941907696E+03  0.29523079474E+03  0.17300000000E+03 0.  1.
<mgrwt>
<rscale>  2 0.23445686E+03</rscale>
<asrwt>0</asrwt>
<pdfrwt beam="1">  1       21 0.47983675E-01 0.23445686E+03</pdfrwt>
<pdfrwt beam="2">  1       21 0.37261297E-01 0.23445686E+03</pdfrwt>
<totfact> 0.28207770E+04</totfact>
</mgrwt>
</event>
<event>
 4    1  0.4531281E+000  0.2203191E+03  0.7546771E-02  0.1133645E+00
         21   -1    0    0  503  502  0.00000000000E+00  0.00000000000E+00  0.57566206580E+03  0.57566206580E+03  0.00000000000E+00 0.  1.
         21   -1    0    0  501  503 -0.00000000000E+00 -0.00000000000E+00 -0.25091908142E+03  0.25091908142E+03  0.00000000000E+00 0.  1.
          6    1    1    2  501    0  0.73271444631E+02  0.11507745393E+03 -0.17439073466E+03  0.28098514789E+03  0.17300000000E+03 0.  1.
         -6    1    1    2    0  502 -0.73271444631E+02 -0.11507745393E+03  0.49913371904E+03  0.54559599933E+03  0.17300000000E+03 0.  1.
<mgrwt>
<rscale>  2 0.22031914E+03</rscale>
<asrwt>0</asrwt>
<pdfrwt beam="1">  1       21 0.88563395E-01 0.22031914E+03</pdfrwt>
<pdfrwt beam="2">  1       21 0.38602936E-01 0.22031914E+03</pdfrwt>
<totfact> 0.69168030E+03</totfact>
</mgrwt>
</event>
<event>
 4    1  0.4531281E+000  0.2873948E+03  0.7546771E-02  0.1091717E+00
         21   -1    0    0  503  502  0.00000000000E+00  0.00000000000E+00  0.94634003459E+03  0.94634003459E+03  0.00000000000E+00 0.  1.
         21   -1    0    0  501  503 -0.00000000000E+00 -0.00000000000E+00 -0.87299921180E+02  0.87299921180E+02  0.00000000000E+00 0.  1.
          6    1    1    2  501    0 -0.16801011236E+03  0.15633102686E+03  0.42155503093E+03  0.51020038408E+03  0.17300000000E+03 0.  1.
         -6    1    1    2    0  502  0.16801011236E+03 -0.15633102686E+03  0.43748508248E+03  0.52343957169E+03  0.17300000000E+03 0.  1.
<mgrwt>
<rscale>  2 0.28739483E+03</rscale>
<asrwt>0</asrwt>
<pdfrwt beam="1">  1       21 0.14559077E+00 0.28739483E+03</pdfrwt>
<pdfrwt beam="2">  1       21 0.13430758E-01 0.28739483E+03</pdfrwt>
<totfact> 0.14647590E+04</totfact>
</mgrwt>
</event>
<event>
 4    1  0.4531281E+000  0.1902709E+03  0.7546771E-02  0.1158217E+00
         21   -1    0    0  503  502  0.00000000000E+00  0.00000000000E+00  0.52584474193E+03  0.52584474193E+03  0.00000000000E+00 0. -1.
         21   -1    0    0  501  503 -0.00000000000E+00 -0.00000000000E+00 -0.79150700526E+02  0.79150700526E+02  0.00000000000E+00 0. -1.
          6    1    1    2  501    0 -0.74962631233E+02  0.25585391638E+02  0.11420693010E+03  0.22191491890E+03  0.17300000000E+03 0. -1.
         -6    1    1    2    0  502  0.74962631233E+02 -0.25585391638E+02  0.33248711130E+03  0.38308052355E+03  0.17300000000E+03 0. -1.
<mgrwt>
<rscale>  2 0.19027088E+03</rscale>
<asrwt>0</asrwt>
<pdfrwt beam="1">  1       21 0.80899189E-01 0.19027088E+03</pdfrwt>
<pdfrwt beam="2">  1       21 0.12177031E-01 0.19027088E+03</pdfrwt>
<totfact> 0.76737003E+04</totfact>
</mgrwt>
</event>
<event>
 4    1  0.4531281E+000  0.1867663E+03  0.7546771E-02  0.1161411E+00
         21   -1    0    0  503  502  0.00000000000E+00  0.00000000000E+00  0.89555553920E+03  0.89555553920E+03  0.00000000000E+00 0.  1.
         21   -1    0    0  501  503 -0.00000000000E+00 -0.00000000000E+00 -0.71813388428E+02  0.71813388428E+02  0.00000000000E+00 0.  1.
          6    1    1    2  501    0  0.69035997221E+02  0.13663443613E+02  0.84668063412E+02  0.20506179451E+03  0.17300000000E+03 0.  1.
         -6    1    1    2    0  502 -0.69035997221E+02 -0.13663443613E+02  0.73907408736E+03  0.76230713313E+03  0.17300000000E+03 0.  1.
<mgrwt>
<rscale>  2 0.18676632E+03</rscale>
<asrwt>0</asrwt>
<pdfrwt beam="1">  1       21 0.13777777E+00 0.18676632E+03</pdfrwt>
<pdfrwt beam="2">  1       21 0.11048214E-01 0.18676632E+03</pdfrwt>
<totfact> 0.25451548E+04</totfact>
</mgrwt>
</event>
<event>
 4    1  0.4531281E+000  0.2209697E+03  0.7546771E-02  0.1133162E+00
         21   -1    0    0  503  502  0.00000000000E+00  0.00000000000E+00  0.85352843470E+03  0.85352843470E+03  0.00000000000E+00 0.  1.
         21   -1    0    0  501  503 -0.00000000000E+00 -0.00000000000E+00 -0.59794621774E+02  0.59794621774E+02  0.00000000000E+00 0.  1.
          6    1    1    2  501    0  0.17609892088E+02  0.13633969380E+03  0.30186517211E+03  0.37409918810E+03  0.17300000000E+03 0.  1.
         -6    1    1    2    0  502 -0.17609892088E+02 -0.13633969380E+03  0.49186864081E+03  0.53922386837E+03  0.17300000000E+03 0.  1.
<mgrwt>
<rscale>  2 0.22096973E+03</rscale>
<asrwt>0</asrwt>
<pdfrwt beam="1">  1       21 0.13131206E+00 0.22096973E+03</pdfrwt>
<pdfrwt beam="2">  1       21 0.91991732E-02 0.22096973E+03</pdfrwt>
<totfact> 0.38996643E+04</totfact>
</mgrwt>
</event>
<event>
 4    1  0.4531281E+000  0.1941029E+03  0.7546771E-02  0.1154812E+00
         21   -1    0    0  503  502  0.00000000000E+00  0.00000000000E+00  0.10705553249E+04  0.10705553249E+04  0.00000000000E+00 0.  1.
         21   -1    0    0  501  503 -0.00000000000E+00 -0.00000000000E+00 -0.46737072628E+02  0.46737072628E+02  0.00000000000E+00 0. -1.
          6    1    1    2  501    0 -0.83184130088E+02  0.28763246551E+02  0.23426537802E+03  0.30423049024E+03  0.17300000000E+03 0. -1.
         -6    1    1    2    0  502  0.83184130088E+02 -0.28763246551E+02  0.78955287428E+03  0.81306190732E+03  0.17300000000E+03 0.  1.
<mgrwt>
<rscale>  2 0.19410287E+03</rscale>
<asrwt>0</asrwt>
<pdfrwt beam="1">  1       21 0.16470080E+00 0.19410287E+03</pdfrwt>
<pdfrwt beam="2">  1       21 0.71903197E-02 0.19410287E+03</pdfrwt>
<totfact> 0.33574708E+04</totfact>
</mgrwt>
</event>
<event>
 4    1  0.4531281E+000  0.1803910E+03  0.7546771E-02  0.1167425E+00
         21   -1    0    0  503  502  0.00000000000E+00  0.00000000000E+00  0.28874065917E+02  0.28874065917E+02  0.00000000000E+00 0. -1.
         21   -1    0    0  501  503 -0.00000000000E+00 -0.00000000000E+00 -0.11475186535E+04  0.11475186535E+04  0.00000000000E+00 0.  1.
          6    1    1    2  501    0 -0.43539489212E+02  0.26762075786E+02 -0.63798729491E+03  0.66299976191E+03  0.17300000000E+03 0.  1.
         -6    1    1    2    0  502  0.43539489212E+02 -0.26762075786E+02 -0.48065729265E+03  0.51339295749E+03  0.17300000000E+03 0.  1.
<mgrwt>
<rscale>  2 0.18039095E+03</rscale>
<asrwt>0</asrwt>
<pdfrwt beam="1">  1       21 0.44421644E-02 0.18039095E+03</pdfrwt>
<pdfrwt beam="2">  1       21 0.17654132E+00 0.18039095E+03</pdfrwt>
<totfact> 0.63581140E+04</totfact>
</mgrwt>
</event>
<event>
 4    1  0.4531281E+000  0.2032258E+03  0.7546771E-02  0.1147046E+00
         21   -1    0    0  501  502  0.00000000000E+00  0.00000000000E+00  0.24359278948E+03  0.24359278948E+03  0.00000000000E+00 0.  1.
         21   -1    0    0  502  503 -0.00000000000E+00 -0.00000000000E+00 -0.22203718935E+03  0.22203718935E+03  0.00000000000E+00 0. -1.
          6    1    1    2  501    0 -0.10425014891E+03 -0.22441699363E+02  0.12397406782E+03  0.23805523079E+03  0.17300000000E+03 0.  1.
         -6    1    1    2    0  503  0.10425014891E+03  0.22441699363E+02 -0.10241846769E+03  0.22757474803E+03  0.17300000000E+03 0. -1.
<mgrwt>
<rscale>  2 0.20322579E+03</rscale>
<asrwt>0</asrwt>
<pdfrwt beam="1">  1       21 0.37475814E-01 0.20322579E+03</pdfrwt>
<pdfrwt beam="2">  1       21 0.34159568E-01 0.20322579E+03</pdfrwt>
<totfact> 0.56424142E+04</totfact>
</mgrwt>
</event>
<event>
 4    1  0.4531281E+000  0.2836556E+03  0.7546771E-02  0.1093709E+00
         21   -1    0    0  501  502  0.00000000000E+00  0.00000000000E+00  0.13243446071E+04  0.13243446071E+04  0.00000000000E+00 0.  1.
         21   -1    0    0  502  503 -0.00000000000E+00 -0.00000000000E+00 -0.98191999826E+02  0.98191999826E+02  0.00000000000E+00 0. -1.
          6    1    1    2  501    0 -0.10117739802E+03 -0.20073528804E+03  0.10522598633E+04  0.10898217017E+04  0.17300000000E+03 0.  1.
         -6    1    1    2    0  503  0.10117739802E+03  0.20073528804E+03  0.17389274407E+03  0.33271490525E+03  0.17300000000E+03 0. -1.
<mgrwt>
<rscale>  2 0.28365564E+03</rscale>
<asrwt>0</asrwt>
<pdfrwt beam="1">  1       21 0.20374531E+00 0.28365564E+03</pdfrwt>
<pdfrwt beam="2">  1       21 0.15106462E-01 0.28365564E+03</pdfrwt>
<totfact> 0.45808296E+03</totfact>
</mgrwt>
</event>
<event>
 4    1  0.4531281E+000  0.1733834E+03  0.7546771E-02  0.1174365E+00
         21   -1    0    0  501  502  0.00000000000E+00  0.00000000000E+00  0.39371707434E+03  0.39371707434E+03  0.00000000000E+00 0.  1.
         21   -1    0    0  502  503 -0.00000000000E+00 -0.00000000000E+00 -0.78797243004E+02  0.78797243004E+02  0.00000000000E+00 0.  1.
          6    1    1    2  501    0 -0.56735763325E+01 -0.10030554759E+02  0.19906333720E+03  0.26398487403E+03  0.17300000000E+03 0.  1.
         -6    1    1    2    0  503  0.56735763325E+01  0.10030554759E+02  0.11585649414E+03  0.20852944332E+03  0.17300000000E+03 0.  1.
<mgrwt>
<rscale>  2 0.17338339E+03</rscale>
<asrwt>0</asrwt>
<pdfrwt beam="1">  1       21 0.60571857E-01 0.17338339E+03</pdfrwt>
<pdfrwt beam="2">  1       21 0.12122653E-01 0.17338339E+03</pdfrwt>
<totfact> 0.14725485E+05</totfact>
</mgrwt>
</event>
<event>
 4    1  0.4531281E+000  0.2042010E+03  0.7546771E-02  0.1146242E+00
         21   -1    0    0  501  502  0.00000000000E+00  0.00000000000E+00  0.48470963426E+03  0.48470963426E+03  0.00000000000E+00 0. -1.
         21   -1    0    0  502  503 -0.00000000000E+00 -0.00000000000E+00 -0.10321407193E+03  0.10321407193E+03  0.00000000000E+00 0. -1.
          6    1    1    2  501    0 -0.43445375103E+01 -0.10839816310E+03  0.31070448543E+03  0.37180009957E+03  0.17300000000E+03 0. -1.
         -6    1    1    2    0  503  0.43445375103E+01  0.10839816310E+03  0.70791076900E+02  0.21612360662E+03  0.17300000000E+03 0. -1.
<mgrwt>
<rscale>  2 0.20420097E+03</rscale>
<asrwt>0</asrwt>
<pdfrwt beam="1">  1       21 0.74570712E-01 0.20420097E+03</pdfrwt>
<pdfrwt beam="2">  1       21 0.15879088E-01 0.20420097E+03</pdfrwt>
<totfact> 0.56621310E+04</totfact>
</mgrwt>
</event>
<event>
 4    1  0.4531281E+000  0.2684236E+03  0.7546771E-02  0.1102185E+00
         21   -1    0    0  501  502  0.00000000000E+00  0.00000000000E+00  0.99019289159E+02  0.99019289159E+02  0.00000000000E+00 0. -1.
         21   -1    0    0  502  503 -0.00000000000E+00 -0.00000000000E+00 -0.73152197775E+03  0.73152197775E+03  0.00000000000E+00 0. -1.
          6    1    1    2  501    0 -0.19381641695E+03 -0.67508779745E+02 -0.28603324379E+03  0.39225789396E+03  0.17300000000E+03 0. -1.
         -6    1    1    2    0  503  0.19381641695E+03  0.67508779745E+02 -0.34646944479E+03  0.43828337294E+03  0.17300000000E+03 0. -1.
<mgrwt>
<rscale>  2 0.26842362E+03</rscale>
<asrwt>0</asrwt>
<pdfrwt beam="1">  1       21 0.15233736E-01 0.26842362E+03</pdfrwt>
<pdfrwt beam="2">  1       21 0.11254185E+00 0.26842362E+03</pdfrwt>
<totfact> 0.22622948E+04</totfact>
</mgrwt>
</event>
<event>
 4    1  0.4531281E+000  0.1795404E+03  0.7546771E-02  0.1168249E+00
         21   -1    0    0  503  502  0.00000000000E+00  0.00000000000E+00  0.17564335843E+03  0.17564335843E+03  0.00000000000E+00 0.  1.
         21   -1    0    0  501  503 -0.00000000000E+00 -0.00000000000E+00 -0.42605236839E+03  0.42605236839E+03  0.00000000000E+00 0.  1.
          6    1    1    2  501    0  0.46769918171E+02  0.10877819521E+02 -0.35218932372E+03  0.39531262559E+03  0.17300000000E+03 0.  1.
         -6    1    1    2    0  502 -0.46769918171E+02 -0.10877819521E+02  0.10178031376E+03  0.20638310123E+03  0.17300000000E+03 0.  1.
<mgrwt>
<rscale>  2 0.17954039E+03</rscale>
<asrwt>0</asrwt>
<pdfrwt beam="1">  1       21 0.27022055E-01 0.17954039E+03</pdfrwt>
<pdfrwt beam="2">  1       21 0.65546518E-01 0.17954039E+03</pdfrwt>
<totfact> 0.28129260E+04</totfact>
</mgrwt>
</event>
<event>
 4    1  0.4531281E+000  0.1777533E+03  0.7546771E-02  0.1169995E+00
         21   -1    0    0  503  502  0.00000000000E+00  0.00000000000E+00  0.10417514680E+02  0.10417514680E+02  0.00000000000E+00 0. -1.
         21   -1    0    0  501  503 -0.00000000000E+00 -0.00000000000E+00 -0.39854434655E+04  0.39854434655E+04  0.00000000000E+00 0. -1.
          6    1    1    2  501    0 -0.20676252240E+02  0.35209545300E+02 -0.29642190651E+04  0.29695438851E+04  0.17300000000E+03 0. -1.
         -6    1    1    2    0  502  0.20676252240E+02 -0.35209545300E+02 -0.10108068857E+04  0.10263170951E+04  0.17300000000E+03 0. -1.
<mgrwt>
<rscale>  2 0.17775325E+03</rscale>
<asrwt>0</asrwt>
<pdfrwt beam="1">  1       21 0.16026930E-02 0.17775325E+03</pdfrwt>
<pdfrwt beam="2">  1       21 0.61314576E+00 0.17775325E+03</pdfrwt>
<totfact> 0.48538995E+02</totfact>
</mgrwt>
</event>
<event>
 4    1  0.4531281E+000  0.1857717E+03  0.7546771E-02  0.1162331E+00
         21   -1    0    0  501  502  0.00000000000E+00  0.00000000000E+00  0.16049978940E+03  0.16049978940E+03  0.00000000000E+00 0.  1.
         21   -1    0    0  502  503 -0.00000000000E+00 -0.00000000000E+00 -0.28440389423E+03  0.28440389423E+03  0.00000000000E+00 0. -1.
          6    1    1    2  501    0  0.14821204762E+02  0.66049017664E+02 -0.17182437061E+03  0.25305089445E+03  0.17300000000E+03 0. -1.
         -6    1    1    2    0  503 -0.14821204762E+02 -0.66049017664E+02  0.47920265788E+02  0.19185278919E+03  0.17300000000E+03 0.  1.
<mgrwt>
<rscale>  2 0.18577174E+03</rscale>
<asrwt>0</asrwt>
<pdfrwt beam="1">  1       21 0.24692276E-01 0.18577174E+03</pdfrwt>
<pdfrwt beam="2">  1       21 0.43754444E-01 0.18577174E+03</pdfrwt>
<totfact> 0.78062316E+04</totfact>
</mgrwt>
</event>
<event>
 4    1  0.4531281E+000  0.1990573E+03  0.7546771E-02  0.1150537E+00
         21   -1    0    0  501  502  0.00000000000E+00  0.00000000000E+00  0.22060812631E+03  0.22060812631E+03  0.00000000000E+00 0.  1.
         21   -1    0    0  502  503 -0.00000000000E+00 -0.00000000000E+00 -0.44399095288E+03  0.44399095288E+03  0.00000000000E+00 0.  1.
          6    1    1    2  501    0 -0.96567140227E+02 -0.19224609342E+02  0.14473123060E+03  0.24611161551E+03  0.17300000000E+03 0.  1.
         -6    1    1    2    0  503  0.96567140227E+02  0.19224609342E+02 -0.36811405717E+03  0.41848746368E+03  0.17300000000E+03 0.  1.
<mgrwt>
<rscale>  2 0.19905727E+03</rscale>
<asrwt>0</asrwt>
<pdfrwt beam="1">  1       21 0.33939712E-01 0.19905727E+03</pdfrwt>
<pdfrwt beam="2">  1       21 0.68306300E-01 0.19905727E+03</pdfrwt>
<totfact> 0.16289614E+04</totfact>
</mgrwt>
</event>
<event>
 4    1  0.4531281E+000  0.1836219E+03  0.7546771E-02  0.1164343E+00
         21   -1    0    0  503  502  0.00000000000E+00  0.00000000000E+00  0.14207683462E+03  0.14207683462E+03  0.00000000000E+00 0. -1.
         21   -1    0    0  501  503 -0.00000000000E+00 -0.00000000000E+00 -0.24163571419E+03  0.24163571419E+03  0.00000000000E+00 0. -1.
          6    1    1    2  501    0  0.60787028897E+02  0.96400147718E+01 -0.75433909409E+02  0.19851263802E+03  0.17300000000E+03 0. -1.
         -6    1    1    2    0  502 -0.60787028897E+02 -0.96400147718E+01 -0.24124970161E+02  0.18519991078E+03  0.17300000000E+03 0. -1.
<mgrwt>
<rscale>  2 0.18362187E+03</rscale>
<asrwt>0</asrwt>
<pdfrwt beam="1">  1       21 0.21857975E-01 0.18362187E+03</pdfrwt>
<pdfrwt beam="2">  1       21 0.37174725E-01 0.18362187E+03</pdfrwt>
<totfact> 0.13677753E+05</totfact>
</mgrwt>
</event>
<event>
 4    1  0.4531281E+000  0.3192350E+03  0.7546771E-02  0.1076002E+00
         21   -1    0    0  503  502  0.00000000000E+00  0.00000000000E+00  0.71814293682E+03  0.71814293682E+03  0.00000000000E+00 0.  1.
         21   -1    0    0  501  503 -0.00000000000E+00 -0.00000000000E+00 -0.14258614113E+03  0.14258614113E+03  0.00000000000E+00 0. -1.
          6    1    1    2  501    0  0.15206916251E+03  0.22103611228E+03  0.25812213752E+03  0.41053383661E+03  0.17300000000E+03 0. -1.
         -6    1    1    2    0  502 -0.15206916251E+03 -0.22103611228E+03  0.31743465817E+03  0.45019524135E+03  0.17300000000E+03 0.  1.
<mgrwt>
<rscale>  2 0.31923501E+03</rscale>
<asrwt>0</asrwt>
<pdfrwt beam="1">  1       21 0.11048353E+00 0.31923501E+03</pdfrwt>
<pdfrwt beam="2">  1       21 0.21936330E-01 0.31923501E+03</pdfrwt>
<totfact> 0.11701893E+04</totfact>
</mgrwt>
</event>
<event>
 4    1  0.4531281E+000  0.1788706E+03  0.7546771E-02  0.1168901E+00
         21   -1    0    0  503  502  0.00000000000E+00  0.00000000000E+00  0.11473566743E+03  0.11473566743E+03  0.00000000000E+00 0. -1.
         21   -1    0    0  501  503 -0.00000000000E+00 -0.00000000000E+00 -0.35976360118E+03  0.35976360118E+03  0.00000000000E+00 0. -1.
          6    1    1    2  501    0 -0.27070095062E+02  0.36508782397E+02 -0.23502438197E+03  0.29534918547E+03  0.17300000000E+03 0. -1.
         -6    1    1    2    0  502  0.27070095062E+02 -0.36508782397E+02 -0.10003551778E+02  0.17915008313E+03  0.17300000000E+03 0. -1.
<mgrwt>
<rscale>  2 0.17887057E+03</rscale>
<asrwt>0</asrwt>
<pdfrwt beam="1">  1       21 0.17651641E-01 0.17887057E+03</pdfrwt>
<pdfrwt beam="2">  1       21 0.55348245E-01 0.17887057E+03</pdfrwt>
<totfact> 0.90077030E+04</totfact>
</mgrwt>
</event>
<event>
 4    1  0.4531281E+000  0.2262089E+03  0.7546771E-02  0.1129337E+00
         21   -1    0    0  503  502  0.00000000000E+00  0.00000000000E+00  0.16240308304E+03  0.16240308304E+03  0.00000000000E+00 0.  1.
         21   -1    0    0  501  503 -0.00000000000E+00 -0.00000000000E+00 -0.21199887218E+04  0.21199887218E+04  0.00000000000E+00 0.  1.
          6    1    1    2  501    0  0.14241755464E+03  0.30962932514E+02 -0.20317741712E+04  0.20443279448E+04  0.17300000000E+03 0.  1.
         -6    1    1    2    0  502 -0.14241755464E+03 -0.30962932514E+02  0.74188532541E+02  0.23806385996E+03  0.17300000000E+03 0.  1.
<mgrwt>
<rscale>  2 0.22620889E+03</rscale>
<asrwt>0</asrwt>
<pdfrwt beam="1">  1       21 0.24985092E-01 0.22620889E+03</pdfrwt>
<pdfrwt beam="2">  1       21 0.32615208E+00 0.22620889E+03</pdfrwt>
<totfact> 0.34844531E+02</totfact>
</mgrwt>
</event>
<event>
 4    1  0.4531281E+000  0.2212020E+03  0.7546771E-02  0.1132990E+00
         21   -1    0    0  503  502  0.00000000000E+00  0.00000000000E+00  0.15224324290E+03  0.15224324290E+03  0.00000000000E+00 0. -1.
         21   -1    0    0  501  503 -0.00000000000E+00 -0.00000000000E+00 -0.38511874674E+03  0.38511874674E+03  0.00000000000E+00 0.  1.
          6    1    1    2  501    0  0.13086273145E+03  0.43315774853E+02 -0.22572970077E+03  0.31604463077E+03  0.17300000000E+03 0.  1.
         -6    1    1    2    0  502 -0.13086273145E+03 -0.43315774853E+02 -0.71458030761E+01  0.22131735886E+03  0.17300000000E+03 0.  1.
<mgrwt>
<rscale>  2 0.22120197E+03</rscale>
<asrwt>0</asrwt>
<pdfrwt beam="1">  1       21 0.23422037E-01 0.22120197E+03</pdfrwt>
<pdfrwt beam="2">  1       21 0.59249039E-01 0.22120197E+03</pdfrwt>
<totfact> 0.45017926E+04</totfact>
</mgrwt>
</event>
<event>
 4    1  0.4531281E+000  0.1911308E+03  0.7546771E-02  0.1157445E+00
         21   -1    0    0  501  502  0.00000000000E+00  0.00000000000E+00  0.25875875303E+02  0.25875875303E+02  0.00000000000E+00 0.  1.
         21   -1    0    0  502  503 -0.00000000000E+00 -0.00000000000E+00 -0.21235372014E+04  0.21235372014E+04  0.00000000000E+00 0.  1.
          6    1    1    2  501    0  0.74381437790E+02  0.32701316956E+02 -0.42663539969E+03  0.46749196644E+03  0.17300000000E+03 0.  1.
         -6    1    1    2    0  503 -0.74381437790E+02 -0.32701316956E+02 -0.16710259264E+04  0.16819211103E+04  0.17300000000E+03 0.  1.
<mgrwt>
<rscale>  2 0.19113078E+03</rscale>
<asrwt>0</asrwt>
<pdfrwt beam="1">  1       21 0.39809038E-02 0.19113078E+03</pdfrwt>
<pdfrwt beam="2">  1       21 0.32669804E+00 0.19113078E+03</pdfrwt>
<totfact> 0.94707237E+03</totfact>
</mgrwt>
</event>
<event>
 4    1  0.4531281E+000  0.1790901E+03  0.7546771E-02  0.1168687E+00
         21   -1    0    0  501  502  0.00000000000E+00  0.00000000000E+00  0.82291413626E+02  0.82291413626E+02  0.00000000000E+00 0.  1.
         21   -1    0    0  502  503 -0.00000000000E+00 -0.00000000000E+00 -0.54981942922E+03  0.54981942922E+03  0.00000000000E+00 0.  1.
          6    1    1    2  501    0  0.35502842652E+02 -0.29729219109E+02 -0.63232706258E+02  0.18992538916E+03  0.17300000000E+03 0.  1.
         -6    1    1    2    0  503 -0.35502842652E+02  0.29729219109E+02 -0.40429530934E+03  0.44218545369E+03  0.17300000000E+03 0.  1.
<mgrwt>
<rscale>  2 0.17909014E+03</rscale>
<asrwt>0</asrwt>
<pdfrwt beam="1">  1       21 0.12660218E-01 0.17909014E+03</pdfrwt>
<pdfrwt beam="2">  1       21 0.84587602E-01 0.17909014E+03</pdfrwt>
<totfact> 0.64992233E+04</totfact>
</mgrwt>
</event>
<event>
 4    1  0.4531281E+000  0.1814471E+03  0.7546771E-02  0.1166410E+00
         21   -1    0    0  503  502  0.00000000000E+00  0.00000000000E+00  0.17789021030E+03  0.17789021030E+03  0.00000000000E+00 0. -1.
         21   -1    0    0  501  503 -0.00000000000E+00 -0.00000000000E+00 -0.25002863822E+03  0.25002863822E+03  0.00000000000E+00 0. -1.
          6    1    1    2  501    0  0.34652433290E+02  0.42346775862E+02 -0.14512233467E+03  0.23234356582E+03  0.17300000000E+03 0. -1.
         -6    1    1    2    0  502 -0.34652433290E+02 -0.42346775862E+02  0.72983906749E+02  0.19557528270E+03  0.17300000000E+03 0. -1.
<mgrwt>
<rscale>  2 0.18144707E+03</rscale>
<asrwt>0</asrwt>
<pdfrwt beam="1">  1       21 0.27367725E-01 0.18144707E+03</pdfrwt>
<pdfrwt beam="2">  1       21 0.38465944E-01 0.18144707E+03</pdfrwt>
<totfact> 0.83356026E+04</totfact>
</mgrwt>
</event>
<event>
 4    1  0.4531281E+000  0.1891314E+03  0.7546771E-02  0.1159247E+00
         21   -1    0    0  501  502  0.00000000000E+00  0.00000000000E+00  0.57069995441E+02  0.57069995441E+02  0.00000000000E+00 0.  1.
         21   -1    0    0  502  503 -0.00000000000E+00 -0.00000000000E+00 -0.92870227069E+03  0.92870227069E+03  0.00000000000E+00 0.  1.
          6    1    1    2  501    0  0.69689619995E+02 -0.31385672215E+02 -0.15478707495E+03  0.24439669009E+03  0.17300000000E+03 0.  1.
         -6    1    1    2    0  503 -0.69689619995E+02  0.31385672215E+02 -0.71684520030E+03  0.74137557604E+03  0.17300000000E+03 0.  1.
<mgrwt>
<rscale>  2 0.18913145E+03</rscale>
<asrwt>0</asrwt>
<pdfrwt beam="1">  1       21 0.87800004E-02 0.18913145E+03</pdfrwt>
<pdfrwt beam="2">  1       21 0.14287726E+00 0.18913145E+03</pdfrwt>
<totfact> 0.34700962E+04</totfact>
</mgrwt>
</event>
<event>
 4    1  0.4531281E+000  0.1908207E+03  0.7546771E-02  0.1157723E+00
         21   -1    0    0  501  502  0.00000000000E+00  0.00000000000E+00  0.41661195802E+03  0.41661195802E+03  0.00000000000E+00 0.  1.
         21   -1    0    0  502  503 -0.00000000000E+00 -0.00000000000E+00 -0.12750482852E+03  0.12750482852E+03  0.00000000000E+00 0. -1.
          6    1    1    2  501    0  0.79170577150E+02  0.14682463289E+02  0.29713034244E+03  0.35312744925E+03  0.17300000000E+03 0.  1.
         -6    1    1    2    0  503 -0.79170577150E+02 -0.14682463289E+02 -0.80232129455E+01  0.19098933730E+03  0.17300000000E+03 0. -1.
<mgrwt>
<rscale>  2 0.19082074E+03</rscale>
<asrwt>0</asrwt>
<pdfrwt beam="1">  1       21 0.64094147E-01 0.19082074E+03</pdfrwt>
<pdfrwt beam="2">  1       21 0.19616128E-01 0.19082074E+03</pdfrwt>
<totfact> 0.53825719E+04</totfact>
</mgrwt>
</event>
<event>
 4    1  0.4531281E+000  0.1780141E+03  0.7546771E-02  0.1169739E+00
         21   -1    0    0  503  502  0.00000000000E+00  0.00000000000E+00  0.12076994596E+03  0.12076994596E+03  0.00000000000E+00 0. -1.
         21   -1    0    0  501  503 -0.00000000000E+00 -0.00000000000E+00 -0.38022175638E+03  0.38022175638E+03  0.00000000000E+00 0. -1.
          6    1    1    2  501    0 -0.18350021207E+02  0.37726380031E+02 -0.26917334063E+03  0.32271239569E+03  0.17300000000E+03 0. -1.
         -6    1    1    2    0  502  0.18350021207E+02 -0.37726380031E+02  0.97215302115E+01  0.17827930665E+03  0.17300000000E+03 0. -1.
<mgrwt>
<rscale>  2 0.17801405E+03</rscale>
<asrwt>0</asrwt>
<pdfrwt beam="1">  1       21 0.18579992E-01 0.17801405E+03</pdfrwt>
<pdfrwt beam="2">  1       21 0.58495655E-01 0.17801405E+03</pdfrwt>
<totfact> 0.72889386E+04</totfact>
</mgrwt>
</event>
<event>
 4    1  0.4531281E+000  0.1979455E+03  0.7546771E-02  0.1151484E+00
         21   -1    0    0  501  502  0.00000000000E+00  0.00000000000E+00  0.37291170871E+03  0.37291170871E+03  0.00000000000E+00 0. -1.
         21   -1    0    0  502  503 -0.00000000000E+00 -0.00000000000E+00 -0.19172482306E+03  0.19172482306E+03  0.00000000000E+00 0.  1.
          6    1    1    2  501    0  0.19764080908E+02  0.94142371716E+02  0.28039174902E+03  0.34322286923E+03  0.17300000000E+03 0. -1.
         -6    1    1    2    0  503 -0.19764080908E+02 -0.94142371716E+02 -0.99204863363E+02  0.22141366254E+03  0.17300000000E+03 0.  1.
<mgrwt>
<rscale>  2 0.19794546E+03</rscale>
<asrwt>0</asrwt>
<pdfrwt beam="1">  1       21 0.57371032E-01 0.19794546E+03</pdfrwt>
<pdfrwt beam="2">  1       21 0.29496127E-01 0.19794546E+03</pdfrwt>
<totfact> 0.31318490E+04</totfact>
</mgrwt>
</event>
<event>
 4    1  0.4531281E+000  0.1863709E+03  0.7546771E-02  0.1161776E+00
         21   -1    0    0  503  502  0.00000000000E+00  0.00000000000E+00  0.12498216361E+03  0.12498216361E+03  0.00000000000E+00 0. -1.
         21   -1    0    0  501  503 -0.00000000000E+00 -0.00000000000E+00 -0.82442244097E+03  0.82442244097E+03  0.00000000000E+00 0.  1.
          6    1    1    2  501    0  0.17642348962E+02  0.67036152403E+02  0.36776295982E+02  0.18996471818E+03  0.17300000000E+03 0. -1.
         -6    1    1    2    0  502 -0.17642348962E+02 -0.67036152403E+02 -0.73621657334E+03  0.75943988641E+03  0.17300000000E+03 0.  1.
<mgrwt>
<rscale>  2 0.18637086E+03</rscale>
<asrwt>0</asrwt>
<pdfrwt beam="1">  1       21 0.19228025E-01 0.18637086E+03</pdfrwt>
<pdfrwt beam="2">  1       21 0.12683422E+00 0.18637086E+03</pdfrwt>
<totfact> 0.11476085E+04</totfact>
</mgrwt>
</event>
<event>
 4    1  0.4531281E+000  0.2109246E+03  0.7546771E-02  0.1140836E+00
         21   -1    0    0  503  502  0.00000000000E+00  0.00000000000E+00  0.46287218723E+03  0.46287218723E+03  0.00000000000E+00 0.  1.
         21   -1    0    0  501  503 -0.00000000000E+00 -0.00000000000E+00 -0.10492228523E+03  0.10492228523E+03  0.00000000000E+00 0.  1.
          6    1    1    2  501    0  0.11491431849E+03 -0.36808958668E+02  0.96725017856E+02  0.23204510146E+03  0.17300000000E+03 0. -1.
         -6    1    1    2    0  502 -0.11491431849E+03  0.36808958668E+02  0.26122488414E+03  0.33574937100E+03  0.17300000000E+03 0. -1.
<mgrwt>
<rscale>  2 0.21092463E+03</rscale>
<asrwt>0</asrwt>
<pdfrwt beam="1">  1       21 0.71211105E-01 0.21092463E+03</pdfrwt>
<pdfrwt beam="2">  1       21 0.16141890E-01 0.21092463E+03</pdfrwt>
<totfact> 0.60688071E+04</totfact>
</mgrwt>
</event>
<event>
 4    1  0.4531281E+000  0.1984794E+03  0.7546771E-02  0.1151028E+00
         21   -1    0    0  503  502  0.00000000000E+00  0.00000000000E+00  0.20892383663E+03  0.20892383663E+03  0.00000000000E+00 0.  1.
         21   -1    0    0  501  503 -0.00000000000E+00 -0.00000000000E+00 -0.28795521722E+03  0.28795521722E+03  0.00000000000E+00 0.  1.
          6    1    1    2  501    0 -0.57080667202E+02  0.78783609207E+02 -0.18548025416E+03  0.27165600367E+03  0.17300000000E+03 0.  1.
         -6    1    1    2    0  502  0.57080667202E+02 -0.78783609207E+02  0.10644887357E+03  0.22522305018E+03  0.17300000000E+03 0.  1.
<mgrwt>
<rscale>  2 0.19847937E+03</rscale>
<asrwt>0</asrwt>
<pdfrwt beam="1">  1       21 0.32142129E-01 0.19847937E+03</pdfrwt>
<pdfrwt beam="2">  1       21 0.44300802E-01 0.19847937E+03</pdfrwt>
<totfact> 0.45429181E+04</totfact>
</mgrwt>
</event>
<event>
 4    1  0.4531281E+000  0.2640593E+03  0.7546771E-02  0.1104729E+00
         21   -1    0    0  501  502  0.00000000000E+00  0.00000000000E+00  0.74426105643E+03  0.74426105643E+03  0.00000000000E+00 0. -1.
         21   -1    0    0  502  503 -0.00000000000E+00 -0.00000000000E+00 -0.10674123219E+03  0.10674123219E+03  0.00000000000E+00 0. -1.
          6    1    1    2  501    0  0.19687309405E+03 -0.32238491554E+02  0.46756434962E+03  0.53697649532E+03  0.17300000000E+03 0. -1.
         -6    1    1    2    0  503 -0.19687309405E+03  0.32238491554E+02  0.16995547462E+03  0.31402579329E+03  0.17300000000E+03 0. -1.
<mgrwt>
<rscale>  2 0.26405934E+03</rscale>
<asrwt>0</asrwt>
<pdfrwt beam="1">  1       21 0.11450170E+00 0.26405934E+03</pdfrwt>
<pdfrwt beam="2">  1       21 0.16421728E-01 0.26405934E+03</pdfrwt>
<totfact> 0.18920649E+04</totfact>
</mgrwt>
</event>
<event>
 4    1  0.4531281E+000  0.2194086E+03  0.7546771E-02  0.1134325E+00
         21   -1    0    0  503  502  0.00000000000E+00  0.00000000000E+00  0.19698468062E+03  0.19698468062E+03  0.00000000000E+00 0.  1.
         21   -1    0    0  501  503 -0.00000000000E+00 -0.00000000000E+00 -0.24854550100E+03  0.24854550100E+03  0.00000000000E+00 0. -1.
          6    1    1    2  501    0  0.26563466725E+02 -0.13230844625E+03  0.30403870243E+01  0.21942968502E+03  0.17300000000E+03 0. -1.
         -6    1    1    2    0  502 -0.26563466725E+02  0.13230844625E+03 -0.54601207407E+02  0.22610049660E+03  0.17300000000E+03 0.  1.
<mgrwt>
<rscale>  2 0.21940862E+03</rscale>
<asrwt>0</asrwt>
<pdfrwt beam="1">  1       21 0.30305335E-01 0.21940862E+03</pdfrwt>
<pdfrwt beam="2">  1       21 0.38237770E-01 0.21940862E+03</pdfrwt>
<totfact> 0.68107721E+04</totfact>
</mgrwt>
</event>
<event>
 4    1  0.4531281E+000  0.2138014E+03  0.7546771E-02  0.1138591E+00
         21   -1    0    0  503  502  0.00000000000E+00  0.00000000000E+00  0.13860403987E+03  0.13860403987E+03  0.00000000000E+00 0.  1.
         21   -1    0    0  501  503 -0.00000000000E+00 -0.00000000000E+00 -0.34593900137E+03  0.34593900137E+03  0.00000000000E+00 0.  1.
          6    1    1    2  501    0 -0.45131138438E+02 -0.11724004880E+03 -0.51332069696E+02  0.21987730688E+03  0.17300000000E+03 0.  1.
         -6    1    1    2    0  502  0.45131138438E+02  0.11724004880E+03 -0.15600289180E+03  0.26466573437E+03  0.17300000000E+03 0.  1.
<mgrwt>
<rscale>  2 0.21380142E+03</rscale>
<asrwt>0</asrwt>
<pdfrwt beam="1">  1       21 0.21323699E-01 0.21380142E+03</pdfrwt>
<pdfrwt beam="2">  1       21 0.53221384E-01 0.21380142E+03</pdfrwt>
<totfact> 0.67799088E+04</totfact>
</mgrwt>
</event>
<event>
 4    1  0.4531281E+000  0.1945439E+03  0.7546771E-02  0.1154426E+00
         21   -1    0    0  501  502  0.00000000000E+00  0.00000000000E+00  0.37874378062E+03  0.37874378062E+03  0.00000000000E+00 0. -1.
         21   -1    0    0  502  503 -0.00000000000E+00 -0.00000000000E+00 -0.10650839721E+03  0.10650839721E+03  0.00000000000E+00 0. -1.
          6    1    1    2  501    0  0.38681914274E+02 -0.80137657579E+02  0.75812885917E+02  0.20879398537E+03  0.17300000000E+03 0. -1.
         -6    1    1    2    0  503 -0.38681914274E+02  0.80137657579E+02  0.19642249750E+03  0.27645819246E+03  0.17300000000E+03 0. -1.
<mgrwt>
<rscale>  2 0.19454391E+03</rscale>
<asrwt>0</asrwt>
<pdfrwt beam="1">  1       21 0.58268273E-01 0.19454391E+03</pdfrwt>
<pdfrwt beam="2">  1       21 0.16385908E-01 0.19454391E+03</pdfrwt>
<totfact> 0.92021853E+04</totfact>
</mgrwt>
</event>
<event>
 4    1  0.4531281E+000  0.2312075E+03  0.7546771E-02  0.1125793E+00
         21   -1    0    0  503  502  0.00000000000E+00  0.00000000000E+00  0.61767957880E+02  0.61767957880E+02  0.00000000000E+00 0.  1.
         21   -1    0    0  501  503 -0.00000000000E+00 -0.00000000000E+00 -0.93845052647E+03  0.93845052647E+03  0.00000000000E+00 0.  1.
          6    1    1    2  501    0 -0.71878445696E+02 -0.13550426338E+03 -0.29885547543E+03  0.37785117645E+03  0.17300000000E+03 0.  1.
         -6    1    1    2    0  502  0.71878445696E+02  0.13550426338E+03 -0.57782709316E+03  0.62236730790E+03  0.17300000000E+03 0.  1.
<mgrwt>
<rscale>  2 0.23120752E+03</rscale>
<asrwt>0</asrwt>
<pdfrwt beam="1">  1       21 0.95027629E-02 0.23120752E+03</pdfrwt>
<pdfrwt beam="2">  1       21 0.14437700E+00 0.23120752E+03</pdfrwt>
<totfact> 0.28667254E+04</totfact>
</mgrwt>
</event>
<event>
 4    1  0.4531281E+000  0.1841466E+03  0.7546771E-02  0.1163849E+00
         21   -1    0    0  501  502  0.00000000000E+00  0.00000000000E+00  0.75253318924E+02  0.75253318924E+02  0.00000000000E+00 0.  1.
         21   -1    0    0  502  503 -0.00000000000E+00 -0.00000000000E+00 -0.45749600852E+03  0.45749600852E+03  0.00000000000E+00 0.  1.
          6    1    1    2  501    0 -0.13571940081E+02  0.61617829854E+02 -0.15844305110E+03  0.24292829180E+03  0.17300000000E+03 0.  1.
         -6    1    1    2    0  503  0.13571940081E+02 -0.61617829854E+02 -0.22379963850E+03  0.28982103565E+03  0.17300000000E+03 0.  1.
<mgrwt>
<rscale>  2 0.18414656E+03</rscale>
<asrwt>0</asrwt>
<pdfrwt beam="1">  1       21 0.11577434E-01 0.18414656E+03</pdfrwt>
<pdfrwt beam="2">  1       21 0.70384001E-01 0.18414656E+03</pdfrwt>
<totfact> 0.11489409E+05</totfact>
</mgrwt>
</event>
<event>
 4    1  0.4531281E+000  0.1747392E+03  0.7546771E-02  0.1172994E+00
         21   -1    0    0  501  502  0.00000000000E+00  0.00000000000E+00  0.60258148352E+03  0.60258148352E+03  0.00000000000E+00 0.  1.
         21   -1    0    0  502  503 -0.00000000000E+00 -0.00000000000E+00 -0.51224162271E+02  0.51224162271E+02  0.00000000000E+00 0.  1.
          6    1    1    2  501    0 -0.21957908823E+02 -0.11073872993E+02  0.24172679172E+03  0.29827105501E+03  0.17300000000E+03 0. -1.
         -6    1    1    2    0  503  0.21957908823E+02  0.11073872993E+02  0.30963052953E+03  0.35553459078E+03  0.17300000000E+03 0. -1.
<mgrwt>
<rscale>  2 0.17473918E+03</rscale>
<asrwt>0</asrwt>
<pdfrwt beam="1">  1       21 0.92704839E-01 0.17473918E+03</pdfrwt>
<pdfrwt beam="2">  1       21 0.78806408E-02 0.17473918E+03</pdfrwt>
<totfact> 0.12164828E+05</totfact>
</mgrwt>
</event>
<event>
 4    1  0.4531281E+000  0.1764842E+03  0.7546771E-02  0.1171250E+00
         21   -1    0    0  501  502  0.00000000000E+00  0.00000000000E+00  0.96540042668E+02  0.96540042668E+02  0.00000000000E+00 0. -1.
         21   -1    0    0  502  503 -0.00000000000E+00 -0.00000000000E+00 -0.32892877587E+03  0.32892877587E+03  0.00000000000E+00 0.  1.
          6    1    1    2  501    0  0.30705241000E+02 -0.16579442700E+02 -0.86755334043E+02  0.19665497128E+03  0.17300000000E+03 0. -1.
         -6    1    1    2    0  503 -0.30705241000E+02  0.16579442700E+02 -0.14563339916E+03  0.22881384725E+03  0.17300000000E+03 0.  1.
<mgrwt>
<rscale>  2 0.17648425E+03</rscale>
<asrwt>0</asrwt>
<pdfrwt beam="1">  1       21 0.14852314E-01 0.17648425E+03</pdfrwt>
<pdfrwt beam="2">  1       21 0.50604427E-01 0.17648425E+03</pdfrwt>
<totfact> 0.14921439E+05</totfact>
</mgrwt>
</event>
<event>
 4    1  0.4531281E+000  0.1797706E+03  0.7546771E-02  0.1168025E+00
         21   -1    0    0  503  502  0.00000000000E+00  0.00000000000E+00  0.45959085483E+03  0.45959085483E+03  0.00000000000E+00 0.  1.
         21   -1    0    0  501  503 -0.00000000000E+00 -0.00000000000E+00 -0.70599974091E+02  0.70599974091E+02  0.00000000000E+00 0. -1.
          6    1    1    2  501    0  0.75511316916E+01  0.48285235187E+02  0.17774028541E+03  0.25280247741E+03  0.17300000000E+03 0. -1.
         -6    1    1    2    0  502 -0.75511316916E+01 -0.48285235187E+02  0.21125059533E+03  0.27738835151E+03  0.17300000000E+03 0.  1.
<mgrwt>
<rscale>  2 0.17977064E+03</rscale>
<asrwt>0</asrwt>
<pdfrwt beam="1">  1       21 0.70706283E-01 0.17977064E+03</pdfrwt>
<pdfrwt beam="2">  1       21 0.10861535E-01 0.17977064E+03</pdfrwt>
<totfact> 0.12761738E+05</totfact>
</mgrwt>
</event>
<event>
 4    1  0.4531281E+000  0.2707976E+03  0.7546771E-02  0.1100824E+00
         21   -1    0    0  503  502  0.00000000000E+00  0.00000000000E+00  0.11293733215E+03  0.11293733215E+03  0.00000000000E+00 0.  1.
         21   -1    0    0  501  503 -0.00000000000E+00 -0.00000000000E+00 -0.66310287213E+03  0.66310287213E+03  0.00000000000E+00 0. -1.
          6    1    1    2  501    0 -0.14074137066E+03  0.15360406606E+03 -0.21912110159E+03  0.34834666596E+03  0.17300000000E+03 0.  1.
         -6    1    1    2    0  502  0.14074137066E+03 -0.15360406606E+03 -0.33104443840E+03  0.42769353832E+03  0.17300000000E+03 0. -1.
<mgrwt>
<rscale>  2 0.27079760E+03</rscale>
<asrwt>0</asrwt>
<pdfrwt beam="1">  1       21 0.17374975E-01 0.27079760E+03</pdfrwt>
<pdfrwt beam="2">  1       21 0.10201582E+00 0.27079760E+03</pdfrwt>
<totfact> 0.22509479E+04</totfact>
</mgrwt>
</event>
<event>
 4    1  0.4531281E+000  0.2824193E+03  0.7546771E-02  0.1094375E+00
         21   -1    0    0  503  502  0.00000000000E+00  0.00000000000E+00  0.71976458338E+02  0.71976458338E+02  0.00000000000E+00 0.  1.
         21   -1    0    0  501  503 -0.00000000000E+00 -0.00000000000E+00 -0.13710074247E+04  0.13710074247E+04  0.00000000000E+00 0. -1.
          6    1    1    2  501    0  0.22222475116E+03  0.21161226017E+02 -0.96543216855E+03  0.10058925935E+04  0.17300000000E+03 0. -1.
         -6    1    1    2    0  502 -0.22222475116E+03 -0.21161226017E+02 -0.33359879780E+03  0.43709128956E+03  0.17300000000E+03 0.  1.
<mgrwt>
<rscale>  2 0.28241926E+03</rscale>
<asrwt>0</asrwt>
<pdfrwt beam="1">  1       21 0.11073300E-01 0.28241926E+03</pdfrwt>
<pdfrwt beam="2">  1       21 0.21092424E+00 0.28241926E+03</pdfrwt>
<totfact> 0.72458842E+03</totfact>
</mgrwt>
</event>
<event>
 4    1  0.4531281E+000  0.1777917E+03  0.7546771E-02  0.1169958E+00
         21   -1    0    0  501  502  0.00000000000E+00  0.00000000000E+00  0.10867538067E+03  0.10867538067E+03  0.00000000000E+00 0. -1.
         21   -1    0    0  502  503 -0.00000000000E+00 -0.00000000000E+00 -0.31204384058E+03  0.31204384058E+03  0.00000000000E+00 0. -1.
          6    1    1    2  501    0  0.20969470163E+02  0.35230263545E+02 -0.46881368985E+02  0.18386884702E+03  0.17300000000E+03 0. -1.
         -6    1    1    2    0  503 -0.20969470163E+02 -0.35230263545E+02 -0.15648709092E+03  0.23685037423E+03  0.17300000000E+03 0. -1.
<mgrwt>
<rscale>  2 0.17779170E+03</rscale>
<asrwt>0</asrwt>
<pdfrwt beam="1">  1       21 0.16719290E-01 0.17779170E+03</pdfrwt>
<pdfrwt beam="2">  1       21 0.48006744E-01 0.17779170E+03</pdfrwt>
<totfact> 0.13406332E+05</totfact>
</mgrwt>
</event>
<event>
 4    1  0.4531281E+000  0.1904348E+03  0.7546771E-02  0.1158070E+00
         21   -1    0    0  503  502  0.00000000000E+00  0.00000000000E+00  0.60715216444E+02  0.60715216444E+02  0.00000000000E+00 0.  1.
         21   -1    0    0  501  503 -0.00000000000E+00 -0.00000000000E+00 -0.17509588149E+04  0.17509588149E+04  0.00000000000E+00 0.  1.
          6    1    1    2  501    0  0.71536674263E+02  0.34912883060E+02 -0.15803973964E+04  0.15918295562E+04  0.17300000000E+03 0.  1.
         -6    1    1    2    0  502 -0.71536674263E+02 -0.34912883060E+02 -0.10984620199E+03  0.21984447516E+03  0.17300000000E+03 0.  1.
<mgrwt>
<rscale>  2 0.19043478E+03</rscale>
<asrwt>0</asrwt>
<pdfrwt beam="1">  1       21 0.93408017E-02 0.19043478E+03</pdfrwt>
<pdfrwt beam="2">  1       21 0.26937830E+00 0.19043478E+03</pdfrwt>
<totfact> 0.47019791E+03</totfact>
</mgrwt>
</event>
<event>
 4    1  0.4531281E+000  0.2258807E+03  0.7546771E-02  0.1129573E+00
         21   -1    0    0  501  502  0.00000000000E+00  0.00000000000E+00  0.24304925076E+03  0.24304925076E+03  0.00000000000E+00 0.  1.
         21   -1    0    0  502  503 -0.00000000000E+00 -0.00000000000E+00 -0.27695709463E+03  0.27695709463E+03  0.00000000000E+00 0.  1.
          6    1    1    2  501    0 -0.64725599854E+02  0.13001414541E+03  0.11095894443E+03  0.25166241005E+03  0.17300000000E+03 0.  1.
         -6    1    1    2    0  503  0.64725599854E+02 -0.13001414541E+03 -0.14486678830E+03  0.26834393535E+03  0.17300000000E+03 0.  1.
<mgrwt>
<rscale>  2 0.22588068E+03</rscale>
<asrwt>0</asrwt>
<pdfrwt beam="1">  1       21 0.37392193E-01 0.22588068E+03</pdfrwt>
<pdfrwt beam="2">  1       21 0.42608784E-01 0.22588068E+03</pdfrwt>
<totfact> 0.35940389E+04</totfact>
</mgrwt>
</event>
<event>
 4    1  0.4531281E+000  0.1891117E+03  0.7546771E-02  0.1159265E+00
         21   -1    0    0  503  502  0.00000000000E+00  0.00000000000E+00  0.17725294698E+03  0.17725294698E+03  0.00000000000E+00 0.  1.
         21   -1    0    0  501  503 -0.00000000000E+00 -0.00000000000E+00 -0.24903890369E+03  0.24903890369E+03  0.00000000000E+00 0.  1.
          6    1    1    2  501    0  0.17221440877E+02 -0.74415506117E+02 -0.12875951090E+03  0.22878430284E+03  0.17300000000E+03 0.  1.
         -6    1    1    2    0  502 -0.17221440877E+02  0.74415506117E+02  0.56973554189E+02  0.19750754784E+03  0.17300000000E+03 0.  1.
<mgrwt>
<rscale>  2 0.18911173E+03</rscale>
<asrwt>0</asrwt>
<pdfrwt beam="1">  1       21 0.27269684E-01 0.18911173E+03</pdfrwt>
<pdfrwt beam="2">  1       21 0.38313678E-01 0.18911173E+03</pdfrwt>
<totfact> 0.84348485E+04</totfact>
</mgrwt>
</event>
<event>
 4    1  0.4531281E+000  0.1934990E+03  0.7546771E-02  0.1155343E+00
         21   -1    0    0  503  502  0.00000000000E+00  0.00000000000E+00  0.30449902622E+02  0.30449902622E+02  0.00000000000E+00 0. -1.
         21   -1    0    0  501  503 -0.00000000000E+00 -0.00000000000E+00 -0.20642624166E+04  0.20642624166E+04  0.00000000000E+00 0.  1.
          6    1    1    2  501    0 -0.75572805677E+02  0.42445291356E+02 -0.16828871993E+04  0.16939749635E+04  0.17300000000E+03 0.  1.
         -6    1    1    2    0  502  0.75572805677E+02 -0.42445291356E+02 -0.35092531471E+03  0.40073735566E+03  0.17300000000E+03 0. -1.
<mgrwt>
<rscale>  2 0.19349897E+03</rscale>
<asrwt>0</asrwt>
<pdfrwt beam="1">  1       21 0.46845990E-02 0.19349897E+03</pdfrwt>
<pdfrwt beam="2">  1       21 0.31757893E+00 0.19349897E+03</pdfrwt>
<totfact> 0.81104603E+03</totfact>
</mgrwt>
</event>
<event>
 4    1  0.4531281E+000  0.2029738E+03  0.7546771E-02  0.1147254E+00
         21   -1    0    0  501  502  0.00000000000E+00  0.00000000000E+00  0.33305719580E+02  0.33305719580E+02  0.00000000000E+00 0. -1.
         21   -1    0    0  502  503 -0.00000000000E+00 -0.00000000000E+00 -0.14167817123E+04  0.14167817123E+04  0.00000000000E+00 0. -1.
          6    1    1    2  501    0 -0.10440846889E+03 -0.19189127318E+02 -0.95003261812E+03  0.97147327625E+03  0.17300000000E+03 0. -1.
         -6    1    1    2    0  503  0.10440846889E+03  0.19189127318E+02 -0.43344337460E+03  0.47861415563E+03  0.17300000000E+03 0. -1.
<mgrwt>
<rscale>  2 0.20297377E+03</rscale>
<asrwt>0</asrwt>
<pdfrwt beam="1">  1       21 0.51239572E-02 0.20297377E+03</pdfrwt>
<pdfrwt beam="2">  1       21 0.21796640E+00 0.20297377E+03</pdfrwt>
<totfact> 0.26507873E+04</totfact>
</mgrwt>
</event>
<event>
 4    1  0.4531281E+000  0.1820287E+03  0.7546771E-02  0.1165854E+00
         21   -1    0    0  503  502  0.00000000000E+00  0.00000000000E+00  0.72327155660E+02  0.72327155660E+02  0.00000000000E+00 0.  1.
         21   -1    0    0  501  503 -0.00000000000E+00 -0.00000000000E+00 -0.49409488005E+03  0.49409488005E+03  0.00000000000E+00 0.  1.
          6    1    1    2  501    0 -0.24537051982E+02  0.51023256775E+02 -0.28730457124E+03  0.34011521035E+03  0.17300000000E+03 0.  1.
         -6    1    1    2    0  502  0.24537051982E+02 -0.51023256775E+02 -0.13446315315E+03  0.22630682536E+03  0.17300000000E+03 0.  1.
<mgrwt>
<rscale>  2 0.18202868E+03</rscale>
<asrwt>0</asrwt>
<pdfrwt beam="1">  1       21 0.11127255E-01 0.18202868E+03</pdfrwt>
<pdfrwt beam="2">  1       21 0.76014595E-01 0.18202868E+03</pdfrwt>
<totfact> 0.10402180E+05</totfact>
</mgrwt>
</event>
<event>
 4    1  0.4531281E+000  0.2325483E+03  0.7546771E-02  0.1124859E+00
         21   -1    0    0  503  502  0.00000000000E+00  0.00000000000E+00  0.13485596144E+04  0.13485596144E+04  0.00000000000E+00 0. -1.
         21   -1    0    0  501  503 -0.00000000000E+00 -0.00000000000E+00 -0.41224762991E+02  0.41224762991E+02  0.00000000000E+00 0. -1.
          6    1    1    2  501    0 -0.15451125183E+03 -0.16612697606E+02  0.53894229119E+03  0.58697316965E+03  0.17300000000E+03 0. -1.
         -6    1    1    2    0  502  0.15451125183E+03  0.16612697606E+02  0.76839256020E+03  0.80281120772E+03  0.17300000000E+03 0. -1.
<mgrwt>
<rscale>  2 0.23254829E+03</rscale>
<asrwt>0</asrwt>
<pdfrwt beam="1">  1       21 0.20747068E+00 0.23254829E+03</pdfrwt>
<pdfrwt beam="2">  1       21 0.63422723E-02 0.23254829E+03</pdfrwt>
<totfact> 0.20963885E+04</totfact>
</mgrwt>
</event>
<event>
 4    1  0.4531281E+000  0.1889344E+03  0.7546771E-02  0.1159426E+00
         21   -1    0    0  503  502  0.00000000000E+00  0.00000000000E+00  0.32102217718E+03  0.32102217718E+03  0.00000000000E+00 0.  1.
         21   -1    0    0  501  503 -0.00000000000E+00 -0.00000000000E+00 -0.21841111708E+03  0.21841111708E+03  0.00000000000E+00 0.  1.
          6    1    1    2  501    0 -0.70448609718E+02  0.28358416612E+02 -0.13766735881E+03  0.23377020359E+03  0.17300000000E+03 0.  1.
         -6    1    1    2    0  502  0.70448609718E+02 -0.28358416612E+02  0.24027841891E+03  0.30566309067E+03  0.17300000000E+03 0.  1.
<mgrwt>
<rscale>  2 0.18893440E+03</rscale>
<asrwt>0</asrwt>
<pdfrwt beam="1">  1       21 0.49388027E-01 0.18893440E+03</pdfrwt>
<pdfrwt beam="2">  1       21 0.33601711E-01 0.18893440E+03</pdfrwt>
<totfact> 0.33416682E+04</totfact>
</mgrwt>
</event>
<event>
 4    1  0.4531281E+000  0.1804833E+03  0.7546771E-02  0.1167336E+00
         21   -1    0    0  501  502  0.00000000000E+00  0.00000000000E+00  0.79146924758E+02  0.79146924758E+02  0.00000000000E+00 0. -1.
         21   -1    0    0  502  503 -0.00000000000E+00 -0.00000000000E+00 -0.43804428435E+03  0.43804428435E+03  0.00000000000E+00 0. -1.
          6    1    1    2  501    0 -0.51900811453E+01 -0.51169013640E+02 -0.24302637879E+03  0.30271442927E+03  0.17300000000E+03 0. -1.
         -6    1    1    2    0  503  0.51900811453E+01  0.51169013640E+02 -0.11587098080E+03  0.21447677984E+03  0.17300000000E+03 0. -1.
<mgrwt>
<rscale>  2 0.18048325E+03</rscale>
<asrwt>0</asrwt>
<pdfrwt beam="1">  1       21 0.12176450E-01 0.18048325E+03</pdfrwt>
<pdfrwt beam="2">  1       21 0.67391428E-01 0.18048325E+03</pdfrwt>
<totfact> 0.11566359E+05</totfact>
</mgrwt>
</event>
<event>
 4    1  0.4531281E+000  0.2040457E+03  0.7546771E-02  0.1146370E+00
         21   -1    0    0  501  502  0.00000000000E+00  0.00000000000E+00  0.38051962746E+03  0.38051962746E+03  0.00000000000E+00 0.  1.
         21   -1    0    0  502  503 -0.00000000000E+00 -0.00000000000E+00 -0.11310132544E+03  0.11310132544E+03  0.00000000000E+00 0. -1.
          6    1    1    2  501    0  0.10505810091E+03  0.25854324487E+02  0.89152578428E+02  0.22267202991E+03  0.17300000000E+03 0. -1.
         -6    1    1    2    0  503 -0.10505810091E+03 -0.25854324487E+02  0.17826572359E+03  0.27094892299E+03  0.17300000000E+03 0.  1.
<mgrwt>
<rscale>  2 0.20404571E+03</rscale>
<asrwt>0</asrwt>
<pdfrwt beam="1">  1       21 0.58541481E-01 0.20404571E+03</pdfrwt>
<pdfrwt beam="2">  1       21 0.17400204E-01 0.20404571E+03</pdfrwt>
<totfact> 0.81239233E+04</totfact>
</mgrwt>
</event>
<event>
 4    1  0.4531281E+000  0.2115357E+03  0.7546771E-02  0.1140356E+00
         21   -1    0    0  501  502  0.00000000000E+00  0.00000000000E+00  0.22334244317E+04  0.22334244317E+04  0.00000000000E+00 0.  1.
         21   -1    0    0  502  503 -0.00000000000E+00 -0.00000000000E+00 -0.24441677207E+02  0.24441677207E+02  0.00000000000E+00 0.  1.
          6    1    1    2  501    0 -0.73473404182E+02 -0.97056828931E+02  0.15838302234E+04  0.15978940971E+04  0.17300000000E+03 0.  1.
         -6    1    1    2    0  503  0.73473404182E+02  0.97056828931E+02  0.62515253109E+03  0.65997201175E+03  0.17300000000E+03 0.  1.
<mgrwt>
<rscale>  2 0.21153574E+03</rscale>
<asrwt>0</asrwt>
<pdfrwt beam="1">  1       21 0.34360360E+00 0.21153574E+03</pdfrwt>
<pdfrwt beam="2">  1       21 0.37602598E-02 0.21153574E+03</pdfrwt>
<totfact> 0.81091359E+03</totfact>
</mgrwt>
</event>
<event>
 4    1  0.4531281E+000  0.1745673E+03  0.7546771E-02  0.1173167E+00
         21   -1    0    0  503  502  0.00000000000E+00  0.00000000000E+00  0.20514272660E+04  0.20514272660E+04  0.00000000000E+00 0.  1.
         21   -1    0    0  501  503 -0.00000000000E+00 -0.00000000000E+00 -0.29558246426E+02  0.29558246426E+02  0.00000000000E+00 0.  1.
          6    1    1    2  501    0  0.15745914391E+02  0.17227854448E+02  0.27708345173E+03  0.32748888838E+03  0.17300000000E+03 0.  1.
         -6    1    1    2    0  502 -0.15745914391E+02 -0.17227854448E+02  0.17447855679E+04  0.17534966241E+04  0.17300000000E+03 0.  1.
<mgrwt>
<rscale>  2 0.17456727E+03</rscale>
<asrwt>0</asrwt>
<pdfrwt beam="1">  1       21 0.31560408E+00 0.17456727E+03</pdfrwt>
<pdfrwt beam="2">  1       21 0.45474241E-02 0.17456727E+03</pdfrwt>
<totfact> 0.89528950E+03</totfact>
</mgrwt>
</event>
<event>
 4    1  0.4531281E+000  0.1779530E+03  0.7546771E-02  0.1169799E+00
         21   -1    0    0  501  502  0.00000000000E+00  0.00000000000E+00  0.36388490442E+03  0.36388490442E+03  0.00000000000E+00 0.  1.
         21   -1    0    0  502  503 -0.00000000000E+00 -0.00000000000E+00 -0.32691156444E+03  0.32691156444E+03  0.00000000000E+00 0.  1.
          6    1    1    2  501    0  0.40453369298E+02 -0.10089940919E+02  0.31436110431E+03  0.36123425349E+03  0.17300000000E+03 0.  1.
         -6    1    1    2    0  503 -0.40453369298E+02  0.10089940919E+02 -0.27738776433E+03  0.32956221536E+03  0.17300000000E+03 0.  1.
<mgrwt>
<rscale>  2 0.17795303E+03</rscale>
<asrwt>0</asrwt>
<pdfrwt beam="1">  1       21 0.55982293E-01 0.17795303E+03</pdfrwt>
<pdfrwt beam="2">  1       21 0.50294087E-01 0.17795303E+03</pdfrwt>
<totfact> 0.11421928E+04</totfact>
</mgrwt>
</event>
<event>
 4    1  0.4531281E+000  0.1994288E+03  0.7546771E-02  0.1150222E+00
         21   -1    0    0  501  502  0.00000000000E+00  0.00000000000E+00  0.17405345540E+03  0.17405345540E+03  0.00000000000E+00 0. -1.
         21   -1    0    0  502  503 -0.00000000000E+00 -0.00000000000E+00 -0.11117421725E+04  0.11117421725E+04  0.00000000000E+00 0. -1.
          6    1    1    2  501    0  0.32368574560E+02 -0.93782328482E+02  0.10418768789E+03  0.22500427565E+03  0.17300000000E+03 0. -1.
         -6    1    1    2    0  503 -0.32368574560E+02  0.93782328482E+02 -0.10418764050E+04  0.10607913523E+04  0.17300000000E+03 0. -1.
<mgrwt>
<rscale>  2 0.19942881E+03</rscale>
<asrwt>0</asrwt>
<pdfrwt beam="1">  1       21 0.26777455E-01 0.19942881E+03</pdfrwt>
<pdfrwt beam="2">  1       21 0.17103726E+00 0.19942881E+03</pdfrwt>
<totfact> 0.27686379E+03</totfact>
</mgrwt>
</event>
<event>
 4    1  0.4531281E+000  0.3480041E+03  0.7546771E-02  0.1063437E+00
         21   -1    0    0  503  502  0.00000000000E+00  0.00000000000E+00  0.28240765894E+03  0.28240765894E+03  0.00000000000E+00 0.  1.
         21   -1    0    0  501  503 -0.00000000000E+00 -0.00000000000E+00 -0.43562530503E+03  0.43562530503E+03  0.00000000000E+00 0.  1.
          6    1    1    2  501    0 -0.18749848464E+03  0.23669008217E+03 -0.12142510766E+03  0.36857961624E+03  0.17300000000E+03 0.  1.
         -6    1    1    2    0  502  0.18749848464E+03 -0.23669008217E+03 -0.31792538431E+02  0.34945334773E+03  0.17300000000E+03 0.  1.
<mgrwt>
<rscale>  2 0.34800413E+03</rscale>
<asrwt>0</asrwt>
<pdfrwt beam="1">  1       21 0.43447332E-01 0.34800413E+03</pdfrwt>
<pdfrwt beam="2">  1       21 0.67019278E-01 0.34800413E+03</pdfrwt>
<totfact> 0.95745980E+03</totfact>
</mgrwt>
</event>
<event>
 4    1  0.4531281E+000  0.1753473E+03  0.7546771E-02  0.1172383E+00
         21   -1    0    0  501  502  0.00000000000E+00  0.00000000000E+00  0.26034989258E+03  0.26034989258E+03  0.00000000000E+00 0. -1.
         21   -1    0    0  502  503 -0.00000000000E+00 -0.00000000000E+00 -0.11955994260E+03  0.11955994260E+03  0.00000000000E+00 0. -1.
          6    1    1    2  501    0 -0.24719419523E+02 -0.14374935956E+02  0.49386845570E+02  0.18216956113E+03  0.17300000000E+03 0.  1.
         -6    1    1    2    0  503  0.24719419523E+02  0.14374935956E+02  0.91403104414E+02  0.19774027405E+03  0.17300000000E+03 0.  1.
<mgrwt>
<rscale>  2 0.17534734E+03</rscale>
<asrwt>0</asrwt>
<pdfrwt beam="1">  1       21 0.40053829E-01 0.17534734E+03</pdfrwt>
<pdfrwt beam="2">  1       21 0.18393837E-01 0.17534734E+03</pdfrwt>
<totfact> 0.16291618E+05</totfact>
</mgrwt>
</event>
<event>
 4    1  0.4531281E+000  0.1751107E+03  0.7546771E-02  0.1172621E+00
         21   -1    0    0  501  502  0.00000000000E+00  0.00000000000E+00  0.34762066908E+03  0.34762066908E+03  0.00000000000E+00 0. -1.
         21   -1    0    0  502  503 -0.00000000000E+00 -0.00000000000E+00 -0.30506770506E+03  0.30506770506E+03  0.00000000000E+00 0. -1.
          6    1    1    2  501    0 -0.17575569170E+02  0.20636263951E+02  0.29642349250E+03  0.34428279499E+03  0.17300000000E+03 0. -1.
         -6    1    1    2    0  503  0.17575569170E+02 -0.20636263951E+02 -0.25387052847E+03  0.30840557915E+03  0.17300000000E+03 0. -1.
<mgrwt>
<rscale>  2 0.17511070E+03</rscale>
<asrwt>0</asrwt>
<pdfrwt beam="1">  1       21 0.53480102E-01 0.17511070E+03</pdfrwt>
<pdfrwt beam="2">  1       21 0.46933494E-01 0.17511070E+03</pdfrwt>
<totfact> 0.14544216E+04</totfact>
</mgrwt>
</event>
<event>
 4    1  0.4531281E+000  0.2102422E+03  0.7546771E-02  0.1141374E+00
         21   -1    0    0  503  502  0.00000000000E+00  0.00000000000E+00  0.16988266279E+04  0.16988266279E+04  0.00000000000E+00 0.  1.
         21   -1    0    0  501  503 -0.00000000000E+00 -0.00000000000E+00 -0.27478233736E+02  0.27478233736E+02  0.00000000000E+00 0.  1.
          6    1    1    2  501    0 -0.95580807578E+02 -0.71673623296E+02  0.63676586308E+03  0.67057629204E+03  0.17300000000E+03 0.  1.
         -6    1    1    2    0  502  0.95580807578E+02  0.71673623296E+02  0.10345825311E+04  0.10557285696E+04  0.17300000000E+03 0.  1.
<mgrwt>
<rscale>  2 0.21024224E+03</rscale>
<asrwt>0</asrwt>
<pdfrwt beam="1">  1       21 0.26135786E+00 0.21024224E+03</pdfrwt>
<pdfrwt beam="2">  1       21 0.42274219E-02 0.21024224E+03</pdfrwt>
<totfact> 0.20065255E+04</totfact>
</mgrwt>
</event>
<event>
 4    1  0.4531281E+000  0.1927381E+03  0.7546771E-02  0.1156015E+00
         21   -1    0    0  501  502  0.00000000000E+00  0.00000000000E+00  0.40528417068E+03  0.40528417068E+03  0.00000000000E+00 0. -1.
         21   -1    0    0  502  503 -0.00000000000E+00 -0.00000000000E+00 -0.10246756565E+03  0.10246756565E+03  0.00000000000E+00 0.  1.
          6    1    1    2  501    0  0.36930447529E+02  0.76518825988E+02  0.23386195916E+03  0.30305016850E+03  0.17300000000E+03 0. -1.
         -6    1    1    2    0  503 -0.36930447529E+02 -0.76518825988E+02  0.68954645869E+02  0.20470156783E+03  0.17300000000E+03 0.  1.
<mgrwt>
<rscale>  2 0.19273814E+03</rscale>
<asrwt>0</asrwt>
<pdfrwt beam="1">  1       21 0.62351410E-01 0.19273814E+03</pdfrwt>
<pdfrwt beam="2">  1       21 0.15764241E-01 0.19273814E+03</pdfrwt>
<totfact> 0.85461986E+04</totfact>
</mgrwt>
</event>
<event>
 4    1  0.4531281E+000  0.1749222E+03  0.7546771E-02  0.1172810E+00
         21   -1    0    0  503  502  0.00000000000E+00  0.00000000000E+00  0.54003644847E+02  0.54003644847E+02  0.00000000000E+00 0. -1.
         21   -1    0    0  501  503 -0.00000000000E+00 -0.00000000000E+00 -0.57487973562E+03  0.57487973562E+03  0.00000000000E+00 0. -1.
          6    1    1    2  501    0  0.25072801452E+02 -0.63351719672E+01 -0.22267278731E+03  0.28316240920E+03  0.17300000000E+03 0.  1.
         -6    1    1    2    0  502 -0.25072801452E+02  0.63351719672E+01 -0.29820330346E+03  0.34572097126E+03  0.17300000000E+03 0.  1.
<mgrwt>
<rscale>  2 0.17492221E+03</rscale>
<asrwt>0</asrwt>
<pdfrwt beam="1">  1       21 0.83082531E-02 0.17492221E+03</pdfrwt>
<pdfrwt beam="2">  1       21 0.88443035E-01 0.17492221E+03</pdfrwt>
<totfact> 0.12371409E+05</totfact>
</mgrwt>
</event>
<event>
 4    1  0.4531281E+000  0.2048443E+03  0.7546771E-02  0.1145715E+00
         21   -1    0    0  503  502  0.00000000000E+00  0.00000000000E+00  0.28381622146E+03  0.28381622146E+03  0.00000000000E+00 0. -1.
         21   -1    0    0  501  503 -0.00000000000E+00 -0.00000000000E+00 -0.27535123829E+03  0.27535123829E+03  0.00000000000E+00 0. -1.
          6    1    1    2  501    0 -0.95734296613E+02  0.53545567573E+02 -0.18602065549E+03  0.27670357357E+03  0.17300000000E+03 0. -1.
         -6    1    1    2    0  502  0.95734296613E+02 -0.53545567573E+02  0.19448563866E+03  0.28246388619E+03  0.17300000000E+03 0. -1.
<mgrwt>
<rscale>  2 0.20484429E+03</rscale>
<asrwt>0</asrwt>
<pdfrwt beam="1">  1       21 0.43664034E-01 0.20484429E+03</pdfrwt>
<pdfrwt beam="2">  1       21 0.42361729E-01 0.20484429E+03</pdfrwt>
<totfact> 0.26841640E+04</totfact>
</mgrwt>
</event>
<event>
 4    1  0.4531281E+000  0.1989316E+03  0.7546771E-02  0.1150644E+00
         21   -1    0    0  501  502  0.00000000000E+00  0.00000000000E+00  0.55164000023E+03  0.55164000023E+03  0.00000000000E+00 0.  1.
         21   -1    0    0  502  503 -0.00000000000E+00 -0.00000000000E+00 -0.85327601353E+02  0.85327601353E+02  0.00000000000E+00 0.  1.
          6    1    1    2  501    0  0.63035305291E+02 -0.75308274034E+02  0.10605808277E+03  0.22543758066E+03  0.17300000000E+03 0.  1.
         -6    1    1    2    0  503 -0.63035305291E+02  0.75308274034E+02  0.36025431611E+03  0.41153002093E+03  0.17300000000E+03 0.  1.
<mgrwt>
<rscale>  2 0.19893161E+03</rscale>
<asrwt>0</asrwt>
<pdfrwt beam="1">  1       21 0.84867690E-01 0.19893161E+03</pdfrwt>
<pdfrwt beam="2">  1       21 0.13127324E-01 0.19893161E+03</pdfrwt>
<totfact> 0.59880929E+04</totfact>
</mgrwt>
</event>
<event>
 4    1  0.4531281E+000  0.1742690E+03  0.7546771E-02  0.1173468E+00
         21   -1    0    0  503  502  0.00000000000E+00  0.00000000000E+00  0.38024191177E+02  0.38024191177E+02  0.00000000000E+00 0. -1.
         21   -1    0    0  501  503 -0.00000000000E+00 -0.00000000000E+00 -0.23062536137E+04  0.23062536137E+04  0.00000000000E+00 0. -1.
          6    1    1    2  501    0  0.14960307199E+02  0.14726150388E+02 -0.20817972587E+04  0.20890786238E+04  0.17300000000E+03 0. -1.
         -6    1    1    2    0  502 -0.14960307199E+02 -0.14726150388E+02 -0.18643216388E+03  0.25519918108E+03  0.17300000000E+03 0. -1.
<mgrwt>
<rscale>  2 0.17426896E+03</rscale>
<asrwt>0</asrwt>
<pdfrwt beam="1">  1       21 0.58498758E-02 0.17426896E+03</pdfrwt>
<pdfrwt beam="2">  1       21 0.35480823E+00 0.17426896E+03</pdfrwt>
<totfact> 0.34602505E+03</totfact>
</mgrwt>
</event>
<event>
 4    1  0.4531281E+000  0.1955539E+03  0.7546771E-02  0.1153545E+00
         21   -1    0    0  503  502  0.00000000000E+00  0.00000000000E+00  0.53627268829E+02  0.53627268829E+02  0.00000000000E+00 0. -1.
         21   -1    0    0  501  503 -0.00000000000E+00 -0.00000000000E+00 -0.71546075017E+03  0.71546075017E+03  0.00000000000E+00 0. -1.
          6    1    1    2  501    0  0.81705631412E+02  0.40454058397E+02 -0.35302889787E+03  0.40357247649E+03  0.17300000000E+03 0. -1.
         -6    1    1    2    0  502 -0.81705631412E+02 -0.40454058397E+02 -0.30880458347E+03  0.36551554251E+03  0.17300000000E+03 0. -1.
<mgrwt>
<rscale>  2 0.19555393E+03</rscale>
<asrwt>0</asrwt>
<pdfrwt beam="1">  1       21 0.82503493E-02 0.19555393E+03</pdfrwt>
<pdfrwt beam="2">  1       21 0.11007088E+00 0.19555393E+03</pdfrwt>
<totfact> 0.74061009E+04</totfact>
</mgrwt>
</event>
<event>
 4    1  0.4531281E+000  0.1916661E+03  0.7546771E-02  0.1156967E+00
         21   -1    0    0  503  502  0.00000000000E+00  0.00000000000E+00  0.36815569755E+03  0.36815569755E+03  0.00000000000E+00 0.  1.
         21   -1    0    0  501  503 -0.00000000000E+00 -0.00000000000E+00 -0.36453657612E+03  0.36453657612E+03  0.00000000000E+00 0.  1.
          6    1    1    2  501    0 -0.11239459338E+02  0.81734793095E+02 -0.31039661123E+03  0.36480399958E+03  0.17300000000E+03 0.  1.
         -6    1    1    2    0  502  0.11239459338E+02 -0.81734793095E+02  0.31401573266E+03  0.36788827408E+03  0.17300000000E+03 0.  1.
<mgrwt>
<rscale>  2 0.19166612E+03</rscale>
<asrwt>0</asrwt>
<pdfrwt beam="1">  1       21 0.56639338E-01 0.19166612E+03</pdfrwt>
<pdfrwt beam="2">  1       21 0.56082550E-01 0.19166612E+03</pdfrwt>
<totfact> 0.87784614E+03</totfact>
</mgrwt>
</event>
<event>
 4    1  0.4531281E+000  0.1951363E+03  0.7546771E-02  0.1153909E+00
         21   -1    0    0  501  502  0.00000000000E+00  0.00000000000E+00  0.91649014714E+02  0.91649014714E+02  0.00000000000E+00 0. -1.
         21   -1    0    0  502  503 -0.00000000000E+00 -0.00000000000E+00 -0.97904846291E+03  0.97904846291E+03  0.00000000000E+00 0. -1.
          6    1    1    2  501    0  0.80610198875E+02  0.40634405134E+02 -0.84987058158E+03  0.87198518592E+03  0.17300000000E+03 0. -1.
         -6    1    1    2    0  503 -0.80610198875E+02 -0.40634405134E+02 -0.37528866621E+02  0.19871229170E+03  0.17300000000E+03 0. -1.
<mgrwt>
<rscale>  2 0.19513626E+03</rscale>
<asrwt>0</asrwt>
<pdfrwt beam="1">  1       21 0.14099848E-01 0.19513626E+03</pdfrwt>
<pdfrwt beam="2">  1       21 0.15062285E+00 0.19513626E+03</pdfrwt>
<totfact> 0.12954838E+04</totfact>
</mgrwt>
</event>
<event>
 4    1  0.4531281E+000  0.2243452E+03  0.7546771E-02  0.1130684E+00
         21   -1    0    0  501  502  0.00000000000E+00  0.00000000000E+00  0.16594175485E+03  0.16594175485E+03  0.00000000000E+00 0. -1.
         21   -1    0    0  502  503 -0.00000000000E+00 -0.00000000000E+00 -0.54401674588E+03  0.54401674588E+03  0.00000000000E+00 0.  1.
          6    1    1    2  501    0 -0.98693759769E+02 -0.10325367476E+03  0.47089954748E+02  0.22923403632E+03  0.17300000000E+03 0. -1.
         -6    1    1    2    0  503  0.98693759769E+02  0.10325367476E+03 -0.42516494578E+03  0.48072446442E+03  0.17300000000E+03 0.  1.
<mgrwt>
<rscale>  2 0.22434522E+03</rscale>
<asrwt>0</asrwt>
<pdfrwt beam="1">  1       21 0.25529501E-01 0.22434522E+03</pdfrwt>
<pdfrwt beam="2">  1       21 0.83694883E-01 0.22434522E+03</pdfrwt>
<totfact> 0.17723663E+04</totfact>
</mgrwt>
</event>
<event>
 4    1  0.4531281E+000  0.1887839E+03  0.7546771E-02  0.1159563E+00
         21   -1    0    0  503  502  0.00000000000E+00  0.00000000000E+00  0.78485757189E+03  0.78485757189E+03  0.00000000000E+00 0.  1.
         21   -1    0    0  501  503 -0.00000000000E+00 -0.00000000000E+00 -0.12421173773E+03  0.12421173773E+03  0.00000000000E+00 0.  1.
          6    1    1    2  501    0 -0.63257708487E+02 -0.41337720457E+02 -0.31717637651E+02  0.19142976089E+03  0.17300000000E+03 0.  1.
         -6    1    1    2    0  502  0.63257708487E+02  0.41337720457E+02  0.69236347181E+03  0.71763954874E+03  0.17300000000E+03 0.  1.
<mgrwt>
<rscale>  2 0.18878386E+03</rscale>
<asrwt>0</asrwt>
<pdfrwt beam="1">  1       21 0.12074732E+00 0.18878386E+03</pdfrwt>
<pdfrwt beam="2">  1       21 0.19109499E-01 0.18878386E+03</pdfrwt>
<totfact> 0.13102238E+04</totfact>
</mgrwt>
</event>
<event>
 4    1  0.4531281E+000  0.1883444E+03  0.7546771E-02  0.1159963E+00
         21   -1    0    0  503  502  0.00000000000E+00  0.00000000000E+00  0.36760279782E+03  0.36760279782E+03  0.00000000000E+00 0. -1.
         21   -1    0    0  501  503 -0.00000000000E+00 -0.00000000000E+00 -0.19137518000E+03  0.19137518000E+03  0.00000000000E+00 0. -1.
          6    1    1    2  501    0 -0.13399539617E+02  0.73246620699E+02 -0.10867416060E+03  0.21744812781E+03  0.17300000000E+03 0. -1.
         -6    1    1    2    0  502  0.13399539617E+02 -0.73246620699E+02  0.28490177841E+03  0.34152985001E+03  0.17300000000E+03 0. -1.
<mgrwt>
<rscale>  2 0.18834441E+03</rscale>
<asrwt>0</asrwt>
<pdfrwt beam="1">  1       21 0.56554277E-01 0.18834441E+03</pdfrwt>
<pdfrwt beam="2">  1       21 0.29442335E-01 0.18834441E+03</pdfrwt>
<totfact> 0.32571438E+04</totfact>
</mgrwt>
</event>
<event>
 4    1  0.4531281E+000  0.1767428E+03  0.7546771E-02  0.1170993E+00
         21   -1    0    0  503  502  0.00000000000E+00  0.00000000000E+00  0.12711925205E+04  0.12711925205E+04  0.00000000000E+00 0.  1.
         21   -1    0    0  501  503 -0.00000000000E+00 -0.00000000000E+00 -0.40812593224E+02  0.40812593224E+02  0.00000000000E+00 0.  1.
          6    1    1    2  501    0  0.18779274512E+02 -0.30925289019E+02  0.20139493213E+03  0.26795140108E+03  0.17300000000E+03 0.  1.
         -6    1    1    2    0  502 -0.18779274512E+02  0.30925289019E+02  0.10289849951E+04  0.10440537126E+04  0.17300000000E+03 0.  1.
<mgrwt>
<rscale>  2 0.17674285E+03</rscale>
<asrwt>0</asrwt>
<pdfrwt beam="1">  1       21 0.19556805E+00 0.17674285E+03</pdfrwt>
<pdfrwt beam="2">  1       21 0.62788615E-02 0.17674285E+03</pdfrwt>
<totfact> 0.26466923E+04</totfact>
</mgrwt>
</event>
<event>
 4    1  0.4531281E+000  0.1861649E+03  0.7546771E-02  0.1161966E+00
         21   -1    0    0  503  502  0.00000000000E+00  0.00000000000E+00  0.44217634050E+02  0.44217634050E+02  0.00000000000E+00 0.  1.
         21   -1    0    0  501  503 -0.00000000000E+00 -0.00000000000E+00 -0.91290956130E+03  0.91290956130E+03  0.00000000000E+00 0. -1.
          6    1    1    2  501    0 -0.64618036046E+02 -0.23513662343E+02 -0.61432426512E+03  0.64191252177E+03  0.17300000000E+03 0.  1.
         -6    1    1    2    0  502  0.64618036046E+02  0.23513662343E+02 -0.25436766214E+03  0.31521467358E+03  0.17300000000E+03 0.  1.
<mgrwt>
<rscale>  2 0.18616493E+03</rscale>
<asrwt>0</asrwt>
<pdfrwt beam="1">  1       21 0.68027125E-02 0.18616493E+03</pdfrwt>
<pdfrwt beam="2">  1       21 0.14044763E+00 0.18616493E+03</pdfrwt>
<totfact> 0.56590894E+04</totfact>
</mgrwt>
</event>
<event>
 4    1  0.4531281E+000  0.1786582E+03  0.7546771E-02  0.1169108E+00
         21   -1    0    0  501  502  0.00000000000E+00  0.00000000000E+00  0.31497669136E+03  0.31497669136E+03  0.00000000000E+00 0.  1.
         21   -1    0    0  502  503 -0.00000000000E+00 -0.00000000000E+00 -0.10178085916E+03  0.10178085916E+03  0.00000000000E+00 0.  1.
          6    1    1    2  501    0 -0.99011991102E+00 -0.44595543638E+02  0.12036116156E+03  0.21541947930E+03  0.17300000000E+03 0.  1.
         -6    1    1    2    0  503  0.99011991102E+00  0.44595543638E+02  0.92834670641E+02  0.20133807122E+03  0.17300000000E+03 0.  1.
<mgrwt>
<rscale>  2 0.17865817E+03</rscale>
<asrwt>0</asrwt>
<pdfrwt beam="1">  1       21 0.48457952E-01 0.17865817E+03</pdfrwt>
<pdfrwt beam="2">  1       21 0.15658594E-01 0.17865817E+03</pdfrwt>
<totfact> 0.14819227E+05</totfact>
</mgrwt>
</event>
<event>
 4    1  0.4531281E+000  0.1946485E+03  0.7546771E-02  0.1154334E+00
         21   -1    0    0  501  502  0.00000000000E+00  0.00000000000E+00  0.63806535230E+03  0.63806535230E+03  0.00000000000E+00 0. -1.
         21   -1    0    0  502  503 -0.00000000000E+00 -0.00000000000E+00 -0.98821042747E+02  0.98821042747E+02  0.00000000000E+00 0. -1.
          6    1    1    2  501    0  0.83601240987E+02 -0.31143054344E+02  0.50238962820E+03  0.53877954290E+03  0.17300000000E+03 0. -1.
         -6    1    1    2    0  503 -0.83601240987E+02  0.31143054344E+02  0.36854681354E+02  0.19810685214E+03  0.17300000000E+03 0. -1.
<mgrwt>
<rscale>  2 0.19464855E+03</rscale>
<asrwt>0</asrwt>
<pdfrwt beam="1">  1       21 0.98163898E-01 0.19464855E+03</pdfrwt>
<pdfrwt beam="2">  1       21 0.15203238E-01 0.19464855E+03</pdfrwt>
<totfact> 0.32796491E+04</totfact>
</mgrwt>
</event>
<event>
 4    1  0.4531281E+000  0.1974531E+03  0.7546771E-02  0.1151906E+00
         21   -1    0    0  501  502  0.00000000000E+00  0.00000000000E+00  0.13025364234E+03  0.13025364234E+03  0.00000000000E+00 0. -1.
         21   -1    0    0  502  503 -0.00000000000E+00 -0.00000000000E+00 -0.30105694033E+03  0.30105694033E+03  0.00000000000E+00 0. -1.
          6    1    1    2  501    0 -0.16460323724E+02 -0.93743201368E+02 -0.69028705776E+02  0.20917144232E+03  0.17300000000E+03 0.  1.
         -6    1    1    2    0  503  0.16460323724E+02  0.93743201368E+02 -0.10177459222E+03  0.22213914036E+03  0.17300000000E+03 0.  1.
<mgrwt>
<rscale>  2 0.19745311E+03</rscale>
<asrwt>0</asrwt>
<pdfrwt beam="1">  1       21 0.20039022E-01 0.19745311E+03</pdfrwt>
<pdfrwt beam="2">  1       21 0.46316452E-01 0.19745311E+03</pdfrwt>
<totfact> 0.10251071E+05</totfact>
</mgrwt>
</event>
<event>
 4    1  0.4531281E+000  0.2780285E+03  0.7546771E-02  0.1096771E+00
         21   -1    0    0  501  502  0.00000000000E+00  0.00000000000E+00  0.68450353690E+03  0.68450353690E+03  0.00000000000E+00 0.  1.
         21   -1    0    0  502  503 -0.00000000000E+00 -0.00000000000E+00 -0.14231254302E+03  0.14231254302E+03  0.00000000000E+00 0. -1.
          6    1    1    2  501    0 -0.11725284071E+03 -0.18336477975E+03  0.45894672519E+03  0.53659292547E+03  0.17300000000E+03 0.  1.
         -6    1    1    2    0  503  0.11725284071E+03  0.18336477975E+03  0.83244268689E+02  0.29022315444E+03  0.17300000000E+03 0.  1.
<mgrwt>
<rscale>  2 0.27802854E+03</rscale>
<asrwt>0</asrwt>
<pdfrwt beam="1">  1       21 0.10530823E+00 0.27802854E+03</pdfrwt>
<pdfrwt beam="2">  1       21 0.21894238E-01 0.27802854E+03</pdfrwt>
<totfact> 0.13454169E+04</totfact>
</mgrwt>
</event>
<event>
 4    1  0.4531281E+000  0.2772183E+03  0.7546771E-02  0.1097218E+00
         21   -1    0    0  501  502  0.00000000000E+00  0.00000000000E+00  0.39425195563E+02  0.39425195563E+02  0.00000000000E+00 0. -1.
         21   -1    0    0  502  503 -0.00000000000E+00 -0.00000000000E+00 -0.19595968725E+04  0.19595968725E+04  0.00000000000E+00 0.  1.
          6    1    1    2  501    0  0.86334906277E+02 -0.19866377986E+03 -0.10326744610E+04  0.10692364359E+04  0.17300000000E+03 0.  1.
         -6    1    1    2    0  503 -0.86334906277E+02  0.19866377986E+03 -0.88749721596E+03  0.92978563218E+03  0.17300000000E+03 0. -1.
<mgrwt>
<rscale>  2 0.27721835E+03</rscale>
<asrwt>0</asrwt>
<pdfrwt beam="1">  1       21 0.60654141E-02 0.27721835E+03</pdfrwt>
<pdfrwt beam="2">  1       21 0.30147647E+00 0.27721835E+03</pdfrwt>
<totfact> 0.59779989E+03</totfact>
</mgrwt>
</event>
<event>
 4    1  0.4531281E+000  0.3209566E+03  0.7546771E-02  0.1075210E+00
         21   -1    0    0  501  502  0.00000000000E+00  0.00000000000E+00  0.12823353357E+04  0.12823353357E+04  0.00000000000E+00 0. -1.
         21   -1    0    0  502  503 -0.00000000000E+00 -0.00000000000E+00 -0.97275358990E+02  0.97275358990E+02  0.00000000000E+00 0.  1.
          6    1    1    2  501    0 -0.16147358659E+03  0.21681887042E+03  0.88041502987E+03  0.93709325392E+03  0.17300000000E+03 0. -1.
         -6    1    1    2    0  503  0.16147358659E+03 -0.21681887042E+03  0.30464494682E+03  0.44251744074E+03  0.17300000000E+03 0.  1.
<mgrwt>
<rscale>  2 0.32095660E+03</rscale>
<asrwt>0</asrwt>
<pdfrwt beam="1">  1       21 0.19728235E+00 0.32095660E+03</pdfrwt>
<pdfrwt beam="2">  1       21 0.14965441E-01 0.32095660E+03</pdfrwt>
<totfact> 0.50249500E+03</totfact>
</mgrwt>
</event>
<event>
 4    1  0.4531281E+000  0.1786679E+03  0.7546771E-02  0.1169098E+00
         21   -1    0    0  501  502  0.00000000000E+00  0.00000000000E+00  0.33841189168E+02  0.33841189168E+02  0.00000000000E+00 0. -1.
         21   -1    0    0  502  503 -0.00000000000E+00 -0.00000000000E+00 -0.96095264414E+03  0.96095264414E+03  0.00000000000E+00 0. -1.
          6    1    1    2  501    0  0.11663917705E+02  0.43095107252E+02 -0.53097973839E+03  0.56023362790E+03  0.17300000000E+03 0. -1.
         -6    1    1    2    0  503 -0.11663917705E+02 -0.43095107252E+02 -0.39613171658E+03  0.43456020541E+03  0.17300000000E+03 0. -1.
<mgrwt>
<rscale>  2 0.17866795E+03</rscale>
<asrwt>0</asrwt>
<pdfrwt beam="1">  1       21 0.52063375E-02 0.17866795E+03</pdfrwt>
<pdfrwt beam="2">  1       21 0.14783885E+00 0.17866795E+03</pdfrwt>
<totfact> 0.78537431E+04</totfact>
</mgrwt>
</event>
<event>
 4    1  0.4531281E+000  0.1774265E+03  0.7546771E-02  0.1170317E+00
         21   -1    0    0  503  502  0.00000000000E+00  0.00000000000E+00  0.14251910745E+03  0.14251910745E+03  0.00000000000E+00 0.  1.
         21   -1    0    0  501  503 -0.00000000000E+00 -0.00000000000E+00 -0.28115549098E+03  0.28115549098E+03  0.00000000000E+00 0.  1.
          6    1    1    2  501    0  0.29109609865E+02 -0.26528829872E+02 -0.16739948501E+03  0.24393182610E+03  0.17300000000E+03 0.  1.
         -6    1    1    2    0  502 -0.29109609865E+02  0.26528829872E+02  0.28763101479E+02  0.17974277234E+03  0.17300000000E+03 0.  1.
<mgrwt>
<rscale>  2 0.17742646E+03</rscale>
<asrwt>0</asrwt>
<pdfrwt beam="1">  1       21 0.21926017E-01 0.17742646E+03</pdfrwt>
<pdfrwt beam="2">  1       21 0.43254691E-01 0.17742646E+03</pdfrwt>
<totfact> 0.10039744E+05</totfact>
</mgrwt>
</event>
<event>
 4    1  0.4531281E+000  0.1963478E+03  0.7546771E-02  0.1152857E+00
         21   -1    0    0  503  502  0.00000000000E+00  0.00000000000E+00  0.47982865351E+02  0.47982865351E+02  0.00000000000E+00 0.  1.
         21   -1    0    0  501  503 -0.00000000000E+00 -0.00000000000E+00 -0.88435679569E+03  0.88435679569E+03  0.00000000000E+00 0. -1.
          6    1    1    2  501    0 -0.61318019302E+02 -0.69739342250E+02 -0.27719739645E+03  0.33969231953E+03  0.17300000000E+03 0.  1.
         -6    1    1    2    0  502  0.61318019302E+02  0.69739342250E+02 -0.55917653389E+03  0.59264734151E+03  0.17300000000E+03 0. -1.
<mgrwt>
<rscale>  2 0.19634784E+03</rscale>
<asrwt>0</asrwt>
<pdfrwt beam="1">  1       21 0.73819797E-02 0.19634784E+03</pdfrwt>
<pdfrwt beam="2">  1       21 0.13605488E+00 0.19634784E+03</pdfrwt>
<totfact> 0.53035139E+04</totfact>
</mgrwt>
</event>
<event>
 4    1  0.4531281E+000  0.2535330E+03  0.7546771E-02  0.1111092E+00
         21   -1    0    0  501  502  0.00000000000E+00  0.00000000000E+00  0.10107596745E+03  0.10107596745E+03  0.00000000000E+00 0. -1.
         21   -1    0    0  502  503 -0.00000000000E+00 -0.00000000000E+00 -0.87399648484E+03  0.87399648484E+03  0.00000000000E+00 0. -1.
          6    1    1    2  501    0 -0.16587263610E+03 -0.82681482754E+02 -0.13202009592E+03  0.28584657550E+03  0.17300000000E+03 0. -1.
         -6    1    1    2    0  503  0.16587263610E+03  0.82681482754E+02 -0.64090042147E+03  0.68922587679E+03  0.17300000000E+03 0. -1.
<mgrwt>
<rscale>  2 0.25353295E+03</rscale>
<asrwt>0</asrwt>
<pdfrwt beam="1">  1       21 0.15550148E-01 0.25353295E+03</pdfrwt>
<pdfrwt beam="2">  1       21 0.13446100E+00 0.25353295E+03</pdfrwt>
<totfact> 0.14033604E+04</totfact>
</mgrwt>
</event>
<event>
 4    1  0.4531281E+000  0.1781462E+03  0.7546771E-02  0.1169609E+00
         21   -1    0    0  503  502  0.00000000000E+00  0.00000000000E+00  0.73048892722E+03  0.73048892722E+03  0.00000000000E+00 0. -1.
         21   -1    0    0  501  503 -0.00000000000E+00 -0.00000000000E+00 -0.93563825825E+02  0.93563825825E+02  0.00000000000E+00 0. -1.
          6    1    1    2  501    0  0.21991108616E+02 -0.36379302204E+02  0.16903999069E+02  0.17894638211E+03  0.17300000000E+03 0. -1.
         -6    1    1    2    0  502 -0.21991108616E+02  0.36379302204E+02  0.62002110233E+03  0.64510637093E+03  0.17300000000E+03 0. -1.
<mgrwt>
<rscale>  2 0.17814618E+03</rscale>
<asrwt>0</asrwt>
<pdfrwt beam="1">  1       21 0.11238291E+00 0.17814618E+03</pdfrwt>
<pdfrwt beam="2">  1       21 0.14394435E-01 0.17814618E+03</pdfrwt>
<totfact> 0.26442824E+04</totfact>
</mgrwt>
</event>
<event>
 4    1  0.4531281E+000  0.1740383E+03  0.7546771E-02  0.1173701E+00
         21   -1    0    0  501  502  0.00000000000E+00  0.00000000000E+00  0.46940725790E+02  0.46940725790E+02  0.00000000000E+00 0. -1.
         21   -1    0    0  502  503 -0.00000000000E+00 -0.00000000000E+00 -0.73780282513E+03  0.73780282513E+03  0.00000000000E+00 0. -1.
          6    1    1    2  501    0 -0.13107580934E+02  0.13729801513E+02 -0.20647360701E+03  0.27003826862E+03  0.17300000000E+03 0. -1.
         -6    1    1    2    0  503  0.13107580934E+02 -0.13729801513E+02 -0.48438849232E+03  0.51470528230E+03  0.17300000000E+03 0. -1.
<mgrwt>
<rscale>  2 0.17403826E+03</rscale>
<asrwt>0</asrwt>
<pdfrwt beam="1">  1       21 0.72216504E-02 0.17403826E+03</pdfrwt>
<pdfrwt beam="2">  1       21 0.11350812E+00 0.17403826E+03</pdfrwt>
<totfact> 0.87469347E+04</totfact>
</mgrwt>
</event>
<event>
 4    1  0.4531281E+000  0.2619608E+03  0.7546771E-02  0.1105971E+00
         21   -1    0    0  503  502  0.00000000000E+00  0.00000000000E+00  0.13520186973E+03  0.13520186973E+03  0.00000000000E+00 0.  1.
         21   -1    0    0  501  503 -0.00000000000E+00 -0.00000000000E+00 -0.94672552654E+03  0.94672552654E+03  0.00000000000E+00 0. -1.
          6    1    1    2  501    0 -0.11019952660E+03  0.16294336632E+03 -0.77420344642E+03  0.81732151124E+03  0.17300000000E+03 0. -1.
         -6    1    1    2    0  502  0.11019952660E+03 -0.16294336632E+03 -0.37320210392E+02  0.26460588503E+03  0.17300000000E+03 0.  1.
<mgrwt>
<rscale>  2 0.26196083E+03</rscale>
<asrwt>0</asrwt>
<pdfrwt beam="1">  1       21 0.20800288E-01 0.26196083E+03</pdfrwt>
<pdfrwt beam="2">  1       21 0.14565008E+00 0.26196083E+03</pdfrwt>
<totfact> 0.65956170E+03</totfact>
</mgrwt>
</event>
<event>
 4    1  0.4531281E+000  0.1747130E+03  0.7546771E-02  0.1173020E+00
         21   -1    0    0  503  502  0.00000000000E+00  0.00000000000E+00  0.14484880797E+03  0.14484880797E+03  0.00000000000E+00 0. -1.
         21   -1    0    0  501  503 -0.00000000000E+00 -0.00000000000E+00 -0.56580480949E+03  0.56580480949E+03  0.00000000000E+00 0. -1.
          6    1    1    2  501    0 -0.22240324606E+02 -0.10050691030E+02 -0.49196076452E+03  0.52206325504E+03  0.17300000000E+03 0. -1.
         -6    1    1    2    0  502  0.22240324606E+02  0.10050691030E+02  0.71004763006E+02  0.18859036242E+03  0.17300000000E+03 0. -1.
<mgrwt>
<rscale>  2 0.17471305E+03</rscale>
<asrwt>0</asrwt>
<pdfrwt beam="1">  1       21 0.22284432E-01 0.17471305E+03</pdfrwt>
<pdfrwt beam="2">  1       21 0.87046895E-01 0.17471305E+03</pdfrwt>
<totfact> 0.21611339E+04</totfact>
</mgrwt>
</event>
<event>
 4    1  0.4531281E+000  0.1861292E+03  0.7546771E-02  0.1162000E+00
         21   -1    0    0  503  502  0.00000000000E+00  0.00000000000E+00  0.23694775584E+03  0.23694775584E+03  0.00000000000E+00 0. -1.
         21   -1    0    0  501  503 -0.00000000000E+00 -0.00000000000E+00 -0.17150768752E+03  0.17150768752E+03  0.00000000000E+00 0.  1.
          6    1    1    2  501    0 -0.36444712619E+02 -0.58196719663E+02 -0.45715948516E+02  0.19166121988E+03  0.17300000000E+03 0.  1.
         -6    1    1    2    0  502  0.36444712619E+02  0.58196719663E+02  0.11115601683E+03  0.21679422348E+03  0.17300000000E+03 0. -1.
<mgrwt>
<rscale>  2 0.18612919E+03</rscale>
<asrwt>0</asrwt>
<pdfrwt beam="1">  1       21 0.36453501E-01 0.18612919E+03</pdfrwt>
<pdfrwt beam="2">  1       21 0.26385798E-01 0.18612919E+03</pdfrwt>
<totfact> 0.99380742E+04</totfact>
</mgrwt>
</event>
<event>
 4    1  0.4531281E+000  0.1954570E+03  0.7546771E-02  0.1153630E+00
         21   -1    0    0  501  502  0.00000000000E+00  0.00000000000E+00  0.84404747668E+02  0.84404747668E+02  0.00000000000E+00 0. -1.
         21   -1    0    0  502  503 -0.00000000000E+00 -0.00000000000E+00 -0.47989407624E+03  0.47989407624E+03  0.00000000000E+00 0. -1.
          6    1    1    2  501    0  0.46285564824E+02  0.78307596175E+02 -0.13048313432E+03  0.23500910934E+03  0.17300000000E+03 0. -1.
         -6    1    1    2    0  503 -0.46285564824E+02 -0.78307596175E+02 -0.26500619426E+03  0.32928971457E+03  0.17300000000E+03 0. -1.
<mgrwt>
<rscale>  2 0.19545699E+03</rscale>
<asrwt>0</asrwt>
<pdfrwt beam="1">  1       21 0.12985346E-01 0.19545699E+03</pdfrwt>
<pdfrwt beam="2">  1       21 0.73829858E-01 0.19545699E+03</pdfrwt>
<totfact> 0.83771836E+04</totfact>
</mgrwt>
</event>
<event>
 4    1  0.4531281E+000  0.2138895E+03  0.7546771E-02  0.1138522E+00
         21   -1    0    0  503  502  0.00000000000E+00  0.00000000000E+00  0.53827176698E+03  0.53827176698E+03  0.00000000000E+00 0. -1.
         21   -1    0    0  501  503 -0.00000000000E+00 -0.00000000000E+00 -0.15408367108E+03  0.15408367108E+03  0.00000000000E+00 0. -1.
          6    1    1    2  501    0 -0.93895264421E+01 -0.12542547144E+03 -0.39717000000E+02  0.21754574733E+03  0.17300000000E+03 0. -1.
         -6    1    1    2    0  502  0.93895264421E+01  0.12542547144E+03  0.42390509589E+03  0.47480969073E+03  0.17300000000E+03 0. -1.
<mgrwt>
<rscale>  2 0.21388949E+03</rscale>
<asrwt>0</asrwt>
<pdfrwt beam="1">  1       21 0.82811040E-01 0.21388949E+03</pdfrwt>
<pdfrwt beam="2">  1       21 0.23705180E-01 0.21388949E+03</pdfrwt>
<totfact> 0.21048702E+04</totfact>
</mgrwt>
</event>
<event>
 4    1  0.4531281E+000  0.1928858E+03  0.7546771E-02  0.1155884E+00
         21   -1    0    0  503  502  0.00000000000E+00  0.00000000000E+00  0.98781277697E+03  0.98781277697E+03  0.00000000000E+00 0. -1.
         21   -1    0    0  501  503 -0.00000000000E+00 -0.00000000000E+00 -0.37836734364E+02  0.37836734364E+02  0.00000000000E+00 0. -1.
          6    1    1    2  501    0 -0.59037703127E+01 -0.85094590989E+02  0.44033445045E+03  0.48072796068E+03  0.17300000000E+03 0. -1.
         -6    1    1    2    0  502  0.59037703127E+01  0.85094590989E+02  0.50964159216E+03  0.54492155066E+03  0.17300000000E+03 0. -1.
<mgrwt>
<rscale>  2 0.19288583E+03</rscale>
<asrwt>0</asrwt>
<pdfrwt beam="1">  1       21 0.15197118E+00 0.19288583E+03</pdfrwt>
<pdfrwt beam="2">  1       21 0.58210368E-02 0.19288583E+03</pdfrwt>
<totfact> 0.59964325E+04</totfact>
</mgrwt>
</event>
<event>
 4    1  0.4531281E+000  0.2730439E+03  0.7546771E-02  0.1099550E+00
         21   -1    0    0  503  502  0.00000000000E+00  0.00000000000E+00  0.30420905219E+03  0.30420905219E+03  0.00000000000E+00 0. -1.
         21   -1    0    0  501  503 -0.00000000000E+00 -0.00000000000E+00 -0.28530117439E+03  0.28530117439E+03  0.00000000000E+00 0.  1.
          6    1    1    2  501    0 -0.52214879187E+02 -0.20468894404E+03  0.12013747556E+03  0.29830516330E+03  0.17300000000E+03 0. -1.
         -6    1    1    2    0  502  0.52214879187E+02  0.20468894404E+03 -0.10122959775E+03  0.29120506328E+03  0.17300000000E+03 0.  1.
<mgrwt>
<rscale>  2 0.27304387E+03</rscale>
<asrwt>0</asrwt>
<pdfrwt beam="1">  1       21 0.46801393E-01 0.27304387E+03</pdfrwt>
<pdfrwt beam="2">  1       21 0.43892488E-01 0.27304387E+03</pdfrwt>
<totfact> 0.20913393E+04</totfact>
</mgrwt>
</event>
<event>
 4    1  0.4531281E+000  0.1832739E+03  0.7546771E-02  0.1164672E+00
         21   -1    0    0  503  502  0.00000000000E+00  0.00000000000E+00  0.24801327325E+03  0.24801327325E+03  0.00000000000E+00 0. -1.
         21   -1    0    0  501  503 -0.00000000000E+00 -0.00000000000E+00 -0.38030077446E+03  0.38030077446E+03  0.00000000000E+00 0. -1.
          6    1    1    2  501    0 -0.53115953632E+02  0.28965836090E+02 -0.31822960509E+03  0.36723208704E+03  0.17300000000E+03 0. -1.
         -6    1    1    2    0  502  0.53115953632E+02 -0.28965836090E+02  0.18594210389E+03  0.26108196067E+03  0.17300000000E+03 0. -1.
<mgrwt>
<rscale>  2 0.18327390E+03</rscale>
<asrwt>0</asrwt>
<pdfrwt beam="1">  1       21 0.38155888E-01 0.18327390E+03</pdfrwt>
<pdfrwt beam="2">  1       21 0.58507811E-01 0.18327390E+03</pdfrwt>
<totfact> 0.18219118E+04</totfact>
</mgrwt>
</event>
<event>
 4    1  0.4531281E+000  0.2025718E+03  0.7546771E-02  0.1147587E+00
         21   -1    0    0  503  502  0.00000000000E+00  0.00000000000E+00  0.14846361094E+03  0.14846361094E+03  0.00000000000E+00 0.  1.
         21   -1    0    0  501  503 -0.00000000000E+00 -0.00000000000E+00 -0.32826643506E+03  0.32826643506E+03  0.00000000000E+00 0.  1.
          6    1    1    2  501    0  0.75337639302E+02 -0.73692360507E+02 -0.18465005556E+03  0.27410028623E+03  0.17300000000E+03 0.  1.
         -6    1    1    2    0  502 -0.75337639302E+02  0.73692360507E+02  0.48472314473E+01  0.20262975977E+03  0.17300000000E+03 0.  1.
<mgrwt>
<rscale>  2 0.20257177E+03</rscale>
<asrwt>0</asrwt>
<pdfrwt beam="1">  1       21 0.22840556E-01 0.20257177E+03</pdfrwt>
<pdfrwt beam="2">  1       21 0.50502528E-01 0.20257177E+03</pdfrwt>
<totfact> 0.66808582E+04</totfact>
</mgrwt>
</event>
<event>
 4    1  0.4531281E+000  0.2352973E+03  0.7546771E-02  0.1122966E+00
         21   -1    0    0  503  502  0.00000000000E+00  0.00000000000E+00  0.67510538817E+02  0.67510538817E+02  0.00000000000E+00 0. -1.
         21   -1    0    0  501  503 -0.00000000000E+00 -0.00000000000E+00 -0.90112583348E+03  0.90112583348E+03  0.00000000000E+00 0. -1.
          6    1    1    2  501    0  0.75384373808E+02 -0.14054546392E+03 -0.56204292019E+03  0.60930868645E+03  0.17300000000E+03 0. -1.
         -6    1    1    2    0  502 -0.75384373808E+02  0.14054546392E+03 -0.27157237447E+03  0.35932768585E+03  0.17300000000E+03 0. -1.
<mgrwt>
<rscale>  2 0.23529733E+03</rscale>
<asrwt>0</asrwt>
<pdfrwt beam="1">  1       21 0.10386238E-01 0.23529733E+03</pdfrwt>
<pdfrwt beam="2">  1       21 0.13863473E+00 0.23529733E+03</pdfrwt>
<totfact> 0.27162170E+04</totfact>
</mgrwt>
</event>
<event>
 4    1  0.4531281E+000  0.1876278E+03  0.7546771E-02  0.1160618E+00
         21   -1    0    0  501  502  0.00000000000E+00  0.00000000000E+00  0.21347007604E+02  0.21347007604E+02  0.00000000000E+00 0.  1.
         21   -1    0    0  502  503 -0.00000000000E+00 -0.00000000000E+00 -0.21367535643E+04  0.21367535643E+04  0.00000000000E+00 0.  1.
          6    1    1    2  501    0  0.51673511699E+02 -0.51039453494E+02 -0.54223385667E+03  0.57377847027E+03  0.17300000000E+03 0.  1.
         -6    1    1    2    0  503 -0.51673511699E+02  0.51039453494E+02 -0.15731727000E+04  0.15843221016E+04  0.17300000000E+03 0.  1.
<mgrwt>
<rscale>  2 0.18762776E+03</rscale>
<asrwt>0</asrwt>
<pdfrwt beam="1">  1       21 0.32841551E-02 0.18762776E+03</pdfrwt>
<pdfrwt beam="2">  1       21 0.32873130E+00 0.18762776E+03</pdfrwt>
<totfact> 0.12756790E+04</totfact>
</mgrwt>
</event>
<event>
 4    1  0.4531281E+000  0.1876472E+03  0.7546771E-02  0.1160601E+00
         21   -1    0    0  503  502  0.00000000000E+00  0.00000000000E+00  0.11316385016E+04  0.11316385016E+04  0.00000000000E+00 0.  1.
         21   -1    0    0  501  503 -0.00000000000E+00 -0.00000000000E+00 -0.33396450245E+02  0.33396450245E+02  0.00000000000E+00 0.  1.
          6    1    1    2  501    0  0.19569042570E+02 -0.69996651787E+02  0.39688469115E+03  0.43900903949E+03  0.17300000000E+03 0.  1.
         -6    1    1    2    0  502 -0.19569042570E+02  0.69996651787E+02  0.70135736018E+03  0.72602591233E+03  0.17300000000E+03 0.  1.
<mgrwt>
<rscale>  2 0.18764722E+03</rscale>
<asrwt>0</asrwt>
<pdfrwt beam="1">  1       21 0.17409820E+00 0.18764722E+03</pdfrwt>
<pdfrwt beam="2">  1       21 0.51379163E-02 0.18764722E+03</pdfrwt>
<totfact> 0.51467879E+04</totfact>
</mgrwt>
</event>
<event>
 4    1  0.4531281E+000  0.1807484E+03  0.7546771E-02  0.1167081E+00
         21   -1    0    0  503  502  0.00000000000E+00  0.00000000000E+00  0.27561211904E+04  0.27561211904E+04  0.00000000000E+00 0. -1.
         21   -1    0    0  501  503 -0.00000000000E+00 -0.00000000000E+00 -0.31210210834E+02  0.31210210834E+02  0.00000000000E+00 0. -1.
          6    1    1    2  501    0 -0.69209022513E+01  0.51895053244E+02  0.26490434250E+03  0.32069347688E+03  0.17300000000E+03 0. -1.
         -6    1    1    2    0  502  0.69209022513E+01 -0.51895053244E+02  0.24600066371E+04  0.24666379244E+04  0.17300000000E+03 0. -1.
<mgrwt>
<rscale>  2 0.18074843E+03</rscale>
<asrwt>0</asrwt>
<pdfrwt beam="1">  1       21 0.42401845E+00 0.18074843E+03</pdfrwt>
<pdfrwt beam="2">  1       21 0.48015730E-02 0.18074843E+03</pdfrwt>
<totfact> 0.18037444E+03</totfact>
</mgrwt>
</event>
<event>
 4    1  0.4531281E+000  0.1745025E+03  0.7546771E-02  0.1173232E+00
         21   -1    0    0  501  502  0.00000000000E+00  0.00000000000E+00  0.48712719360E+03  0.48712719360E+03  0.00000000000E+00 0. -1.
         21   -1    0    0  502  503 -0.00000000000E+00 -0.00000000000E+00 -0.64833777741E+02  0.64833777741E+02  0.00000000000E+00 0. -1.
          6    1    1    2  501    0  0.97501194189E+00 -0.22829124494E+02  0.26337691348E+03  0.31594068767E+03  0.17300000000E+03 0.  1.
         -6    1    1    2    0  503 -0.97501194189E+00  0.22829124494E+02  0.15891650238E+03  0.23602028367E+03  0.17300000000E+03 0.  1.
<mgrwt>
<rscale>  2 0.17450249E+03</rscale>
<asrwt>0</asrwt>
<pdfrwt beam="1">  1       21 0.74942643E-01 0.17450249E+03</pdfrwt>
<pdfrwt beam="2">  1       21 0.99744276E-02 0.17450249E+03</pdfrwt>
<totfact> 0.13067253E+05</totfact>
</mgrwt>
</event>
<event>
 4    1  0.4531281E+000  0.2525437E+03  0.7546771E-02  0.1111708E+00
         21   -1    0    0  503  502  0.00000000000E+00  0.00000000000E+00  0.71513306178E+02  0.71513306178E+02  0.00000000000E+00 0. -1.
         21   -1    0    0  501  503 -0.00000000000E+00 -0.00000000000E+00 -0.19164216094E+04  0.19164216094E+04  0.00000000000E+00 0. -1.
          6    1    1    2  501    0  0.53418258038E+02  0.17605623403E+03 -0.16492296332E+04  0.16684533828E+04  0.17300000000E+03 0. -1.
         -6    1    1    2    0  502 -0.53418258038E+02 -0.17605623403E+03 -0.19567867003E+03  0.31948153270E+03  0.17300000000E+03 0. -1.
<mgrwt>
<rscale>  2 0.25254368E+03</rscale>
<asrwt>0</asrwt>
<pdfrwt beam="1">  1       21 0.11002046E-01 0.25254368E+03</pdfrwt>
<pdfrwt beam="2">  1       21 0.29483413E+00 0.25254368E+03</pdfrwt>
<totfact> 0.23471412E+03</totfact>
</mgrwt>
</event>
<event>
 4    1  0.4531281E+000  0.2131202E+03  0.7546771E-02  0.1139119E+00
         21   -1    0    0  503  502  0.00000000000E+00  0.00000000000E+00  0.39380236481E+03  0.39380236481E+03  0.00000000000E+00 0. -1.
         21   -1    0    0  501  503 -0.00000000000E+00 -0.00000000000E+00 -0.14012661170E+03  0.14012661170E+03  0.00000000000E+00 0. -1.
          6    1    1    2  501    0  0.79545566445E+02  0.95727345452E+02  0.14552618200E+02  0.21361647995E+03  0.17300000000E+03 0. -1.
         -6    1    1    2    0  502 -0.79545566445E+02 -0.95727345452E+02  0.23912313491E+03  0.32031249657E+03  0.17300000000E+03 0. -1.
<mgrwt>
<rscale>  2 0.21312021E+03</rscale>
<asrwt>0</asrwt>
<pdfrwt beam="1">  1       21 0.60584979E-01 0.21312021E+03</pdfrwt>
<pdfrwt beam="2">  1       21 0.21557940E-01 0.21312021E+03</pdfrwt>
<totfact> 0.50394247E+04</totfact>
</mgrwt>
</event>
<event>
 4    1  0.4531281E+000  0.2438529E+03  0.7546771E-02  0.1117252E+00
         21   -1    0    0  503  502  0.00000000000E+00  0.00000000000E+00  0.63298055366E+02  0.63298055366E+02  0.00000000000E+00 0.  1.
         21   -1    0    0  501  503 -0.00000000000E+00 -0.00000000000E+00 -0.12695163393E+04  0.12695163393E+04  0.00000000000E+00 0. -1.
          6    1    1    2  501    0  0.17067617556E+03  0.20121466183E+02 -0.94291657257E+03  0.97393834155E+03  0.17300000000E+03 0. -1.
         -6    1    1    2    0  502 -0.17067617556E+03 -0.20121466183E+02 -0.26330171141E+03  0.35887605317E+03  0.17300000000E+03 0.  1.
<mgrwt>
<rscale>  2 0.24385289E+03</rscale>
<asrwt>0</asrwt>
<pdfrwt beam="1">  1       21 0.97381635E-02 0.24385289E+03</pdfrwt>
<pdfrwt beam="2">  1       21 0.19531018E+00 0.24385289E+03</pdfrwt>
<totfact> 0.11786074E+04</totfact>
</mgrwt>
</event>
<event>
 4    1  0.4531281E+000  0.2317241E+03  0.7546771E-02  0.1125432E+00
         21   -1    0    0  501  502  0.00000000000E+00  0.00000000000E+00  0.38791670561E+03  0.38791670561E+03  0.00000000000E+00 0.  1.
         21   -1    0    0  502  503 -0.00000000000E+00 -0.00000000000E+00 -0.15431092839E+03  0.15431092839E+03  0.00000000000E+00 0. -1.
          6    1    1    2  501    0 -0.63002608210E+02 -0.14070439115E+03  0.20380022670E+03  0.30859453452E+03  0.17300000000E+03 0.  1.
         -6    1    1    2    0  503  0.63002608210E+02  0.14070439115E+03  0.29805550523E+02  0.23363309948E+03  0.17300000000E+03 0.  1.
<mgrwt>
<rscale>  2 0.23172409E+03</rscale>
<asrwt>0</asrwt>
<pdfrwt beam="1">  1       21 0.59679493E-01 0.23172409E+03</pdfrwt>
<pdfrwt beam="2">  1       21 0.23740143E-01 0.23172409E+03</pdfrwt>
<totfact> 0.42991966E+04</totfact>
</mgrwt>
</event>
<event>
 4    1  0.4531281E+000  0.1820260E+03  0.7546771E-02  0.1165857E+00
         21   -1    0    0  501  502  0.00000000000E+00  0.00000000000E+00  0.82579153219E+03  0.82579153219E+03  0.00000000000E+00 0.  1.
         21   -1    0    0  502  503 -0.00000000000E+00 -0.00000000000E+00 -0.42863444547E+02  0.42863444547E+02  0.00000000000E+00 0. -1.
          6    1    1    2  501    0 -0.53528736939E+02  0.18415263238E+02  0.50127957358E+03  0.53330540827E+03  0.17300000000E+03 0.  1.
         -6    1    1    2    0  503  0.53528736939E+02 -0.18415263238E+02  0.28164851406E+03  0.33534956847E+03  0.17300000000E+03 0. -1.
<mgrwt>
<rscale>  2 0.18202595E+03</rscale>
<asrwt>0</asrwt>
<pdfrwt beam="1">  1       21 0.12704484E+00 0.18202595E+03</pdfrwt>
<pdfrwt beam="2">  1       21 0.65943767E-02 0.18202595E+03</pdfrwt>
<totfact> 0.77178706E+04</totfact>
</mgrwt>
</event>
<event>
 4    1  0.4531281E+000  0.2535062E+03  0.7546771E-02  0.1111109E+00
         21   -1    0    0  503  502  0.00000000000E+00  0.00000000000E+00  0.41630014448E+03  0.41630014448E+03  0.00000000000E+00 0.  1.
         21   -1    0    0  501  503 -0.00000000000E+00 -0.00000000000E+00 -0.16073224945E+03  0.16073224945E+03  0.00000000000E+00 0. -1.
          6    1    1    2  501    0 -0.17804406278E+03  0.51349002762E+02  0.18517303431E+03  0.31393384815E+03  0.17300000000E+03 0.  1.
         -6    1    1    2    0  502  0.17804406278E+03 -0.51349002762E+02  0.70394860724E+02  0.26309854578E+03  0.17300000000E+03 0. -1.
<mgrwt>
<rscale>  2 0.25350623E+03</rscale>
<asrwt>0</asrwt>
<pdfrwt beam="1">  1       21 0.64046176E-01 0.25350623E+03</pdfrwt>
<pdfrwt beam="2">  1       21 0.24728039E-01 0.25350623E+03</pdfrwt>
<totfact> 0.33792984E+04</totfact>
</mgrwt>
</event>
<event>
 4    1  0.4531281E+000  0.3077714E+03  0.7546771E-02  0.1081419E+00
         21   -1    0    0  503  502  0.00000000000E+00  0.00000000000E+00  0.20139104704E+03  0.20139104704E+03  0.00000000000E+00 0. -1.
         21   -1    0    0  501  503 -0.00000000000E+00 -0.00000000000E+00 -0.47034715808E+03  0.47034715808E+03  0.00000000000E+00 0. -1.
          6    1    1    2  501    0  0.39602701137E+02  0.25144752691E+03 -0.13522931256E+03  0.33616989708E+03  0.17300000000E+03 0. -1.
         -6    1    1    2    0  502 -0.39602701137E+02 -0.25144752691E+03 -0.13372679848E+03  0.33556830803E+03  0.17300000000E+03 0. -1.
<mgrwt>
<rscale>  2 0.30777140E+03</rscale>
<asrwt>0</asrwt>
<pdfrwt beam="1">  1       21 0.30983238E-01 0.30777140E+03</pdfrwt>
<pdfrwt beam="2">  1       21 0.72361101E-01 0.30777140E+03</pdfrwt>
<totfact> 0.16246923E+04</totfact>
</mgrwt>
</event>
<event>
 4    1  0.4531281E+000  0.1771028E+03  0.7546771E-02  0.1170637E+00
         21   -1    0    0  501  502  0.00000000000E+00  0.00000000000E+00  0.21948638140E+03  0.21948638140E+03  0.00000000000E+00 0. -1.
         21   -1    0    0  502  503 -0.00000000000E+00 -0.00000000000E+00 -0.33273972237E+03  0.33273972237E+03  0.00000000000E+00 0. -1.
          6    1    1    2  501    0  0.90877451354E+00 -0.37888824135E+02  0.15192999068E+03  0.23334118996E+03  0.17300000000E+03 0. -1.
         -6    1    1    2    0  503 -0.90877451354E+00  0.37888824135E+02 -0.26518333166E+03  0.31888491381E+03  0.17300000000E+03 0. -1.
<mgrwt>
<rscale>  2 0.17710276E+03</rscale>
<asrwt>0</asrwt>
<pdfrwt beam="1">  1       21 0.33767136E-01 0.17710276E+03</pdfrwt>
<pdfrwt beam="2">  1       21 0.51190726E-01 0.17710276E+03</pdfrwt>
<totfact> 0.30906894E+04</totfact>
</mgrwt>
</event>
<event>
 4    1  0.4531281E+000  0.2806600E+03  0.7546771E-02  0.1095329E+00
         21   -1    0    0  501  502  0.00000000000E+00  0.00000000000E+00  0.70728837350E+03  0.70728837350E+03  0.00000000000E+00 0. -1.
         21   -1    0    0  502  503 -0.00000000000E+00 -0.00000000000E+00 -0.11584724944E+03  0.11584724944E+03  0.00000000000E+00 0. -1.
          6    1    1    2  501    0 -0.15735608151E+03 -0.15517768855E+03  0.21480182867E+03  0.35342591446E+03  0.17300000000E+03 0. -1.
         -6    1    1    2    0  503  0.15735608151E+03  0.15517768855E+03  0.37663929539E+03  0.46970970849E+03  0.17300000000E+03 0. -1.
<mgrwt>
<rscale>  2 0.28066003E+03</rscale>
<asrwt>0</asrwt>
<pdfrwt beam="1">  1       21 0.10881359E+00 0.28066003E+03</pdfrwt>
<pdfrwt beam="2">  1       21 0.17822654E-01 0.28066003E+03</pdfrwt>
<totfact> 0.18273551E+04</totfact>
</mgrwt>
</event>
<event>
 4    1  0.4531281E+000  0.2034655E+03  0.7546771E-02  0.1146848E+00
         21   -1    0    0  501  502  0.00000000000E+00  0.00000000000E+00  0.12152780237E+04  0.12152780237E+04  0.00000000000E+00 0. -1.
         21   -1    0    0  502  503 -0.00000000000E+00 -0.00000000000E+00 -0.40692436088E+02  0.40692436088E+02  0.00000000000E+00 0.  1.
          6    1    1    2  501    0  0.62783341484E+01 -0.10691019657E+03  0.33385476490E+03  0.39096957894E+03  0.17300000000E+03 0.  1.
         -6    1    1    2    0  503 -0.62783341484E+01  0.10691019657E+03  0.84073082270E+03  0.86500088083E+03  0.17300000000E+03 0. -1.
<mgrwt>
<rscale>  2 0.20346549E+03</rscale>
<asrwt>0</asrwt>
<pdfrwt beam="1">  1       21 0.18696582E+00 0.20346549E+03</pdfrwt>
<pdfrwt beam="2">  1       21 0.62603757E-02 0.20346549E+03</pdfrwt>
<totfact> 0.29725974E+04</totfact>
</mgrwt>
</event>
<event>
 4    1  0.4531281E+000  0.2655658E+03  0.7546771E-02  0.1103845E+00
         21   -1    0    0  501  502  0.00000000000E+00  0.00000000000E+00  0.82810630723E+03  0.82810630723E+03  0.00000000000E+00 0.  1.
         21   -1    0    0  502  503 -0.00000000000E+00 -0.00000000000E+00 -0.15802574443E+03  0.15802574443E+03  0.00000000000E+00 0. -1.
          6    1    1    2  501    0  0.19166789839E+03 -0.62125715212E+02  0.66984356392E+03  0.72056615788E+03  0.17300000000E+03 0.  1.
         -6    1    1    2    0  503 -0.19166789839E+03  0.62125715212E+02  0.23699888436E+00  0.26556589377E+03  0.17300000000E+03 0. -1.
<mgrwt>
<rscale>  2 0.26556579E+03</rscale>
<asrwt>0</asrwt>
<pdfrwt beam="1">  1       21 0.12740097E+00 0.26556579E+03</pdfrwt>
<pdfrwt beam="2">  1       21 0.24311653E-01 0.26556579E+03</pdfrwt>
<totfact> 0.69161348E+03</totfact>
</mgrwt>
</event>
<event>
 4    1  0.4531281E+000  0.1761831E+03  0.7546771E-02  0.1171549E+00
         21   -1    0    0  503  502  0.00000000000E+00  0.00000000000E+00  0.56408211153E+03  0.56408211153E+03  0.00000000000E+00 0.  1.
         21   -1    0    0  501  503 -0.00000000000E+00 -0.00000000000E+00 -0.24634539589E+03  0.24634539589E+03  0.00000000000E+00 0.  1.
          6    1    1    2  501    0 -0.28811122984E+02  0.16775178247E+02 -0.19823080093E+03  0.26520923409E+03  0.17300000000E+03 0.  1.
         -6    1    1    2    0  502  0.28811122984E+02 -0.16775178247E+02  0.51596751657E+03  0.54521827333E+03  0.17300000000E+03 0.  1.
<mgrwt>
<rscale>  2 0.17618311E+03</rscale>
<asrwt>0</asrwt>
<pdfrwt beam="1">  1       21 0.86781863E-01 0.17618311E+03</pdfrwt>
<pdfrwt beam="2">  1       21 0.37899292E-01 0.17618311E+03</pdfrwt>
<totfact> 0.77662420E+03</totfact>
</mgrwt>
</event>
<event>
 4    1  0.4531281E+000  0.2079732E+03  0.7546771E-02  0.1143181E+00
         21   -1    0    0  503  502  0.00000000000E+00  0.00000000000E+00  0.97031192757E+02  0.97031192757E+02  0.00000000000E+00 0. -1.
         21   -1    0    0  501  503 -0.00000000000E+00 -0.00000000000E+00 -0.58751617648E+03  0.58751617648E+03  0.00000000000E+00 0. -1.
          6    1    1    2  501    0  0.76310055250E+02 -0.86606231505E+02 -0.41336691678E+03  0.46273650359E+03  0.17300000000E+03 0. -1.
         -6    1    1    2    0  502 -0.76310055250E+02  0.86606231505E+02 -0.77118066938E+02  0.22181086564E+03  0.17300000000E+03 0. -1.
<mgrwt>
<rscale>  2 0.20797323E+03</rscale>
<asrwt>0</asrwt>
<pdfrwt beam="1">  1       21 0.14927876E-01 0.20797323E+03</pdfrwt>
<pdfrwt beam="2">  1       21 0.90387101E-01 0.20797323E+03</pdfrwt>
<totfact> 0.40834025E+04</totfact>
</mgrwt>
</event>
<event>
 4    1  0.4531281E+000  0.2055906E+03  0.7546771E-02  0.1145106E+00
         21   -1    0    0  501  502  0.00000000000E+00  0.00000000000E+00  0.38040668549E+04  0.38040668549E+04  0.00000000000E+00 0. -1.
         21   -1    0    0  502  503 -0.00000000000E+00 -0.00000000000E+00 -0.11556380592E+02  0.11556380592E+02  0.00000000000E+00 0. -1.
          6    1    1    2  501    0  0.91228719595E+02  0.63370440956E+02  0.22707324972E+04  0.22800205188E+04  0.17300000000E+03 0. -1.
         -6    1    1    2    0  503 -0.91228719595E+02 -0.63370440956E+02  0.15217779771E+04  0.15356027167E+04  0.17300000000E+03 0. -1.
<mgrwt>
<rscale>  2 0.20559059E+03</rscale>
<asrwt>0</asrwt>
<pdfrwt beam="1">  1       21 0.58524005E+00 0.20559059E+03</pdfrwt>
<pdfrwt beam="2">  1       21 0.17779077E-02 0.20559059E+03</pdfrwt>
<totfact> 0.64900679E+02</totfact>
</mgrwt>
</event>
<event>
 4    1  0.4531281E+000  0.1811928E+03  0.7546771E-02  0.1166654E+00
         21   -1    0    0  501  502  0.00000000000E+00  0.00000000000E+00  0.10015371322E+03  0.10015371322E+03  0.00000000000E+00 0. -1.
         21   -1    0    0  502  503 -0.00000000000E+00 -0.00000000000E+00 -0.36305321797E+03  0.36305321797E+03  0.00000000000E+00 0. -1.
          6    1    1    2  501    0  0.43255643697E+02 -0.32105944114E+02 -0.59283974681E+02  0.19064477966E+03  0.17300000000E+03 0.  1.
         -6    1    1    2    0  503 -0.43255643697E+02  0.32105944114E+02 -0.20361553007E+03  0.27256215153E+03  0.17300000000E+03 0.  1.
<mgrwt>
<rscale>  2 0.18119283E+03</rscale>
<asrwt>0</asrwt>
<pdfrwt beam="1">  1       21 0.15408264E-01 0.18119283E+03</pdfrwt>
<pdfrwt beam="2">  1       21 0.55854341E-01 0.18119283E+03</pdfrwt>
<totfact> 0.11324355E+05</totfact>
</mgrwt>
</event>
<event>
 4    1  0.4531281E+000  0.3082214E+03  0.7546771E-02  0.1081202E+00
         21   -1    0    0  501  502  0.00000000000E+00  0.00000000000E+00  0.35665363619E+03  0.35665363619E+03  0.00000000000E+00 0.  1.
         21   -1    0    0  502  503 -0.00000000000E+00 -0.00000000000E+00 -0.28747604590E+03  0.28747604590E+03  0.00000000000E+00 0. -1.
          6    1    1    2  501    0  0.20791314805E+03  0.14779569416E+03  0.12186299303E+03  0.33143782737E+03  0.17300000000E+03 0.  1.
         -6    1    1    2    0  503 -0.20791314805E+03 -0.14779569416E+03 -0.52685402736E+02  0.31269185471E+03  0.17300000000E+03 0.  1.
<mgrwt>
<rscale>  2 0.30822142E+03</rscale>
<asrwt>0</asrwt>
<pdfrwt beam="1">  1       21 0.54869790E-01 0.30822142E+03</pdfrwt>
<pdfrwt beam="2">  1       21 0.44227084E-01 0.30822142E+03</pdfrwt>
<totfact> 0.14500221E+04</totfact>
</mgrwt>
</event>
<event>
 4    1  0.4531281E+000  0.2819297E+03  0.7546771E-02  0.1094640E+00
         21   -1    0    0  501  502  0.00000000000E+00  0.00000000000E+00  0.42448976931E+03  0.42448976931E+03  0.00000000000E+00 0. -1.
         21   -1    0    0  502  503 -0.00000000000E+00 -0.00000000000E+00 -0.18776028823E+03  0.18776028823E+03  0.00000000000E+00 0.  1.
          6    1    1    2  501    0 -0.20696145563E+03  0.81989666584E+02  0.13437371833E+03  0.31231497838E+03  0.17300000000E+03 0. -1.
         -6    1    1    2    0  503  0.20696145563E+03 -0.81989666584E+02  0.10235576275E+03  0.29993507916E+03  0.17300000000E+03 0.  1.
<mgrwt>
<rscale>  2 0.28192969E+03</rscale>
<asrwt>0</asrwt>
<pdfrwt beam="1">  1       21 0.65306118E-01 0.28192969E+03</pdfrwt>
<pdfrwt beam="2">  1       21 0.28886198E-01 0.28192969E+03</pdfrwt>
<totfact> 0.23672122E+04</totfact>
</mgrwt>
</event>
<event>
 4    1  0.4531281E+000  0.2057487E+03  0.7546771E-02  0.1144977E+00
         21   -1    0    0  501  502  0.00000000000E+00  0.00000000000E+00  0.39875368036E+02  0.39875368036E+02  0.00000000000E+00 0. -1.
         21   -1    0    0  502  503 -0.00000000000E+00 -0.00000000000E+00 -0.14979655543E+04  0.14979655543E+04  0.00000000000E+00 0. -1.
          6    1    1    2  501    0  0.56062602486E+02  0.96231613720E+02 -0.31404790912E+03  0.37544457394E+03  0.17300000000E+03 0. -1.
         -6    1    1    2    0  503 -0.56062602486E+02 -0.96231613720E+02 -0.11440422771E+04  0.11623963484E+04  0.17300000000E+03 0. -1.
<mgrwt>
<rscale>  2 0.20574873E+03</rscale>
<asrwt>0</asrwt>
<pdfrwt beam="1">  1       21 0.61346723E-02 0.20574873E+03</pdfrwt>
<pdfrwt beam="2">  1       21 0.23045623E+00 0.20574873E+03</pdfrwt>
<totfact> 0.16315965E+04</totfact>
</mgrwt>
</event>
<event>
 4    1  0.4531281E+000  0.2559798E+03  0.7546771E-02  0.1109583E+00
         21   -1    0    0  501  502  0.00000000000E+00  0.00000000000E+00  0.52463200690E+03  0.52463200690E+03  0.00000000000E+00 0.  1.
         21   -1    0    0  502  503 -0.00000000000E+00 -0.00000000000E+00 -0.16016074271E+04  0.16016074271E+04  0.00000000000E+00 0. -1.
          6    1    1    2  501    0 -0.16026956226E+03 -0.99550701358E+02  0.48233801819E+03  0.54605461130E+03  0.17300000000E+03 0.  1.
         -6    1    1    2    0  503  0.16026956226E+03  0.99550701358E+02 -0.15593134384E+04  0.15801848227E+04  0.17300000000E+03 0. -1.
<mgrwt>
<rscale>  2 0.25597983E+03</rscale>
<asrwt>0</asrwt>
<pdfrwt beam="1">  1       21 0.80712617E-01 0.25597983E+03</pdfrwt>
<pdfrwt beam="2">  1       21 0.24640114E+00 0.25597983E+03</pdfrwt>
<totfact> 0.86463872E+01</totfact>
</mgrwt>
</event>
<event>
 4    1  0.4531281E+000  0.1967980E+03  0.7546771E-02  0.1152469E+00
         21   -1    0    0  503  502  0.00000000000E+00  0.00000000000E+00  0.26126425166E+03  0.26126425166E+03  0.00000000000E+00 0. -1.
         21   -1    0    0  501  503 -0.00000000000E+00 -0.00000000000E+00 -0.56777783690E+03  0.56777783690E+03  0.00000000000E+00 0. -1.
          6    1    1    2  501    0 -0.28732901739E+02 -0.89302110147E+02 -0.50957963030E+03  0.54626078583E+03  0.17300000000E+03 0. -1.
         -6    1    1    2    0  502  0.28732901739E+02  0.89302110147E+02  0.20306604506E+03  0.28278130273E+03  0.17300000000E+03 0. -1.
<mgrwt>
<rscale>  2 0.19679798E+03</rscale>
<asrwt>0</asrwt>
<pdfrwt beam="1">  1       21 0.40194501E-01 0.19679798E+03</pdfrwt>
<pdfrwt beam="2">  1       21 0.87350434E-01 0.19679798E+03</pdfrwt>
<totfact> 0.66930399E+03</totfact>
</mgrwt>
</event>
<event>
 4    1  0.4531281E+000  0.2261555E+03  0.7546771E-02  0.1129375E+00
         21   -1    0    0  503  502  0.00000000000E+00  0.00000000000E+00  0.46272299344E+03  0.46272299344E+03  0.00000000000E+00 0.  1.
         21   -1    0    0  501  503 -0.00000000000E+00 -0.00000000000E+00 -0.16701656038E+03  0.16701656038E+03  0.00000000000E+00 0. -1.
          6    1    1    2  501    0  0.13283608864E+03  0.59765358592E+02 -0.35256284481E+02  0.22888715588E+03  0.17300000000E+03 0. -1.
         -6    1    1    2    0  502 -0.13283608864E+03 -0.59765358592E+02  0.33096271754E+03  0.40085239794E+03  0.17300000000E+03 0. -1.
<mgrwt>
<rscale>  2 0.22615553E+03</rscale>
<asrwt>0</asrwt>
<pdfrwt beam="1">  1       21 0.71188153E-01 0.22615553E+03</pdfrwt>
<pdfrwt beam="2">  1       21 0.25694856E-01 0.22615553E+03</pdfrwt>
<totfact> 0.25189829E+04</totfact>
</mgrwt>
</event>
<event>
 4    1  0.4531281E+000  0.2182635E+03  0.7546771E-02  0.1135184E+00
         21   -1    0    0  503  502  0.00000000000E+00  0.00000000000E+00  0.10259252678E+04  0.10259252678E+04  0.00000000000E+00 0. -1.
         21   -1    0    0  501  503 -0.00000000000E+00 -0.00000000000E+00 -0.46855099031E+02  0.46855099031E+02  0.00000000000E+00 0.  1.
          6    1    1    2  501    0  0.10173203532E+03  0.85793730570E+02  0.43875282558E+03  0.49004388903E+03  0.17300000000E+03 0.  1.
         -6    1    1    2    0  502 -0.10173203532E+03 -0.85793730570E+02  0.54031734317E+03  0.58273647779E+03  0.17300000000E+03 0. -1.
<mgrwt>
<rscale>  2 0.21826354E+03</rscale>
<asrwt>0</asrwt>
<pdfrwt beam="1">  1       21 0.15783464E+00 0.21826354E+03</pdfrwt>
<pdfrwt beam="2">  1       21 0.72084775E-02 0.21826354E+03</pdfrwt>
<totfact> 0.36970671E+04</totfact>
</mgrwt>
</event>
<event>
 4    1  0.4531281E+000  0.2087259E+03  0.7546771E-02  0.1142579E+00
         21   -1    0    0  501  502  0.00000000000E+00  0.00000000000E+00  0.58421685292E+02  0.58421685292E+02  0.00000000000E+00 0.  1.
         21   -1    0    0  502  503 -0.00000000000E+00 -0.00000000000E+00 -0.12611307023E+04  0.12611307023E+04  0.00000000000E+00 0.  1.
          6    1    1    2  501    0 -0.35978610555E+02 -0.11109916540E+03 -0.17956925580E+03  0.27533906842E+03  0.17300000000E+03 0.  1.
         -6    1    1    2    0  503  0.35978610555E+02  0.11109916540E+03 -0.10231397612E+04  0.10442133192E+04  0.17300000000E+03 0.  1.
<mgrwt>
<rscale>  2 0.20872586E+03</rscale>
<asrwt>0</asrwt>
<pdfrwt beam="1">  1       21 0.89879525E-02 0.20872586E+03</pdfrwt>
<pdfrwt beam="2">  1       21 0.19402009E+00 0.20872586E+03</pdfrwt>
<totfact> 0.14193746E+04</totfact>
</mgrwt>
</event>
<event>
 4    1  0.4531281E+000  0.2530286E+03  0.7546771E-02  0.1111406E+00
         21   -1    0    0  503  502  0.00000000000E+00  0.00000000000E+00  0.19565152090E+03  0.19565152090E+03  0.00000000000E+00 0. -1.
         21   -1    0    0  501  503 -0.00000000000E+00 -0.00000000000E+00 -0.49036027377E+03  0.49036027377E+03  0.00000000000E+00 0. -1.
          6    1    1    2  501    0  0.39890122353E+02  0.18028664260E+03 -0.34519167850E+03  0.42799625029E+03  0.17300000000E+03 0. -1.
         -6    1    1    2    0  502 -0.39890122353E+02 -0.18028664260E+03  0.50482925618E+02  0.25801554438E+03  0.17300000000E+03 0. -1.
<mgrwt>
<rscale>  2 0.25302865E+03</rscale>
<asrwt>0</asrwt>
<pdfrwt beam="1">  1       21 0.30100234E-01 0.25302865E+03</pdfrwt>
<pdfrwt beam="2">  1       21 0.75440042E-01 0.25302865E+03</pdfrwt>
<totfact> 0.16051431E+04</totfact>
</mgrwt>
</event>
<event>
 4    1  0.4531281E+000  0.2363695E+03  0.7546771E-02  0.1122235E+00
         21   -1    0    0  501  502  0.00000000000E+00  0.00000000000E+00  0.78806388178E+02  0.78806388178E+02  0.00000000000E+00 0.  1.
         21   -1    0    0  502  503 -0.00000000000E+00 -0.00000000000E+00 -0.10821125895E+04  0.10821125895E+04  0.00000000000E+00 0.  1.
          6    1    1    2  501    0  0.41114135353E+02  0.15572787449E+03 -0.84251555807E+03  0.87504457521E+03  0.17300000000E+03 0.  1.
         -6    1    1    2    0  503 -0.41114135353E+02 -0.15572787449E+03 -0.16079064321E+03  0.28587440242E+03  0.17300000000E+03 0.  1.
<mgrwt>
<rscale>  2 0.23636951E+03</rscale>
<asrwt>0</asrwt>
<pdfrwt beam="1">  1       21 0.12124061E-01 0.23636951E+03</pdfrwt>
<pdfrwt beam="2">  1       21 0.16647884E+00 0.23636951E+03</pdfrwt>
<totfact> 0.12625171E+04</totfact>
</mgrwt>
</event>
<event>
 4    1  0.4531281E+000  0.1744429E+03  0.7546771E-02  0.1173292E+00
         21   -1    0    0  503  502  0.00000000000E+00  0.00000000000E+00  0.92478368688E+02  0.92478368688E+02  0.00000000000E+00 0.  1.
         21   -1    0    0  501  503 -0.00000000000E+00 -0.00000000000E+00 -0.47777652358E+03  0.47777652358E+03  0.00000000000E+00 0.  1.
          6    1    1    2  501    0  0.22142363511E+02  0.33246715438E+01 -0.35172909002E+03  0.39261137333E+03  0.17300000000E+03 0.  1.
         -6    1    1    2    0  502 -0.22142363511E+02 -0.33246715438E+01 -0.33569064869E+02  0.17764351893E+03  0.17300000000E+03 0.  1.
<mgrwt>
<rscale>  2 0.17444294E+03</rscale>
<asrwt>0</asrwt>
<pdfrwt beam="1">  1       21 0.14227442E-01 0.17444294E+03</pdfrwt>
<pdfrwt beam="2">  1       21 0.73504080E-01 0.17444294E+03</pdfrwt>
<totfact> 0.72386509E+04</totfact>
</mgrwt>
</event>
<event>
 4    1  0.4531281E+000  0.1766104E+03  0.7546771E-02  0.1171124E+00
         21   -1    0    0  501  502  0.00000000000E+00  0.00000000000E+00  0.53458900251E+03  0.53458900251E+03  0.00000000000E+00 0.  1.
         21   -1    0    0  502  503 -0.00000000000E+00 -0.00000000000E+00 -0.21474354528E+03  0.21474354528E+03  0.00000000000E+00 0.  1.
          6    1    1    2  501    0 -0.30025184387E+02  0.18992790989E+02  0.47966439048E+03  0.51114495527E+03  0.17300000000E+03 0.  1.
         -6    1    1    2    0  503  0.30025184387E+02 -0.18992790989E+02 -0.15981893325E+03  0.23818759252E+03  0.17300000000E+03 0.  1.
<mgrwt>
<rscale>  2 0.17661041E+03</rscale>
<asrwt>0</asrwt>
<pdfrwt beam="1">  1       21 0.82244461E-01 0.17661041E+03</pdfrwt>
<pdfrwt beam="2">  1       21 0.33037469E-01 0.17661041E+03</pdfrwt>
<totfact> 0.11520578E+04</totfact>
</mgrwt>
</event>
<event>
 4    1  0.4531281E+000  0.1898235E+03  0.7546771E-02  0.1158621E+00
         21   -1    0    0  503  502  0.00000000000E+00  0.00000000000E+00  0.13889358257E+03  0.13889358257E+03  0.00000000000E+00 0.  1.
         21   -1    0    0  501  503 -0.00000000000E+00 -0.00000000000E+00 -0.27651959134E+03  0.27651959134E+03  0.00000000000E+00 0. -1.
          6    1    1    2  501    0  0.57254479316E+02 -0.53159148880E+02 -0.12045115548E+03  0.22481425971E+03  0.17300000000E+03 0. -1.
         -6    1    1    2    0  502 -0.57254479316E+02  0.53159148880E+02 -0.17174853289E+02  0.19059891421E+03  0.17300000000E+03 0.  1.
<mgrwt>
<rscale>  2 0.18982352E+03</rscale>
<asrwt>0</asrwt>
<pdfrwt beam="1">  1       21 0.21368244E-01 0.18982352E+03</pdfrwt>
<pdfrwt beam="2">  1       21 0.42541475E-01 0.18982352E+03</pdfrwt>
<totfact> 0.10851049E+05</totfact>
</mgrwt>
</event>
<event>
 4    1  0.4531281E+000  0.2149053E+03  0.7546771E-02  0.1137739E+00
         21   -1    0    0  503  502  0.00000000000E+00  0.00000000000E+00  0.38026375999E+02  0.38026375999E+02  0.00000000000E+00 0.  1.
         21   -1    0    0  501  503 -0.00000000000E+00 -0.00000000000E+00 -0.14640828907E+04  0.14640828907E+04  0.00000000000E+00 0.  1.
          6    1    1    2  501    0  0.82809114463E+02  0.96942969908E+02 -0.10231037064E+04  0.10454307643E+04  0.17300000000E+03 0.  1.
         -6    1    1    2    0  502 -0.82809114463E+02 -0.96942969908E+02 -0.40295280828E+03  0.45667850240E+03  0.17300000000E+03 0.  1.
<mgrwt>
<rscale>  2 0.21490530E+03</rscale>
<asrwt>0</asrwt>
<pdfrwt beam="1">  1       21 0.58502128E-02 0.21490530E+03</pdfrwt>
<pdfrwt beam="2">  1       21 0.22524348E+00 0.21490530E+03</pdfrwt>
<totfact> 0.18902206E+04</totfact>
</mgrwt>
</event>
<event>
 4    1  0.4531281E+000  0.1892328E+03  0.7546771E-02  0.1159155E+00
         21   -1    0    0  501  502  0.00000000000E+00  0.00000000000E+00  0.26570817637E+04  0.26570817637E+04  0.00000000000E+00 0.  1.
         21   -1    0    0  502  503 -0.00000000000E+00 -0.00000000000E+00 -0.14455833780E+02  0.14455833780E+02  0.00000000000E+00 0.  1.
          6    1    1    2  501    0  0.69846032193E+02  0.31647692779E+02  0.97369560925E+03  0.99191339548E+03  0.17300000000E+03 0.  1.
         -6    1    1    2    0  503 -0.69846032193E+02 -0.31647692779E+02  0.16689303207E+04  0.16796242020E+04  0.17300000000E+03 0.  1.
<mgrwt>
<rscale>  2 0.18923278E+03</rscale>
<asrwt>0</asrwt>
<pdfrwt beam="1">  1       21 0.40878142E+00 0.18923278E+03</pdfrwt>
<pdfrwt beam="2">  1       21 0.22239765E-02 0.18923278E+03</pdfrwt>
<totfact> 0.79837769E+03</totfact>
</mgrwt>
</event>
<event>
 4    1  0.4531281E+000  0.1892789E+03  0.7546771E-02  0.1159113E+00
         21   -1    0    0  503  502  0.00000000000E+00  0.00000000000E+00  0.14268678184E+03  0.14268678184E+03  0.00000000000E+00 0. -1.
         21   -1    0    0  501  503 -0.00000000000E+00 -0.00000000000E+00 -0.33118825529E+03  0.33118825529E+03  0.00000000000E+00 0. -1.
          6    1    1    2  501    0  0.74745259870E+02 -0.17625223217E+02 -0.21077640753E+03  0.28328995100E+03  0.17300000000E+03 0.  1.
         -6    1    1    2    0  502 -0.74745259870E+02  0.17625223217E+02  0.22274934082E+02  0.19058508613E+03  0.17300000000E+03 0.  1.
<mgrwt>
<rscale>  2 0.18927890E+03</rscale>
<asrwt>0</asrwt>
<pdfrwt beam="1">  1       21 0.21951813E-01 0.18927890E+03</pdfrwt>
<pdfrwt beam="2">  1       21 0.50952039E-01 0.18927890E+03</pdfrwt>
<totfact> 0.71107991E+04</totfact>
</mgrwt>
</event>
<event>
 4    1  0.4531281E+000  0.1896507E+03  0.7546771E-02  0.1158777E+00
         21   -1    0    0  503  502  0.00000000000E+00  0.00000000000E+00  0.60945099087E+03  0.60945099087E+03  0.00000000000E+00 0. -1.
         21   -1    0    0  501  503 -0.00000000000E+00 -0.00000000000E+00 -0.15637692943E+03  0.15637692943E+03  0.00000000000E+00 0. -1.
          6    1    1    2  501    0 -0.46662785095E+02 -0.62136583513E+02 -0.75602239070E+02  0.20416431881E+03  0.17300000000E+03 0. -1.
         -6    1    1    2    0  502  0.46662785095E+02  0.62136583513E+02  0.52867630051E+03  0.56166360150E+03  0.17300000000E+03 0. -1.
<mgrwt>
<rscale>  2 0.18965065E+03</rscale>
<asrwt>0</asrwt>
<pdfrwt beam="1">  1       21 0.93761690E-01 0.18965065E+03</pdfrwt>
<pdfrwt beam="2">  1       21 0.24057989E-01 0.18965065E+03</pdfrwt>
<totfact> 0.15597019E+04</totfact>
</mgrwt>
</event>
<event>
 4    1  0.4531281E+000  0.1935309E+03  0.7546771E-02  0.1155315E+00
         21   -1    0    0  503  502  0.00000000000E+00  0.00000000000E+00  0.29281694159E+03  0.29281694159E+03  0.00000000000E+00 0.  1.
         21   -1    0    0  501  503 -0.00000000000E+00 -0.00000000000E+00 -0.38303976478E+03  0.38303976478E+03  0.00000000000E+00 0.  1.
          6    1    1    2  501    0 -0.33505014882E+02  0.80016423941E+02 -0.32090442985E+03  0.37474506964E+03  0.17300000000E+03 0.  1.
         -6    1    1    2    0  502  0.33505014882E+02 -0.80016423941E+02  0.23068160666E+03  0.30111163673E+03  0.17300000000E+03 0.  1.
<mgrwt>
<rscale>  2 0.19353091E+03</rscale>
<asrwt>0</asrwt>
<pdfrwt beam="1">  1       21 0.45048760E-01 0.19353091E+03</pdfrwt>
<pdfrwt beam="2">  1       21 0.58929195E-01 0.19353091E+03</pdfrwt>
<totfact> 0.12727271E+04</totfact>
</mgrwt>
</event>
<event>
 4    1  0.4531281E+000  0.2199004E+03  0.7546771E-02  0.1133957E+00
         21   -1    0    0  501  502  0.00000000000E+00  0.00000000000E+00  0.20364035624E+03  0.20364035624E+03  0.00000000000E+00 0. -1.
         21   -1    0    0  502  503 -0.00000000000E+00 -0.00000000000E+00 -0.45144616563E+03  0.45144616563E+03  0.00000000000E+00 0. -1.
          6    1    1    2  501    0  0.10432924052E+03  0.86848196657E+02  0.10160393824E+03  0.24223864258E+03  0.17300000000E+03 0. -1.
         -6    1    1    2    0  503 -0.10432924052E+03 -0.86848196657E+02 -0.34940974764E+03  0.41284787929E+03  0.17300000000E+03 0. -1.
<mgrwt>
<rscale>  2 0.21990043E+03</rscale>
<asrwt>0</asrwt>
<pdfrwt beam="1">  1       21 0.31329286E-01 0.21990043E+03</pdfrwt>
<pdfrwt beam="2">  1       21 0.69453255E-01 0.21990043E+03</pdfrwt>
<totfact> 0.18159183E+04</totfact>
</mgrwt>
</event>
<event>
 4    1  0.4531281E+000  0.1952948E+03  0.7546771E-02  0.1153771E+00
         21   -1    0    0  501  502  0.00000000000E+00  0.00000000000E+00  0.40250518647E+03  0.40250518647E+03  0.00000000000E+00 0. -1.
         21   -1    0    0  502  503 -0.00000000000E+00 -0.00000000000E+00 -0.31647212751E+03  0.31647212751E+03  0.00000000000E+00 0. -1.
          6    1    1    2  501    0  0.30968476637E+02  0.85158756035E+02  0.34391184196E+03  0.39549388783E+03  0.17300000000E+03 0. -1.
         -6    1    1    2    0  503 -0.30968476637E+02 -0.85158756035E+02 -0.25787878300E+03  0.32348342615E+03  0.17300000000E+03 0. -1.
<mgrwt>
<rscale>  2 0.19529480E+03</rscale>
<asrwt>0</asrwt>
<pdfrwt beam="1">  1       21 0.61923875E-01 0.19529480E+03</pdfrwt>
<pdfrwt beam="2">  1       21 0.48688019E-01 0.19529480E+03</pdfrwt>
<totfact> 0.97322736E+03</totfact>
</mgrwt>
</event>
<event>
 4    1  0.4531281E+000  0.3621556E+03  0.7546771E-02  0.1057734E+00
         21   -1    0    0  503  502  0.00000000000E+00  0.00000000000E+00  0.51088779260E+03  0.51088779260E+03  0.00000000000E+00 0.  1.
         21   -1    0    0  501  503 -0.00000000000E+00 -0.00000000000E+00 -0.25692554005E+03  0.25692554005E+03  0.00000000000E+00 0. -1.
          6    1    1    2  501    0  0.31741655052E+03 -0.21780542432E+02  0.11620276517E+03  0.38034161119E+03  0.17300000000E+03 0. -1.
         -6    1    1    2    0  502 -0.31741655052E+03  0.21780542432E+02  0.13775948738E+03  0.38747172146E+03  0.17300000000E+03 0.  1.
<mgrwt>
<rscale>  2 0.36215557E+03</rscale>
<asrwt>0</asrwt>
<pdfrwt beam="1">  1       21 0.78598122E-01 0.36215557E+03</pdfrwt>
<pdfrwt beam="2">  1       21 0.39527006E-01 0.36215557E+03</pdfrwt>
<totfact> 0.80781165E+03</totfact>
</mgrwt>
</event>
<event>
 4    1  0.4531281E+000  0.3109167E+03  0.7546771E-02  0.1079907E+00
         21   -1    0    0  501  502  0.00000000000E+00  0.00000000000E+00  0.82028364893E+03  0.82028364893E+03  0.00000000000E+00 0. -1.
         21   -1    0    0  502  503 -0.00000000000E+00 -0.00000000000E+00 -0.13197917259E+03  0.13197917259E+03  0.00000000000E+00 0.  1.
          6    1    1    2  501    0 -0.15814782532E+03 -0.20427795405E+03  0.49994783631E+03  0.58874192665E+03  0.17300000000E+03 0.  1.
         -6    1    1    2    0  503  0.15814782532E+03  0.20427795405E+03  0.18835664002E+03  0.36352089487E+03  0.17300000000E+03 0. -1.
<mgrwt>
<rscale>  2 0.31091674E+03</rscale>
<asrwt>0</asrwt>
<pdfrwt beam="1">  1       21 0.12619748E+00 0.31091674E+03</pdfrwt>
<pdfrwt beam="2">  1       21 0.20304489E-01 0.31091674E+03</pdfrwt>
<totfact> 0.97539290E+03</totfact>
</mgrwt>
</event>
<event>
 4    1  0.4531281E+000  0.1790109E+03  0.7546771E-02  0.1168764E+00
         21   -1    0    0  503  502  0.00000000000E+00  0.00000000000E+00  0.22716949298E+03  0.22716949298E+03  0.00000000000E+00 0. -1.
         21   -1    0    0  501  503 -0.00000000000E+00 -0.00000000000E+00 -0.18139345318E+03  0.18139345318E+03  0.00000000000E+00 0. -1.
          6    1    1    2  501    0  0.39524420932E+02 -0.23531132092E+02 -0.73437690580E+02  0.19348898787E+03  0.17300000000E+03 0. -1.
         -6    1    1    2    0  502 -0.39524420932E+02  0.23531132092E+02  0.11921373038E+03  0.21507395830E+03  0.17300000000E+03 0. -1.
<mgrwt>
<rscale>  2 0.17901088E+03</rscale>
<asrwt>0</asrwt>
<pdfrwt beam="1">  1       21 0.34949153E-01 0.17901088E+03</pdfrwt>
<pdfrwt beam="2">  1       21 0.27906685E-01 0.17901088E+03</pdfrwt>
<totfact> 0.97279228E+04</totfact>
</mgrwt>
</event>
<event>
 4    1  0.4531281E+000  0.1934148E+03  0.7546771E-02  0.1155417E+00
         21   -1    0    0  501  502  0.00000000000E+00  0.00000000000E+00  0.10118941951E+04  0.10118941951E+04  0.00000000000E+00 0. -1.
         21   -1    0    0  502  503 -0.00000000000E+00 -0.00000000000E+00 -0.39329144012E+02  0.39329144012E+02  0.00000000000E+00 0. -1.
          6    1    1    2  501    0  0.83932430752E+02  0.20872247781E+02  0.35753953009E+03  0.40650193018E+03  0.17300000000E+03 0. -1.
         -6    1    1    2    0  503 -0.83932430752E+02 -0.20872247781E+02  0.61502552096E+03  0.64472140889E+03  0.17300000000E+03 0. -1.
<mgrwt>
<rscale>  2 0.19341485E+03</rscale>
<asrwt>0</asrwt>
<pdfrwt beam="1">  1       21 0.15567601E+00 0.19341485E+03</pdfrwt>
<pdfrwt beam="2">  1       21 0.60506383E-02 0.19341485E+03</pdfrwt>
<totfact> 0.52634225E+04</totfact>
</mgrwt>
</event>
<event>
 4    1  0.4531281E+000  0.2757480E+03  0.7546771E-02  0.1098034E+00
         21   -1    0    0  503  502  0.00000000000E+00  0.00000000000E+00  0.50461690107E+03  0.50461690107E+03  0.00000000000E+00 0. -1.
         21   -1    0    0  501  503 -0.00000000000E+00 -0.00000000000E+00 -0.15615714737E+03  0.15615714737E+03  0.00000000000E+00 0. -1.
          6    1    1    2  501    0 -0.34179911529E+02 -0.21198987280E+03  0.11236882941E+03  0.29776454850E+03  0.17300000000E+03 0. -1.
         -6    1    1    2    0  502  0.34179911529E+02  0.21198987280E+03  0.23609092429E+03  0.36300949995E+03  0.17300000000E+03 0. -1.
<mgrwt>
<rscale>  2 0.27574802E+03</rscale>
<asrwt>0</asrwt>
<pdfrwt beam="1">  1       21 0.77633369E-01 0.27574802E+03</pdfrwt>
<pdfrwt beam="2">  1       21 0.24024177E-01 0.27574802E+03</pdfrwt>
<totfact> 0.23051913E+04</totfact>
</mgrwt>
</event>
<event>
 4    1  0.4531281E+000  0.1881580E+03  0.7546771E-02  0.1160133E+00
         21   -1    0    0  503  502  0.00000000000E+00  0.00000000000E+00  0.39999587115E+03  0.39999587115E+03  0.00000000000E+00 0.  1.
         21   -1    0    0  501  503 -0.00000000000E+00 -0.00000000000E+00 -0.10787619503E+03  0.10787619503E+03  0.00000000000E+00 0.  1.
          6    1    1    2  501    0 -0.10832304893E+01  0.73981557330E+02  0.25365407433E+03  0.31582247171E+03  0.17300000000E+03 0.  1.
         -6    1    1    2    0  502  0.10832304893E+01 -0.73981557330E+02  0.38465601790E+02  0.19204959447E+03  0.17300000000E+03 0.  1.
<mgrwt>
<rscale>  2 0.18815803E+03</rscale>
<asrwt>0</asrwt>
<pdfrwt beam="1">  1       21 0.61537825E-01 0.18815803E+03</pdfrwt>
<pdfrwt beam="2">  1       21 0.16596338E-01 0.18815803E+03</pdfrwt>
<totfact> 0.80158828E+04</totfact>
</mgrwt>
</event>
<event>
 4    1  0.4531281E+000  0.1776485E+03  0.7546771E-02  0.1170098E+00
         21   -1    0    0  501  502  0.00000000000E+00  0.00000000000E+00  0.43973866792E+02  0.43973866792E+02  0.00000000000E+00 0. -1.
         21   -1    0    0  502  503 -0.00000000000E+00 -0.00000000000E+00 -0.72199046778E+03  0.72199046778E+03  0.00000000000E+00 0. -1.
          6    1    1    2  501    0 -0.27089549797E+02 -0.29935923569E+02 -0.30940364932E+03  0.35677671090E+03  0.17300000000E+03 0. -1.
         -6    1    1    2    0  503  0.27089549797E+02  0.29935923569E+02 -0.36861295167E+03  0.40918762367E+03  0.17300000000E+03 0. -1.
<mgrwt>
<rscale>  2 0.17764854E+03</rscale>
<asrwt>0</asrwt>
<pdfrwt beam="1">  1       21 0.67652108E-02 0.17764854E+03</pdfrwt>
<pdfrwt beam="2">  1       21 0.11107545E+00 0.17764854E+03</pdfrwt>
<totfact> 0.10299100E+05</totfact>
</mgrwt>
</event>
<event>
 4    1  0.4531281E+000  0.2536334E+03  0.7546771E-02  0.1111030E+00
         21   -1    0    0  503  502  0.00000000000E+00  0.00000000000E+00  0.54248587047E+02  0.54248587047E+02  0.00000000000E+00 0. -1.
         21   -1    0    0  501  503 -0.00000000000E+00 -0.00000000000E+00 -0.23968643296E+04  0.23968643296E+04  0.00000000000E+00 0. -1.
          6    1    1    2  501    0 -0.16635537834E+03 -0.82017090629E+02 -0.20424495433E+04  0.20581375202E+04  0.17300000000E+03 0. -1.
         -6    1    1    2    0  502  0.16635537834E+03  0.82017090629E+02 -0.30016619929E+03  0.39297539650E+03  0.17300000000E+03 0. -1.
<mgrwt>
<rscale>  2 0.25363343E+03</rscale>
<asrwt>0</asrwt>
<pdfrwt beam="1">  1       21 0.83459394E-02 0.25363343E+03</pdfrwt>
<pdfrwt beam="2">  1       21 0.36874823E+00 0.25363343E+03</pdfrwt>
<totfact> 0.13956575E+03</totfact>
</mgrwt>
</event>
<event>
 4    1  0.4531281E+000  0.1893034E+03  0.7546771E-02  0.1159091E+00
         21   -1    0    0  503  502  0.00000000000E+00  0.00000000000E+00  0.19431850193E+03  0.19431850193E+03  0.00000000000E+00 0.  1.
         21   -1    0    0  501  503 -0.00000000000E+00 -0.00000000000E+00 -0.19547556377E+03  0.19547556377E+03  0.00000000000E+00 0.  1.
          6    1    1    2  501    0  0.45258145932E+02 -0.62116612471E+02  0.45776235080E+02  0.19475943370E+03  0.17300000000E+03 0.  1.
         -6    1    1    2    0  502 -0.45258145932E+02  0.62116612471E+02 -0.46933296920E+02  0.19503463200E+03  0.17300000000E+03 0.  1.
<mgrwt>
<rscale>  2 0.18930339E+03</rscale>
<asrwt>0</asrwt>
<pdfrwt beam="1">  1       21 0.29895154E-01 0.18930339E+03</pdfrwt>
<pdfrwt beam="2">  1       21 0.30073164E-01 0.18930339E+03</pdfrwt>
<totfact> 0.11392878E+05</totfact>
</mgrwt>
</event>
<event>
 4    1  0.4531281E+000  0.1916856E+03  0.7546771E-02  0.1156950E+00
         21   -1    0    0  501  502  0.00000000000E+00  0.00000000000E+00  0.15735079856E+02  0.15735079856E+02  0.00000000000E+00 0. -1.
         21   -1    0    0  502  503 -0.00000000000E+00 -0.00000000000E+00 -0.23971464687E+04  0.23971464687E+04  0.00000000000E+00 0. -1.
          6    1    1    2  501    0  0.12037082181E+02  0.81666871881E+02 -0.99664760297E+03  0.10149136977E+04  0.17300000000E+03 0. -1.
         -6    1    1    2    0  503 -0.12037082181E+02 -0.81666871881E+02 -0.13847637859E+04  0.13979678508E+04  0.17300000000E+03 0. -1.
<mgrwt>
<rscale>  2 0.19168560E+03</rscale>
<asrwt>0</asrwt>
<pdfrwt beam="1">  1       21 0.24207801E-02 0.19168560E+03</pdfrwt>
<pdfrwt beam="2">  1       21 0.36879198E+00 0.19168560E+03</pdfrwt>
<totfact> 0.12190790E+04</totfact>
</mgrwt>
</event>
<event>
 4    1  0.4531281E+000  0.2305072E+03  0.7546771E-02  0.1126283E+00
         21   -1    0    0  501  502  0.00000000000E+00  0.00000000000E+00  0.25324117891E+03  0.25324117891E+03  0.00000000000E+00 0.  1.
         21   -1    0    0  502  503 -0.00000000000E+00 -0.00000000000E+00 -0.25273076693E+03  0.25273076693E+03  0.00000000000E+00 0. -1.
          6    1    1    2  501    0  0.14801438973E+03  0.36004069754E+02  0.10450632503E+03  0.25309113887E+03  0.17300000000E+03 0.  1.
         -6    1    1    2    0  503 -0.14801438973E+03 -0.36004069754E+02 -0.10399591304E+03  0.25288080697E+03  0.17300000000E+03 0. -1.
<mgrwt>
<rscale>  2 0.23050716E+03</rscale>
<asrwt>0</asrwt>
<pdfrwt beam="1">  1       21 0.38960182E-01 0.23050716E+03</pdfrwt>
<pdfrwt beam="2">  1       21 0.38881656E-01 0.23050716E+03</pdfrwt>
<totfact> 0.39769965E+04</totfact>
</mgrwt>
</event>
<event>
 4    1  0.4531281E+000  0.2104162E+03  0.7546771E-02  0.1141237E+00
         21   -1    0    0  503  502  0.00000000000E+00  0.00000000000E+00  0.19404828316E+03  0.19404828316E+03  0.00000000000E+00 0.  1.
         21   -1    0    0  501  503 -0.00000000000E+00 -0.00000000000E+00 -0.49324797871E+03  0.49324797871E+03  0.00000000000E+00 0. -1.
          6    1    1    2  501    0 -0.77551406926E+02  0.91278562544E+02 -0.40152549096E+03  0.45331855972E+03  0.17300000000E+03 0. -1.
         -6    1    1    2    0  502  0.77551406926E+02 -0.91278562544E+02  0.10232579541E+03  0.23397770215E+03  0.17300000000E+03 0.  1.
<mgrwt>
<rscale>  2 0.21041625E+03</rscale>
<asrwt>0</asrwt>
<pdfrwt beam="1">  1       21 0.29853582E-01 0.21041625E+03</pdfrwt>
<pdfrwt beam="2">  1       21 0.75884305E-01 0.21041625E+03</pdfrwt>
<totfact> 0.16479013E+04</totfact>
</mgrwt>
</event>
<event>
 4    1  0.4531281E+000  0.2150553E+03  0.7546771E-02  0.1137624E+00
         21   -1    0    0  503  502  0.00000000000E+00  0.00000000000E+00  0.12865298702E+03  0.12865298702E+03  0.00000000000E+00 0. -1.
         21   -1    0    0  501  503 -0.00000000000E+00 -0.00000000000E+00 -0.36135552371E+03  0.36135552371E+03  0.00000000000E+00 0. -1.
          6    1    1    2  501    0  0.92646916677E+01  0.12741257911E+03 -0.98723179808E+02  0.23663276624E+03  0.17300000000E+03 0. -1.
         -6    1    1    2    0  502 -0.92646916677E+01 -0.12741257911E+03 -0.13397935687E+03  0.25337574449E+03  0.17300000000E+03 0. -1.
<mgrwt>
<rscale>  2 0.21505534E+03</rscale>
<asrwt>0</asrwt>
<pdfrwt beam="1">  1       21 0.19792768E-01 0.21505534E+03</pdfrwt>
<pdfrwt beam="2">  1       21 0.55593156E-01 0.21505534E+03</pdfrwt>
<totfact> 0.71062254E+04</totfact>
</mgrwt>
</event>
<event>
 4    1  0.4531281E+000  0.1844425E+03  0.7546771E-02  0.1163572E+00
         21   -1    0    0  503  502  0.00000000000E+00  0.00000000000E+00  0.47476694436E+02  0.47476694436E+02  0.00000000000E+00 0.  1.
         21   -1    0    0  501  503 -0.00000000000E+00 -0.00000000000E+00 -0.73480893587E+03  0.73480893587E+03  0.00000000000E+00 0.  1.
          6    1    1    2  501    0 -0.31617317023E+02  0.55591164905E+02 -0.40533759182E+03  0.44532863785E+03  0.17300000000E+03 0.  1.
         -6    1    1    2    0  502  0.31617317023E+02 -0.55591164905E+02 -0.28199464962E+03  0.33695699245E+03  0.17300000000E+03 0.  1.
<mgrwt>
<rscale>  2 0.18444249E+03</rscale>
<asrwt>0</asrwt>
<pdfrwt beam="1">  1       21 0.73041072E-02 0.18444249E+03</pdfrwt>
<pdfrwt beam="2">  1       21 0.11304752E+00 0.18444249E+03</pdfrwt>
<totfact> 0.86212802E+04</totfact>
</mgrwt>
</event>
<event>
 4    1  0.4531281E+000  0.1901766E+03  0.7546771E-02  0.1158302E+00
         21   -1    0    0  501  502  0.00000000000E+00  0.00000000000E+00  0.29379517046E+03  0.29379517046E+03  0.00000000000E+00 0.  1.
         21   -1    0    0  502  503 -0.00000000000E+00 -0.00000000000E+00 -0.13288010830E+03  0.13288010830E+03  0.00000000000E+00 0.  1.
          6    1    1    2  501    0  0.46611553404E+02  0.63761274169E+02  0.22589672661E+02  0.19151352512E+03  0.17300000000E+03 0.  1.
         -6    1    1    2    0  503 -0.46611553404E+02 -0.63761274169E+02  0.13832538949E+03  0.23516175364E+03  0.17300000000E+03 0.  1.
<mgrwt>
<rscale>  2 0.19017659E+03</rscale>
<asrwt>0</asrwt>
<pdfrwt beam="1">  1       21 0.45199257E-01 0.19017659E+03</pdfrwt>
<pdfrwt beam="2">  1       21 0.20443094E-01 0.19017659E+03</pdfrwt>
<totfact> 0.10414159E+05</totfact>
</mgrwt>
</event>
<event>
 4    1  0.4531281E+000  0.2205757E+03  0.7546771E-02  0.1133455E+00
         21   -1    0    0  503  502  0.00000000000E+00  0.00000000000E+00  0.34371497104E+03  0.34371497104E+03  0.00000000000E+00 0. -1.
         21   -1    0    0  501  503 -0.00000000000E+00 -0.00000000000E+00 -0.18478409829E+03  0.18478409829E+03  0.00000000000E+00 0.  1.
          6    1    1    2  501    0 -0.83513331286E+01  0.13658296719E+03 -0.48350051467E+02  0.22581270816E+03  0.17300000000E+03 0.  1.
         -6    1    1    2    0  502  0.83513331286E+01 -0.13658296719E+03  0.20728092422E+03  0.30268636116E+03  0.17300000000E+03 0.  1.
<mgrwt>
<rscale>  2 0.22057573E+03</rscale>
<asrwt>0</asrwt>
<pdfrwt beam="1">  1       21 0.52879226E-01 0.22057573E+03</pdfrwt>
<pdfrwt beam="2">  1       21 0.28428323E-01 0.22057573E+03</pdfrwt>
<totfact> 0.39535436E+04</totfact>
</mgrwt>
</event>
<event>
 4    1  0.4531281E+000  0.1962318E+03  0.7546771E-02  0.1152958E+00
         21   -1    0    0  503  502  0.00000000000E+00  0.00000000000E+00  0.24108989121E+03  0.24108989121E+03  0.00000000000E+00 0. -1.
         21   -1    0    0  501  503 -0.00000000000E+00 -0.00000000000E+00 -0.93042220481E+03  0.93042220481E+03  0.00000000000E+00 0. -1.
          6    1    1    2  501    0 -0.92500781938E+02 -0.46387469231E+01 -0.87778005884E+03  0.89944691023E+03  0.17300000000E+03 0. -1.
         -6    1    1    2    0  502  0.92500781938E+02  0.46387469231E+01  0.18844774524E+03  0.27206518579E+03  0.17300000000E+03 0. -1.
<mgrwt>
<rscale>  2 0.19623178E+03</rscale>
<asrwt>0</asrwt>
<pdfrwt beam="1">  1       21 0.37090752E-01 0.19623178E+03</pdfrwt>
<pdfrwt beam="2">  1       21 0.14314188E+00 0.19623178E+03</pdfrwt>
<totfact> 0.23604927E+03</totfact>
</mgrwt>
</event>
<event>
 4    1  0.4531281E+000  0.1922406E+03  0.7546771E-02  0.1156456E+00
         21   -1    0    0  503  502  0.00000000000E+00  0.00000000000E+00  0.16827936536E+03  0.16827936536E+03  0.00000000000E+00 0. -1.
         21   -1    0    0  501  503 -0.00000000000E+00 -0.00000000000E+00 -0.22029000591E+03  0.22029000591E+03  0.00000000000E+00 0.  1.
          6    1    1    2  501    0  0.78824450362E+02 -0.28533569050E+02 -0.36770077004E+02  0.19572556578E+03  0.17300000000E+03 0. -1.
         -6    1    1    2    0  502 -0.78824450362E+02  0.28533569050E+02 -0.15240563555E+02  0.19284380549E+03  0.17300000000E+03 0.  1.
<mgrwt>
<rscale>  2 0.19224063E+03</rscale>
<asrwt>0</asrwt>
<pdfrwt beam="1">  1       21 0.25889133E-01 0.19224063E+03</pdfrwt>
<pdfrwt beam="2">  1       21 0.33890770E-01 0.19224063E+03</pdfrwt>
<totfact> 0.11885774E+05</totfact>
</mgrwt>
</event>
<event>
 4    1  0.4531281E+000  0.1892806E+03  0.7546771E-02  0.1159112E+00
         21   -1    0    0  503  502  0.00000000000E+00  0.00000000000E+00  0.14305551583E+03  0.14305551583E+03  0.00000000000E+00 0.  1.
         21   -1    0    0  501  503 -0.00000000000E+00 -0.00000000000E+00 -0.34072265345E+03  0.34072265345E+03  0.00000000000E+00 0.  1.
          6    1    1    2  501    0 -0.72716153250E+02 -0.24708743156E+02  0.25678729184E+02  0.19101454935E+03  0.17300000000E+03 0.  1.
         -6    1    1    2    0  502  0.72716153250E+02  0.24708743156E+02 -0.22334586681E+03  0.29276361992E+03  0.17300000000E+03 0.  1.
<mgrwt>
<rscale>  2 0.18928064E+03</rscale>
<asrwt>0</asrwt>
<pdfrwt beam="1">  1       21 0.22008541E-01 0.18928064E+03</pdfrwt>
<pdfrwt beam="2">  1       21 0.52418869E-01 0.18928064E+03</pdfrwt>
<totfact> 0.66679056E+04</totfact>
</mgrwt>
</event>
<event>
 4    1  0.4531281E+000  0.1773524E+03  0.7546771E-02  0.1170390E+00
         21   -1    0    0  501  502  0.00000000000E+00  0.00000000000E+00  0.49683646429E+03  0.49683646429E+03  0.00000000000E+00 0. -1.
         21   -1    0    0  502  503 -0.00000000000E+00 -0.00000000000E+00 -0.71255318641E+02  0.71255318641E+02  0.00000000000E+00 0. -1.
          6    1    1    2  501    0  0.27554846298E+02  0.27669840968E+02  0.30765011185E+03  0.35510911137E+03  0.17300000000E+03 0. -1.
         -6    1    1    2    0  503 -0.27554846298E+02 -0.27669840968E+02  0.11793103380E+03  0.21298267156E+03  0.17300000000E+03 0. -1.
<mgrwt>
<rscale>  2 0.17735244E+03</rscale>
<asrwt>0</asrwt>
<pdfrwt beam="1">  1       21 0.76436377E-01 0.17735244E+03</pdfrwt>
<pdfrwt beam="2">  1       21 0.10962357E-01 0.17735244E+03</pdfrwt>
<totfact> 0.10569774E+05</totfact>
</mgrwt>
</event>
<event>
 4    1  0.4531281E+000  0.2043354E+03  0.7546771E-02  0.1146132E+00
         21   -1    0    0  501  502  0.00000000000E+00  0.00000000000E+00  0.52179363249E+03  0.52179363249E+03  0.00000000000E+00 0.  1.
         21   -1    0    0  502  503 -0.00000000000E+00 -0.00000000000E+00 -0.85956332263E+02  0.85956332263E+02  0.00000000000E+00 0.  1.
          6    1    1    2  501    0  0.61322055124E+02  0.89797367996E+02  0.29778847442E+03  0.36115223554E+03  0.17300000000E+03 0. -1.
         -6    1    1    2    0  503 -0.61322055124E+02 -0.89797367996E+02  0.13804882581E+03  0.24659772921E+03  0.17300000000E+03 0. -1.
<mgrwt>
<rscale>  2 0.20433541E+03</rscale>
<asrwt>0</asrwt>
<pdfrwt beam="1">  1       21 0.80275941E-01 0.20433541E+03</pdfrwt>
<pdfrwt beam="2">  1       21 0.13224051E-01 0.20433541E+03</pdfrwt>
<totfact> 0.66900705E+04</totfact>
</mgrwt>
</event>
<event>
 4    1  0.4531281E+000  0.2215128E+03  0.7546771E-02  0.1132760E+00
         21   -1    0    0  503  502  0.00000000000E+00  0.00000000000E+00  0.15066499641E+03  0.15066499641E+03  0.00000000000E+00 0.  1.
         21   -1    0    0  501  503 -0.00000000000E+00 -0.00000000000E+00 -0.92356179248E+03  0.92356179248E+03  0.00000000000E+00 0.  1.
          6    1    1    2  501    0 -0.13248306018E+03 -0.39839080095E+02 -0.81860610736E+03  0.84804709335E+03  0.17300000000E+03 0.  1.
         -6    1    1    2    0  502  0.13248306018E+03  0.39839080095E+02  0.45709311290E+02  0.22617969554E+03  0.17300000000E+03 0.  1.
<mgrwt>
<rscale>  2 0.22151278E+03</rscale>
<asrwt>0</asrwt>
<pdfrwt beam="1">  1       21 0.23179230E-01 0.22151278E+03</pdfrwt>
<pdfrwt beam="2">  1       21 0.14208643E+00 0.22151278E+03</pdfrwt>
<totfact> 0.58890524E+03</totfact>
</mgrwt>
</event>
<event>
 4    1  0.4531281E+000  0.2053753E+03  0.7546771E-02  0.1145281E+00
         21   -1    0    0  503  502  0.00000000000E+00  0.00000000000E+00  0.57789798768E+03  0.57789798768E+03  0.00000000000E+00 0.  1.
         21   -1    0    0  501  503 -0.00000000000E+00 -0.00000000000E+00 -0.74015863737E+02  0.74015863737E+02  0.00000000000E+00 0. -1.
          6    1    1    2  501    0 -0.72310865887E+02 -0.83792404309E+02  0.21351010934E+03  0.29625258672E+03  0.17300000000E+03 0. -1.
         -6    1    1    2    0  502  0.72310865887E+02  0.83792404309E+02  0.29037201460E+03  0.35566126470E+03  0.17300000000E+03 0.  1.
<mgrwt>
<rscale>  2 0.20537534E+03</rscale>
<asrwt>0</asrwt>
<pdfrwt beam="1">  1       21 0.88907380E-01 0.20537534E+03</pdfrwt>
<pdfrwt beam="2">  1       21 0.11387056E-01 0.20537534E+03</pdfrwt>
<totfact> 0.69228103E+04</totfact>
</mgrwt>
</event>
<event>
 4    1  0.4531281E+000  0.1823687E+03  0.7546771E-02  0.1165530E+00
         21   -1    0    0  503  502  0.00000000000E+00  0.00000000000E+00  0.21220999154E+03  0.21220999154E+03  0.00000000000E+00 0.  1.
         21   -1    0    0  501  503 -0.00000000000E+00 -0.00000000000E+00 -0.22058507330E+03  0.22058507330E+03  0.00000000000E+00 0.  1.
          6    1    1    2  501    0 -0.16601823705E+01  0.57676474574E+02 -0.12062250686E+03  0.21865068279E+03  0.17300000000E+03 0.  1.
         -6    1    1    2    0  502  0.16601823705E+01 -0.57676474574E+02  0.11224742509E+03  0.21414438205E+03  0.17300000000E+03 0.  1.
<mgrwt>
<rscale>  2 0.18236867E+03</rscale>
<asrwt>0</asrwt>
<pdfrwt beam="1">  1       21 0.32647691E-01 0.18236867E+03</pdfrwt>
<pdfrwt beam="2">  1       21 0.33936165E-01 0.18236867E+03</pdfrwt>
<totfact> 0.75857440E+04</totfact>
</mgrwt>
</event>
<event>
 4    1  0.4531281E+000  0.3184987E+03  0.7546771E-02  0.1076342E+00
         21   -1    0    0  503  502  0.00000000000E+00  0.00000000000E+00  0.41388042288E+02  0.41388042288E+02  0.00000000000E+00 0.  1.
         21   -1    0    0  501  503 -0.00000000000E+00 -0.00000000000E+00 -0.26681668958E+04  0.26681668958E+04  0.00000000000E+00 0. -1.
          6    1    1    2  501    0 -0.23701120631E+03  0.12384704958E+03 -0.92686681682E+03  0.98006300804E+03  0.17300000000E+03 0.  1.
         -6    1    1    2    0  502  0.23701120631E+03 -0.12384704958E+03 -0.16999120367E+04  0.17294919301E+04  0.17300000000E+03 0.  1.
<mgrwt>
<rscale>  2 0.31849867E+03</rscale>
<asrwt>0</asrwt>
<pdfrwt beam="1">  1       21 0.63673908E-02 0.31849867E+03</pdfrwt>
<pdfrwt beam="2">  1       21 0.41048723E+00 0.31849867E+03</pdfrwt>
<totfact> 0.11520306E+03</totfact>
</mgrwt>
</event>
<event>
 4    1  0.4531281E+000  0.2325727E+03  0.7546771E-02  0.1124842E+00
         21   -1    0    0  501  502  0.00000000000E+00  0.00000000000E+00  0.13731259848E+03  0.13731259848E+03  0.00000000000E+00 0.  1.
         21   -1    0    0  502  503 -0.00000000000E+00 -0.00000000000E+00 -0.65026918709E+03  0.65026918709E+03  0.00000000000E+00 0.  1.
          6    1    1    2  501    0  0.17891656382E+02 -0.15440518637E+03 -0.50372795567E+03  0.55482603244E+03  0.17300000000E+03 0.  1.
         -6    1    1    2    0  503 -0.17891656382E+02  0.15440518637E+03 -0.92286329387E+01  0.23275575313E+03  0.17300000000E+03 0.  1.
<mgrwt>
<rscale>  2 0.23257273E+03</rscale>
<asrwt>0</asrwt>
<pdfrwt beam="1">  1       21 0.21125015E-01 0.23257273E+03</pdfrwt>
<pdfrwt beam="2">  1       21 0.10004141E+00 0.23257273E+03</pdfrwt>
<totfact> 0.16678525E+04</totfact>
</mgrwt>
</event>
<event>
 4    1  0.4531281E+000  0.1899575E+03  0.7546771E-02  0.1158500E+00
         21   -1    0    0  503  502  0.00000000000E+00  0.00000000000E+00  0.27400150896E+03  0.27400150896E+03  0.00000000000E+00 0. -1.
         21   -1    0    0  501  503 -0.00000000000E+00 -0.00000000000E+00 -0.13169219934E+03  0.13169219934E+03  0.00000000000E+00 0. -1.
          6    1    1    2  501    0 -0.70427715307E+02  0.34565598930E+02  0.71012891452E+02  0.20279712637E+03  0.17300000000E+03 0. -1.
         -6    1    1    2    0  502  0.70427715307E+02 -0.34565598930E+02  0.71296418163E+02  0.20289658192E+03  0.17300000000E+03 0. -1.
<mgrwt>
<rscale>  2 0.18995748E+03</rscale>
<asrwt>0</asrwt>
<pdfrwt beam="1">  1       21 0.42154078E-01 0.18995748E+03</pdfrwt>
<pdfrwt beam="2">  1       21 0.20260338E-01 0.18995748E+03</pdfrwt>
<totfact> 0.12214453E+05</totfact>
</mgrwt>
</event>
<event>
 4    1  0.4531281E+000  0.2042686E+03  0.7546771E-02  0.1146187E+00
         21   -1    0    0  503  502  0.00000000000E+00  0.00000000000E+00  0.81911563676E+02  0.81911563676E+02  0.00000000000E+00 0. -1.
         21   -1    0    0  501  503 -0.00000000000E+00 -0.00000000000E+00 -0.88192016978E+03  0.88192016978E+03  0.00000000000E+00 0. -1.
          6    1    1    2  501    0  0.86451640907E+02 -0.65747875823E+02 -0.71321173693E+03  0.74188722262E+03  0.17300000000E+03 0. -1.
         -6    1    1    2    0  502 -0.86451640907E+02  0.65747875823E+02 -0.86796869170E+02  0.22194451083E+03  0.17300000000E+03 0. -1.
<mgrwt>
<rscale>  2 0.20426862E+03</rscale>
<asrwt>0</asrwt>
<pdfrwt beam="1">  1       21 0.12601779E-01 0.20426862E+03</pdfrwt>
<pdfrwt beam="2">  1       21 0.13568003E+00 0.20426862E+03</pdfrwt>
<totfact> 0.20691680E+04</totfact>
</mgrwt>
</event>
<event>
 4    1  0.4531281E+000  0.2288829E+03  0.7546771E-02  0.1127429E+00
         21   -1    0    0  503  502  0.00000000000E+00  0.00000000000E+00  0.23110675354E+03  0.23110675354E+03  0.00000000000E+00 0.  1.
         21   -1    0    0  501  503 -0.00000000000E+00 -0.00000000000E+00 -0.61518466727E+03  0.61518466727E+03  0.00000000000E+00 0. -1.
          6    1    1    2  501    0  0.12787008570E+03 -0.78151243829E+02 -0.52830659797E+03  0.57575623070E+03  0.17300000000E+03 0. -1.
         -6    1    1    2    0  502 -0.12787008570E+03  0.78151243829E+02  0.14422868425E+03  0.27053519011E+03  0.17300000000E+03 0.  1.
<mgrwt>
<rscale>  2 0.22888289E+03</rscale>
<asrwt>0</asrwt>
<pdfrwt beam="1">  1       21 0.35554885E-01 0.22888289E+03</pdfrwt>
<pdfrwt beam="2">  1       21 0.94643796E-01 0.22888289E+03</pdfrwt>
<totfact> 0.69472488E+03</totfact>
</mgrwt>
</event>
<event>
 4    1  0.4531281E+000  0.2346508E+03  0.7546771E-02  0.1123408E+00
         21   -1    0    0  503  502  0.00000000000E+00  0.00000000000E+00  0.15596531025E+04  0.15596531025E+04  0.00000000000E+00 0. -1.
         21   -1    0    0  501  503 -0.00000000000E+00 -0.00000000000E+00 -0.35349812376E+02  0.35349812376E+02  0.00000000000E+00 0. -1.
          6    1    1    2  501    0  0.65200390535E+02  0.14450225729E+03  0.79106156479E+03  0.82512992467E+03  0.17300000000E+03 0.  1.
         -6    1    1    2    0  502 -0.65200390535E+02 -0.14450225729E+03  0.73324172534E+03  0.76987299022E+03  0.17300000000E+03 0.  1.
<mgrwt>
<rscale>  2 0.23465079E+03</rscale>
<asrwt>0</asrwt>
<pdfrwt beam="1">  1       21 0.23994658E+00 0.23465079E+03</pdfrwt>
<pdfrwt beam="2">  1       21 0.54384339E-02 0.23465079E+03</pdfrwt>
<totfact> 0.17186451E+04</totfact>
</mgrwt>
</event>
<event>
 4    1  0.4531281E+000  0.1754359E+03  0.7546771E-02  0.1172295E+00
         21   -1    0    0  503  502  0.00000000000E+00  0.00000000000E+00  0.29405814159E+03  0.29405814159E+03  0.00000000000E+00 0.  1.
         21   -1    0    0  501  503 -0.00000000000E+00 -0.00000000000E+00 -0.12240997641E+03  0.12240997641E+03  0.00000000000E+00 0.  1.
          6    1    1    2  501    0 -0.29133079813E+02  0.15462611922E+00  0.16510601190E+03  0.24091026424E+03  0.17300000000E+03 0.  1.
         -6    1    1    2    0  502  0.29133079813E+02 -0.15462611922E+00  0.65421532749E+01  0.17555785376E+03  0.17300000000E+03 0.  1.
<mgrwt>
<rscale>  2 0.17543591E+03</rscale>
<asrwt>0</asrwt>
<pdfrwt beam="1">  1       21 0.45239714E-01 0.17543591E+03</pdfrwt>
<pdfrwt beam="2">  1       21 0.18832304E-01 0.17543591E+03</pdfrwt>
<totfact> 0.12176547E+05</totfact>
</mgrwt>
</event>
<event>
 4    1  0.4531281E+000  0.2432174E+03  0.7546771E-02  0.1117668E+00
         21   -1    0    0  503  502  0.00000000000E+00  0.00000000000E+00  0.16144963637E+04  0.16144963637E+04  0.00000000000E+00 0. -1.
         21   -1    0    0  501  503 -0.00000000000E+00 -0.00000000000E+00 -0.40528268706E+02  0.40528268706E+02  0.00000000000E+00 0.  1.
          6    1    1    2  501    0  0.96027152242E+02  0.14143725408E+03  0.10433076834E+04  0.10712822378E+04  0.17300000000E+03 0.  1.
         -6    1    1    2    0  502 -0.96027152242E+02 -0.14143725408E+03  0.53066041155E+03  0.58374239455E+03  0.17300000000E+03 0. -1.
<mgrwt>
<rscale>  2 0.24321741E+03</rscale>
<asrwt>0</asrwt>
<pdfrwt beam="1">  1       21 0.24838401E+00 0.24321741E+03</pdfrwt>
<pdfrwt beam="2">  1       21 0.62351195E-02 0.24321741E+03</pdfrwt>
<totfact> 0.12023677E+04</totfact>
</mgrwt>
</event>
<event>
 4    1  0.4531281E+000  0.1816229E+03  0.7546771E-02  0.1166242E+00
         21   -1    0    0  503  502  0.00000000000E+00  0.00000000000E+00  0.78527381451E+03  0.78527381451E+03  0.00000000000E+00 0. -1.
         21   -1    0    0  501  503 -0.00000000000E+00 -0.00000000000E+00 -0.58288686771E+02  0.58288686771E+02  0.00000000000E+00 0. -1.
          6    1    1    2  501    0 -0.51477578248E+02 -0.20197179085E+02  0.14057358718E+03  0.22966889323E+03  0.17300000000E+03 0. -1.
         -6    1    1    2    0  502  0.51477578248E+02  0.20197179085E+02  0.58641154056E+03  0.61389360805E+03  0.17300000000E+03 0. -1.
<mgrwt>
<rscale>  2 0.18162287E+03</rscale>
<asrwt>0</asrwt>
<pdfrwt beam="1">  1       21 0.12081135E+00 0.18162287E+03</pdfrwt>
<pdfrwt beam="2">  1       21 0.89674909E-02 0.18162287E+03</pdfrwt>
<totfact> 0.51344869E+04</totfact>
</mgrwt>
</event>
<event>
 4    1  0.4531281E+000  0.2191332E+03  0.7546771E-02  0.1134531E+00
         21   -1    0    0  501  502  0.00000000000E+00  0.00000000000E+00  0.18201130919E+03  0.18201130919E+03  0.00000000000E+00 0.  1.
         21   -1    0    0  502  503 -0.00000000000E+00 -0.00000000000E+00 -0.46307388331E+03  0.46307388331E+03  0.00000000000E+00 0.  1.
          6    1    1    2  501    0  0.32252430037E+02 -0.13057613254E+03  0.71040917836E+02  0.23036092906E+03  0.17300000000E+03 0.  1.
         -6    1    1    2    0  503 -0.32252430037E+02  0.13057613254E+03 -0.35210349196E+03  0.41472426343E+03  0.17300000000E+03 0.  1.
<mgrwt>
<rscale>  2 0.21913317E+03</rscale>
<asrwt>0</asrwt>
<pdfrwt beam="1">  1       21 0.28001740E-01 0.21913317E+03</pdfrwt>
<pdfrwt beam="2">  1       21 0.71242135E-01 0.21913317E+03</pdfrwt>
<totfact> 0.21381266E+04</totfact>
</mgrwt>
</event>
<event>
 4    1  0.4531281E+000  0.1853579E+03  0.7546771E-02  0.1162716E+00
         21   -1    0    0  503  502  0.00000000000E+00  0.00000000000E+00  0.18604883755E+04  0.18604883755E+04  0.00000000000E+00 0.  1.
         21   -1    0    0  501  503 -0.00000000000E+00 -0.00000000000E+00 -0.22057235206E+02  0.22057235206E+02  0.00000000000E+00 0.  1.
          6    1    1    2  501    0  0.40237550284E+02 -0.53004591977E+02  0.53945978107E+03  0.57041599084E+03  0.17300000000E+03 0.  1.
         -6    1    1    2    0  502 -0.40237550284E+02  0.53004591977E+02  0.12989713592E+04  0.13121296198E+04  0.17300000000E+03 0.  1.
<mgrwt>
<rscale>  2 0.18535789E+03</rscale>
<asrwt>0</asrwt>
<pdfrwt beam="1">  1       21 0.28622886E+00 0.18535789E+03</pdfrwt>
<pdfrwt beam="2">  1       21 0.33934223E-02 0.18535789E+03</pdfrwt>
<totfact> 0.21280208E+04</totfact>
</mgrwt>
</event>
<event>
 4    1  0.4531281E+000  0.1965714E+03  0.7546771E-02  0.1152664E+00
         21   -1    0    0  501  502  0.00000000000E+00  0.00000000000E+00  0.25935953115E+03  0.25935953115E+03  0.00000000000E+00 0. -1.
         21   -1    0    0  502  503 -0.00000000000E+00 -0.00000000000E+00 -0.16666744686E+03  0.16666744686E+03  0.00000000000E+00 0. -1.
          6    1    1    2  501    0  0.91634829645E+02 -0.17730954772E+02  0.11573166857E+03  0.22810994689E+03  0.17300000000E+03 0. -1.
         -6    1    1    2    0  503 -0.91634829645E+02  0.17730954772E+02 -0.23039584280E+02  0.19791703111E+03  0.17300000000E+03 0. -1.
<mgrwt>
<rscale>  2 0.19657143E+03</rscale>
<asrwt>0</asrwt>
<pdfrwt beam="1">  1       21 0.39901466E-01 0.19657143E+03</pdfrwt>
<pdfrwt beam="2">  1       21 0.25641146E-01 0.19657143E+03</pdfrwt>
<totfact> 0.87218737E+04</totfact>
</mgrwt>
</event>
<event>
 4    1  0.4531281E+000  0.1877237E+03  0.7546771E-02  0.1160531E+00
         21   -1    0    0  503  502  0.00000000000E+00  0.00000000000E+00  0.24773146323E+02  0.24773146323E+02  0.00000000000E+00 0.  1.
         21   -1    0    0  501  503 -0.00000000000E+00 -0.00000000000E+00 -0.14758736280E+04  0.14758736280E+04  0.00000000000E+00 0.  1.
          6    1    1    2  501    0 -0.71879547948E+02  0.12021570543E+02 -0.86821729885E+03  0.88828006034E+03  0.17300000000E+03 0. -1.
         -6    1    1    2    0  502  0.71879547948E+02 -0.12021570543E+02 -0.58288318278E+03  0.61236671394E+03  0.17300000000E+03 0. -1.
<mgrwt>
<rscale>  2 0.18772370E+03</rscale>
<asrwt>0</asrwt>
<pdfrwt beam="1">  1       21 0.38112524E-02 0.18772370E+03</pdfrwt>
<pdfrwt beam="2">  1       21 0.22705754E+00 0.18772370E+03</pdfrwt>
<totfact> 0.38854521E+04</totfact>
</mgrwt>
</event>
<event>
 4    1  0.4531281E+000  0.2221038E+03  0.7546771E-02  0.1132324E+00
         21   -1    0    0  501  502  0.00000000000E+00  0.00000000000E+00  0.49708639226E+03  0.49708639226E+03  0.00000000000E+00 0.  1.
         21   -1    0    0  502  503 -0.00000000000E+00 -0.00000000000E+00 -0.10324878314E+03  0.10324878314E+03  0.00000000000E+00 0.  1.
          6    1    1    2  501    0 -0.54527931671E+02 -0.12817106185E+03  0.25607604646E+03  0.33897648591E+03  0.17300000000E+03 0.  1.
         -6    1    1    2    0  503  0.54527931671E+02  0.12817106185E+03  0.13776156266E+03  0.26135868949E+03  0.17300000000E+03 0.  1.
<mgrwt>
<rscale>  2 0.22210384E+03</rscale>
<asrwt>0</asrwt>
<pdfrwt beam="1">  1       21 0.76474828E-01 0.22210384E+03</pdfrwt>
<pdfrwt beam="2">  1       21 0.15884428E-01 0.22210384E+03</pdfrwt>
<totfact> 0.53036680E+04</totfact>
</mgrwt>
</event>
<event>
 4    1  0.4531281E+000  0.1730521E+03  0.7546771E-02  0.1174702E+00
         21   -1    0    0  501  502  0.00000000000E+00  0.00000000000E+00  0.54069739873E+03  0.54069739873E+03  0.00000000000E+00 0.  1.
         21   -1    0    0  502  503 -0.00000000000E+00 -0.00000000000E+00 -0.10879719535E+03  0.10879719535E+03  0.00000000000E+00 0.  1.
          6    1    1    2  501    0 -0.25367073958E+01  0.34062503112E+01  0.44348764233E+03  0.47605496145E+03  0.17300000000E+03 0.  1.
         -6    1    1    2    0  503  0.25367073958E+01 -0.34062503112E+01 -0.11587438941E+02  0.17343963263E+03  0.17300000000E+03 0.  1.
<mgrwt>
<rscale>  2 0.17305212E+03</rscale>
<asrwt>0</asrwt>
<pdfrwt beam="1">  1       21 0.83184213E-01 0.17305212E+03</pdfrwt>
<pdfrwt beam="2">  1       21 0.16738030E-01 0.17305212E+03</pdfrwt>
<totfact> 0.40822609E+04</totfact>
</mgrwt>
</event>
<event>
 4    1  0.4531281E+000  0.1802413E+03  0.7546771E-02  0.1167570E+00
         21   -1    0    0  501  502  0.00000000000E+00  0.00000000000E+00  0.11201047703E+03  0.11201047703E+03  0.00000000000E+00 0. -1.
         21   -1    0    0  502  503 -0.00000000000E+00 -0.00000000000E+00 -0.41089919240E+03  0.41089919240E+03  0.00000000000E+00 0. -1.
          6    1    1    2  501    0  0.17999203120E+01  0.50543914579E+02 -0.76436596356E+01  0.18040330525E+03  0.17300000000E+03 0. -1.
         -6    1    1    2    0  503 -0.17999203120E+01 -0.50543914579E+02 -0.29124505573E+03  0.34250636418E+03  0.17300000000E+03 0. -1.
<mgrwt>
<rscale>  2 0.18024130E+03</rscale>
<asrwt>0</asrwt>
<pdfrwt beam="1">  1       21 0.17232381E-01 0.18024130E+03</pdfrwt>
<pdfrwt beam="2">  1       21 0.63215261E-01 0.18024130E+03</pdfrwt>
<totfact> 0.70824205E+04</totfact>
</mgrwt>
</event>
<event>
 4    1  0.4531281E+000  0.2448518E+03  0.7546771E-02  0.1116602E+00
         21   -1    0    0  501  502  0.00000000000E+00  0.00000000000E+00  0.16118856988E+03  0.16118856988E+03  0.00000000000E+00 0. -1.
         21   -1    0    0  502  503 -0.00000000000E+00 -0.00000000000E+00 -0.77112367317E+03  0.77112367317E+03  0.00000000000E+00 0.  1.
          6    1    1    2  501    0 -0.82166367204E+02  0.15255195227E+03  0.30426984774E+02  0.24673510379E+03  0.17300000000E+03 0. -1.
         -6    1    1    2    0  503  0.82166367204E+02 -0.15255195227E+03 -0.64036208807E+03  0.68557713926E+03  0.17300000000E+03 0.  1.
<mgrwt>
<rscale>  2 0.24485181E+03</rscale>
<asrwt>0</asrwt>
<pdfrwt beam="1">  1       21 0.24798242E-01 0.24485181E+03</pdfrwt>
<pdfrwt beam="2">  1       21 0.11863441E+00 0.24485181E+03</pdfrwt>
<totfact> 0.80648933E+03</totfact>
</mgrwt>
</event>
<event>
 4    1  0.4531281E+000  0.2369589E+03  0.7546771E-02  0.1121835E+00
         21   -1    0    0  503  502  0.00000000000E+00  0.00000000000E+00  0.27638980135E+03  0.27638980135E+03  0.00000000000E+00 0. -1.
         21   -1    0    0  501  503 -0.00000000000E+00 -0.00000000000E+00 -0.29974228643E+03  0.29974228643E+03  0.00000000000E+00 0. -1.
          6    1    1    2  501    0 -0.14897736205E+03  0.63452849290E+02 -0.17520032326E+03  0.29469420041E+03  0.17300000000E+03 0. -1.
         -6    1    1    2    0  502  0.14897736205E+03 -0.63452849290E+02  0.15184783818E+03  0.28143788737E+03  0.17300000000E+03 0. -1.
<mgrwt>
<rscale>  2 0.23695890E+03</rscale>
<asrwt>0</asrwt>
<pdfrwt beam="1">  1       21 0.42521508E-01 0.23695890E+03</pdfrwt>
<pdfrwt beam="2">  1       21 0.46114198E-01 0.23695890E+03</pdfrwt>
<totfact> 0.23406583E+04</totfact>
</mgrwt>
</event>
<event>
 4    1  0.4531281E+000  0.4320616E+03  0.7546771E-02  0.1033211E+00
         21   -1    0    0  503  502  0.00000000000E+00  0.00000000000E+00  0.89544941798E+03  0.89544941798E+03  0.00000000000E+00 0. -1.
         21   -1    0    0  501  503 -0.00000000000E+00 -0.00000000000E+00 -0.21881759613E+03  0.21881759613E+03  0.00000000000E+00 0. -1.
          6    1    1    2  501    0  0.39489893505E+03  0.28338650931E+02  0.21718088573E+03  0.48357500469E+03  0.17300000000E+03 0. -1.
         -6    1    1    2    0  502 -0.39489893505E+03 -0.28338650931E+02  0.45945093613E+03  0.63069200942E+03  0.17300000000E+03 0. -1.
<mgrwt>
<rscale>  2 0.43206163E+03</rscale>
<asrwt>0</asrwt>
<pdfrwt beam="1">  1       21 0.13776145E+00 0.43206163E+03</pdfrwt>
<pdfrwt beam="2">  1       21 0.33664246E-01 0.43206163E+03</pdfrwt>
<totfact> 0.27562855E+03</totfact>
</mgrwt>
</event>
<event>
 4    1  0.4531281E+000  0.1823945E+03  0.7546771E-02  0.1165506E+00
         21   -1    0    0  501  502  0.00000000000E+00  0.00000000000E+00  0.66658733044E+02  0.66658733044E+02  0.00000000000E+00 0.  1.
         21   -1    0    0  502  503 -0.00000000000E+00 -0.00000000000E+00 -0.50926280249E+03  0.50926280249E+03  0.00000000000E+00 0.  1.
          6    1    1    2  501    0  0.57752136849E+02  0.18579079018E+01 -0.18057475947E+03  0.25666126488E+03  0.17300000000E+03 0.  1.
         -6    1    1    2    0  503 -0.57752136849E+02 -0.18579079018E+01 -0.26202930998E+03  0.31926027066E+03  0.17300000000E+03 0.  1.
<mgrwt>
<rscale>  2 0.18239452E+03</rscale>
<asrwt>0</asrwt>
<pdfrwt beam="1">  1       21 0.10255189E-01 0.18239452E+03</pdfrwt>
<pdfrwt beam="2">  1       21 0.78348126E-01 0.18239452E+03</pdfrwt>
<totfact> 0.11231709E+05</totfact>
</mgrwt>
</event>
<event>
 4    1  0.4531281E+000  0.1878379E+03  0.7546771E-02  0.1160426E+00
         21   -1    0    0  503  502  0.00000000000E+00  0.00000000000E+00  0.93969631480E+03  0.93969631480E+03  0.00000000000E+00 0. -1.
         21   -1    0    0  501  503 -0.00000000000E+00 -0.00000000000E+00 -0.53798058091E+02  0.53798058091E+02  0.00000000000E+00 0. -1.
          6    1    1    2  501    0 -0.69363002273E+02 -0.23299408434E+02  0.16993286685E+03  0.25329877171E+03  0.17300000000E+03 0. -1.
         -6    1    1    2    0  502  0.69363002273E+02  0.23299408434E+02  0.71596538986E+03  0.74019560117E+03  0.17300000000E+03 0. -1.
<mgrwt>
<rscale>  2 0.18783793E+03</rscale>
<asrwt>0</asrwt>
<pdfrwt beam="1">  1       21 0.14456865E+00 0.18783793E+03</pdfrwt>
<pdfrwt beam="2">  1       21 0.82766250E-02 0.18783793E+03</pdfrwt>
<totfact> 0.37339307E+04</totfact>
</mgrwt>
</event>
<event>
 4    1  0.4531281E+000  0.1766981E+03  0.7546771E-02  0.1171037E+00
         21   -1    0    0  503  502  0.00000000000E+00  0.00000000000E+00  0.37586356829E+03  0.37586356829E+03  0.00000000000E+00 0. -1.
         21   -1    0    0  501  503 -0.00000000000E+00 -0.00000000000E+00 -0.50719410685E+03  0.50719410685E+03  0.00000000000E+00 0. -1.
          6    1    1    2  501    0 -0.35802283003E+02 -0.33795358576E+01 -0.46942173615E+03  0.50157650573E+03  0.17300000000E+03 0. -1.
         -6    1    1    2    0  502  0.35802283003E+02  0.33795358576E+01  0.33809119759E+03  0.38148116941E+03  0.17300000000E+03 0. -1.
<mgrwt>
<rscale>  2 0.17669812E+03</rscale>
<asrwt>0</asrwt>
<pdfrwt beam="1">  1       21 0.57825164E-01 0.17669812E+03</pdfrwt>
<pdfrwt beam="2">  1       21 0.78029863E-01 0.17669812E+03</pdfrwt>
<totfact> 0.41342363E+03</totfact>
</mgrwt>
</event>
<event>
 4    1  0.4531281E+000  0.1808657E+03  0.7546771E-02  0.1166968E+00
         21   -1    0    0  501  502  0.00000000000E+00  0.00000000000E+00  0.14980927464E+03  0.14980927464E+03  0.00000000000E+00 0. -1.
         21   -1    0    0  502  503 -0.00000000000E+00 -0.00000000000E+00 -0.89201506294E+03  0.89201506294E+03  0.00000000000E+00 0. -1.
          6    1    1    2  501    0  0.51339233780E+02 -0.12153268465E+02  0.81583098730E+02  0.19841426576E+03  0.17300000000E+03 0. -1.
         -6    1    1    2    0  503 -0.51339233780E+02  0.12153268465E+02 -0.82378888703E+03  0.84341007182E+03  0.17300000000E+03 0. -1.
<mgrwt>
<rscale>  2 0.18086575E+03</rscale>
<asrwt>0</asrwt>
<pdfrwt beam="1">  1       21 0.23047580E-01 0.18086575E+03</pdfrwt>
<pdfrwt beam="2">  1       21 0.13723309E+00 0.18086575E+03</pdfrwt>
<totfact> 0.67233363E+03</totfact>
</mgrwt>
</event>
<event>
 4    1  0.4531281E+000  0.1812611E+03  0.7546771E-02  0.1166588E+00
         21   -1    0    0  501  502  0.00000000000E+00  0.00000000000E+00  0.98406643245E+02  0.98406643245E+02  0.00000000000E+00 0.  1.
         21   -1    0    0  502  503 -0.00000000000E+00 -0.00000000000E+00 -0.40189562701E+03  0.40189562701E+03  0.00000000000E+00 0. -1.
          6    1    1    2  501    0 -0.44791553156E+02 -0.30336316269E+02 -0.48832900494E+02  0.18772380640E+03  0.17300000000E+03 0.  1.
         -6    1    1    2    0  503  0.44791553156E+02  0.30336316269E+02 -0.25465608328E+03  0.31257846386E+03  0.17300000000E+03 0. -1.
<mgrwt>
<rscale>  2 0.18126107E+03</rscale>
<asrwt>0</asrwt>
<pdfrwt beam="1">  1       21 0.15139484E-01 0.18126107E+03</pdfrwt>
<pdfrwt beam="2">  1       21 0.61830096E-01 0.18126107E+03</pdfrwt>
<totfact> 0.94107257E+04</totfact>
</mgrwt>
</event>
<event>
 4    1  0.4531281E+000  0.3108342E+03  0.7546771E-02  0.1079947E+00
         21   -1    0    0  501  502  0.00000000000E+00  0.00000000000E+00  0.61893544130E+03  0.61893544130E+03  0.00000000000E+00 0. -1.
         21   -1    0    0  502  503 -0.00000000000E+00 -0.00000000000E+00 -0.15852931485E+03  0.15852931485E+03  0.00000000000E+00 0.  1.
          6    1    1    2  501    0  0.25123061618E+03 -0.59766726999E+02  0.27829141169E+03  0.41720977216E+03  0.17300000000E+03 0.  1.
         -6    1    1    2    0  503 -0.25123061618E+03  0.59766726999E+02  0.18211471476E+03  0.36025498399E+03  0.17300000000E+03 0. -1.
<mgrwt>
<rscale>  2 0.31083417E+03</rscale>
<asrwt>0</asrwt>
<pdfrwt beam="1">  1       21 0.95220836E-01 0.31083417E+03</pdfrwt>
<pdfrwt beam="2">  1       21 0.24389126E-01 0.31083417E+03</pdfrwt>
<totfact> 0.13737636E+04</totfact>
</mgrwt>
</event>
<event>
 4    1  0.4531281E+000  0.2942392E+03  0.7546771E-02  0.1088156E+00
         21   -1    0    0  501  502  0.00000000000E+00  0.00000000000E+00  0.93947276899E+03  0.93947276899E+03  0.00000000000E+00 0. -1.
         21   -1    0    0  502  503 -0.00000000000E+00 -0.00000000000E+00 -0.11785620664E+03  0.11785620664E+03  0.00000000000E+00 0.  1.
          6    1    1    2  501    0  0.23551880560E+03  0.34330820016E+02  0.65768734583E+03  0.72050632048E+03  0.17300000000E+03 0.  1.
         -6    1    1    2    0  503 -0.23551880560E+03 -0.34330820016E+02  0.16392921652E+03  0.33682265515E+03  0.17300000000E+03 0. -1.
<mgrwt>
<rscale>  2 0.29423921E+03</rscale>
<asrwt>0</asrwt>
<pdfrwt beam="1">  1       21 0.14453427E+00 0.29423921E+03</pdfrwt>
<pdfrwt beam="2">  1       21 0.18131725E-01 0.29423921E+03</pdfrwt>
<totfact> 0.85563350E+03</totfact>
</mgrwt>
</event>
<event>
 4    1  0.4531281E+000  0.1942108E+03  0.7546771E-02  0.1154717E+00
         21   -1    0    0  503  502  0.00000000000E+00  0.00000000000E+00  0.99047874661E+02  0.99047874661E+02  0.00000000000E+00 0.  1.
         21   -1    0    0  501  503 -0.00000000000E+00 -0.00000000000E+00 -0.39357497901E+03  0.39357497901E+03  0.00000000000E+00 0.  1.
          6    1    1    2  501    0  0.62103558566E+02  0.62705514124E+02 -0.19163277051E+03  0.27283869267E+03  0.17300000000E+03 0.  1.
         -6    1    1    2    0  502 -0.62103558566E+02 -0.62705514124E+02 -0.10289433384E+03  0.21978416100E+03  0.17300000000E+03 0.  1.
<mgrwt>
<rscale>  2 0.19421080E+03</rscale>
<asrwt>0</asrwt>
<pdfrwt beam="1">  1       21 0.15238135E-01 0.19421080E+03</pdfrwt>
<pdfrwt beam="2">  1       21 0.60549997E-01 0.19421080E+03</pdfrwt>
<totfact> 0.96798342E+04</totfact>
</mgrwt>
</event>
<event>
 4    1  0.4531281E+000  0.3357923E+03  0.7546771E-02  0.1068602E+00
         21   -1    0    0  501  502  0.00000000000E+00  0.00000000000E+00  0.26585527938E+03  0.26585527938E+03  0.00000000000E+00 0. -1.
         21   -1    0    0  502  503 -0.00000000000E+00 -0.00000000000E+00 -0.68446547750E+03  0.68446547750E+03  0.00000000000E+00 0. -1.
          6    1    1    2  501    0 -0.16357648280E+03  0.23679152996E+03  0.83739239900E+02  0.34607622669E+03  0.17300000000E+03 0. -1.
         -6    1    1    2    0  503  0.16357648280E+03 -0.23679152996E+03 -0.50234943802E+03  0.60424453019E+03  0.17300000000E+03 0. -1.
<mgrwt>
<rscale>  2 0.33579234E+03</rscale>
<asrwt>0</asrwt>
<pdfrwt beam="1">  1       21 0.40900813E-01 0.33579234E+03</pdfrwt>
<pdfrwt beam="2">  1       21 0.10530238E+00 0.33579234E+03</pdfrwt>
<totfact> 0.38176261E+03</totfact>
</mgrwt>
</event>
<event>
 4    1  0.4531281E+000  0.2808301E+03  0.7546771E-02  0.1095236E+00
         21   -1    0    0  501  502  0.00000000000E+00  0.00000000000E+00  0.12663542307E+03  0.12663542307E+03  0.00000000000E+00 0. -1.
         21   -1    0    0  502  503 -0.00000000000E+00 -0.00000000000E+00 -0.64409576323E+03  0.64409576323E+03  0.00000000000E+00 0.  1.
          6    1    1    2  501    0 -0.15418553678E+03 -0.15862961605E+03 -0.18861915070E+03  0.33829383508E+03  0.17300000000E+03 0. -1.
         -6    1    1    2    0  503  0.15418553678E+03  0.15862961605E+03 -0.32884118946E+03  0.43243735122E+03  0.17300000000E+03 0.  1.
<mgrwt>
<rscale>  2 0.28083008E+03</rscale>
<asrwt>0</asrwt>
<pdfrwt beam="1">  1       21 0.19482373E-01 0.28083008E+03</pdfrwt>
<pdfrwt beam="2">  1       21 0.99091654E-01 0.28083008E+03</pdfrwt>
<totfact> 0.19402826E+04</totfact>
</mgrwt>
</event>
<event>
 4    1  0.4531281E+000  0.2783915E+03  0.7546771E-02  0.1096571E+00
         21   -1    0    0  501  502  0.00000000000E+00  0.00000000000E+00  0.12133043311E+04  0.12133043311E+04  0.00000000000E+00 0.  1.
         21   -1    0    0  502  503 -0.00000000000E+00 -0.00000000000E+00 -0.91242585596E+02  0.91242585596E+02  0.00000000000E+00 0.  1.
          6    1    1    2  501    0 -0.22956124434E+01 -0.21809986969E+03  0.91825108185E+03  0.95952429480E+03  0.17300000000E+03 0.  1.
         -6    1    1    2    0  503  0.22956124434E+01  0.21809986969E+03  0.20381066364E+03  0.34502262188E+03  0.17300000000E+03 0.  1.
<mgrwt>
<rscale>  2 0.27839149E+03</rscale>
<asrwt>0</asrwt>
<pdfrwt beam="1">  1       21 0.18666219E+00 0.27839149E+03</pdfrwt>
<pdfrwt beam="2">  1       21 0.14037322E-01 0.27839149E+03</pdfrwt>
<totfact> 0.68211378E+03</totfact>
</mgrwt>
</event>
<event>
 4    1  0.4531281E+000  0.3932572E+03  0.7546771E-02  0.1046140E+00
         21   -1    0    0  503  502  0.00000000000E+00  0.00000000000E+00  0.51399678077E+03  0.51399678077E+03  0.00000000000E+00 0. -1.
         21   -1    0    0  501  503 -0.00000000000E+00 -0.00000000000E+00 -0.42473718736E+03  0.42473718736E+03  0.00000000000E+00 0. -1.
          6    1    1    2  501    0  0.59912904614E+02 -0.34804120579E+03 -0.20883251457E+03  0.44526650021E+03  0.17300000000E+03 0. -1.
         -6    1    1    2    0  502 -0.59912904614E+02  0.34804120579E+03  0.29809210797E+03  0.49346746793E+03  0.17300000000E+03 0. -1.
<mgrwt>
<rscale>  2 0.39325721E+03</rscale>
<asrwt>0</asrwt>
<pdfrwt beam="1">  1       21 0.79076428E-01 0.39325721E+03</pdfrwt>
<pdfrwt beam="2">  1       21 0.65344183E-01 0.39325721E+03</pdfrwt>
<totfact> 0.27005607E+03</totfact>
</mgrwt>
</event>
<event>
 4    1  0.4531281E+000  0.2343276E+03  0.7546771E-02  0.1123630E+00
         21   -1    0    0  501  502  0.00000000000E+00  0.00000000000E+00  0.83992740956E+02  0.83992740956E+02  0.00000000000E+00 0. -1.
         21   -1    0    0  502  503 -0.00000000000E+00 -0.00000000000E+00 -0.66711601054E+03  0.66711601054E+03  0.00000000000E+00 0. -1.
          6    1    1    2  501    0  0.11177709379E+03 -0.11174204889E+03 -0.23838296936E+03  0.33426911953E+03  0.17300000000E+03 0. -1.
         -6    1    1    2    0  503 -0.11177709379E+03  0.11174204889E+03 -0.34474030022E+03  0.41683963197E+03  0.17300000000E+03 0. -1.
<mgrwt>
<rscale>  2 0.23432756E+03</rscale>
<asrwt>0</asrwt>
<pdfrwt beam="1">  1       21 0.12921960E-01 0.23432756E+03</pdfrwt>
<pdfrwt beam="2">  1       21 0.10263323E+00 0.23432756E+03</pdfrwt>
<totfact> 0.38810318E+04</totfact>
</mgrwt>
</event>
<event>
 4    1  0.4531281E+000  0.2060878E+03  0.7546771E-02  0.1144702E+00
         21   -1    0    0  503  502  0.00000000000E+00  0.00000000000E+00  0.19304383446E+04  0.19304383446E+04  0.00000000000E+00 0. -1.
         21   -1    0    0  501  503 -0.00000000000E+00 -0.00000000000E+00 -0.26142372483E+02  0.26142372483E+02  0.00000000000E+00 0. -1.
          6    1    1    2  501    0 -0.10097889923E+03 -0.48439897858E+02  0.56278787642E+03  0.59933492776E+03  0.17300000000E+03 0. -1.
         -6    1    1    2    0  502  0.10097889923E+03  0.48439897858E+02  0.13415080957E+04  0.13572457893E+04  0.17300000000E+03 0. -1.
<mgrwt>
<rscale>  2 0.20608775E+03</rscale>
<asrwt>0</asrwt>
<pdfrwt beam="1">  1       21 0.29699040E+00 0.20608775E+03</pdfrwt>
<pdfrwt beam="2">  1       21 0.40219050E-02 0.20608775E+03</pdfrwt>
<totfact> 0.13608008E+04</totfact>
</mgrwt>
</event>
<event>
 4    1  0.4531281E+000  0.1917978E+03  0.7546771E-02  0.1156850E+00
         21   -1    0    0  503  502  0.00000000000E+00  0.00000000000E+00  0.74328718946E+03  0.74328718946E+03  0.00000000000E+00 0.  1.
         21   -1    0    0  501  503 -0.00000000000E+00 -0.00000000000E+00 -0.61911921306E+02  0.61911921306E+02  0.00000000000E+00 0.  1.
          6    1    1    2  501    0  0.78742240466E+02 -0.25633384833E+02  0.16036343574E+03  0.25000568469E+03  0.17300000000E+03 0.  1.
         -6    1    1    2    0  502 -0.78742240466E+02  0.25633384833E+02  0.52101183241E+03  0.55519342608E+03  0.17300000000E+03 0.  1.
<mgrwt>
<rscale>  2 0.19179784E+03</rscale>
<asrwt>0</asrwt>
<pdfrwt beam="1">  1       21 0.11435187E+00 0.19179784E+03</pdfrwt>
<pdfrwt beam="2">  1       21 0.95249115E-02 0.19179784E+03</pdfrwt>
<totfact> 0.52580240E+04</totfact>
</mgrwt>
</event>
<event>
 4    1  0.4531281E+000  0.1788610E+03  0.7546771E-02  0.1168910E+00
         21   -1    0    0  501  502  0.00000000000E+00  0.00000000000E+00  0.42794943748E+03  0.42794943748E+03  0.00000000000E+00 0.  1.
         21   -1    0    0  502  503 -0.00000000000E+00 -0.00000000000E+00 -0.10921433664E+03  0.10921433664E+03  0.00000000000E+00 0. -1.
          6    1    1    2  501    0 -0.21742393134E+01  0.45360032992E+02  0.31023370747E+03  0.35810084217E+03  0.17300000000E+03 0.  1.
         -6    1    1    2    0  503  0.21742393134E+01 -0.45360032992E+02  0.85013933673E+01  0.17906293195E+03  0.17300000000E+03 0. -1.
<mgrwt>
<rscale>  2 0.17886101E+03</rscale>
<asrwt>0</asrwt>
<pdfrwt beam="1">  1       21 0.65838374E-01 0.17886101E+03</pdfrwt>
<pdfrwt beam="2">  1       21 0.16802206E-01 0.17886101E+03</pdfrwt>
<totfact> 0.67968198E+04</totfact>
</mgrwt>
</event>
<event>
 4    1  0.4531281E+000  0.1970639E+03  0.7546771E-02  0.1152240E+00
         21   -1    0    0  503  502  0.00000000000E+00  0.00000000000E+00  0.46879588529E+03  0.46879588529E+03  0.00000000000E+00 0. -1.
         21   -1    0    0  501  503 -0.00000000000E+00 -0.00000000000E+00 -0.63193089880E+03  0.63193089880E+03  0.00000000000E+00 0. -1.
          6    1    1    2  501    0 -0.93740687926E+02 -0.10856406884E+02 -0.59459141192E+03  0.62639693907E+03  0.17300000000E+03 0. -1.
         -6    1    1    2    0  502  0.93740687926E+02  0.10856406884E+02  0.43145639842E+03  0.47432984502E+03  0.17300000000E+03 0. -1.
<mgrwt>
<rscale>  2 0.19706389E+03</rscale>
<asrwt>0</asrwt>
<pdfrwt beam="1">  1       21 0.72122444E-01 0.19706389E+03</pdfrwt>
<pdfrwt beam="2">  1       21 0.97220138E-01 0.19706389E+03</pdfrwt>
<totfact> 0.15156299E+03</totfact>
</mgrwt>
</event>
<event>
 4    1  0.4531281E+000  0.1934595E+03  0.7546771E-02  0.1155378E+00
         21   -1    0    0  503  502  0.00000000000E+00  0.00000000000E+00  0.18604355462E+03  0.18604355462E+03  0.00000000000E+00 0. -1.
         21   -1    0    0  501  503 -0.00000000000E+00 -0.00000000000E+00 -0.20517014467E+03  0.20517014467E+03  0.00000000000E+00 0. -1.
          6    1    1    2  501    0  0.76910547377E+02  0.39778726259E+02 -0.36872383001E+02  0.19694200159E+03  0.17300000000E+03 0. -1.
         -6    1    1    2    0  502 -0.76910547377E+02 -0.39778726259E+02  0.17745792947E+02  0.19427169770E+03  0.17300000000E+03 0. -1.
<mgrwt>
<rscale>  2 0.19345950E+03</rscale>
<asrwt>0</asrwt>
<pdfrwt beam="1">  1       21 0.28622086E-01 0.19345950E+03</pdfrwt>
<pdfrwt beam="2">  1       21 0.31564637E-01 0.19345950E+03</pdfrwt>
<totfact> 0.11262520E+05</totfact>
</mgrwt>
</event>
<event>
 4    1  0.4531281E+000  0.1748500E+03  0.7546771E-02  0.1172882E+00
         21   -1    0    0  503  502  0.00000000000E+00  0.00000000000E+00  0.59491387806E+03  0.59491387806E+03  0.00000000000E+00 0.  1.
         21   -1    0    0  501  503 -0.00000000000E+00 -0.00000000000E+00 -0.68559811700E+02  0.68559811700E+02  0.00000000000E+00 0.  1.
          6    1    1    2  501    0  0.17026227204E+02  0.18805184157E+02  0.97163410622E+02  0.20003313657E+03  0.17300000000E+03 0.  1.
         -6    1    1    2    0  502 -0.17026227204E+02 -0.18805184157E+02  0.42919065574E+03  0.46344055318E+03  0.17300000000E+03 0.  1.
<mgrwt>
<rscale>  2 0.17485001E+03</rscale>
<asrwt>0</asrwt>
<pdfrwt beam="1">  1       21 0.91525209E-01 0.17485001E+03</pdfrwt>
<pdfrwt beam="2">  1       21 0.10547664E-01 0.17485001E+03</pdfrwt>
<totfact> 0.75201219E+04</totfact>
</mgrwt>
</event>
<event>
 4    1  0.4531281E+000  0.2006803E+03  0.7546771E-02  0.1149166E+00
         21   -1    0    0  503  502  0.00000000000E+00  0.00000000000E+00  0.62974311478E+03  0.62974311478E+03  0.00000000000E+00 0.  1.
         21   -1    0    0  501  503 -0.00000000000E+00 -0.00000000000E+00 -0.83079132060E+02  0.83079132060E+02  0.00000000000E+00 0.  1.
          6    1    1    2  501    0  0.42176272727E+02 -0.92545899529E+02  0.10231324204E+03  0.22525670023E+03  0.17300000000E+03 0.  1.
         -6    1    1    2    0  502 -0.42176272727E+02  0.92545899529E+02  0.44435074068E+03  0.48756554661E+03  0.17300000000E+03 0.  1.
<mgrwt>
<rscale>  2 0.20068030E+03</rscale>
<asrwt>0</asrwt>
<pdfrwt beam="1">  1       21 0.96883553E-01 0.20068030E+03</pdfrwt>
<pdfrwt beam="2">  1       21 0.12781405E-01 0.20068030E+03</pdfrwt>
<totfact> 0.46166849E+04</totfact>
</mgrwt>
</event>
<event>
 4    1  0.4531281E+000  0.1754950E+03  0.7546771E-02  0.1172236E+00
         21   -1    0    0  501  502  0.00000000000E+00  0.00000000000E+00  0.46928640094E+03  0.46928640094E+03  0.00000000000E+00 0. -1.
         21   -1    0    0  502  503 -0.00000000000E+00 -0.00000000000E+00 -0.21757475419E+03  0.21757475419E+03  0.00000000000E+00 0. -1.
          6    1    1    2  501    0 -0.29393268913E+02  0.23512486486E+01  0.41285451810E+03  0.44860600280E+03  0.17300000000E+03 0. -1.
         -6    1    1    2    0  503  0.29393268913E+02 -0.23512486486E+01 -0.16114287135E+03  0.23825515233E+03  0.17300000000E+03 0. -1.
<mgrwt>
<rscale>  2 0.17549499E+03</rscale>
<asrwt>0</asrwt>
<pdfrwt beam="1">  1       21 0.72197908E-01 0.17549499E+03</pdfrwt>
<pdfrwt beam="2">  1       21 0.33473039E-01 0.17549499E+03</pdfrwt>
<totfact> 0.15041100E+04</totfact>
</mgrwt>
</event>
<event>
 4    1  0.4531281E+000  0.2060958E+03  0.7546771E-02  0.1144696E+00
         21   -1    0    0  501  502  0.00000000000E+00  0.00000000000E+00  0.71810278222E+02  0.71810278222E+02  0.00000000000E+00 0.  1.
         21   -1    0    0  502  503 -0.00000000000E+00 -0.00000000000E+00 -0.83715360435E+03  0.83715360435E+03  0.00000000000E+00 0. -1.
          6    1    1    2  501    0  0.70904292629E+01 -0.11178645725E+03 -0.13647665826E+03  0.24718690188E+03  0.17300000000E+03 0.  1.
         -6    1    1    2    0  503 -0.70904292629E+01  0.11178645725E+03 -0.62886666787E+03  0.66177698069E+03  0.17300000000E+03 0. -1.
<mgrwt>
<rscale>  2 0.20609582E+03</rscale>
<asrwt>0</asrwt>
<pdfrwt beam="1">  1       21 0.11047736E-01 0.20609582E+03</pdfrwt>
<pdfrwt beam="2">  1       21 0.12879285E+00 0.20609582E+03</pdfrwt>
<totfact> 0.29854935E+04</totfact>
</mgrwt>
</event>
<event>
 4    1  0.4531281E+000  0.1802076E+03  0.7546771E-02  0.1167602E+00
         21   -1    0    0  501  502  0.00000000000E+00  0.00000000000E+00  0.11267824736E+03  0.11267824736E+03  0.00000000000E+00 0.  1.
         21   -1    0    0  502  503 -0.00000000000E+00 -0.00000000000E+00 -0.29703519828E+03  0.29703519828E+03  0.00000000000E+00 0.  1.
          6    1    1    2  501    0  0.48352918203E+02 -0.14414527379E+02 -0.56863792973E+02  0.18896633099E+03  0.17300000000E+03 0. -1.
         -6    1    1    2    0  503 -0.48352918203E+02  0.14414527379E+02 -0.12749315795E+03  0.22074711464E+03  0.17300000000E+03 0. -1.
<mgrwt>
<rscale>  2 0.18020761E+03</rscale>
<asrwt>0</asrwt>
<pdfrwt beam="1">  1       21 0.17335115E-01 0.18020761E+03</pdfrwt>
<pdfrwt beam="2">  1       21 0.45697723E-01 0.18020761E+03</pdfrwt>
<totfact> 0.13874779E+05</totfact>
</mgrwt>
</event>
<event>
 4    1  0.4531281E+000  0.3179312E+03  0.7546771E-02  0.1076605E+00
         21   -1    0    0  503  502  0.00000000000E+00  0.00000000000E+00  0.18943200152E+03  0.18943200152E+03  0.00000000000E+00 0.  1.
         21   -1    0    0  501  503 -0.00000000000E+00 -0.00000000000E+00 -0.56309529661E+03  0.56309529661E+03  0.00000000000E+00 0. -1.
          6    1    1    2  501    0  0.24528477703E+03 -0.10481696197E+03 -0.27295181147E+03  0.41902614327E+03  0.17300000000E+03 0. -1.
         -6    1    1    2    0  502 -0.24528477703E+03  0.10481696197E+03 -0.10071148362E+03  0.33350115486E+03  0.17300000000E+03 0.  1.
<mgrwt>
<rscale>  2 0.31793115E+03</rscale>
<asrwt>0</asrwt>
<pdfrwt beam="1">  1       21 0.29143385E-01 0.31793115E+03</pdfrwt>
<pdfrwt beam="2">  1       21 0.86630045E-01 0.31793115E+03</pdfrwt>
<totfact> 0.12098618E+04</totfact>
</mgrwt>
</event>
<event>
 4    1  0.4531281E+000  0.1858066E+03  0.7546771E-02  0.1162299E+00
         21   -1    0    0  503  502  0.00000000000E+00  0.00000000000E+00  0.23472956567E+03  0.23472956567E+03  0.00000000000E+00 0.  1.
         21   -1    0    0  501  503 -0.00000000000E+00 -0.00000000000E+00 -0.22272001452E+03  0.22272001452E+03  0.00000000000E+00 0.  1.
          6    1    1    2  501    0  0.43297603880E+02  0.52157399124E+02 -0.12728866469E+03  0.22522540031E+03  0.17300000000E+03 0.  1.
         -6    1    1    2    0  502 -0.43297603880E+02 -0.52157399124E+02  0.13929821584E+03  0.23222417988E+03  0.17300000000E+03 0.  1.
<mgrwt>
<rscale>  2 0.18580656E+03</rscale>
<asrwt>0</asrwt>
<pdfrwt beam="1">  1       21 0.36112241E-01 0.18580656E+03</pdfrwt>
<pdfrwt beam="2">  1       21 0.34264618E-01 0.18580656E+03</pdfrwt>
<totfact> 0.60876901E+04</totfact>
</mgrwt>
</event>
<event>
 4    1  0.4531281E+000  0.3664553E+03  0.7546771E-02  0.1056057E+00
         21   -1    0    0  503  502  0.00000000000E+00  0.00000000000E+00  0.84712669894E+03  0.84712669894E+03  0.00000000000E+00 0.  1.
         21   -1    0    0  501  503 -0.00000000000E+00 -0.00000000000E+00 -0.18089603633E+03  0.18089603633E+03  0.00000000000E+00 0. -1.
          6    1    1    2  501    0 -0.11997040488E+03 -0.29994593364E+03  0.15234958800E+03  0.39686251790E+03  0.17300000000E+03 0. -1.
         -6    1    1    2    0  502  0.11997040488E+03  0.29994593364E+03  0.51388107460E+03  0.63116021737E+03  0.17300000000E+03 0.  1.
<mgrwt>
<rscale>  2 0.36645526E+03</rscale>
<asrwt>0</asrwt>
<pdfrwt beam="1">  1       21 0.13032718E+00 0.36645526E+03</pdfrwt>
<pdfrwt beam="2">  1       21 0.27830160E-01 0.36645526E+03</pdfrwt>
<totfact> 0.47755858E+03</totfact>
</mgrwt>
</event>
<event>
 4    1  0.4531281E+000  0.2262002E+03  0.7546771E-02  0.1129343E+00
         21   -1    0    0  503  502  0.00000000000E+00  0.00000000000E+00  0.42069777879E+02  0.42069777879E+02  0.00000000000E+00 0. -1.
         21   -1    0    0  501  503 -0.00000000000E+00 -0.00000000000E+00 -0.13287438711E+04  0.13287438711E+04  0.00000000000E+00 0. -1.
          6    1    1    2  501    0 -0.12888241958E+03 -0.68020840724E+02 -0.84278584391E+03  0.87261359807E+03  0.17300000000E+03 0. -1.
         -6    1    1    2    0  502  0.12888241958E+03  0.68020840724E+02 -0.44388824933E+03  0.49820005092E+03  0.17300000000E+03 0. -1.
<mgrwt>
<rscale>  2 0.22620016E+03</rscale>
<asrwt>0</asrwt>
<pdfrwt beam="1">  1       21 0.64722747E-02 0.22620016E+03</pdfrwt>
<pdfrwt beam="2">  1       21 0.20442210E+00 0.22620016E+03</pdfrwt>
<totfact> 0.21260693E+04</totfact>
</mgrwt>
</event>
<event>
 4    1  0.4531281E+000  0.2209091E+03  0.7546771E-02  0.1133207E+00
         21   -1    0    0  501  502  0.00000000000E+00  0.00000000000E+00  0.13107189064E+04  0.13107189064E+04  0.00000000000E+00 0. -1.
         21   -1    0    0  502  503 -0.00000000000E+00 -0.00000000000E+00 -0.40423062650E+02  0.40423062650E+02  0.00000000000E+00 0.  1.
          6    1    1    2  501    0  0.88892101088E+02 -0.10473791936E+03  0.82495666069E+03  0.85402244081E+03  0.17300000000E+03 0. -1.
         -6    1    1    2    0  503 -0.88892101088E+02  0.10473791936E+03  0.44533918304E+03  0.49711952822E+03  0.17300000000E+03 0.  1.
<mgrwt>
<rscale>  2 0.22090912E+03</rscale>
<asrwt>0</asrwt>
<pdfrwt beam="1">  1       21 0.20164903E+00 0.22090912E+03</pdfrwt>
<pdfrwt beam="2">  1       21 0.62189337E-02 0.22090912E+03</pdfrwt>
<totfact> 0.23813054E+04</totfact>
</mgrwt>
</event>
<event>
 4    1  0.4531281E+000  0.1963130E+03  0.7546771E-02  0.1152888E+00
         21   -1    0    0  503  502  0.00000000000E+00  0.00000000000E+00  0.95159769669E+03  0.95159769669E+03  0.00000000000E+00 0. -1.
         21   -1    0    0  501  503 -0.00000000000E+00 -0.00000000000E+00 -0.43194981116E+03  0.43194981116E+03  0.00000000000E+00 0. -1.
          6    1    1    2  501    0 -0.22018844867E+02 -0.90138525466E+02 -0.39872190947E+03  0.44442990943E+03  0.17300000000E+03 0. -1.
         -6    1    1    2    0  502  0.22018844867E+02  0.90138525466E+02  0.91836979500E+03  0.93911759842E+03  0.17300000000E+03 0. -1.
<mgrwt>
<rscale>  2 0.19631297E+03</rscale>
<asrwt>0</asrwt>
<pdfrwt beam="1">  1       21 0.14639965E+00 0.19631297E+03</pdfrwt>
<pdfrwt beam="2">  1       21 0.66453817E-01 0.19631297E+03</pdfrwt>
<totfact> 0.65899274E+02</totfact>
</mgrwt>
</event>
<event>
 4    1  0.4531281E+000  0.2688825E+03  0.7546771E-02  0.1101921E+00
         21   -1    0    0  501  502  0.00000000000E+00  0.00000000000E+00  0.12012252820E+03  0.12012252820E+03  0.00000000000E+00 0. -1.
         21   -1    0    0  502  503 -0.00000000000E+00 -0.00000000000E+00 -0.79299187306E+03  0.79299187306E+03  0.00000000000E+00 0.  1.
          6    1    1    2  501    0  0.18942457071E+03 -0.80542654579E+02 -0.11229464586E+03  0.29138955829E+03  0.17300000000E+03 0. -1.
         -6    1    1    2    0  503 -0.18942457071E+03  0.80542654579E+02 -0.56057469900E+03  0.62172484296E+03  0.17300000000E+03 0.  1.
<mgrwt>
<rscale>  2 0.26888248E+03</rscale>
<asrwt>0</asrwt>
<pdfrwt beam="1">  1       21 0.18480389E-01 0.26888248E+03</pdfrwt>
<pdfrwt beam="2">  1       21 0.12199875E+00 0.26888248E+03</pdfrwt>
<totfact> 0.12945000E+04</totfact>
</mgrwt>
</event>
<event>
 4    1  0.4531281E+000  0.2358717E+03  0.7546771E-02  0.1122574E+00
         21   -1    0    0  501  502  0.00000000000E+00  0.00000000000E+00  0.44779343888E+03  0.44779343888E+03  0.00000000000E+00 0. -1.
         21   -1    0    0  502  503 -0.00000000000E+00 -0.00000000000E+00 -0.12907722766E+03  0.12907722766E+03  0.00000000000E+00 0. -1.
          6    1    1    2  501    0  0.81276187212E+02 -0.13820508837E+03  0.21517435215E+03  0.31927334195E+03  0.17300000000E+03 0. -1.
         -6    1    1    2    0  503 -0.81276187212E+02  0.13820508837E+03  0.10354185907E+03  0.25759732459E+03  0.17300000000E+03 0. -1.
<mgrwt>
<rscale>  2 0.23587171E+03</rscale>
<asrwt>0</asrwt>
<pdfrwt beam="1">  1       21 0.68891297E-01 0.23587171E+03</pdfrwt>
<pdfrwt beam="2">  1       21 0.19858035E-01 0.23587171E+03</pdfrwt>
<totfact> 0.43975208E+04</totfact>
</mgrwt>
</event>
<event>
 4    1  0.4531281E+000  0.1742306E+03  0.7546771E-02  0.1173506E+00
         21   -1    0    0  503  502  0.00000000000E+00  0.00000000000E+00  0.15200950335E+03  0.15200950335E+03  0.00000000000E+00 0.  1.
         21   -1    0    0  501  503 -0.00000000000E+00 -0.00000000000E+00 -0.87709298142E+03  0.87709298142E+03  0.00000000000E+00 0.  1.
          6    1    1    2  501    0 -0.13883559310E+02  0.15315359903E+02 -0.81473712487E+03  0.83315838597E+03  0.17300000000E+03 0.  1.
         -6    1    1    2    0  502  0.13883559310E+02 -0.15315359903E+02  0.89653646808E+02  0.19594409880E+03  0.17300000000E+03 0.  1.
<mgrwt>
<rscale>  2 0.17423063E+03</rscale>
<asrwt>0</asrwt>
<pdfrwt beam="1">  1       21 0.23386078E-01 0.17423063E+03</pdfrwt>
<pdfrwt beam="2">  1       21 0.13493738E+00 0.17423063E+03</pdfrwt>
<totfact> 0.68651383E+03</totfact>
</mgrwt>
</event>
<event>
 4    1  0.4531281E+000  0.2340479E+03  0.7546771E-02  0.1123823E+00
         21   -1    0    0  503  502  0.00000000000E+00  0.00000000000E+00  0.89738479805E+02  0.89738479805E+02  0.00000000000E+00 0. -1.
         21   -1    0    0  501  503 -0.00000000000E+00 -0.00000000000E+00 -0.75425777782E+03  0.75425777782E+03  0.00000000000E+00 0.  1.
          6    1    1    2  501    0  0.12255111049E+03 -0.99149651869E+02 -0.51654153396E+03  0.56709221865E+03  0.17300000000E+03 0.  1.
         -6    1    1    2    0  502 -0.12255111049E+03  0.99149651869E+02 -0.14797776406E+03  0.27690403898E+03  0.17300000000E+03 0. -1.
<mgrwt>
<rscale>  2 0.23404792E+03</rscale>
<asrwt>0</asrwt>
<pdfrwt beam="1">  1       21 0.13805920E-01 0.23404792E+03</pdfrwt>
<pdfrwt beam="2">  1       21 0.11603966E+00 0.23404792E+03</pdfrwt>
<totfact> 0.25543234E+04</totfact>
</mgrwt>
</event>
<event>
 4    1  0.4531281E+000  0.1779398E+03  0.7546771E-02  0.1169812E+00
         21   -1    0    0  503  502  0.00000000000E+00  0.00000000000E+00  0.77420447662E+03  0.77420447662E+03  0.00000000000E+00 0.  1.
         21   -1    0    0  501  503 -0.00000000000E+00 -0.00000000000E+00 -0.44456454093E+02  0.44456454093E+02  0.00000000000E+00 0.  1.
          6    1    1    2  501    0 -0.31769722187E+02  0.26912050006E+02  0.24904866139E+03  0.30608464421E+03  0.17300000000E+03 0. -1.
         -6    1    1    2    0  502  0.31769722187E+02 -0.26912050006E+02  0.48069936114E+03  0.51257628650E+03  0.17300000000E+03 0. -1.
<mgrwt>
<rscale>  2 0.17793980E+03</rscale>
<asrwt>0</asrwt>
<pdfrwt beam="1">  1       21 0.11910837E+00 0.17793980E+03</pdfrwt>
<pdfrwt beam="2">  1       21 0.68394550E-02 0.17793980E+03</pdfrwt>
<totfact> 0.85265609E+04</totfact>
</mgrwt>
</event>
<event>
 4    1  0.4531281E+000  0.2500998E+03  0.7546771E-02  0.1113242E+00
         21   -1    0    0  501  502  0.00000000000E+00  0.00000000000E+00  0.68174683383E+02  0.68174683383E+02  0.00000000000E+00 0. -1.
         21   -1    0    0  502  503 -0.00000000000E+00 -0.00000000000E+00 -0.23717501805E+04  0.23717501805E+04  0.00000000000E+00 0. -1.
          6    1    1    2  501    0 -0.63056836931E+02 -0.16924759867E+03 -0.21070713715E+04  0.21218623138E+04  0.17300000000E+03 0. -1.
         -6    1    1    2    0  503  0.63056836931E+02  0.16924759867E+03 -0.19650412558E+03  0.31806255000E+03  0.17300000000E+03 0. -1.
<mgrwt>
<rscale>  2 0.25009981E+03</rscale>
<asrwt>0</asrwt>
<pdfrwt beam="1">  1       21 0.10488412E-01 0.25009981E+03</pdfrwt>
<pdfrwt beam="2">  1       21 0.36488469E+00 0.25009981E+03</pdfrwt>
<totfact> 0.98707262E+02</totfact>
</mgrwt>
</event>
<event>
 4    1  0.4531281E+000  0.2279352E+03  0.7546771E-02  0.1128102E+00
         21   -1    0    0  503  502  0.00000000000E+00  0.00000000000E+00  0.20304792936E+03  0.20304792936E+03  0.00000000000E+00 0.  1.
         21   -1    0    0  501  503 -0.00000000000E+00 -0.00000000000E+00 -0.34600488533E+03  0.34600488533E+03  0.00000000000E+00 0.  1.
          6    1    1    2  501    0  0.59396184979E+02 -0.13600568678E+03 -0.21159281800E+03  0.31100799710E+03  0.17300000000E+03 0.  1.
         -6    1    1    2    0  502 -0.59396184979E+02  0.13600568678E+03  0.68635862039E+02  0.23804481760E+03  0.17300000000E+03 0.  1.
<mgrwt>
<rscale>  2 0.22793520E+03</rscale>
<asrwt>0</asrwt>
<pdfrwt beam="1">  1       21 0.31238143E-01 0.22793520E+03</pdfrwt>
<pdfrwt beam="2">  1       21 0.53231521E-01 0.22793520E+03</pdfrwt>
<totfact> 0.32311432E+04</totfact>
</mgrwt>
</event>
<event>
 4    1  0.4531281E+000  0.1876526E+03  0.7546771E-02  0.1160596E+00
         21   -1    0    0  501  502  0.00000000000E+00  0.00000000000E+00  0.27314556823E+02  0.27314556823E+02  0.00000000000E+00 0.  1.
         21   -1    0    0  502  503 -0.00000000000E+00 -0.00000000000E+00 -0.13433270733E+04  0.13433270733E+04  0.00000000000E+00 0. -1.
          6    1    1    2  501    0 -0.22083657637E+02  0.69258879553E+02 -0.52041974801E+03  0.55321803518E+03  0.17300000000E+03 0.  1.
         -6    1    1    2    0  503  0.22083657637E+02 -0.69258879553E+02 -0.79559276849E+03  0.81742359497E+03  0.17300000000E+03 0.  1.
<mgrwt>
<rscale>  2 0.18765255E+03</rscale>
<asrwt>0</asrwt>
<pdfrwt beam="1">  1       21 0.42022405E-02 0.18765255E+03</pdfrwt>
<pdfrwt beam="2">  1       21 0.20666566E+00 0.18765255E+03</pdfrwt>
<totfact> 0.44077176E+04</totfact>
</mgrwt>
</event>
<event>
 4    1  0.4531281E+000  0.1878577E+03  0.7546771E-02  0.1160408E+00
         21   -1    0    0  503  502  0.00000000000E+00  0.00000000000E+00  0.46508196007E+03  0.46508196007E+03  0.00000000000E+00 0. -1.
         21   -1    0    0  501  503 -0.00000000000E+00 -0.00000000000E+00 -0.11969114009E+03  0.11969114009E+03  0.00000000000E+00 0. -1.
          6    1    1    2  501    0  0.62824987105E+01  0.72952394664E+02 -0.42004112055E+01  0.18790467033E+03  0.17300000000E+03 0. -1.
         -6    1    1    2    0  502 -0.62824987105E+01 -0.72952394664E+02  0.34959123119E+03  0.39686842983E+03  0.17300000000E+03 0. -1.
<mgrwt>
<rscale>  2 0.18785772E+03</rscale>
<asrwt>0</asrwt>
<pdfrwt beam="1">  1       21 0.71551070E-01 0.18785772E+03</pdfrwt>
<pdfrwt beam="2">  1       21 0.18414022E-01 0.18785772E+03</pdfrwt>
<totfact> 0.47630734E+04</totfact>
</mgrwt>
</event>
<event>
 4    1  0.4531281E+000  0.1933663E+03  0.7546771E-02  0.1155460E+00
         21   -1    0    0  503  502  0.00000000000E+00  0.00000000000E+00  0.31960822274E+03  0.31960822274E+03  0.00000000000E+00 0.  1.
         21   -1    0    0  501  503 -0.00000000000E+00 -0.00000000000E+00 -0.12568953607E+03  0.12568953607E+03  0.00000000000E+00 0. -1.
          6    1    1    2  501    0 -0.14498541908E+02  0.85154784410E+02  0.38379005535E+02  0.19713825882E+03  0.17300000000E+03 0.  1.
         -6    1    1    2    0  502  0.14498541908E+02 -0.85154784410E+02  0.15553968114E+03  0.24815949999E+03  0.17300000000E+03 0.  1.
<mgrwt>
<rscale>  2 0.19336635E+03</rscale>
<asrwt>0</asrwt>
<pdfrwt beam="1">  1       21 0.49170496E-01 0.19336635E+03</pdfrwt>
<pdfrwt beam="2">  1       21 0.19336852E-01 0.19336635E+03</pdfrwt>
<totfact> 0.96965032E+04</totfact>
</mgrwt>
</event>
<event>
 4    1  0.4531281E+000  0.2605530E+03  0.7546771E-02  0.1106811E+00
         21   -1    0    0  503  502  0.00000000000E+00  0.00000000000E+00  0.85233293220E+02  0.85233293220E+02  0.00000000000E+00 0. -1.
         21   -1    0    0  501  503 -0.00000000000E+00 -0.00000000000E+00 -0.79658882494E+03  0.79658882494E+03  0.00000000000E+00 0. -1.
          6    1    1    2  501    0  0.10717529986E+03 -0.16270324014E+03 -0.35089185670E+03  0.43705032245E+03  0.17300000000E+03 0.  1.
         -6    1    1    2    0  502 -0.10717529986E+03  0.16270324014E+03 -0.36046367502E+03  0.44477179571E+03  0.17300000000E+03 0.  1.
<mgrwt>
<rscale>  2 0.26055304E+03</rscale>
<asrwt>0</asrwt>
<pdfrwt beam="1">  1       21 0.13112814E-01 0.26055304E+03</pdfrwt>
<pdfrwt beam="2">  1       21 0.12255213E+00 0.26055304E+03</pdfrwt>
<totfact> 0.24163647E+04</totfact>
</mgrwt>
</event>
<event>
 4    1  0.4531281E+000  0.2112767E+03  0.7546771E-02  0.1140559E+00
         21   -1    0    0  503  502  0.00000000000E+00  0.00000000000E+00  0.11011132753E+04  0.11011132753E+04  0.00000000000E+00 0.  1.
         21   -1    0    0  501  503 -0.00000000000E+00 -0.00000000000E+00 -0.45602912705E+02  0.45602912705E+02  0.00000000000E+00 0. -1.
          6    1    1    2  501    0 -0.33407385954E+02 -0.11658820819E+03  0.33669099963E+03  0.39749049417E+03  0.17300000000E+03 0. -1.
         -6    1    1    2    0  502  0.33407385954E+02  0.11658820819E+03  0.71881936301E+03  0.74922569387E+03  0.17300000000E+03 0.  1.
<mgrwt>
<rscale>  2 0.21127675E+03</rscale>
<asrwt>0</asrwt>
<pdfrwt beam="1">  1       21 0.16940202E+00 0.21127675E+03</pdfrwt>
<pdfrwt beam="2">  1       21 0.70158336E-02 0.21127675E+03</pdfrwt>
<totfact> 0.32080073E+04</totfact>
</mgrwt>
</event>
<event>
 4    1  0.4531281E+000  0.2398631E+03  0.7546771E-02  0.1119884E+00
         21   -1    0    0  503  502  0.00000000000E+00  0.00000000000E+00  0.19169030835E+03  0.19169030835E+03  0.00000000000E+00 0.  1.
         21   -1    0    0  501  503 -0.00000000000E+00 -0.00000000000E+00 -0.35351773926E+03  0.35351773926E+03  0.00000000000E+00 0.  1.
          6    1    1    2  501    0 -0.15790194976E+03  0.51694193777E+02 -0.18683873354E+03  0.30404445030E+03  0.17300000000E+03 0.  1.
         -6    1    1    2    0  502  0.15790194976E+03 -0.51694193777E+02  0.25011302626E+02  0.24116359731E+03  0.17300000000E+03 0.  1.
<mgrwt>
<rscale>  2 0.23986312E+03</rscale>
<asrwt>0</asrwt>
<pdfrwt beam="1">  1       21 0.29490817E-01 0.23986312E+03</pdfrwt>
<pdfrwt beam="2">  1       21 0.54387344E-01 0.23986312E+03</pdfrwt>
<totfact> 0.34372247E+04</totfact>
</mgrwt>
</event>
<event>
 4    1  0.4531281E+000  0.1732224E+03  0.7546771E-02  0.1174528E+00
         21   -1    0    0  501  502  0.00000000000E+00  0.00000000000E+00  0.46493600022E+02  0.46493600022E+02  0.00000000000E+00 0. -1.
         21   -1    0    0  502  503 -0.00000000000E+00 -0.00000000000E+00 -0.13020232404E+04  0.13020232404E+04  0.00000000000E+00 0. -1.
          6    1    1    2  501    0  0.87439678818E+01 -0.74107769133E+00 -0.14893412023E+03  0.22844556975E+03  0.17300000000E+03 0. -1.
         -6    1    1    2    0  503 -0.87439678818E+01  0.74107769133E+00 -0.11065955201E+04  0.11200712707E+04  0.17300000000E+03 0. -1.
<mgrwt>
<rscale>  2 0.17322242E+03</rscale>
<asrwt>0</asrwt>
<pdfrwt beam="1">  1       21 0.71528624E-02 0.17322242E+03</pdfrwt>
<pdfrwt beam="2">  1       21 0.20031124E+00 0.17322242E+03</pdfrwt>
<totfact> 0.19775952E+04</totfact>
</mgrwt>
</event>
<event>
 4    1  0.4531281E+000  0.2014076E+03  0.7546771E-02  0.1148557E+00
         21   -1    0    0  503  502  0.00000000000E+00  0.00000000000E+00  0.33206937671E+03  0.33206937671E+03  0.00000000000E+00 0.  1.
         21   -1    0    0  501  503 -0.00000000000E+00 -0.00000000000E+00 -0.48873815215E+03  0.48873815215E+03  0.00000000000E+00 0.  1.
          6    1    1    2  501    0 -0.29245129368E+02  0.98897626041E+02 -0.43376721211E+03  0.47824576562E+03  0.17300000000E+03 0.  1.
         -6    1    1    2    0  502  0.29245129368E+02 -0.98897626041E+02  0.27709843667E+03  0.34256176324E+03  0.17300000000E+03 0.  1.
<mgrwt>
<rscale>  2 0.20140759E+03</rscale>
<asrwt>0</asrwt>
<pdfrwt beam="1">  1       21 0.51087596E-01 0.20140759E+03</pdfrwt>
<pdfrwt beam="2">  1       21 0.75190485E-01 0.20140759E+03</pdfrwt>
<totfact> 0.57209619E+03</totfact>
</mgrwt>
</event>
<event>
 4    1  0.4531281E+000  0.2495061E+03  0.7546771E-02  0.1113617E+00
         21   -1    0    0  503  502  0.00000000000E+00  0.00000000000E+00  0.14267177100E+03  0.14267177100E+03  0.00000000000E+00 0. -1.
         21   -1    0    0  501  503 -0.00000000000E+00 -0.00000000000E+00 -0.47814510966E+03  0.47814510966E+03  0.00000000000E+00 0. -1.
          6    1    1    2  501    0 -0.17978929668E+03  0.34855092239E+00 -0.25952163402E+03  0.36000665440E+03  0.17300000000E+03 0. -1.
         -6    1    1    2    0  502  0.17978929668E+03 -0.34855092239E+00 -0.75951704638E+02  0.26081022627E+03  0.17300000000E+03 0. -1.
<mgrwt>
<rscale>  2 0.24950614E+03</rscale>
<asrwt>0</asrwt>
<pdfrwt beam="1">  1       21 0.21949503E-01 0.24950614E+03</pdfrwt>
<pdfrwt beam="2">  1       21 0.73560786E-01 0.24950614E+03</pdfrwt>
<totfact> 0.31277224E+04</totfact>
</mgrwt>
</event>
<event>
 4    1  0.4531281E+000  0.1878723E+03  0.7546771E-02  0.1160395E+00
         21   -1    0    0  501  502  0.00000000000E+00  0.00000000000E+00  0.18670425825E+03  0.18670425825E+03  0.00000000000E+00 0.  1.
         21   -1    0    0  502  503 -0.00000000000E+00 -0.00000000000E+00 -0.29027044299E+03  0.29027044299E+03  0.00000000000E+00 0.  1.
          6    1    1    2  501    0  0.71912532873E+02  0.13984905091E+02  0.89049518057E+02  0.20790816872E+03  0.17300000000E+03 0.  1.
         -6    1    1    2    0  503 -0.71912532873E+02 -0.13984905091E+02 -0.19261570281E+03  0.26906653252E+03  0.17300000000E+03 0.  1.
<mgrwt>
<rscale>  2 0.18787227E+03</rscale>
<asrwt>0</asrwt>
<pdfrwt beam="1">  1       21 0.28723732E-01 0.18787227E+03</pdfrwt>
<pdfrwt beam="2">  1       21 0.44656991E-01 0.18787227E+03</pdfrwt>
<totfact> 0.55940622E+04</totfact>
</mgrwt>
</event>
<event>
 4    1  0.4531281E+000  0.2519953E+03  0.7546771E-02  0.1112050E+00
         21   -1    0    0  501  502  0.00000000000E+00  0.00000000000E+00  0.24428643647E+03  0.24428643647E+03  0.00000000000E+00 0. -1.
         21   -1    0    0  502  503 -0.00000000000E+00 -0.00000000000E+00 -0.39693841048E+03  0.39693841048E+03  0.00000000000E+00 0. -1.
          6    1    1    2  501    0  0.15028146540E+03  0.10482413309E+03  0.11202368108E+03  0.27577331786E+03  0.17300000000E+03 0. -1.
         -6    1    1    2    0  503 -0.15028146540E+03 -0.10482413309E+03 -0.26467565508E+03  0.36545152909E+03  0.17300000000E+03 0. -1.
<mgrwt>
<rscale>  2 0.25199527E+03</rscale>
<asrwt>0</asrwt>
<pdfrwt beam="1">  1       21 0.37582529E-01 0.25199527E+03</pdfrwt>
<pdfrwt beam="2">  1       21 0.61067447E-01 0.25199527E+03</pdfrwt>
<totfact> 0.16472779E+04</totfact>
</mgrwt>
</event>
<event>
 4    1  0.4531281E+000  0.1961709E+03  0.7546771E-02  0.1153010E+00
         21   -1    0    0  501  502  0.00000000000E+00  0.00000000000E+00  0.31934982552E+03  0.31934982552E+03  0.00000000000E+00 0. -1.
         21   -1    0    0  502  503 -0.00000000000E+00 -0.00000000000E+00 -0.18049159877E+03  0.18049159877E+03  0.00000000000E+00 0. -1.
          6    1    1    2  501    0 -0.38305553155E+02 -0.84182635568E+02  0.21350899980E+03  0.28994676154E+03  0.17300000000E+03 0. -1.
         -6    1    1    2    0  503  0.38305553155E+02  0.84182635568E+02 -0.74650773044E+02  0.20989466275E+03  0.17300000000E+03 0. -1.
<mgrwt>
<rscale>  2 0.19617092E+03</rscale>
<asrwt>0</asrwt>
<pdfrwt beam="1">  1       21 0.49130742E-01 0.19617092E+03</pdfrwt>
<pdfrwt beam="2">  1       21 0.27767938E-01 0.19617092E+03</pdfrwt>
<totfact> 0.48848967E+04</totfact>
</mgrwt>
</event>
<event>
 4    1  0.4531281E+000  0.2172956E+03  0.7546771E-02  0.1135915E+00
         21   -1    0    0  503  502  0.00000000000E+00  0.00000000000E+00  0.19312962293E+03  0.19312962293E+03  0.00000000000E+00 0.  1.
         21   -1    0    0  501  503 -0.00000000000E+00 -0.00000000000E+00 -0.24471591162E+03  0.24471591162E+03  0.00000000000E+00 0.  1.
          6    1    1    2  501    0  0.71650243016E+01  0.13128998276E+03 -0.19075933411E+02  0.21813135579E+03  0.17300000000E+03 0.  1.
         -6    1    1    2    0  502 -0.71650243016E+01 -0.13128998276E+03 -0.32510355285E+02  0.21971417876E+03  0.17300000000E+03 0.  1.
<mgrwt>
<rscale>  2 0.21729564E+03</rscale>
<asrwt>0</asrwt>
<pdfrwt beam="1">  1       21 0.29712250E-01 0.21729564E+03</pdfrwt>
<pdfrwt beam="2">  1       21 0.37648602E-01 0.21729564E+03</pdfrwt>
<totfact> 0.73100161E+04</totfact>
</mgrwt>
</event>
<event>
 4    1  0.4531281E+000  0.2271110E+03  0.7546771E-02  0.1128690E+00
         21   -1    0    0  501  502  0.00000000000E+00  0.00000000000E+00  0.13661704491E+03  0.13661704491E+03  0.00000000000E+00 0. -1.
         21   -1    0    0  502  503 -0.00000000000E+00 -0.00000000000E+00 -0.15351711192E+04  0.15351711192E+04  0.00000000000E+00 0. -1.
          6    1    1    2  501    0  0.11740796384E+03  0.88689220257E+02  0.26589150168E+02  0.22866217586E+03  0.17300000000E+03 0. -1.
         -6    1    1    2    0  503 -0.11740796384E+03 -0.88689220257E+02 -0.14251432245E+04  0.14431259883E+04  0.17300000000E+03 0. -1.
<mgrwt>
<rscale>  2 0.22711100E+03</rscale>
<asrwt>0</asrwt>
<pdfrwt beam="1">  1       21 0.21018007E-01 0.22711100E+03</pdfrwt>
<pdfrwt beam="2">  1       21 0.23618018E+00 0.22711100E+03</pdfrwt>
<totfact> 0.16276704E+03</totfact>
</mgrwt>
</event>
<event>
 4    1  0.4531281E+000  0.1831238E+03  0.7546771E-02  0.1164814E+00
         21   -1    0    0  501  502  0.00000000000E+00  0.00000000000E+00  0.95706855377E+02  0.95706855377E+02  0.00000000000E+00 0.  1.
         21   -1    0    0  502  503 -0.00000000000E+00 -0.00000000000E+00 -0.35040568713E+03  0.35040568713E+03  0.00000000000E+00 0.  1.
          6    1    1    2  501    0  0.52187845040E+02  0.29694218743E+02 -0.12566667335E+03  0.22209554382E+03  0.17300000000E+03 0.  1.
         -6    1    1    2    0  503 -0.52187845040E+02 -0.29694218743E+02 -0.12903215841E+03  0.22401699869E+03  0.17300000000E+03 0.  1.
<mgrwt>
<rscale>  2 0.18312378E+03</rscale>
<asrwt>0</asrwt>
<pdfrwt beam="1">  1       21 0.14724132E-01 0.18312378E+03</pdfrwt>
<pdfrwt beam="2">  1       21 0.53908567E-01 0.18312378E+03</pdfrwt>
<totfact> 0.13246827E+05</totfact>
</mgrwt>
</event>
<event>
 4    1  0.4531281E+000  0.2422949E+03  0.7546771E-02  0.1118273E+00
         21   -1    0    0  501  502  0.00000000000E+00  0.00000000000E+00  0.21042615592E+03  0.21042615592E+03  0.00000000000E+00 0. -1.
         21   -1    0    0  502  503 -0.00000000000E+00 -0.00000000000E+00 -0.35508550518E+03  0.35508550518E+03  0.00000000000E+00 0. -1.
          6    1    1    2  501    0 -0.14200865054E+03  0.92797442107E+02  0.58565672093E+02  0.24927246145E+03  0.17300000000E+03 0. -1.
         -6    1    1    2    0  503  0.14200865054E+03 -0.92797442107E+02 -0.20322502135E+03  0.31623919965E+03  0.17300000000E+03 0. -1.
<mgrwt>
<rscale>  2 0.24229491E+03</rscale>
<asrwt>0</asrwt>
<pdfrwt beam="1">  1       21 0.32373255E-01 0.24229491E+03</pdfrwt>
<pdfrwt beam="2">  1       21 0.54628539E-01 0.24229491E+03</pdfrwt>
<totfact> 0.28314798E+04</totfact>
</mgrwt>
</event>
<event>
 4    1  0.4531281E+000  0.2087097E+03  0.7546771E-02  0.1142592E+00
         21   -1    0    0  501  502  0.00000000000E+00  0.00000000000E+00  0.30924454214E+03  0.30924454214E+03  0.00000000000E+00 0. -1.
         21   -1    0    0  502  503 -0.00000000000E+00 -0.00000000000E+00 -0.31518267050E+03  0.31518267050E+03  0.00000000000E+00 0. -1.
          6    1    1    2  501    0  0.86250665764E+02 -0.78686575499E+02  0.22922404896E+03  0.31000551467E+03  0.17300000000E+03 0. -1.
         -6    1    1    2    0  503 -0.86250665764E+02  0.78686575499E+02 -0.23516217732E+03  0.31442169797E+03  0.17300000000E+03 0. -1.
<mgrwt>
<rscale>  2 0.20870974E+03</rscale>
<asrwt>0</asrwt>
<pdfrwt beam="1">  1       21 0.47576084E-01 0.20870974E+03</pdfrwt>
<pdfrwt beam="2">  1       21 0.48489641E-01 0.20870974E+03</pdfrwt>
<totfact> 0.16990291E+04</totfact>
</mgrwt>
</event>
<event>
 4    1  0.4531281E+000  0.1738621E+03  0.7546771E-02  0.1173879E+00
         21   -1    0    0  501  502  0.00000000000E+00  0.00000000000E+00  0.22185487023E+03  0.22185487023E+03  0.00000000000E+00 0. -1.
         21   -1    0    0  502  503 -0.00000000000E+00 -0.00000000000E+00 -0.13629802571E+03  0.13629802571E+03  0.00000000000E+00 0. -1.
          6    1    1    2  501    0  0.13909120000E+02  0.10275218492E+02  0.46089413127E+02  0.17986738931E+03  0.17300000000E+03 0. -1.
         -6    1    1    2    0  503 -0.13909120000E+02 -0.10275218492E+02  0.39467431394E+02  0.17828550663E+03  0.17300000000E+03 0. -1.
<mgrwt>
<rscale>  2 0.17386214E+03</rscale>
<asrwt>0</asrwt>
<pdfrwt beam="1">  1       21 0.34131518E-01 0.17386214E+03</pdfrwt>
<pdfrwt beam="2">  1       21 0.20968927E-01 0.17386214E+03</pdfrwt>
<totfact> 0.17574139E+05</totfact>
</mgrwt>
</event>
<event>
 4    1  0.4531281E+000  0.2640229E+03  0.7546771E-02  0.1104750E+00
         21   -1    0    0  501  502  0.00000000000E+00  0.00000000000E+00  0.22507411053E+03  0.22507411053E+03  0.00000000000E+00 0. -1.
         21   -1    0    0  502  503 -0.00000000000E+00 -0.00000000000E+00 -0.43625464174E+03  0.43625464174E+03  0.00000000000E+00 0.  1.
          6    1    1    2  501    0  0.18533232122E+03 -0.73695488661E+02  0.72498397454E+02  0.27379574864E+03  0.17300000000E+03 0. -1.
         -6    1    1    2    0  503 -0.18533232122E+03  0.73695488661E+02 -0.28367892867E+03  0.38753300364E+03  0.17300000000E+03 0.  1.
<mgrwt>
<rscale>  2 0.26402290E+03</rscale>
<asrwt>0</asrwt>
<pdfrwt beam="1">  1       21 0.34626787E-01 0.26402290E+03</pdfrwt>
<pdfrwt beam="2">  1       21 0.67116098E-01 0.26402290E+03</pdfrwt>
<totfact> 0.15699503E+04</totfact>
</mgrwt>
</event>
<event>
 4    1  0.4531281E+000  0.1778680E+03  0.7546771E-02  0.1169882E+00
         21   -1    0    0  503  502  0.00000000000E+00  0.00000000000E+00  0.15452277952E+04  0.15452277952E+04  0.00000000000E+00 0.  1.
         21   -1    0    0  501  503 -0.00000000000E+00 -0.00000000000E+00 -0.53959380180E+02  0.53959380180E+02  0.00000000000E+00 0.  1.
          6    1    1    2  501    0 -0.21056104649E+02  0.35562314704E+02  0.11574631681E+03  0.21221274143E+03  0.17300000000E+03 0.  1.
         -6    1    1    2    0  502  0.21056104649E+02 -0.35562314704E+02  0.13755220982E+04  0.13869744340E+04  0.17300000000E+03 0.  1.
<mgrwt>
<rscale>  2 0.17786803E+03</rscale>
<asrwt>0</asrwt>
<pdfrwt beam="1">  1       21 0.23772732E+00 0.17786803E+03</pdfrwt>
<pdfrwt beam="2">  1       21 0.83014443E-02 0.17786803E+03</pdfrwt>
<totfact> 0.89706557E+03</totfact>
</mgrwt>
</event>
<event>
 4    1  0.4531281E+000  0.1764457E+03  0.7546771E-02  0.1171288E+00
         21   -1    0    0  503  502  0.00000000000E+00  0.00000000000E+00  0.29850432525E+03  0.29850432525E+03  0.00000000000E+00 0.  1.
         21   -1    0    0  501  503 -0.00000000000E+00 -0.00000000000E+00 -0.10566736824E+03  0.10566736824E+03  0.00000000000E+00 0.  1.
          6    1    1    2  501    0 -0.11314850263E+02  0.32803607167E+02  0.73404815023E+02  0.19110564970E+03  0.17300000000E+03 0.  1.
         -6    1    1    2    0  502  0.11314850263E+02 -0.32803607167E+02  0.11943214199E+03  0.21306604380E+03  0.17300000000E+03 0.  1.
<mgrwt>
<rscale>  2 0.17644575E+03</rscale>
<asrwt>0</asrwt>
<pdfrwt beam="1">  1       21 0.45923742E-01 0.17644575E+03</pdfrwt>
<pdfrwt beam="2">  1       21 0.16256518E-01 0.17644575E+03</pdfrwt>
<totfact> 0.15472108E+05</totfact>
</mgrwt>
</event>
<event>
 4    1  0.4531281E+000  0.2100295E+03  0.7546771E-02  0.1141543E+00
         21   -1    0    0  501  502  0.00000000000E+00  0.00000000000E+00  0.65500614800E+02  0.65500614800E+02  0.00000000000E+00 0. -1.
         21   -1    0    0  502  503 -0.00000000000E+00 -0.00000000000E+00 -0.73236290665E+03  0.73236290665E+03  0.00000000000E+00 0. -1.
          6    1    1    2  501    0 -0.43894613425E+02  0.11070973334E+03 -0.22029932506E+03  0.30437505609E+03  0.17300000000E+03 0. -1.
         -6    1    1    2    0  503  0.43894613425E+02 -0.11070973334E+03 -0.44656296679E+03  0.49348846536E+03  0.17300000000E+03 0. -1.
<mgrwt>
<rscale>  2 0.21002948E+03</rscale>
<asrwt>0</asrwt>
<pdfrwt beam="1">  1       21 0.10077017E-01 0.21002948E+03</pdfrwt>
<pdfrwt beam="2">  1       21 0.11267122E+00 0.21002948E+03</pdfrwt>
<totfact> 0.48882388E+04</totfact>
</mgrwt>
</event>
<event>
 4    1  0.4531281E+000  0.2555542E+03  0.7546771E-02  0.1109844E+00
         21   -1    0    0  501  502  0.00000000000E+00  0.00000000000E+00  0.35314193467E+03  0.35314193467E+03  0.00000000000E+00 0.  1.
         21   -1    0    0  502  503 -0.00000000000E+00 -0.00000000000E+00 -0.36989636929E+03  0.36989636929E+03  0.00000000000E+00 0. -1.
          6    1    1    2  501    0 -0.18270418339E+03  0.44700395232E+02  0.24726524218E+03  0.35559533736E+03  0.17300000000E+03 0.  1.
         -6    1    1    2    0  503  0.18270418339E+03 -0.44700395232E+02 -0.26401967681E+03  0.36744296660E+03  0.17300000000E+03 0. -1.
<mgrwt>
<rscale>  2 0.25555419E+03</rscale>
<asrwt>0</asrwt>
<pdfrwt beam="1">  1       21 0.54329529E-01 0.25555419E+03</pdfrwt>
<pdfrwt beam="2">  1       21 0.56907134E-01 0.25555419E+03</pdfrwt>
<totfact> 0.89287726E+03</totfact>
</mgrwt>
</event>
<event>
 4    1  0.4531281E+000  0.1742139E+03  0.7546771E-02  0.1173523E+00
         21   -1    0    0  501  502  0.00000000000E+00  0.00000000000E+00  0.21669131955E+03  0.21669131955E+03  0.00000000000E+00 0.  1.
         21   -1    0    0  502  503 -0.00000000000E+00 -0.00000000000E+00 -0.16887421538E+03  0.16887421538E+03  0.00000000000E+00 0.  1.
          6    1    1    2  501    0 -0.43481742929E+01 -0.20064511029E+02  0.10353648048E+03  0.20265807167E+03  0.17300000000E+03 0.  1.
         -6    1    1    2    0  503  0.43481742929E+01  0.20064511029E+02 -0.55719376297E+02  0.18290746326E+03  0.17300000000E+03 0.  1.
<mgrwt>
<rscale>  2 0.17421392E+03</rscale>
<asrwt>0</asrwt>
<pdfrwt beam="1">  1       21 0.33337126E-01 0.17421392E+03</pdfrwt>
<pdfrwt beam="2">  1       21 0.25980648E-01 0.17421392E+03</pdfrwt>
<totfact> 0.12272927E+05</totfact>
</mgrwt>
</event>
<event>
 4    1  0.4531281E+000  0.2051197E+03  0.7546771E-02  0.1145490E+00
         21   -1    0    0  501  502  0.00000000000E+00  0.00000000000E+00  0.80958653131E+03  0.80958653131E+03  0.00000000000E+00 0. -1.
         21   -1    0    0  502  503 -0.00000000000E+00 -0.00000000000E+00 -0.19100543972E+03  0.19100543972E+03  0.00000000000E+00 0.  1.
          6    1    1    2  501    0  0.11011275724E+03 -0.45011615738E+01  0.73613256198E+03  0.76417617640E+03  0.17300000000E+03 0. -1.
         -6    1    1    2    0  503 -0.11011275724E+03  0.45011615738E+01 -0.11755147038E+03  0.23641579463E+03  0.17300000000E+03 0.  1.
<mgrwt>
<rscale>  2 0.20511967E+03</rscale>
<asrwt>0</asrwt>
<pdfrwt beam="1">  1       21 0.12455177E+00 0.20511967E+03</pdfrwt>
<pdfrwt beam="2">  1       21 0.29385453E-01 0.20511967E+03</pdfrwt>
<totfact> 0.52870793E+03</totfact>
</mgrwt>
</event>
<event>
 4    1  0.4531281E+000  0.1873793E+03  0.7546771E-02  0.1160846E+00
         21   -1    0    0  501  502  0.00000000000E+00  0.00000000000E+00  0.17942354268E+02  0.17942354268E+02  0.00000000000E+00 0. -1.
         21   -1    0    0  502  503 -0.00000000000E+00 -0.00000000000E+00 -0.24730670545E+04  0.24730670545E+04  0.00000000000E+00 0.  1.
          6    1    1    2  501    0  0.60508307659E+02  0.38996979835E+02 -0.65853738570E+03  0.68467693702E+03  0.17300000000E+03 0. -1.
         -6    1    1    2    0  503 -0.60508307659E+02 -0.38996979835E+02 -0.17965873145E+04  0.18063324718E+04  0.17300000000E+03 0.  1.
<mgrwt>
<rscale>  2 0.18737935E+03</rscale>
<asrwt>0</asrwt>
<pdfrwt beam="1">  1       21 0.27603631E-02 0.18737935E+03</pdfrwt>
<pdfrwt beam="2">  1       21 0.38047173E+00 0.18737935E+03</pdfrwt>
<totfact> 0.83979163E+03</totfact>
</mgrwt>
</event>
<event>
 4    1  0.4531281E+000  0.1848924E+03  0.7546771E-02  0.1163150E+00
         21   -1    0    0  503  502  0.00000000000E+00  0.00000000000E+00  0.38967103393E+03  0.38967103393E+03  0.00000000000E+00 0.  1.
         21   -1    0    0  501  503 -0.00000000000E+00 -0.00000000000E+00 -0.12882477221E+03  0.12882477221E+03  0.00000000000E+00 0.  1.
          6    1    1    2  501    0  0.59124466895E+02 -0.27577106267E+02 -0.16002644935E+02  0.18558363080E+03  0.17300000000E+03 0.  1.
         -6    1    1    2    0  502 -0.59124466895E+02  0.27577106267E+02  0.27684890666E+03  0.33291217534E+03  0.17300000000E+03 0.  1.
<mgrwt>
<rscale>  2 0.18489240E+03</rscale>
<asrwt>0</asrwt>
<pdfrwt beam="1">  1       21 0.59949389E-01 0.18489240E+03</pdfrwt>
<pdfrwt beam="2">  1       21 0.19819196E-01 0.18489240E+03</pdfrwt>
<totfact> 0.61156800E+04</totfact>
</mgrwt>
</event>
<event>
 4    1  0.4531281E+000  0.1811893E+03  0.7546771E-02  0.1166657E+00
         21   -1    0    0  501  502  0.00000000000E+00  0.00000000000E+00  0.30779724732E+03  0.30779724732E+03  0.00000000000E+00 0. -1.
         21   -1    0    0  502  503 -0.00000000000E+00 -0.00000000000E+00 -0.22041025690E+03  0.22041025690E+03  0.00000000000E+00 0. -1.
          6    1    1    2  501    0  0.53652743536E+02 -0.46845855712E+01  0.23342324570E+03  0.29549276449E+03  0.17300000000E+03 0. -1.
         -6    1    1    2    0  503 -0.53652743536E+02  0.46845855712E+01 -0.14603625529E+03  0.23271473973E+03  0.17300000000E+03 0. -1.
<mgrwt>
<rscale>  2 0.18118930E+03</rscale>
<asrwt>0</asrwt>
<pdfrwt beam="1">  1       21 0.47353423E-01 0.18118930E+03</pdfrwt>
<pdfrwt beam="2">  1       21 0.33909270E-01 0.18118930E+03</pdfrwt>
<totfact> 0.35955477E+04</totfact>
</mgrwt>
</event>
<event>
 4    1  0.4531281E+000  0.1924178E+03  0.7546771E-02  0.1156299E+00
         21   -1    0    0  501  502  0.00000000000E+00  0.00000000000E+00  0.60106345737E+02  0.60106345737E+02  0.00000000000E+00 0. -1.
         21   -1    0    0  502  503 -0.00000000000E+00 -0.00000000000E+00 -0.62265353043E+03  0.62265353043E+03  0.00000000000E+00 0. -1.
          6    1    1    2  501    0 -0.68367964029E+02 -0.49207881061E+02 -0.24594412825E+03  0.31227088926E+03  0.17300000000E+03 0. -1.
         -6    1    1    2    0  503  0.68367964029E+02  0.49207881061E+02 -0.31660305645E+03  0.37048898690E+03  0.17300000000E+03 0. -1.
<mgrwt>
<rscale>  2 0.19241776E+03</rscale>
<asrwt>0</asrwt>
<pdfrwt beam="1">  1       21 0.92471301E-02 0.19241776E+03</pdfrwt>
<pdfrwt beam="2">  1       21 0.95792851E-01 0.19241776E+03</pdfrwt>
<totfact> 0.84633242E+04</totfact>
</mgrwt>
</event>
<event>
 4    1  0.4531281E+000  0.1912694E+03  0.7546771E-02  0.1157321E+00
         21   -1    0    0  501  502  0.00000000000E+00  0.00000000000E+00  0.19026018144E+03  0.19026018144E+03  0.00000000000E+00 0.  1.
         21   -1    0    0  502  503 -0.00000000000E+00 -0.00000000000E+00 -0.22001432780E+03  0.22001432780E+03  0.00000000000E+00 0.  1.
          6    1    1    2  501    0  0.80129185045E+02 -0.15306207548E+02  0.57950775710E+02  0.19985559459E+03  0.17300000000E+03 0.  1.
         -6    1    1    2    0  503 -0.80129185045E+02  0.15306207548E+02 -0.87704922069E+02  0.21041891465E+03  0.17300000000E+03 0.  1.
<mgrwt>
<rscale>  2 0.19126936E+03</rscale>
<asrwt>0</asrwt>
<pdfrwt beam="1">  1       21 0.29270797E-01 0.19126936E+03</pdfrwt>
<pdfrwt beam="2">  1       21 0.33848358E-01 0.19126936E+03</pdfrwt>
<totfact> 0.94053172E+04</totfact>
</mgrwt>
</event>
<event>
 4    1  0.4531281E+000  0.2070005E+03  0.7546771E-02  0.1143964E+00
         21   -1    0    0  501  502  0.00000000000E+00  0.00000000000E+00  0.21356227943E+03  0.21356227943E+03  0.00000000000E+00 0.  1.
         21   -1    0    0  502  503 -0.00000000000E+00 -0.00000000000E+00 -0.25269873074E+03  0.25269873074E+03  0.00000000000E+00 0.  1.
          6    1    1    2  501    0  0.61893940934E+02  0.95338128562E+02  0.86245679339E+02  0.22424882583E+03  0.17300000000E+03 0.  1.
         -6    1    1    2    0  503 -0.61893940934E+02 -0.95338128562E+02 -0.12538213065E+03  0.24201218434E+03  0.17300000000E+03 0.  1.
<mgrwt>
<rscale>  2 0.20700053E+03</rscale>
<asrwt>0</asrwt>
<pdfrwt beam="1">  1       21 0.32855735E-01 0.20700053E+03</pdfrwt>
<pdfrwt beam="2">  1       21 0.38876728E-01 0.20700053E+03</pdfrwt>
<totfact> 0.56505464E+04</totfact>
</mgrwt>
</event>
<event>
 4    1  0.4531281E+000  0.2177704E+03  0.7546771E-02  0.1135556E+00
         21   -1    0    0  503  502  0.00000000000E+00  0.00000000000E+00  0.19159858053E+02  0.19159858053E+02  0.00000000000E+00 0. -1.
         21   -1    0    0  501  503 -0.00000000000E+00 -0.00000000000E+00 -0.24826287682E+04  0.24826287682E+04  0.00000000000E+00 0. -1.
          6    1    1    2  501    0 -0.11137519529E+03 -0.71347920795E+02 -0.13002858202E+04  0.13183956819E+04  0.17300000000E+03 0. -1.
         -6    1    1    2    0  502  0.11137519529E+03  0.71347920795E+02 -0.11631830900E+04  0.11833929444E+04  0.17300000000E+03 0. -1.
<mgrwt>
<rscale>  2 0.21777043E+03</rscale>
<asrwt>0</asrwt>
<pdfrwt beam="1">  1       21 0.29476695E-02 0.21777043E+03</pdfrwt>
<pdfrwt beam="2">  1       21 0.38194301E+00 0.21777043E+03</pdfrwt>
<totfact> 0.71095259E+03</totfact>
</mgrwt>
</event>
<event>
 4    1  0.4531281E+000  0.2317545E+03  0.7546771E-02  0.1125411E+00
         21   -1    0    0  501  502  0.00000000000E+00  0.00000000000E+00  0.12734510420E+04  0.12734510420E+04  0.00000000000E+00 0. -1.
         21   -1    0    0  502  503 -0.00000000000E+00 -0.00000000000E+00 -0.44772557066E+02  0.44772557066E+02  0.00000000000E+00 0.  1.
          6    1    1    2  501    0  0.14019386603E+03  0.64240392970E+02  0.77304085261E+03  0.80703302781E+03  0.17300000000E+03 0.  1.
         -6    1    1    2    0  503 -0.14019386603E+03 -0.64240392970E+02  0.45563763235E+03  0.51119057129E+03  0.17300000000E+03 0.  1.
<mgrwt>
<rscale>  2 0.23175450E+03</rscale>
<asrwt>0</asrwt>
<pdfrwt beam="1">  1       21 0.19591552E+00 0.23175450E+03</pdfrwt>
<pdfrwt beam="2">  1       21 0.68880866E-02 0.23175450E+03</pdfrwt>
<totfact> 0.21589845E+04</totfact>
</mgrwt>
</event>
<event>
 4    1  0.4531281E+000  0.1780039E+03  0.7546771E-02  0.1169749E+00
         21   -1    0    0  503  502  0.00000000000E+00  0.00000000000E+00  0.79548773380E+02  0.79548773380E+02  0.00000000000E+00 0. -1.
         21   -1    0    0  501  503 -0.00000000000E+00 -0.00000000000E+00 -0.75078500737E+03  0.75078500737E+03  0.00000000000E+00 0. -1.
          6    1    1    2  501    0  0.35687702646E+02 -0.21972088089E+02 -0.62008168738E+03  0.64512532410E+03  0.17300000000E+03 0. -1.
         -6    1    1    2    0  502 -0.35687702646E+02  0.21972088089E+02 -0.51154546612E+02  0.18520845665E+03  0.17300000000E+03 0. -1.
<mgrwt>
<rscale>  2 0.17800389E+03</rscale>
<asrwt>0</asrwt>
<pdfrwt beam="1">  1       21 0.12238273E-01 0.17800389E+03</pdfrwt>
<pdfrwt beam="2">  1       21 0.11550538E+00 0.17800389E+03</pdfrwt>
<totfact> 0.33135195E+04</totfact>
</mgrwt>
</event>
<event>
 4    1  0.4531281E+000  0.2069852E+03  0.7546771E-02  0.1143976E+00
         21   -1    0    0  501  502  0.00000000000E+00  0.00000000000E+00  0.21593010859E+03  0.21593010859E+03  0.00000000000E+00 0. -1.
         21   -1    0    0  502  503 -0.00000000000E+00 -0.00000000000E+00 -0.22571029819E+03  0.22571029819E+03  0.00000000000E+00 0. -1.
          6    1    1    2  501    0  0.78020367459E+02 -0.82623789122E+02  0.71906214951E+02  0.21911953819E+03  0.17300000000E+03 0. -1.
         -6    1    1    2    0  503 -0.78020367459E+02  0.82623789122E+02 -0.81686404550E+02  0.22252086858E+03  0.17300000000E+03 0. -1.
<mgrwt>
<rscale>  2 0.20698519E+03</rscale>
<asrwt>0</asrwt>
<pdfrwt beam="1">  1       21 0.33220017E-01 0.20698519E+03</pdfrwt>
<pdfrwt beam="2">  1       21 0.34724661E-01 0.20698519E+03</pdfrwt>
<totfact> 0.69305189E+04</totfact>
</mgrwt>
</event>
<event>
 4    1  0.4531281E+000  0.1873781E+03  0.7546771E-02  0.1160848E+00
         21   -1    0    0  503  502  0.00000000000E+00  0.00000000000E+00  0.46421930275E+03  0.46421930275E+03  0.00000000000E+00 0.  1.
         21   -1    0    0  501  503 -0.00000000000E+00 -0.00000000000E+00 -0.15803215684E+03  0.15803215684E+03  0.00000000000E+00 0.  1.
          6    1    1    2  501    0  0.22842408392E+02 -0.68262690606E+02 -0.71565019833E+02  0.20057946708E+03  0.17300000000E+03 0.  1.
         -6    1    1    2    0  502 -0.22842408392E+02  0.68262690606E+02  0.37775216574E+03  0.42167199252E+03  0.17300000000E+03 0.  1.
<mgrwt>
<rscale>  2 0.18737815E+03</rscale>
<asrwt>0</asrwt>
<pdfrwt beam="1">  1       21 0.71418354E-01 0.18737815E+03</pdfrwt>
<pdfrwt beam="2">  1       21 0.24312640E-01 0.18737815E+03</pdfrwt>
<totfact> 0.28397195E+04</totfact>
</mgrwt>
</event>
<event>
 4    1  0.4531281E+000  0.2037156E+03  0.7546771E-02  0.1146641E+00
         21   -1    0    0  503  502  0.00000000000E+00  0.00000000000E+00  0.91425977305E+03  0.91425977305E+03  0.00000000000E+00 0.  1.
         21   -1    0    0  501  503 -0.00000000000E+00 -0.00000000000E+00 -0.52005030968E+02  0.52005030968E+02  0.00000000000E+00 0.  1.
          6    1    1    2  501    0  0.39771664319E+02 -0.99946257495E+02  0.25884327108E+03  0.32939319765E+03  0.17300000000E+03 0.  1.
         -6    1    1    2    0  502 -0.39771664319E+02  0.99946257495E+02  0.60341147100E+03  0.63687160637E+03  0.17300000000E+03 0.  1.
<mgrwt>
<rscale>  2 0.20371559E+03</rscale>
<asrwt>0</asrwt>
<pdfrwt beam="1">  1       21 0.14065534E+00 0.20371559E+03</pdfrwt>
<pdfrwt beam="2">  1       21 0.80007747E-02 0.20371559E+03</pdfrwt>
<totfact> 0.42148909E+04</totfact>
</mgrwt>
</event>
<event>
 4    1  0.4531281E+000  0.2485936E+03  0.7546771E-02  0.1114197E+00
         21   -1    0    0  501  502  0.00000000000E+00  0.00000000000E+00  0.10812376307E+03  0.10812376307E+03  0.00000000000E+00 0. -1.
         21   -1    0    0  502  503 -0.00000000000E+00 -0.00000000000E+00 -0.60309826943E+03  0.60309826943E+03  0.00000000000E+00 0. -1.
          6    1    1    2  501    0 -0.15821499060E+03  0.82690857131E+02 -0.16616129504E+03  0.29901226910E+03  0.17300000000E+03 0. -1.
         -6    1    1    2    0  503  0.15821499060E+03 -0.82690857131E+02 -0.32881321132E+03  0.41220976340E+03  0.17300000000E+03 0. -1.
<mgrwt>
<rscale>  2 0.24859357E+03</rscale>
<asrwt>0</asrwt>
<pdfrwt beam="1">  1       21 0.16634425E-01 0.24859357E+03</pdfrwt>
<pdfrwt beam="2">  1       21 0.92784348E-01 0.24859357E+03</pdfrwt>
<totfact> 0.30879258E+04</totfact>
</mgrwt>
</event>
<event>
 4    1  0.4531281E+000  0.1965361E+03  0.7546771E-02  0.1152695E+00
         21   -1    0    0  503  502  0.00000000000E+00  0.00000000000E+00  0.39888700964E+02  0.39888700964E+02  0.00000000000E+00 0.  1.
         21   -1    0    0  501  503 -0.00000000000E+00 -0.00000000000E+00 -0.14523206259E+04  0.14523206259E+04  0.00000000000E+00 0. -1.
          6    1    1    2  501    0 -0.46104730009E+02  0.81066570533E+02 -0.11369167100E+04  0.11537790259E+04  0.17300000000E+03 0. -1.
         -6    1    1    2    0  502  0.46104730009E+02 -0.81066570533E+02 -0.27551521491E+03  0.33843030100E+03  0.17300000000E+03 0.  1.
<mgrwt>
<rscale>  2 0.19653609E+03</rscale>
<asrwt>0</asrwt>
<pdfrwt beam="1">  1       21 0.61367240E-02 0.19653609E+03</pdfrwt>
<pdfrwt beam="2">  1       21 0.22343391E+00 0.19653609E+03</pdfrwt>
<totfact> 0.18125887E+04</totfact>
</mgrwt>
</event>
<event>
 4    1  0.4531281E+000  0.1829370E+03  0.7546771E-02  0.1164991E+00
         21   -1    0    0  501  502  0.00000000000E+00  0.00000000000E+00  0.15778013251E+03  0.15778013251E+03  0.00000000000E+00 0.  1.
         21   -1    0    0  502  503 -0.00000000000E+00 -0.00000000000E+00 -0.23121136535E+03  0.23121136535E+03  0.00000000000E+00 0.  1.
          6    1    1    2  501    0  0.24084857488E+02  0.54377047212E+02  0.19195141972E+02  0.18394128710E+03  0.17300000000E+03 0.  1.
         -6    1    1    2    0  503 -0.24084857488E+02 -0.54377047212E+02 -0.92626374816E+02  0.20505021077E+03  0.17300000000E+03 0.  1.
<mgrwt>
<rscale>  2 0.18293699E+03</rscale>
<asrwt>0</asrwt>
<pdfrwt beam="1">  1       21 0.24273867E-01 0.18293699E+03</pdfrwt>
<pdfrwt beam="2">  1       21 0.35570979E-01 0.18293699E+03</pdfrwt>
<totfact> 0.12250778E+05</totfact>
</mgrwt>
</event>
<event>
 4    1  0.4531281E+000  0.1851966E+03  0.7546771E-02  0.1162866E+00
         21   -1    0    0  503  502  0.00000000000E+00  0.00000000000E+00  0.28204860222E+03  0.28204860222E+03  0.00000000000E+00 0.  1.
         21   -1    0    0  501  503 -0.00000000000E+00 -0.00000000000E+00 -0.17062021115E+03  0.17062021115E+03  0.00000000000E+00 0.  1.
          6    1    1    2  501    0  0.19885161717E+02 -0.63034464027E+02 -0.65600292550E+02  0.19647178346E+03  0.17300000000E+03 0.  1.
         -6    1    1    2    0  502 -0.19885161717E+02  0.63034464027E+02  0.17702868362E+03  0.25619702991E+03  0.17300000000E+03 0.  1.
<mgrwt>
<rscale>  2 0.18519655E+03</rscale>
<asrwt>0</asrwt>
<pdfrwt beam="1">  1       21 0.43392093E-01 0.18519655E+03</pdfrwt>
<pdfrwt beam="2">  1       21 0.26249263E-01 0.18519655E+03</pdfrwt>
<totfact> 0.70660017E+04</totfact>
</mgrwt>
</event>
<event>
 4    1  0.4531281E+000  0.6470357E+03  0.7546771E-02  0.9812357E-01
         21   -1    0    0  501  502  0.00000000000E+00  0.00000000000E+00  0.88415520937E+03  0.88415520937E+03  0.00000000000E+00 0.  1.
         21   -1    0    0  502  503 -0.00000000000E+00 -0.00000000000E+00 -0.48153097819E+03  0.48153097819E+03  0.00000000000E+00 0. -1.
          6    1    1    2  501    0  0.57893718650E+03 -0.23142594000E+03  0.28944869673E+03  0.70882704495E+03  0.17300000000E+03 0. -1.
         -6    1    1    2    0  503 -0.57893718650E+03  0.23142594000E+03  0.11317553444E+03  0.65685914260E+03  0.17300000000E+03 0.  1.
<mgrwt>
<rscale>  2 0.64703573E+03</rscale>
<asrwt>0</asrwt>
<pdfrwt beam="1">  1       21 0.13602388E+00 0.64703573E+03</pdfrwt>
<pdfrwt beam="2">  1       21 0.74081689E-01 0.64703573E+03</pdfrwt>
<totfact> 0.48897668E+02</totfact>
</mgrwt>
</event>
<event>
 4    1  0.4531281E+000  0.2273948E+03  0.7546771E-02  0.1128487E+00
         21   -1    0    0  503  502  0.00000000000E+00  0.00000000000E+00  0.80844593571E+03  0.80844593571E+03  0.00000000000E+00 0. -1.
         21   -1    0    0  501  503 -0.00000000000E+00 -0.00000000000E+00 -0.82465739043E+02  0.82465739043E+02  0.00000000000E+00 0.  1.
          6    1    1    2  501    0  0.13250104887E+03 -0.64983617334E+02  0.15197271053E+03  0.27350338794E+03  0.17300000000E+03 0.  1.
         -6    1    1    2    0  502 -0.13250104887E+03  0.64983617334E+02  0.57400748614E+03  0.61740828680E+03  0.17300000000E+03 0. -1.
<mgrwt>
<rscale>  2 0.22739481E+03</rscale>
<asrwt>0</asrwt>
<pdfrwt beam="1">  1       21 0.12437629E+00 0.22739481E+03</pdfrwt>
<pdfrwt beam="2">  1       21 0.12687037E-01 0.22739481E+03</pdfrwt>
<totfact> 0.25133692E+04</totfact>
</mgrwt>
</event>
<event>
 4    1  0.4531281E+000  0.2076499E+03  0.7546771E-02  0.1143441E+00
         21   -1    0    0  501  502  0.00000000000E+00  0.00000000000E+00  0.16288943497E+04  0.16288943497E+04  0.00000000000E+00 0.  1.
         21   -1    0    0  502  503 -0.00000000000E+00 -0.00000000000E+00 -0.78187579045E+02  0.78187579045E+02  0.00000000000E+00 0.  1.
          6    1    1    2  501    0 -0.22189175128E+02 -0.11268145774E+03  0.14695306089E+04  0.14841289300E+04  0.17300000000E+03 0.  1.
         -6    1    1    2    0  503  0.22189175128E+02  0.11268145774E+03  0.81176161771E+02  0.22295299875E+03  0.17300000000E+03 0.  1.
<mgrwt>
<rscale>  2 0.20764987E+03</rscale>
<asrwt>0</asrwt>
<pdfrwt beam="1">  1       21 0.25059910E+00 0.20764987E+03</pdfrwt>
<pdfrwt beam="2">  1       21 0.12028860E-01 0.20764987E+03</pdfrwt>
<totfact> 0.37939485E+03</totfact>
</mgrwt>
</event>
<event>
 4    1  0.4531281E+000  0.1756838E+03  0.7546771E-02  0.1172047E+00
         21   -1    0    0  501  502  0.00000000000E+00  0.00000000000E+00  0.35443687530E+03  0.35443687530E+03  0.00000000000E+00 0.  1.
         21   -1    0    0  502  503 -0.00000000000E+00 -0.00000000000E+00 -0.37155677424E+03  0.37155677424E+03  0.00000000000E+00 0.  1.
          6    1    1    2  501    0  0.12703241250E+02  0.27828264865E+02  0.30906362854E+03  0.35550683700E+03  0.17300000000E+03 0.  1.
         -6    1    1    2    0  503 -0.12703241250E+02 -0.27828264865E+02 -0.32618352748E+03  0.37048681254E+03  0.17300000000E+03 0.  1.
<mgrwt>
<rscale>  2 0.17568376E+03</rscale>
<asrwt>0</asrwt>
<pdfrwt beam="1">  1       21 0.54528750E-01 0.17568376E+03</pdfrwt>
<pdfrwt beam="2">  1       21 0.57162580E-01 0.17568376E+03</pdfrwt>
<totfact> 0.92402248E+03</totfact>
</mgrwt>
</event>
<event>
 4    1  0.4531281E+000  0.3165890E+03  0.7546771E-02  0.1077230E+00
         21   -1    0    0  501  502  0.00000000000E+00  0.00000000000E+00  0.26056755037E+03  0.26056755037E+03  0.00000000000E+00 0. -1.
         21   -1    0    0  502  503 -0.00000000000E+00 -0.00000000000E+00 -0.42852081883E+03  0.42852081883E+03  0.00000000000E+00 0. -1.
          6    1    1    2  501    0 -0.21852753132E+02  0.26423857546E+03  0.26259229136E+02  0.31767611603E+03  0.17300000000E+03 0. -1.
         -6    1    1    2    0  503  0.21852753132E+02 -0.26423857546E+03 -0.19421249760E+03  0.37141225317E+03  0.17300000000E+03 0. -1.
<mgrwt>
<rscale>  2 0.31658896E+03</rscale>
<asrwt>0</asrwt>
<pdfrwt beam="1">  1       21 0.40087316E-01 0.31658896E+03</pdfrwt>
<pdfrwt beam="2">  1       21 0.65926280E-01 0.31658896E+03</pdfrwt>
<totfact> 0.11868776E+04</totfact>
</mgrwt>
</event>
<event>
 4    1  0.4531281E+000  0.2030196E+03  0.7546771E-02  0.1147216E+00
         21   -1    0    0  501  502  0.00000000000E+00  0.00000000000E+00  0.25741925215E+02  0.25741925215E+02  0.00000000000E+00 0. -1.
         21   -1    0    0  502  503 -0.00000000000E+00 -0.00000000000E+00 -0.21890691827E+04  0.21890691827E+04  0.00000000000E+00 0. -1.
          6    1    1    2  501    0  0.95904667242E+02  0.45719162964E+02 -0.50776922704E+03  0.54685147434E+03  0.17300000000E+03 0. -1.
         -6    1    1    2    0  503 -0.95904667242E+02 -0.45719162964E+02 -0.16555580305E+04  0.16679596336E+04  0.17300000000E+03 0. -1.
<mgrwt>
<rscale>  2 0.20301957E+03</rscale>
<asrwt>0</asrwt>
<pdfrwt beam="1">  1       21 0.39602952E-02 0.20301957E+03</pdfrwt>
<pdfrwt beam="2">  1       21 0.33677996E+00 0.20301957E+03</pdfrwt>
<totfact> 0.82319542E+03</totfact>
</mgrwt>
</event>
<event>
 4    1  0.4531281E+000  0.2674808E+03  0.7546771E-02  0.1102730E+00
         21   -1    0    0  501  502  0.00000000000E+00  0.00000000000E+00  0.89641774213E+03  0.89641774213E+03  0.00000000000E+00 0. -1.
         21   -1    0    0  502  503 -0.00000000000E+00 -0.00000000000E+00 -0.80878557037E+02  0.80878557037E+02  0.00000000000E+00 0. -1.
          6    1    1    2  501    0  0.12546369441E+03  0.16085964920E+03  0.35168702686E+03  0.44184808500E+03  0.17300000000E+03 0. -1.
         -6    1    1    2    0  503 -0.12546369441E+03 -0.16085964920E+03  0.46385215823E+03  0.53544821417E+03  0.17300000000E+03 0. -1.
<mgrwt>
<rscale>  2 0.26748078E+03</rscale>
<asrwt>0</asrwt>
<pdfrwt beam="1">  1       21 0.13791041E+00 0.26748078E+03</pdfrwt>
<pdfrwt beam="2">  1       21 0.12442856E-01 0.26748078E+03</pdfrwt>
<totfact> 0.19591215E+04</totfact>
</mgrwt>
</event>
<event>
 4    1  0.4531281E+000  0.2295327E+03  0.7546771E-02  0.1126969E+00
         21   -1    0    0  501  502  0.00000000000E+00  0.00000000000E+00  0.83953251696E+02  0.83953251696E+02  0.00000000000E+00 0.  1.
         21   -1    0    0  502  503 -0.00000000000E+00 -0.00000000000E+00 -0.75836465891E+03  0.75836465891E+03  0.00000000000E+00 0.  1.
          6    1    1    2  501    0 -0.58708368585E+01  0.15073743057E+03 -0.51212098655E+03  0.56120686432E+03  0.17300000000E+03 0.  1.
         -6    1    1    2    0  503  0.58708368585E+01 -0.15073743057E+03 -0.16229042067E+03  0.28111104628E+03  0.17300000000E+03 0.  1.
<mgrwt>
<rscale>  2 0.22953265E+03</rscale>
<asrwt>0</asrwt>
<pdfrwt beam="1">  1       21 0.12915885E-01 0.22953265E+03</pdfrwt>
<pdfrwt beam="2">  1       21 0.11667149E+00 0.22953265E+03</pdfrwt>
<totfact> 0.28506977E+04</totfact>
</mgrwt>
</event>
<event>
 4    1  0.4531281E+000  0.1800486E+03  0.7546771E-02  0.1167756E+00
         21   -1    0    0  501  502  0.00000000000E+00  0.00000000000E+00  0.11204306021E+04  0.11204306021E+04  0.00000000000E+00 0.  1.
         21   -1    0    0  502  503 -0.00000000000E+00 -0.00000000000E+00 -0.28933141353E+02  0.28933141353E+02  0.00000000000E+00 0.  1.
          6    1    1    2  501    0  0.71004718322E+01 -0.49376895992E+02  0.54666512349E+03  0.57555212778E+03  0.17300000000E+03 0. -1.
         -6    1    1    2    0  503 -0.71004718322E+01  0.49376895992E+02  0.54483233731E+03  0.57381161572E+03  0.17300000000E+03 0. -1.
<mgrwt>
<rscale>  2 0.18004859E+03</rscale>
<asrwt>0</asrwt>
<pdfrwt beam="1">  1       21 0.17237391E+00 0.18004859E+03</pdfrwt>
<pdfrwt beam="2">  1       21 0.44512534E-02 0.18004859E+03</pdfrwt>
<totfact> 0.67720703E+04</totfact>
</mgrwt>
</event>
<event>
 4    1  0.4531281E+000  0.2135672E+03  0.7546771E-02  0.1138772E+00
         21   -1    0    0  501  502  0.00000000000E+00  0.00000000000E+00  0.17859061745E+03  0.17859061745E+03  0.00000000000E+00 0. -1.
         21   -1    0    0  502  503 -0.00000000000E+00 -0.00000000000E+00 -0.26313145648E+03  0.26313145648E+03  0.00000000000E+00 0. -1.
          6    1    1    2  501    0  0.12521361491E+03  0.18699652465E+01 -0.43968776709E+01  0.21361244969E+03  0.17300000000E+03 0. -1.
         -6    1    1    2    0  503 -0.12521361491E+03 -0.18699652465E+01 -0.80143961356E+02  0.22810962424E+03  0.17300000000E+03 0. -1.
<mgrwt>
<rscale>  2 0.21356719E+03</rscale>
<asrwt>0</asrwt>
<pdfrwt beam="1">  1       21 0.27475480E-01 0.21356719E+03</pdfrwt>
<pdfrwt beam="2">  1       21 0.40481762E-01 0.21356719E+03</pdfrwt>
<totfact> 0.73627317E+04</totfact>
</mgrwt>
</event>
<event>
 4    1  0.4531281E+000  0.1862081E+03  0.7546771E-02  0.1161926E+00
         21   -1    0    0  501  502  0.00000000000E+00  0.00000000000E+00  0.64929818518E+03  0.64929818518E+03  0.00000000000E+00 0.  1.
         21   -1    0    0  502  503 -0.00000000000E+00 -0.00000000000E+00 -0.33156879018E+03  0.33156879018E+03  0.00000000000E+00 0.  1.
          6    1    1    2  501    0 -0.54243558856E+02 -0.42451245929E+02  0.60807153137E+03  0.63594375476E+03  0.17300000000E+03 0.  1.
         -6    1    1    2    0  503  0.54243558856E+02  0.42451245929E+02 -0.29034213636E+03  0.34492322060E+03  0.17300000000E+03 0.  1.
<mgrwt>
<rscale>  2 0.18620814E+03</rscale>
<asrwt>0</asrwt>
<pdfrwt beam="1">  1       21 0.99892028E-01 0.18620814E+03</pdfrwt>
<pdfrwt beam="2">  1       21 0.51010583E-01 0.18620814E+03</pdfrwt>
<totfact> 0.30247596E+03</totfact>
</mgrwt>
</event>
<event>
 4    1  0.4531281E+000  0.1735855E+03  0.7546771E-02  0.1174159E+00
         21   -1    0    0  503  502  0.00000000000E+00  0.00000000000E+00  0.32376706682E+03  0.32376706682E+03  0.00000000000E+00 0. -1.
         21   -1    0    0  501  503 -0.00000000000E+00 -0.00000000000E+00 -0.16434293941E+03  0.16434293941E+03  0.00000000000E+00 0. -1.
          6    1    1    2  501    0 -0.11970608007E+02  0.77224358424E+01 -0.81013363332E+02  0.19155964217E+03  0.17300000000E+03 0. -1.
         -6    1    1    2    0  502  0.11970608007E+02 -0.77224358424E+01  0.24043749074E+03  0.29655036406E+03  0.17300000000E+03 0. -1.
<mgrwt>
<rscale>  2 0.17358552E+03</rscale>
<asrwt>0</asrwt>
<pdfrwt beam="1">  1       21 0.49810318E-01 0.17358552E+03</pdfrwt>
<pdfrwt beam="2">  1       21 0.25283529E-01 0.17358552E+03</pdfrwt>
<totfact> 0.57435342E+04</totfact>
</mgrwt>
</event>
<event>
 4    1  0.4531281E+000  0.1941370E+03  0.7546771E-02  0.1154782E+00
         21   -1    0    0  503  502  0.00000000000E+00  0.00000000000E+00  0.10269292350E+03  0.10269292350E+03  0.00000000000E+00 0. -1.
         21   -1    0    0  501  503 -0.00000000000E+00 -0.00000000000E+00 -0.36712364161E+03  0.36712364161E+03  0.00000000000E+00 0. -1.
          6    1    1    2  501    0 -0.48296803350E+02 -0.73672228741E+02 -0.13637502993E+03  0.23724950430E+03  0.17300000000E+03 0. -1.
         -6    1    1    2    0  502  0.48296803350E+02  0.73672228741E+02 -0.12805568818E+03  0.23256706082E+03  0.17300000000E+03 0. -1.
<mgrwt>
<rscale>  2 0.19413701E+03</rscale>
<asrwt>0</asrwt>
<pdfrwt beam="1">  1       21 0.15798911E-01 0.19413701E+03</pdfrwt>
<pdfrwt beam="2">  1       21 0.56480560E-01 0.19413701E+03</pdfrwt>
<totfact> 0.10515487E+05</totfact>
</mgrwt>
</event>
<event>
 4    1  0.4531281E+000  0.2031630E+03  0.7546771E-02  0.1147097E+00
         21   -1    0    0  503  502  0.00000000000E+00  0.00000000000E+00  0.22293352390E+03  0.22293352390E+03  0.00000000000E+00 0.  1.
         21   -1    0    0  501  503 -0.00000000000E+00 -0.00000000000E+00 -0.46574836955E+03  0.46574836955E+03  0.00000000000E+00 0.  1.
          6    1    1    2  501    0  0.60941709163E+02 -0.87363142896E+02 -0.38868270822E+03  0.43857662765E+03  0.17300000000E+03 0.  1.
         -6    1    1    2    0  502 -0.60941709163E+02  0.87363142896E+02  0.14586786257E+03  0.25010526581E+03  0.17300000000E+03 0.  1.
<mgrwt>
<rscale>  2 0.20316301E+03</rscale>
<asrwt>0</asrwt>
<pdfrwt beam="1">  1       21 0.34297465E-01 0.20316301E+03</pdfrwt>
<pdfrwt beam="2">  1       21 0.71653595E-01 0.20316301E+03</pdfrwt>
<totfact> 0.14318477E+04</totfact>
</mgrwt>
</event>
<event>
 4    1  0.4531281E+000  0.1782798E+03  0.7546771E-02  0.1169478E+00
         21   -1    0    0  503  502  0.00000000000E+00  0.00000000000E+00  0.13259129546E+03  0.13259129546E+03  0.00000000000E+00 0. -1.
         21   -1    0    0  501  503 -0.00000000000E+00 -0.00000000000E+00 -0.63162595504E+03  0.63162595504E+03  0.00000000000E+00 0. -1.
          6    1    1    2  501    0  0.28740407987E+02 -0.32073130316E+02 -0.55050751728E+03  0.57865553080E+03  0.17300000000E+03 0. -1.
         -6    1    1    2    0  502 -0.28740407987E+02  0.32073130316E+02  0.51472857701E+02  0.18556171970E+03  0.17300000000E+03 0. -1.
<mgrwt>
<rscale>  2 0.17827983E+03</rscale>
<asrwt>0</asrwt>
<pdfrwt beam="1">  1       21 0.20398661E-01 0.17827983E+03</pdfrwt>
<pdfrwt beam="2">  1       21 0.97173224E-01 0.17827983E+03</pdfrwt>
<totfact> 0.19718119E+04</totfact>
</mgrwt>
</event>
<event>
 4    1  0.4531281E+000  0.1862278E+03  0.7546771E-02  0.1161908E+00
         21   -1    0    0  503  502  0.00000000000E+00  0.00000000000E+00  0.34005993049E+02  0.34005993049E+02  0.00000000000E+00 0.  1.
         21   -1    0    0  501  503 -0.00000000000E+00 -0.00000000000E+00 -0.22727607785E+04  0.22727607785E+04  0.00000000000E+00 0.  1.
          6    1    1    2  501    0  0.65748773571E+02  0.20709470129E+02 -0.19757407303E+04  0.19844979760E+04  0.17300000000E+03 0.  1.
         -6    1    1    2    0  502 -0.65748773571E+02 -0.20709470129E+02 -0.26301405516E+03  0.32226879556E+03  0.17300000000E+03 0.  1.
<mgrwt>
<rscale>  2 0.18622777E+03</rscale>
<asrwt>0</asrwt>
<pdfrwt beam="1">  1       21 0.52316894E-02 0.18622777E+03</pdfrwt>
<pdfrwt beam="2">  1       21 0.34965563E+00 0.18622777E+03</pdfrwt>
<totfact> 0.44132875E+03</totfact>
</mgrwt>
</event>
<event>
 4    1  0.4531281E+000  0.2071694E+03  0.7546771E-02  0.1143827E+00
         21   -1    0    0  501  502  0.00000000000E+00  0.00000000000E+00  0.13046552342E+03  0.13046552342E+03  0.00000000000E+00 0. -1.
         21   -1    0    0  502  503 -0.00000000000E+00 -0.00000000000E+00 -0.75663049073E+03  0.75663049073E+03  0.00000000000E+00 0. -1.
          6    1    1    2  501    0  0.89344700653E+02 -0.70764949865E+02  0.20381263890E+02  0.20816952126E+03  0.17300000000E+03 0. -1.
         -6    1    1    2    0  503 -0.89344700653E+02  0.70764949865E+02 -0.64654623120E+03  0.67892649289E+03  0.17300000000E+03 0. -1.
<mgrwt>
<rscale>  2 0.20716938E+03</rscale>
<asrwt>0</asrwt>
<pdfrwt beam="1">  1       21 0.20071618E-01 0.20716938E+03</pdfrwt>
<pdfrwt beam="2">  1       21 0.11640469E+00 0.20716938E+03</pdfrwt>
<totfact> 0.12921488E+04</totfact>
</mgrwt>
</event>
<event>
 4    1  0.4531281E+000  0.2477248E+03  0.7546771E-02  0.1114751E+00
         21   -1    0    0  503  502  0.00000000000E+00  0.00000000000E+00  0.20058896674E+03  0.20058896674E+03  0.00000000000E+00 0. -1.
         21   -1    0    0  501  503 -0.00000000000E+00 -0.00000000000E+00 -0.75701701822E+03  0.75701701822E+03  0.00000000000E+00 0. -1.
          6    1    1    2  501    0  0.12062052192E+03 -0.12995871837E+03 -0.64781307749E+03  0.69356280332E+03  0.17300000000E+03 0. -1.
         -6    1    1    2    0  502 -0.12062052192E+03  0.12995871837E+03  0.91385026013E+02  0.26404318163E+03  0.17300000000E+03 0. -1.
<mgrwt>
<rscale>  2 0.24772480E+03</rscale>
<asrwt>0</asrwt>
<pdfrwt beam="1">  1       21 0.30859841E-01 0.24772480E+03</pdfrwt>
<pdfrwt beam="2">  1       21 0.11646416E+00 0.24772480E+03</pdfrwt>
<totfact> 0.55101674E+03</totfact>
</mgrwt>
</event>
<event>
 4    1  0.4531281E+000  0.1860224E+03  0.7546771E-02  0.1162099E+00
         21   -1    0    0  501  502  0.00000000000E+00  0.00000000000E+00  0.76133078452E+03  0.76133078452E+03  0.00000000000E+00 0.  1.
         21   -1    0    0  502  503 -0.00000000000E+00 -0.00000000000E+00 -0.17130626445E+03  0.17130626445E+03  0.00000000000E+00 0.  1.
          6    1    1    2  501    0  0.34524493026E+02 -0.59020329998E+02  0.69470775987E+03  0.71918232153E+03  0.17300000000E+03 0.  1.
         -6    1    1    2    0  503 -0.34524493026E+02  0.59020329998E+02 -0.10468323980E+03  0.21345472744E+03  0.17300000000E+03 0.  1.
<mgrwt>
<rscale>  2 0.18602242E+03</rscale>
<asrwt>0</asrwt>
<pdfrwt beam="1">  1       21 0.11712781E+00 0.18602242E+03</pdfrwt>
<pdfrwt beam="2">  1       21 0.26354810E-01 0.18602242E+03</pdfrwt>
<totfact> 0.77136276E+03</totfact>
</mgrwt>
</event>
<event>
 4    1  0.4531281E+000  0.2496904E+03  0.7546771E-02  0.1113501E+00
         21   -1    0    0  501  502  0.00000000000E+00  0.00000000000E+00  0.41495082091E+03  0.41495082091E+03  0.00000000000E+00 0. -1.
         21   -1    0    0  502  503 -0.00000000000E+00 -0.00000000000E+00 -0.24634504227E+03  0.24634504227E+03  0.00000000000E+00 0.  1.
          6    1    1    2  501    0  0.68824389738E+02 -0.16637160442E+03  0.29081718710E+03  0.38330137450E+03  0.17300000000E+03 0. -1.
         -6    1    1    2    0  503 -0.68824389738E+02  0.16637160442E+03 -0.12221140847E+03  0.27799448868E+03  0.17300000000E+03 0.  1.
<mgrwt>
<rscale>  2 0.24969042E+03</rscale>
<asrwt>0</asrwt>
<pdfrwt beam="1">  1       21 0.63838588E-01 0.24969042E+03</pdfrwt>
<pdfrwt beam="2">  1       21 0.37899237E-01 0.24969042E+03</pdfrwt>
<totfact> 0.14722373E+04</totfact>
</mgrwt>
</event>
<event>
 4    1  0.4531281E+000  0.2328066E+03  0.7546771E-02  0.1124680E+00
         21   -1    0    0  503  502  0.00000000000E+00  0.00000000000E+00  0.58649767222E+02  0.58649767222E+02  0.00000000000E+00 0.  1.
         21   -1    0    0  501  503 -0.00000000000E+00 -0.00000000000E+00 -0.10249718442E+04  0.10249718442E+04  0.00000000000E+00 0. -1.
          6    1    1    2  501    0  0.12865651520E+03  0.87848835356E+02 -0.65312318052E+03  0.69337493877E+03  0.17300000000E+03 0. -1.
         -6    1    1    2    0  502 -0.12865651520E+03 -0.87848835356E+02 -0.31319889646E+03  0.39024667266E+03  0.17300000000E+03 0.  1.
<mgrwt>
<rscale>  2 0.23280661E+03</rscale>
<asrwt>0</asrwt>
<pdfrwt beam="1">  1       21 0.90230411E-02 0.23280661E+03</pdfrwt>
<pdfrwt beam="2">  1       21 0.15768798E+00 0.23280661E+03</pdfrwt>
<totfact> 0.24824047E+04</totfact>
</mgrwt>
</event>
<event>
 4    1  0.4531281E+000  0.1846323E+03  0.7546771E-02  0.1163394E+00
         21   -1    0    0  501  502  0.00000000000E+00  0.00000000000E+00  0.14155506156E+03  0.14155506156E+03  0.00000000000E+00 0.  1.
         21   -1    0    0  502  503 -0.00000000000E+00 -0.00000000000E+00 -0.36208944183E+03  0.36208944183E+03  0.00000000000E+00 0.  1.
          6    1    1    2  501    0 -0.26816133208E+02  0.58659878751E+02  0.35468001488E+02  0.18800815276E+03  0.17300000000E+03 0.  1.
         -6    1    1    2    0  503  0.26816133208E+02 -0.58659878751E+02 -0.25600238175E+03  0.31563635063E+03  0.17300000000E+03 0.  1.
<mgrwt>
<rscale>  2 0.18463230E+03</rscale>
<asrwt>0</asrwt>
<pdfrwt beam="1">  1       21 0.21777702E-01 0.18463230E+03</pdfrwt>
<pdfrwt beam="2">  1       21 0.55706068E-01 0.18463230E+03</pdfrwt>
<totfact> 0.59951399E+04</totfact>
</mgrwt>
</event>
<event>
 4    1  0.4531281E+000  0.1744032E+03  0.7546771E-02  0.1173332E+00
         21   -1    0    0  503  502  0.00000000000E+00  0.00000000000E+00  0.27226110966E+02  0.27226110966E+02  0.00000000000E+00 0.  1.
         21   -1    0    0  501  503 -0.00000000000E+00 -0.00000000000E+00 -0.11863570754E+04  0.11863570754E+04  0.00000000000E+00 0.  1.
          6    1    1    2  501    0  0.84280741820E+01 -0.20407233258E+02 -0.72609007586E+03  0.74674177991E+03  0.17300000000E+03 0.  1.
         -6    1    1    2    0  502 -0.84280741820E+01  0.20407233258E+02 -0.43304088857E+03  0.46684140646E+03  0.17300000000E+03 0.  1.
<mgrwt>
<rscale>  2 0.17440323E+03</rscale>
<asrwt>0</asrwt>
<pdfrwt beam="1">  1       21 0.41886327E-02 0.17440323E+03</pdfrwt>
<pdfrwt beam="2">  1       21 0.18251646E+00 0.17440323E+03</pdfrwt>
<totfact> 0.64151103E+04</totfact>
</mgrwt>
</event>
<event>
 4    1  0.4531281E+000  0.1812207E+03  0.7546771E-02  0.1166627E+00
         21   -1    0    0  501  502  0.00000000000E+00  0.00000000000E+00  0.85536407709E+03  0.85536407709E+03  0.00000000000E+00 0. -1.
         21   -1    0    0  502  503 -0.00000000000E+00 -0.00000000000E+00 -0.47068557182E+02  0.47068557182E+02  0.00000000000E+00 0. -1.
          6    1    1    2  501    0 -0.50445919411E+02  0.19160807722E+02  0.59785270139E+03  0.62471495892E+03  0.17300000000E+03 0. -1.
         -6    1    1    2    0  503  0.50445919411E+02 -0.19160807722E+02  0.21044281852E+03  0.27771767535E+03  0.17300000000E+03 0. -1.
<mgrwt>
<rscale>  2 0.18122066E+03</rscale>
<asrwt>0</asrwt>
<pdfrwt beam="1">  1       21 0.13159446E+00 0.18122066E+03</pdfrwt>
<pdfrwt beam="2">  1       21 0.72413171E-02 0.18122066E+03</pdfrwt>
<totfact> 0.60143617E+04</totfact>
</mgrwt>
</event>
<event>
 4    1  0.4531281E+000  0.2202004E+03  0.7546771E-02  0.1133734E+00
         21   -1    0    0  503  502  0.00000000000E+00  0.00000000000E+00  0.10055575998E+03  0.10055575998E+03  0.00000000000E+00 0.  1.
         21   -1    0    0  501  503 -0.00000000000E+00 -0.00000000000E+00 -0.48271259389E+03  0.48271259389E+03  0.00000000000E+00 0.  1.
          6    1    1    2  501    0  0.12695040118E+03 -0.49424688100E+02 -0.20056185957E+03  0.29784771892E+03  0.17300000000E+03 0. -1.
         -6    1    1    2    0  502 -0.12695040118E+03  0.49424688100E+02 -0.18159497433E+03  0.28542063495E+03  0.17300000000E+03 0. -1.
<mgrwt>
<rscale>  2 0.22020037E+03</rscale>
<asrwt>0</asrwt>
<pdfrwt beam="1">  1       21 0.15470117E-01 0.22020037E+03</pdfrwt>
<pdfrwt beam="2">  1       21 0.74263475E-01 0.22020037E+03</pdfrwt>
<totfact> 0.59507004E+04</totfact>
</mgrwt>
</event>
<event>
 4    1  0.4531281E+000  0.2515896E+03  0.7546771E-02  0.1112304E+00
         21   -1    0    0  503  502  0.00000000000E+00  0.00000000000E+00  0.14741575999E+03  0.14741575999E+03  0.00000000000E+00 0.  1.
         21   -1    0    0  501  503 -0.00000000000E+00 -0.00000000000E+00 -0.44650957340E+03  0.44650957340E+03  0.00000000000E+00 0. -1.
          6    1    1    2  501    0 -0.16585971493E+03  0.76543330117E+02 -0.20771224580E+03  0.32625404745E+03  0.17300000000E+03 0. -1.
         -6    1    1    2    0  502  0.16585971493E+03 -0.76543330117E+02 -0.91381567607E+02  0.26767128594E+03  0.17300000000E+03 0. -1.
<mgrwt>
<rscale>  2 0.25158960E+03</rscale>
<asrwt>0</asrwt>
<pdfrwt beam="1">  1       21 0.22679348E-01 0.25158960E+03</pdfrwt>
<pdfrwt beam="2">  1       21 0.68693779E-01 0.25158960E+03</pdfrwt>
<totfact> 0.34200873E+04</totfact>
</mgrwt>
</event>
<event>
 4    1  0.4531281E+000  0.2076814E+03  0.7546771E-02  0.1143415E+00
         21   -1    0    0  501  502  0.00000000000E+00  0.00000000000E+00  0.39986631512E+03  0.39986631512E+03  0.00000000000E+00 0. -1.
         21   -1    0    0  502  503 -0.00000000000E+00 -0.00000000000E+00 -0.19995066328E+03  0.19995066328E+03  0.00000000000E+00 0. -1.
          6    1    1    2  501    0  0.49703551796E+02 -0.10359602006E+03  0.30348544612E+03  0.36774310930E+03  0.17300000000E+03 0. -1.
         -6    1    1    2    0  503 -0.49703551796E+02  0.10359602006E+03 -0.10356979428E+03  0.23207386910E+03  0.17300000000E+03 0. -1.
<mgrwt>
<rscale>  2 0.20768143E+03</rscale>
<asrwt>0</asrwt>
<pdfrwt beam="1">  1       21 0.61517894E-01 0.20768143E+03</pdfrwt>
<pdfrwt beam="2">  1       21 0.30761641E-01 0.20768143E+03</pdfrwt>
<totfact> 0.24703840E+04</totfact>
</mgrwt>
</event>
<event>
 4    1  0.4531281E+000  0.1889004E+03  0.7546771E-02  0.1159457E+00
         21   -1    0    0  501  502  0.00000000000E+00  0.00000000000E+00  0.58260463692E+03  0.58260463692E+03  0.00000000000E+00 0. -1.
         21   -1    0    0  502  503 -0.00000000000E+00 -0.00000000000E+00 -0.90815241983E+02  0.90815241983E+02  0.00000000000E+00 0. -1.
          6    1    1    2  501    0  0.23447278002E+02  0.72142931515E+02  0.43801880526E+03  0.47701556702E+03  0.17300000000E+03 0. -1.
         -6    1    1    2    0  503 -0.23447278002E+02 -0.72142931515E+02  0.53770589673E+02  0.19640431189E+03  0.17300000000E+03 0. -1.
<mgrwt>
<rscale>  2 0.18890044E+03</rscale>
<asrwt>0</asrwt>
<pdfrwt beam="1">  1       21 0.89631480E-01 0.18890044E+03</pdfrwt>
<pdfrwt beam="2">  1       21 0.13971576E-01 0.18890044E+03</pdfrwt>
<totfact> 0.47421175E+04</totfact>
</mgrwt>
</event>
<event>
 4    1  0.4531281E+000  0.2209204E+03  0.7546771E-02  0.1133199E+00
         21   -1    0    0  501  502  0.00000000000E+00  0.00000000000E+00  0.20545471049E+04  0.20545471049E+04  0.00000000000E+00 0. -1.
         21   -1    0    0  502  503 -0.00000000000E+00 -0.00000000000E+00 -0.51810507645E+02  0.51810507645E+02  0.00000000000E+00 0. -1.
          6    1    1    2  501    0  0.58813690786E+02 -0.12416827720E+03  0.17763689795E+04  0.17900537876E+04  0.17300000000E+03 0. -1.
         -6    1    1    2    0  503 -0.58813690786E+02  0.12416827720E+03  0.22636761775E+03  0.31630382491E+03  0.17300000000E+03 0. -1.
<mgrwt>
<rscale>  2 0.22092037E+03</rscale>
<asrwt>0</asrwt>
<pdfrwt beam="1">  1       21 0.31608411E+00 0.22092037E+03</pdfrwt>
<pdfrwt beam="2">  1       21 0.79708489E-02 0.22092037E+03</pdfrwt>
<totfact> 0.32210626E+03</totfact>
</mgrwt>
</event>
<event>
 4    1  0.4531281E+000  0.1923399E+03  0.7546771E-02  0.1156368E+00
         21   -1    0    0  503  502  0.00000000000E+00  0.00000000000E+00  0.51026020476E+03  0.51026020476E+03  0.00000000000E+00 0.  1.
         21   -1    0    0  501  503 -0.00000000000E+00 -0.00000000000E+00 -0.89759684203E+02  0.89759684203E+02  0.00000000000E+00 0.  1.
          6    1    1    2  501    0  0.18620676116E+02 -0.81969014342E+02  0.78699887643E+02  0.20781800020E+03  0.17300000000E+03 0.  1.
         -6    1    1    2    0  502 -0.18620676116E+02  0.81969014342E+02  0.34180063292E+03  0.39220188877E+03  0.17300000000E+03 0.  1.
<mgrwt>
<rscale>  2 0.19233993E+03</rscale>
<asrwt>0</asrwt>
<pdfrwt beam="1">  1       21 0.78501569E-01 0.19233993E+03</pdfrwt>
<pdfrwt beam="2">  1       21 0.13809182E-01 0.19233993E+03</pdfrwt>
<totfact> 0.65436865E+04</totfact>
</mgrwt>
</event>
<event>
 4    1  0.4531281E+000  0.3549409E+03  0.7546771E-02  0.1060605E+00
         21   -1    0    0  501  502  0.00000000000E+00  0.00000000000E+00  0.16604815945E+03  0.16604815945E+03  0.00000000000E+00 0.  1.
         21   -1    0    0  502  503 -0.00000000000E+00 -0.00000000000E+00 -0.11700048303E+04  0.11700048303E+04  0.00000000000E+00 0. -1.
          6    1    1    2  501    0  0.23078560180E+03  0.20686235533E+03 -0.10590602147E+03  0.37040398679E+03  0.17300000000E+03 0.  1.
         -6    1    1    2    0  503 -0.23078560180E+03 -0.20686235533E+03 -0.89805064938E+03  0.96564900295E+03  0.17300000000E+03 0. -1.
<mgrwt>
<rscale>  2 0.35494088E+03</rscale>
<asrwt>0</asrwt>
<pdfrwt beam="1">  1       21 0.25545870E-01 0.35494088E+03</pdfrwt>
<pdfrwt beam="2">  1       21 0.18000075E+00 0.35494088E+03</pdfrwt>
<totfact> 0.23547179E+03</totfact>
</mgrwt>
</event>
<event>
 4    1  0.4531281E+000  0.1833112E+03  0.7546771E-02  0.1164636E+00
         21   -1    0    0  503  502  0.00000000000E+00  0.00000000000E+00  0.95658828360E+02  0.95658828360E+02  0.00000000000E+00 0.  1.
         21   -1    0    0  501  503 -0.00000000000E+00 -0.00000000000E+00 -0.42131372176E+03  0.42131372176E+03  0.00000000000E+00 0.  1.
          6    1    1    2  501    0 -0.60553455855E+02 -0.26966989312E+01 -0.26821506426E+03  0.32487276571E+03  0.17300000000E+03 0.  1.
         -6    1    1    2    0  502  0.60553455855E+02  0.26966989312E+01 -0.57439829140E+02  0.19209978442E+03  0.17300000000E+03 0.  1.
<mgrwt>
<rscale>  2 0.18331119E+03</rscale>
<asrwt>0</asrwt>
<pdfrwt beam="1">  1       21 0.14716743E-01 0.18331119E+03</pdfrwt>
<pdfrwt beam="2">  1       21 0.64817494E-01 0.18331119E+03</pdfrwt>
<totfact> 0.89390524E+04</totfact>
</mgrwt>
</event>
<event>
 4    1  0.4531281E+000  0.1789045E+03  0.7546771E-02  0.1168867E+00
         21   -1    0    0  503  502  0.00000000000E+00  0.00000000000E+00  0.20860665089E+03  0.20860665089E+03  0.00000000000E+00 0. -1.
         21   -1    0    0  501  503 -0.00000000000E+00 -0.00000000000E+00 -0.26184649457E+03  0.26184649457E+03  0.00000000000E+00 0. -1.
          6    1    1    2  501    0 -0.40145881268E+02  0.21590024745E+02 -0.17797875633E+03  0.25235542130E+03  0.17300000000E+03 0. -1.
         -6    1    1    2    0  502  0.40145881268E+02 -0.21590024745E+02  0.12473891266E+03  0.21809772416E+03  0.17300000000E+03 0. -1.
<mgrwt>
<rscale>  2 0.17890450E+03</rscale>
<asrwt>0</asrwt>
<pdfrwt beam="1">  1       21 0.32093331E-01 0.17890450E+03</pdfrwt>
<pdfrwt beam="2">  1       21 0.40284076E-01 0.17890450E+03</pdfrwt>
<totfact> 0.55801433E+04</totfact>
</mgrwt>
</event>
<event>
 4    1  0.4531281E+000  0.2654871E+03  0.7546771E-02  0.1103891E+00
         21   -1    0    0  501  502  0.00000000000E+00  0.00000000000E+00  0.34441654623E+03  0.34441654623E+03  0.00000000000E+00 0.  1.
         21   -1    0    0  502  503 -0.00000000000E+00 -0.00000000000E+00 -0.27271433543E+03  0.27271433543E+03  0.00000000000E+00 0. -1.
          6    1    1    2  501    0  0.73767201015E+02  0.18738408325E+03  0.19000927667E+03  0.32647652262E+03  0.17300000000E+03 0.  1.
         -6    1    1    2    0  503 -0.73767201015E+02 -0.18738408325E+03 -0.11830706586E+03  0.29065435905E+03  0.17300000000E+03 0. -1.
<mgrwt>
<rscale>  2 0.26548709E+03</rscale>
<asrwt>0</asrwt>
<pdfrwt beam="1">  1       21 0.52987161E-01 0.26548709E+03</pdfrwt>
<pdfrwt beam="2">  1       21 0.41956051E-01 0.26548709E+03</pdfrwt>
<totfact> 0.17738731E+04</totfact>
</mgrwt>
</event>
<event>
 4    1  0.4531281E+000  0.1965618E+03  0.7546771E-02  0.1152673E+00
         21   -1    0    0  503  502  0.00000000000E+00  0.00000000000E+00  0.12071299037E+04  0.12071299037E+04  0.00000000000E+00 0.  1.
         21   -1    0    0  501  503 -0.00000000000E+00 -0.00000000000E+00 -0.32372622848E+02  0.32372622848E+02  0.00000000000E+00 0.  1.
          6    1    1    2  501    0  0.89745882016E+02 -0.25557937918E+02  0.65324780937E+03  0.68217976515E+03  0.17300000000E+03 0.  1.
         -6    1    1    2    0  502 -0.89745882016E+02  0.25557937918E+02  0.52150947146E+03  0.55732276138E+03  0.17300000000E+03 0.  1.
<mgrwt>
<rscale>  2 0.19656178E+03</rscale>
<asrwt>0</asrwt>
<pdfrwt beam="1">  1       21 0.18571226E+00 0.19656178E+03</pdfrwt>
<pdfrwt beam="2">  1       21 0.49804044E-02 0.19656178E+03</pdfrwt>
<totfact> 0.44979508E+04</totfact>
</mgrwt>
</event>
<event>
 4    1  0.4531281E+000  0.2427196E+03  0.7546771E-02  0.1117994E+00
         21   -1    0    0  503  502  0.00000000000E+00  0.00000000000E+00  0.98508362582E+03  0.98508362582E+03  0.00000000000E+00 0.  1.
         21   -1    0    0  501  503 -0.00000000000E+00 -0.00000000000E+00 -0.12664581296E+03  0.12664581296E+03  0.00000000000E+00 0. -1.
          6    1    1    2  501    0 -0.14871400874E+03  0.82872986937E+02  0.25392226246E+02  0.24404416304E+03  0.17300000000E+03 0. -1.
         -6    1    1    2    0  502  0.14871400874E+03 -0.82872986937E+02  0.83304558662E+03  0.86768527574E+03  0.17300000000E+03 0.  1.
<mgrwt>
<rscale>  2 0.24271957E+03</rscale>
<asrwt>0</asrwt>
<pdfrwt beam="1">  1       21 0.15155132E+00 0.24271957E+03</pdfrwt>
<pdfrwt beam="2">  1       21 0.19483972E-01 0.24271957E+03</pdfrwt>
<totfact> 0.67946209E+03</totfact>
</mgrwt>
</event>
<event>
 4    1  0.4531281E+000  0.1977874E+03  0.7546771E-02  0.1151619E+00
         21   -1    0    0  503  502  0.00000000000E+00  0.00000000000E+00  0.10936659925E+03  0.10936659925E+03  0.00000000000E+00 0.  1.
         21   -1    0    0  501  503 -0.00000000000E+00 -0.00000000000E+00 -0.60565928881E+03  0.60565928881E+03  0.00000000000E+00 0.  1.
          6    1    1    2  501    0  0.38743626630E+02 -0.87691400421E+02 -0.47690231240E+03  0.51629029226E+03  0.17300000000E+03 0.  1.
         -6    1    1    2    0  502 -0.38743626630E+02  0.87691400421E+02 -0.19390377155E+02  0.19873559580E+03  0.17300000000E+03 0.  1.
<mgrwt>
<rscale>  2 0.19778739E+03</rscale>
<asrwt>0</asrwt>
<pdfrwt beam="1">  1       21 0.16825631E-01 0.19778739E+03</pdfrwt>
<pdfrwt beam="2">  1       21 0.93178352E-01 0.19778739E+03</pdfrwt>
<totfact> 0.30725991E+04</totfact>
</mgrwt>
</event>
<event>
 4    1  0.4531281E+000  0.1953823E+03  0.7546771E-02  0.1153694E+00
         21   -1    0    0  501  502  0.00000000000E+00  0.00000000000E+00  0.49278081608E+03  0.49278081608E+03  0.00000000000E+00 0.  1.
         21   -1    0    0  502  503 -0.00000000000E+00 -0.00000000000E+00 -0.80946220417E+02  0.80946220417E+02  0.00000000000E+00 0. -1.
          6    1    1    2  501    0 -0.90531803199E+02  0.70179455262E+01  0.26538991605E+03  0.32955434528E+03  0.17300000000E+03 0. -1.
         -6    1    1    2    0  503  0.90531803199E+02 -0.70179455262E+01  0.14644467960E+03  0.24417269121E+03  0.17300000000E+03 0.  1.
<mgrwt>
<rscale>  2 0.19538234E+03</rscale>
<asrwt>0</asrwt>
<pdfrwt beam="1">  1       21 0.75812432E-01 0.19538234E+03</pdfrwt>
<pdfrwt beam="2">  1       21 0.12453265E-01 0.19538234E+03</pdfrwt>
<totfact> 0.85129223E+04</totfact>
</mgrwt>
</event>
<event>
 4    1  0.4531281E+000  0.2138794E+03  0.7546771E-02  0.1138530E+00
         21   -1    0    0  501  502  0.00000000000E+00  0.00000000000E+00  0.52835659146E+02  0.52835659146E+02  0.00000000000E+00 0. -1.
         21   -1    0    0  502  503 -0.00000000000E+00 -0.00000000000E+00 -0.97432591836E+03  0.97432591836E+03  0.00000000000E+00 0.  1.
          6    1    1    2  501    0 -0.12534172400E+03  0.10239952588E+02 -0.28932957197E+03  0.35979995222E+03  0.17300000000E+03 0. -1.
         -6    1    1    2    0  503  0.12534172400E+03 -0.10239952588E+02 -0.63216068725E+03  0.66736162529E+03  0.17300000000E+03 0. -1.
<mgrwt>
<rscale>  2 0.21387942E+03</rscale>
<asrwt>0</asrwt>
<pdfrwt beam="1">  1       21 0.81285628E-02 0.21387942E+03</pdfrwt>
<pdfrwt beam="2">  1       21 0.14989630E+00 0.21387942E+03</pdfrwt>
<totfact> 0.34508261E+04</totfact>
</mgrwt>
</event>
<event>
 4    1  0.4531281E+000  0.1917501E+03  0.7546771E-02  0.1156892E+00
         21   -1    0    0  501  502  0.00000000000E+00  0.00000000000E+00  0.21032910664E+03  0.21032910664E+03  0.00000000000E+00 0.  1.
         21   -1    0    0  502  503 -0.00000000000E+00 -0.00000000000E+00 -0.17721488885E+03  0.17721488885E+03  0.00000000000E+00 0.  1.
          6    1    1    2  501    0 -0.43046057941E+02  0.70612544287E+02  0.39119722021E+02  0.19569989056E+03  0.17300000000E+03 0.  1.
         -6    1    1    2    0  503  0.43046057941E+02 -0.70612544287E+02 -0.60055042250E+01  0.19184410493E+03  0.17300000000E+03 0.  1.
<mgrwt>
<rscale>  2 0.19175008E+03</rscale>
<asrwt>0</asrwt>
<pdfrwt beam="1">  1       21 0.32358324E-01 0.19175008E+03</pdfrwt>
<pdfrwt beam="2">  1       21 0.27263829E-01 0.19175008E+03</pdfrwt>
<totfact> 0.11790873E+05</totfact>
</mgrwt>
</event>
<event>
 4    1  0.4531281E+000  0.1912593E+03  0.7546771E-02  0.1157330E+00
         21   -1    0    0  503  502  0.00000000000E+00  0.00000000000E+00  0.41664094442E+03  0.41664094442E+03  0.00000000000E+00 0.  1.
         21   -1    0    0  501  503 -0.00000000000E+00 -0.00000000000E+00 -0.88614432474E+02  0.88614432474E+02  0.00000000000E+00 0.  1.
          6    1    1    2  501    0 -0.50825880939E+02  0.63779765093E+02  0.13976050563E+03  0.23688209629E+03  0.17300000000E+03 0.  1.
         -6    1    1    2    0  502  0.50825880939E+02 -0.63779765093E+02  0.18826600632E+03  0.26837328061E+03  0.17300000000E+03 0.  1.
<mgrwt>
<rscale>  2 0.19125932E+03</rscale>
<asrwt>0</asrwt>
<pdfrwt beam="1">  1       21 0.64098606E-01 0.19125932E+03</pdfrwt>
<pdfrwt beam="2">  1       21 0.13632990E-01 0.19125932E+03</pdfrwt>
<totfact> 0.10487369E+05</totfact>
</mgrwt>
</event>
<event>
 4    1  0.4531281E+000  0.1989617E+03  0.7546771E-02  0.1150618E+00
         21   -1    0    0  503  502  0.00000000000E+00  0.00000000000E+00  0.25488075708E+02  0.25488075708E+02  0.00000000000E+00 0.  1.
         21   -1    0    0  501  503 -0.00000000000E+00 -0.00000000000E+00 -0.15549474577E+04  0.15549474577E+04  0.00000000000E+00 0. -1.
          6    1    1    2  501    0  0.75762308184E+02  0.62584743786E+02 -0.79189618643E+03  0.81650802052E+03  0.17300000000E+03 0. -1.
         -6    1    1    2    0  502 -0.75762308184E+02 -0.62584743786E+02 -0.73756319561E+03  0.76392751293E+03  0.17300000000E+03 0.  1.
<mgrwt>
<rscale>  2 0.19896175E+03</rscale>
<asrwt>0</asrwt>
<pdfrwt beam="1">  1       21 0.39212419E-02 0.19896175E+03</pdfrwt>
<pdfrwt beam="2">  1       21 0.23922272E+00 0.19896175E+03</pdfrwt>
<totfact> 0.31040135E+04</totfact>
</mgrwt>
</event>
<event>
 4    1  0.4531281E+000  0.2619063E+03  0.7546771E-02  0.1106003E+00
         21   -1    0    0  503  502  0.00000000000E+00  0.00000000000E+00  0.11592049566E+04  0.11592049566E+04  0.00000000000E+00 0.  1.
         21   -1    0    0  501  503 -0.00000000000E+00 -0.00000000000E+00 -0.11317840920E+03  0.11317840920E+03  0.00000000000E+00 0.  1.
          6    1    1    2  501    0 -0.19457238257E+03  0.28416968220E+02  0.83552302198E+02  0.27491075523E+03  0.17300000000E+03 0.  1.
         -6    1    1    2    0  502  0.19457238257E+03 -0.28416968220E+02  0.96247424522E+03  0.99747261058E+03  0.17300000000E+03 0.  1.
<mgrwt>
<rscale>  2 0.26190635E+03</rscale>
<asrwt>0</asrwt>
<pdfrwt beam="1">  1       21 0.17833922E+00 0.26190635E+03</pdfrwt>
<pdfrwt beam="2">  1       21 0.17412064E-01 0.26190635E+03</pdfrwt>
<totfact> 0.52863322E+03</totfact>
</mgrwt>
</event>
<event>
 4    1  0.4531281E+000  0.2097852E+03  0.7546771E-02  0.1141736E+00
         21   -1    0    0  501  502  0.00000000000E+00  0.00000000000E+00  0.39037470355E+03  0.39037470355E+03  0.00000000000E+00 0. -1.
         21   -1    0    0  502  503 -0.00000000000E+00 -0.00000000000E+00 -0.24284743291E+03  0.24284743291E+03  0.00000000000E+00 0.  1.
          6    1    1    2  501    0 -0.11728805346E+03  0.18009420201E+02  0.30551096474E+03  0.37060325994E+03  0.17300000000E+03 0. -1.
         -6    1    1    2    0  503  0.11728805346E+03 -0.18009420201E+02 -0.15798369410E+03  0.26261887651E+03  0.17300000000E+03 0.  1.
<mgrwt>
<rscale>  2 0.20978519E+03</rscale>
<asrwt>0</asrwt>
<pdfrwt beam="1">  1       21 0.60057647E-01 0.20978519E+03</pdfrwt>
<pdfrwt beam="2">  1       21 0.37361143E-01 0.20978519E+03</pdfrwt>
<totfact> 0.17680594E+04</totfact>
</mgrwt>
</event>
<event>
 4    1  0.4531281E+000  0.1847158E+03  0.7546771E-02  0.1163316E+00
         21   -1    0    0  501  502  0.00000000000E+00  0.00000000000E+00  0.51831039343E+03  0.51831039343E+03  0.00000000000E+00 0.  1.
         21   -1    0    0  502  503 -0.00000000000E+00 -0.00000000000E+00 -0.93244724574E+02  0.93244724574E+02  0.00000000000E+00 0.  1.
          6    1    1    2  501    0  0.64268448466E+02  0.77789248524E+01  0.37833567213E+03  0.42101998283E+03  0.17300000000E+03 0.  1.
         -6    1    1    2    0  503 -0.64268448466E+02 -0.77789248524E+01  0.46729996728E+02  0.19053513517E+03  0.17300000000E+03 0.  1.
<mgrwt>
<rscale>  2 0.18471585E+03</rscale>
<asrwt>0</asrwt>
<pdfrwt beam="1">  1       21 0.79740059E-01 0.18471585E+03</pdfrwt>
<pdfrwt beam="2">  1       21 0.14345343E-01 0.18471585E+03</pdfrwt>
<totfact> 0.59158489E+04</totfact>
</mgrwt>
</event>
<event>
 4    1  0.4531281E+000  0.1965524E+03  0.7546771E-02  0.1152681E+00
         21   -1    0    0  501  502  0.00000000000E+00  0.00000000000E+00  0.10739813340E+04  0.10739813340E+04  0.00000000000E+00 0. -1.
         21   -1    0    0  502  503 -0.00000000000E+00 -0.00000000000E+00 -0.36020863514E+02  0.36020863514E+02  0.00000000000E+00 0.  1.
          6    1    1    2  501    0  0.17056989079E+02 -0.91721853886E+02  0.53950265540E+03  0.57419156607E+03  0.17300000000E+03 0. -1.
         -6    1    1    2    0  503 -0.17056989079E+02  0.91721853886E+02  0.49845781512E+03  0.53581063148E+03  0.17300000000E+03 0.  1.
<mgrwt>
<rscale>  2 0.19655238E+03</rscale>
<asrwt>0</asrwt>
<pdfrwt beam="1">  1       21 0.16522787E+00 0.19655238E+03</pdfrwt>
<pdfrwt beam="2">  1       21 0.55416721E-02 0.19655238E+03</pdfrwt>
<totfact> 0.51978499E+04</totfact>
</mgrwt>
</event>
<event>
 4    1  0.4531281E+000  0.2574447E+03  0.7546771E-02  0.1108688E+00
         21   -1    0    0  501  502  0.00000000000E+00  0.00000000000E+00  0.18844669520E+03  0.18844669520E+03  0.00000000000E+00 0. -1.
         21   -1    0    0  502  503 -0.00000000000E+00 -0.00000000000E+00 -0.44730587825E+03  0.44730587825E+03  0.00000000000E+00 0.  1.
          6    1    1    2  501    0  0.16554771384E+03 -0.94566039110E+02  0.17525665162E+02  0.25804055931E+03  0.17300000000E+03 0. -1.
         -6    1    1    2    0  503 -0.16554771384E+03  0.94566039110E+02 -0.27638484821E+03  0.37771201415E+03  0.17300000000E+03 0.  1.
<mgrwt>
<rscale>  2 0.25744472E+03</rscale>
<asrwt>0</asrwt>
<pdfrwt beam="1">  1       21 0.28991800E-01 0.25744472E+03</pdfrwt>
<pdfrwt beam="2">  1       21 0.68816288E-01 0.25744472E+03</pdfrwt>
<totfact> 0.21165123E+04</totfact>
</mgrwt>
</event>
<event>
 4    1  0.4531281E+000  0.2012832E+03  0.7546771E-02  0.1148661E+00
         21   -1    0    0  503  502  0.00000000000E+00  0.00000000000E+00  0.14384634568E+04  0.14384634568E+04  0.00000000000E+00 0. -1.
         21   -1    0    0  501  503 -0.00000000000E+00 -0.00000000000E+00 -0.36576689909E+02  0.36576689909E+02  0.00000000000E+00 0. -1.
          6    1    1    2  501    0  0.10073575025E+03  0.20934372777E+02  0.34727013162E+03  0.40138695003E+03  0.17300000000E+03 0. -1.
         -6    1    1    2    0  502 -0.10073575025E+03 -0.20934372777E+02  0.10546166353E+04  0.10736531967E+04  0.17300000000E+03 0. -1.
<mgrwt>
<rscale>  2 0.20128323E+03</rscale>
<asrwt>0</asrwt>
<pdfrwt beam="1">  1       21 0.22130203E+00 0.20128323E+03</pdfrwt>
<pdfrwt beam="2">  1       21 0.56271842E-02 0.20128323E+03</pdfrwt>
<totfact> 0.21582190E+04</totfact>
</mgrwt>
</event>
<event>
 4    1  0.4531281E+000  0.1837908E+03  0.7546771E-02  0.1164184E+00
         21   -1    0    0  501  502  0.00000000000E+00  0.00000000000E+00  0.31685728121E+02  0.31685728121E+02  0.00000000000E+00 0. -1.
         21   -1    0    0  502  503 -0.00000000000E+00 -0.00000000000E+00 -0.10661760156E+04  0.10661760156E+04  0.00000000000E+00 0. -1.
          6    1    1    2  501    0  0.41888070914E+02 -0.45776099260E+02 -0.51165651534E+03  0.54366483373E+03  0.17300000000E+03 0. -1.
         -6    1    1    2    0  503 -0.41888070914E+02  0.45776099260E+02 -0.52283377211E+03  0.55419690996E+03  0.17300000000E+03 0. -1.
<mgrwt>
<rscale>  2 0.18379081E+03</rscale>
<asrwt>0</asrwt>
<pdfrwt beam="1">  1       21 0.48747281E-02 0.18379081E+03</pdfrwt>
<pdfrwt beam="2">  1       21 0.16402705E+00 0.18379081E+03</pdfrwt>
<totfact> 0.66398210E+04</totfact>
</mgrwt>
</event>
<event>
 4    1  0.4531281E+000  0.2080112E+03  0.7546771E-02  0.1143151E+00
         21   -1    0    0  501  502  0.00000000000E+00  0.00000000000E+00  0.53568831194E+03  0.53568831194E+03  0.00000000000E+00 0. -1.
         21   -1    0    0  502  503 -0.00000000000E+00 -0.00000000000E+00 -0.83909341856E+02  0.83909341856E+02  0.00000000000E+00 0.  1.
          6    1    1    2  501    0 -0.22659895717E+02 -0.11325282686E+03  0.28579242334E+03  0.35347699063E+03  0.17300000000E+03 0. -1.
         -6    1    1    2    0  503  0.22659895717E+02  0.11325282686E+03  0.16598654675E+03  0.26612066317E+03  0.17300000000E+03 0. -1.
<mgrwt>
<rscale>  2 0.20801123E+03</rscale>
<asrwt>0</asrwt>
<pdfrwt beam="1">  1       21 0.82413584E-01 0.20801123E+03</pdfrwt>
<pdfrwt beam="2">  1       21 0.12909130E-01 0.20801123E+03</pdfrwt>
<totfact> 0.65714043E+04</totfact>
</mgrwt>
</event>
<event>
 4    1  0.4531281E+000  0.2395420E+03  0.7546771E-02  0.1120098E+00
         21   -1    0    0  501  502  0.00000000000E+00  0.00000000000E+00  0.39036368245E+03  0.39036368245E+03  0.00000000000E+00 0. -1.
         21   -1    0    0  502  503 -0.00000000000E+00 -0.00000000000E+00 -0.17069186348E+03  0.17069186348E+03  0.00000000000E+00 0. -1.
          6    1    1    2  501    0 -0.10124953835E+01 -0.16568146149E+03  0.21436606389E+03  0.32145478869E+03  0.17300000000E+03 0. -1.
         -6    1    1    2    0  503  0.10124953835E+01  0.16568146149E+03  0.53057550796E+01  0.23960075723E+03  0.17300000000E+03 0. -1.
<mgrwt>
<rscale>  2 0.23954200E+03</rscale>
<asrwt>0</asrwt>
<pdfrwt beam="1">  1       21 0.60055951E-01 0.23954200E+03</pdfrwt>
<pdfrwt beam="2">  1       21 0.26260287E-01 0.23954200E+03</pdfrwt>
<totfact> 0.34828980E+04</totfact>
</mgrwt>
</event>
<event>
 4    1  0.4531281E+000  0.1763025E+03  0.7546771E-02  0.1171430E+00
         21   -1    0    0  501  502  0.00000000000E+00  0.00000000000E+00  0.10784363901E+03  0.10784363901E+03  0.00000000000E+00 0. -1.
         21   -1    0    0  502  503 -0.00000000000E+00 -0.00000000000E+00 -0.40466121943E+03  0.40466121943E+03  0.00000000000E+00 0. -1.
          6    1    1    2  501    0 -0.33076206394E+02 -0.77155006546E+01 -0.10948326140E+02  0.17664209641E+03  0.17300000000E+03 0. -1.
         -6    1    1    2    0  503  0.33076206394E+02  0.77155006546E+01 -0.28586925427E+03  0.33586276203E+03  0.17300000000E+03 0. -1.
<mgrwt>
<rscale>  2 0.17630248E+03</rscale>
<asrwt>0</asrwt>
<pdfrwt beam="1">  1       21 0.16591329E-01 0.17630248E+03</pdfrwt>
<pdfrwt beam="2">  1       21 0.62255573E-01 0.17630248E+03</pdfrwt>
<totfact> 0.78611760E+04</totfact>
</mgrwt>
</event>
<event>
 4    1  0.4531281E+000  0.2104074E+03  0.7546771E-02  0.1141244E+00
         21   -1    0    0  503  502  0.00000000000E+00  0.00000000000E+00  0.10811164741E+03  0.10811164741E+03  0.00000000000E+00 0.  1.
         21   -1    0    0  501  503 -0.00000000000E+00 -0.00000000000E+00 -0.49903327799E+03  0.49903327799E+03  0.00000000000E+00 0.  1.
          6    1    1    2  501    0  0.88346774909E+02 -0.80852442610E+02 -0.32404866866E+03  0.38636616024E+03  0.17300000000E+03 0.  1.
         -6    1    1    2    0  502 -0.88346774909E+02  0.80852442610E+02 -0.66872961915E+02  0.22077876517E+03  0.17300000000E+03 0.  1.
<mgrwt>
<rscale>  2 0.21040739E+03</rscale>
<asrwt>0</asrwt>
<pdfrwt beam="1">  1       21 0.16632561E-01 0.21040739E+03</pdfrwt>
<pdfrwt beam="2">  1       21 0.76774351E-01 0.21040739E+03</pdfrwt>
<totfact> 0.48571712E+04</totfact>
</mgrwt>
</event>
<event>
 4    1  0.4531281E+000  0.3117139E+03  0.7546771E-02  0.1079527E+00
         21   -1    0    0  501  502  0.00000000000E+00  0.00000000000E+00  0.22220295324E+03  0.22220295324E+03  0.00000000000E+00 0. -1.
         21   -1    0    0  502  503 -0.00000000000E+00 -0.00000000000E+00 -0.55184160021E+03  0.55184160021E+03  0.00000000000E+00 0.  1.
          6    1    1    2  501    0  0.23910005313E+03  0.10033794919E+03  0.11517449615E+02  0.31192657966E+03  0.17300000000E+03 0. -1.
         -6    1    1    2    0  503 -0.23910005313E+03 -0.10033794919E+03 -0.34115609659E+03  0.46211797378E+03  0.17300000000E+03 0.  1.
<mgrwt>
<rscale>  2 0.31171387E+03</rscale>
<asrwt>0</asrwt>
<pdfrwt beam="1">  1       21 0.34185071E-01 0.31171387E+03</pdfrwt>
<pdfrwt beam="2">  1       21 0.84898705E-01 0.31171387E+03</pdfrwt>
<totfact> 0.92645698E+03</totfact>
</mgrwt>
</event>
<event>
 4    1  0.4531281E+000  0.2095812E+03  0.7546771E-02  0.1141898E+00
         21   -1    0    0  503  502  0.00000000000E+00  0.00000000000E+00  0.18468152609E+03  0.18468152609E+03  0.00000000000E+00 0. -1.
         21   -1    0    0  501  503 -0.00000000000E+00 -0.00000000000E+00 -0.72229665009E+03  0.72229665009E+03  0.00000000000E+00 0.  1.
          6    1    1    2  501    0  0.58609480692E+02  0.10276296860E+03 -0.64020368359E+03  0.67363569934E+03  0.17300000000E+03 0.  1.
         -6    1    1    2    0  502 -0.58609480692E+02 -0.10276296860E+03  0.10258855959E+03  0.23334247685E+03  0.17300000000E+03 0. -1.
<mgrwt>
<rscale>  2 0.20958125E+03</rscale>
<asrwt>0</asrwt>
<pdfrwt beam="1">  1       21 0.28412542E-01 0.20958125E+03</pdfrwt>
<pdfrwt beam="2">  1       21 0.11112256E+00 0.20958125E+03</pdfrwt>
<totfact> 0.74531099E+03</totfact>
</mgrwt>
</event>
<event>
 4    1  0.4531281E+000  0.1747810E+03  0.7546771E-02  0.1172952E+00
         21   -1    0    0  503  502  0.00000000000E+00  0.00000000000E+00  0.15307927697E+03  0.15307927697E+03  0.00000000000E+00 0.  1.
         21   -1    0    0  501  503 -0.00000000000E+00 -0.00000000000E+00 -0.21183308451E+03  0.21183308451E+03  0.00000000000E+00 0.  1.
          6    1    1    2  501    0  0.18284251007E+02 -0.16884222869E+02 -0.73295780619E+02  0.18952747103E+03  0.17300000000E+03 0.  1.
         -6    1    1    2    0  502 -0.18284251007E+02  0.16884222869E+02  0.14541973080E+02  0.17538489045E+03  0.17300000000E+03 0.  1.
<mgrwt>
<rscale>  2 0.17478098E+03</rscale>
<asrwt>0</asrwt>
<pdfrwt beam="1">  1       21 0.23550658E-01 0.17478098E+03</pdfrwt>
<pdfrwt beam="2">  1       21 0.32589705E-01 0.17478098E+03</pdfrwt>
<totfact> 0.15465015E+05</totfact>
</mgrwt>
</event>
<event>
 4    1  0.4531281E+000  0.3509596E+03  0.7546771E-02  0.1062222E+00
         21   -1    0    0  501  502  0.00000000000E+00  0.00000000000E+00  0.13262211116E+03  0.13262211116E+03  0.00000000000E+00 0.  1.
         21   -1    0    0  502  503 -0.00000000000E+00 -0.00000000000E+00 -0.17194692315E+04  0.17194692315E+04  0.00000000000E+00 0.  1.
          6    1    1    2  501    0  0.83213157101E+02 -0.29380132651E+03 -0.16544236995E+03  0.38799977674E+03  0.17300000000E+03 0.  1.
         -6    1    1    2    0  503 -0.83213157101E+02  0.29380132651E+03 -0.14214047504E+04  0.14640915659E+04  0.17300000000E+03 0.  1.
<mgrwt>
<rscale>  2 0.35095961E+03</rscale>
<asrwt>0</asrwt>
<pdfrwt beam="1">  1       21 0.20403404E-01 0.35095961E+03</pdfrwt>
<pdfrwt beam="2">  1       21 0.26453370E+00 0.35095961E+03</pdfrwt>
<totfact> 0.10527254E+03</totfact>
</mgrwt>
</event>
<event>
 4    1  0.4531281E+000  0.1748905E+03  0.7546771E-02  0.1172842E+00
         21   -1    0    0  501  502  0.00000000000E+00  0.00000000000E+00  0.33918718533E+02  0.33918718533E+02  0.00000000000E+00 0. -1.
         21   -1    0    0  502  503 -0.00000000000E+00 -0.00000000000E+00 -0.11332022582E+04  0.11332022582E+04  0.00000000000E+00 0. -1.
          6    1    1    2  501    0  0.20629713972E+01  0.25562157013E+02 -0.81336581457E+03  0.83195590510E+03  0.17300000000E+03 0. -1.
         -6    1    1    2    0  503 -0.20629713972E+01 -0.25562157013E+02 -0.28591772514E+03  0.33516507168E+03  0.17300000000E+03 0. -1.
<mgrwt>
<rscale>  2 0.17489048E+03</rscale>
<asrwt>0</asrwt>
<pdfrwt beam="1">  1       21 0.52182656E-02 0.17489048E+03</pdfrwt>
<pdfrwt beam="2">  1       21 0.17433877E+00 0.17489048E+03</pdfrwt>
<totfact> 0.50331431E+04</totfact>
</mgrwt>
</event>
<event>
 4    1  0.4531281E+000  0.2028286E+03  0.7546771E-02  0.1147374E+00
         21   -1    0    0  501  502  0.00000000000E+00  0.00000000000E+00  0.68279099834E+03  0.68279099834E+03  0.00000000000E+00 0.  1.
         21   -1    0    0  502  503 -0.00000000000E+00 -0.00000000000E+00 -0.64767341330E+02  0.64767341330E+02  0.00000000000E+00 0.  1.
          6    1    1    2  501    0 -0.63251776979E+02 -0.84909769635E+02  0.40770499183E+03  0.45537107576E+03  0.17300000000E+03 0.  1.
         -6    1    1    2    0  503  0.63251776979E+02  0.84909769635E+02  0.21031866517E+03  0.29218726391E+03  0.17300000000E+03 0.  1.
<mgrwt>
<rscale>  2 0.20282864E+03</rscale>
<asrwt>0</asrwt>
<pdfrwt beam="1">  1       21 0.10504476E+00 0.20282864E+03</pdfrwt>
<pdfrwt beam="2">  1       21 0.99642069E-02 0.20282864E+03</pdfrwt>
<totfact> 0.59299946E+04</totfact>
</mgrwt>
</event>
<event>
 4    1  0.4531281E+000  0.1864759E+03  0.7546771E-02  0.1161679E+00
         21   -1    0    0  501  502  0.00000000000E+00  0.00000000000E+00  0.85219743622E+03  0.85219743622E+03  0.00000000000E+00 0. -1.
         21   -1    0    0  502  503 -0.00000000000E+00 -0.00000000000E+00 -0.12999291354E+03  0.12999291354E+03  0.00000000000E+00 0. -1.
          6    1    1    2  501    0 -0.35843387304E+02 -0.59661603664E+02  0.76788331681E+03  0.79020126778E+03  0.17300000000E+03 0. -1.
         -6    1    1    2    0  503  0.35843387304E+02  0.59661603664E+02 -0.45678794128E+02  0.19198908198E+03  0.17300000000E+03 0. -1.
<mgrwt>
<rscale>  2 0.18647588E+03</rscale>
<asrwt>0</asrwt>
<pdfrwt beam="1">  1       21 0.13110729E+00 0.18647588E+03</pdfrwt>
<pdfrwt beam="2">  1       21 0.19998910E-01 0.18647588E+03</pdfrwt>
<totfact> 0.98118400E+03</totfact>
</mgrwt>
</event>
<event>
 4    1  0.4531281E+000  0.2750798E+03  0.7546771E-02  0.1098407E+00
         21   -1    0    0  501  502  0.00000000000E+00  0.00000000000E+00  0.14155453363E+03  0.14155453363E+03  0.00000000000E+00 0. -1.
         21   -1    0    0  502  503 -0.00000000000E+00 -0.00000000000E+00 -0.54644990817E+03  0.54644990817E+03  0.00000000000E+00 0.  1.
          6    1    1    2  501    0 -0.18791967621E+03  0.10210820211E+03 -0.15169721870E+03  0.31413521898E+03  0.17300000000E+03 0.  1.
         -6    1    1    2    0  503  0.18791967621E+03 -0.10210820211E+03 -0.25319815584E+03  0.37386922281E+03  0.17300000000E+03 0. -1.
<mgrwt>
<rscale>  2 0.27507979E+03</rscale>
<asrwt>0</asrwt>
<pdfrwt beam="1">  1       21 0.21777621E-01 0.27507979E+03</pdfrwt>
<pdfrwt beam="2">  1       21 0.84069216E-01 0.27507979E+03</pdfrwt>
<totfact> 0.23179182E+04</totfact>
</mgrwt>
</event>
<event>
 4    1  0.4531281E+000  0.1942196E+03  0.7546771E-02  0.1154710E+00
         21   -1    0    0  501  502  0.00000000000E+00  0.00000000000E+00  0.10694380769E+03  0.10694380769E+03  0.00000000000E+00 0.  1.
         21   -1    0    0  502  503 -0.00000000000E+00 -0.00000000000E+00 -0.58628022033E+03  0.58628022033E+03  0.00000000000E+00 0.  1.
          6    1    1    2  501    0  0.76614879039E+02  0.43845322634E+02 -0.20897006211E+02  0.19534056638E+03  0.17300000000E+03 0.  1.
         -6    1    1    2    0  503 -0.76614879039E+02 -0.43845322634E+02 -0.45843940643E+03  0.49788346164E+03  0.17300000000E+03 0.  1.
<mgrwt>
<rscale>  2 0.19421960E+03</rscale>
<asrwt>0</asrwt>
<pdfrwt beam="1">  1       21 0.16452893E-01 0.19421960E+03</pdfrwt>
<pdfrwt beam="2">  1       21 0.90196959E-01 0.19421960E+03</pdfrwt>
<totfact> 0.34601506E+04</totfact>
</mgrwt>
</event>
<event>
 4    1  0.4531281E+000  0.2564643E+03  0.7546771E-02  0.1109286E+00
         21   -1    0    0  503  502  0.00000000000E+00  0.00000000000E+00  0.45655296878E+03  0.45655296878E+03  0.00000000000E+00 0. -1.
         21   -1    0    0  501  503 -0.00000000000E+00 -0.00000000000E+00 -0.16108548804E+03  0.16108548804E+03  0.00000000000E+00 0.  1.
          6    1    1    2  501    0 -0.15067713276E+03  0.11463557424E+03  0.47354226254E+02  0.26079941710E+03  0.17300000000E+03 0. -1.
         -6    1    1    2    0  502  0.15067713276E+03 -0.11463557424E+03  0.24811325449E+03  0.35683903972E+03  0.17300000000E+03 0. -1.
<mgrwt>
<rscale>  2 0.25646425E+03</rscale>
<asrwt>0</asrwt>
<pdfrwt beam="1">  1       21 0.70238918E-01 0.25646425E+03</pdfrwt>
<pdfrwt beam="2">  1       21 0.24782383E-01 0.25646425E+03</pdfrwt>
<totfact> 0.27420750E+04</totfact>
</mgrwt>
</event>
<event>
 4    1  0.4531281E+000  0.1912223E+03  0.7546771E-02  0.1157364E+00
         21   -1    0    0  503  502  0.00000000000E+00  0.00000000000E+00  0.20960829060E+04  0.20960829060E+04  0.00000000000E+00 0.  1.
         21   -1    0    0  501  503 -0.00000000000E+00 -0.00000000000E+00 -0.20195601636E+02  0.20195601636E+02  0.00000000000E+00 0.  1.
          6    1    1    2  501    0  0.14175451036E+01  0.81455158990E+02  0.64742989878E+03  0.67507882961E+03  0.17300000000E+03 0.  1.
         -6    1    1    2    0  502 -0.14175451036E+01 -0.81455158990E+02  0.14284574056E+04  0.14411996780E+04  0.17300000000E+03 0.  1.
<mgrwt>
<rscale>  2 0.19122226E+03</rscale>
<asrwt>0</asrwt>
<pdfrwt beam="1">  1       21 0.32247412E+00 0.19122226E+03</pdfrwt>
<pdfrwt beam="2">  1       21 0.31070173E-02 0.19122226E+03</pdfrwt>
<totfact> 0.15142699E+04</totfact>
</mgrwt>
</event>
<event>
 4    1  0.4531281E+000  0.1935932E+03  0.7546771E-02  0.1155260E+00
         21   -1    0    0  503  502  0.00000000000E+00  0.00000000000E+00  0.22358859761E+03  0.22358859761E+03  0.00000000000E+00 0. -1.
         21   -1    0    0  501  503 -0.00000000000E+00 -0.00000000000E+00 -0.17499296314E+03  0.17499296314E+03  0.00000000000E+00 0. -1.
          6    1    1    2  501    0  0.20908161428E+02  0.84333773428E+02 -0.16604052936E+02  0.19430396581E+03  0.17300000000E+03 0. -1.
         -6    1    1    2    0  502 -0.20908161428E+02 -0.84333773428E+02  0.65199687406E+02  0.20427759494E+03  0.17300000000E+03 0. -1.
<mgrwt>
<rscale>  2 0.19359322E+03</rscale>
<asrwt>0</asrwt>
<pdfrwt beam="1">  1       21 0.34398246E-01 0.19359322E+03</pdfrwt>
<pdfrwt beam="2">  1       21 0.26921994E-01 0.19359322E+03</pdfrwt>
<totfact> 0.10700780E+05</totfact>
</mgrwt>
</event>
<event>
 4    1  0.4531281E+000  0.1766875E+03  0.7546771E-02  0.1171048E+00
         21   -1    0    0  501  502  0.00000000000E+00  0.00000000000E+00  0.60885199529E+03  0.60885199529E+03  0.00000000000E+00 0. -1.
         21   -1    0    0  502  503 -0.00000000000E+00 -0.00000000000E+00 -0.63002744504E+02  0.63002744504E+02  0.00000000000E+00 0. -1.
          6    1    1    2  501    0  0.31087677679E+02 -0.17973391474E+02  0.41786355641E+03  0.45368319154E+03  0.17300000000E+03 0. -1.
         -6    1    1    2    0  503 -0.31087677679E+02  0.17973391474E+02  0.12798569437E+03  0.21817154826E+03  0.17300000000E+03 0. -1.
<mgrwt>
<rscale>  2 0.17668754E+03</rscale>
<asrwt>0</asrwt>
<pdfrwt beam="1">  1       21 0.93669533E-01 0.17668754E+03</pdfrwt>
<pdfrwt beam="2">  1       21 0.96927304E-02 0.17668754E+03</pdfrwt>
<totfact> 0.82655165E+04</totfact>
</mgrwt>
</event>
<event>
 4    1  0.4531281E+000  0.2815218E+03  0.7546771E-02  0.1094861E+00
         21   -1    0    0  503  502  0.00000000000E+00  0.00000000000E+00  0.10562678624E+04  0.10562678624E+04  0.00000000000E+00 0. -1.
         21   -1    0    0  501  503 -0.00000000000E+00 -0.00000000000E+00 -0.10265634992E+03  0.10265634992E+03  0.00000000000E+00 0. -1.
          6    1    1    2  501    0 -0.21667334158E+03 -0.48766443668E+02  0.17621639551E+03  0.33212455650E+03  0.17300000000E+03 0. -1.
         -6    1    1    2    0  502  0.21667334158E+03  0.48766443668E+02  0.77739511692E+03  0.82679965578E+03  0.17300000000E+03 0. -1.
<mgrwt>
<rscale>  2 0.28152176E+03</rscale>
<asrwt>0</asrwt>
<pdfrwt beam="1">  1       21 0.16250274E+00 0.28152176E+03</pdfrwt>
<pdfrwt beam="2">  1       21 0.15793285E-01 0.28152176E+03</pdfrwt>
<totfact> 0.81152846E+03</totfact>
</mgrwt>
</event>
<event>
 4    1  0.4531281E+000  0.2353621E+03  0.7546771E-02  0.1122922E+00
         21   -1    0    0  501  502  0.00000000000E+00  0.00000000000E+00  0.32360036001E+03  0.32360036001E+03  0.00000000000E+00 0.  1.
         21   -1    0    0  502  503 -0.00000000000E+00 -0.00000000000E+00 -0.20112832884E+03  0.20112832884E+03  0.00000000000E+00 0. -1.
          6    1    1    2  501    0  0.13722847637E+03 -0.81453544216E+02 -0.39997089253E+02  0.23873646923E+03  0.17300000000E+03 0. -1.
         -6    1    1    2    0  503 -0.13722847637E+03  0.81453544216E+02  0.16246912042E+03  0.28599221962E+03  0.17300000000E+03 0.  1.
<mgrwt>
<rscale>  2 0.23536213E+03</rscale>
<asrwt>0</asrwt>
<pdfrwt beam="1">  1       21 0.49784671E-01 0.23536213E+03</pdfrwt>
<pdfrwt beam="2">  1       21 0.30942820E-01 0.23536213E+03</pdfrwt>
<totfact> 0.37769375E+04</totfact>
</mgrwt>
</event>
<event>
 4    1  0.4531281E+000  0.1786189E+03  0.7546771E-02  0.1169146E+00
         21   -1    0    0  501  502  0.00000000000E+00  0.00000000000E+00  0.22981957214E+03  0.22981957214E+03  0.00000000000E+00 0. -1.
         21   -1    0    0  502  503 -0.00000000000E+00 -0.00000000000E+00 -0.19612433818E+03  0.19612433818E+03  0.00000000000E+00 0. -1.
          6    1    1    2  501    0 -0.42423892794E+02 -0.13263105626E+02  0.13196252350E+03  0.22207837414E+03  0.17300000000E+03 0. -1.
         -6    1    1    2    0  503  0.42423892794E+02  0.13263105626E+02 -0.98267289540E+02  0.20386553619E+03  0.17300000000E+03 0. -1.
<mgrwt>
<rscale>  2 0.17861886E+03</rscale>
<asrwt>0</asrwt>
<pdfrwt beam="1">  1       21 0.35356857E-01 0.17861886E+03</pdfrwt>
<pdfrwt beam="2">  1       21 0.30172975E-01 0.17861886E+03</pdfrwt>
<totfact> 0.81730867E+04</totfact>
</mgrwt>
</event>
<event>
 4    1  0.4531281E+000  0.1738490E+03  0.7546771E-02  0.1173892E+00
         21   -1    0    0  503  502  0.00000000000E+00  0.00000000000E+00  0.76926438468E+03  0.76926438468E+03  0.00000000000E+00 0.  1.
         21   -1    0    0  501  503 -0.00000000000E+00 -0.00000000000E+00 -0.89246449814E+02  0.89246449814E+02  0.00000000000E+00 0. -1.
          6    1    1    2  501    0  0.77504507989E+01 -0.15309920974E+02  0.18849022904E+02  0.17486780388E+03  0.17300000000E+03 0. -1.
         -6    1    1    2    0  502 -0.77504507989E+01  0.15309920974E+02  0.66116891197E+03  0.68364303062E+03  0.17300000000E+03 0.  1.
<mgrwt>
<rscale>  2 0.17384897E+03</rscale>
<asrwt>0</asrwt>
<pdfrwt beam="1">  1       21 0.11834836E+00 0.17384897E+03</pdfrwt>
<pdfrwt beam="2">  1       21 0.13730224E-01 0.17384897E+03</pdfrwt>
<totfact> 0.25464064E+04</totfact>
</mgrwt>
</event>
<event>
 4    1  0.4531281E+000  0.2817174E+03  0.7546771E-02  0.1094755E+00
         21   -1    0    0  503  502  0.00000000000E+00  0.00000000000E+00  0.30912848248E+03  0.30912848248E+03  0.00000000000E+00 0. -1.
         21   -1    0    0  501  503 -0.00000000000E+00 -0.00000000000E+00 -0.26037344230E+03  0.26037344230E+03  0.00000000000E+00 0.  1.
          6    1    1    2  501    0  0.22230465573E+03  0.40391494600E+01 -0.92747067755E+01  0.28186999641E+03  0.17300000000E+03 0. -1.
         -6    1    1    2    0  502 -0.22230465573E+03 -0.40391494600E+01  0.58029746950E+02  0.28763192837E+03  0.17300000000E+03 0.  1.
<mgrwt>
<rscale>  2 0.28171737E+03</rscale>
<asrwt>0</asrwt>
<pdfrwt beam="1">  1       21 0.47558228E-01 0.28171737E+03</pdfrwt>
<pdfrwt beam="2">  1       21 0.40057453E-01 0.28171737E+03</pdfrwt>
<totfact> 0.24308962E+04</totfact>
</mgrwt>
</event>
<event>
 4    1  0.4531281E+000  0.1844946E+03  0.7546771E-02  0.1163523E+00
         21   -1    0    0  503  502  0.00000000000E+00  0.00000000000E+00  0.66657608874E+03  0.66657608874E+03  0.00000000000E+00 0. -1.
         21   -1    0    0  501  503 -0.00000000000E+00 -0.00000000000E+00 -0.51069013471E+02  0.51069013471E+02  0.00000000000E+00 0. -1.
          6    1    1    2  501    0  0.12664917493E+02  0.62840071827E+02  0.30432466733E+03  0.35588169089E+03  0.17300000000E+03 0. -1.
         -6    1    1    2    0  502 -0.12664917493E+02 -0.62840071827E+02  0.31118240794E+03  0.36176341132E+03  0.17300000000E+03 0. -1.
<mgrwt>
<rscale>  2 0.18449465E+03</rscale>
<asrwt>0</asrwt>
<pdfrwt beam="1">  1       21 0.10255016E+00 0.18449465E+03</pdfrwt>
<pdfrwt beam="2">  1       21 0.78567718E-02 0.18449465E+03</pdfrwt>
<totfact> 0.96065454E+04</totfact>
</mgrwt>
</event>
<event>
 4    1  0.4531281E+000  0.2022701E+03  0.7546771E-02  0.1147838E+00
         21   -1    0    0  503  502  0.00000000000E+00  0.00000000000E+00  0.11197629228E+03  0.11197629228E+03  0.00000000000E+00 0.  1.
         21   -1    0    0  501  503 -0.00000000000E+00 -0.00000000000E+00 -0.43499234965E+03  0.43499234965E+03  0.00000000000E+00 0.  1.
          6    1    1    2  501    0 -0.52831160974E+02 -0.90515616481E+02 -0.52098796386E+02  0.20887195355E+03  0.17300000000E+03 0.  1.
         -6    1    1    2    0  502  0.52831160974E+02  0.90515616481E+02 -0.27091726098E+03  0.33809668838E+03  0.17300000000E+03 0.  1.
<mgrwt>
<rscale>  2 0.20227014E+03</rscale>
<asrwt>0</asrwt>
<pdfrwt beam="1">  1       21 0.17227122E-01 0.20227014E+03</pdfrwt>
<pdfrwt beam="2">  1       21 0.66921900E-01 0.20227014E+03</pdfrwt>
<totfact> 0.61985440E+04</totfact>
</mgrwt>
</event>
<event>
 4    1  0.4531281E+000  0.2580509E+03  0.7546771E-02  0.1108320E+00
         21   -1    0    0  503  502  0.00000000000E+00  0.00000000000E+00  0.93170572045E+03  0.93170572045E+03  0.00000000000E+00 0. -1.
         21   -1    0    0  501  503 -0.00000000000E+00 -0.00000000000E+00 -0.10803068941E+03  0.10803068941E+03  0.00000000000E+00 0.  1.
          6    1    1    2  501    0  0.19015898632E+03  0.22378825452E+02  0.10941164419E+03  0.28028763760E+03  0.17300000000E+03 0.  1.
         -6    1    1    2    0  502 -0.19015898632E+03 -0.22378825452E+02  0.71426338685E+03  0.75944877227E+03  0.17300000000E+03 0. -1.
<mgrwt>
<rscale>  2 0.25805087E+03</rscale>
<asrwt>0</asrwt>
<pdfrwt beam="1">  1       21 0.14333934E+00 0.25805087E+03</pdfrwt>
<pdfrwt beam="2">  1       21 0.16620107E-01 0.25805087E+03</pdfrwt>
<totfact> 0.10485083E+04</totfact>
</mgrwt>
</event>
<event>
 4    1  0.4531281E+000  0.1943761E+03  0.7546771E-02  0.1154573E+00
         21   -1    0    0  501  502  0.00000000000E+00  0.00000000000E+00  0.15416753083E+03  0.15416753083E+03  0.00000000000E+00 0. -1.
         21   -1    0    0  502  503 -0.00000000000E+00 -0.00000000000E+00 -0.26601221009E+03  0.26601221009E+03  0.00000000000E+00 0. -1.
          6    1    1    2  501    0  0.34261558046E+02  0.81726407935E+02  0.30231476549E+01  0.19439958728E+03  0.17300000000E+03 0. -1.
         -6    1    1    2    0  503 -0.34261558046E+02 -0.81726407935E+02 -0.11486782692E+03  0.22578015363E+03  0.17300000000E+03 0. -1.
<mgrwt>
<rscale>  2 0.19437608E+03</rscale>
<asrwt>0</asrwt>
<pdfrwt beam="1">  1       21 0.23718082E-01 0.19437608E+03</pdfrwt>
<pdfrwt beam="2">  1       21 0.40924955E-01 0.19437608E+03</pdfrwt>
<totfact> 0.96233143E+04</totfact>
</mgrwt>
</event>
<event>
 4    1  0.4531281E+000  0.2683496E+03  0.7546771E-02  0.1102228E+00
         21   -1    0    0  501  502  0.00000000000E+00  0.00000000000E+00  0.17914505067E+03  0.17914505067E+03  0.00000000000E+00 0. -1.
         21   -1    0    0  502  503 -0.00000000000E+00 -0.00000000000E+00 -0.14075512050E+04  0.14075512050E+04  0.00000000000E+00 0.  1.
          6    1    1    2  501    0 -0.75564486871E+02  0.19071583480E+03  0.56359894300E+02  0.27420422864E+03  0.17300000000E+03 0. -1.
         -6    1    1    2    0  503  0.75564486871E+02 -0.19071583480E+03 -0.12847660486E+04  0.13124920270E+04  0.17300000000E+03 0.  1.
<mgrwt>
<rscale>  2 0.26834963E+03</rscale>
<asrwt>0</asrwt>
<pdfrwt beam="1">  1       21 0.27560775E-01 0.26834963E+03</pdfrwt>
<pdfrwt beam="2">  1       21 0.21654635E+00 0.26834963E+03</pdfrwt>
<totfact> 0.12334746E+03</totfact>
</mgrwt>
</event>
<event>
 4    1  0.4531281E+000  0.2178361E+03  0.7546771E-02  0.1135507E+00
         21   -1    0    0  503  502  0.00000000000E+00  0.00000000000E+00  0.32308923313E+03  0.32308923313E+03  0.00000000000E+00 0.  1.
         21   -1    0    0  501  503 -0.00000000000E+00 -0.00000000000E+00 -0.27532304477E+03  0.27532304477E+03  0.00000000000E+00 0. -1.
          6    1    1    2  501    0 -0.23271076926E+02 -0.13031502273E+03 -0.18048785245E+03  0.28289293567E+03  0.17300000000E+03 0. -1.
         -6    1    1    2    0  502  0.23271076926E+02  0.13031502273E+03  0.22825404081E+03  0.31551934223E+03  0.17300000000E+03 0.  1.
<mgrwt>
<rscale>  2 0.21783606E+03</rscale>
<asrwt>0</asrwt>
<pdfrwt beam="1">  1       21 0.49706036E-01 0.21783606E+03</pdfrwt>
<pdfrwt beam="2">  1       21 0.42357392E-01 0.21783606E+03</pdfrwt>
<totfact> 0.20386439E+04</totfact>
</mgrwt>
</event>
<event>
 4    1  0.4531281E+000  0.2319338E+03  0.7546771E-02  0.1125286E+00
         21   -1    0    0  501  502  0.00000000000E+00  0.00000000000E+00  0.11838322774E+04  0.11838322774E+04  0.00000000000E+00 0.  1.
         21   -1    0    0  502  503 -0.00000000000E+00 -0.00000000000E+00 -0.95385061913E+02  0.95385061913E+02  0.00000000000E+00 0. -1.
          6    1    1    2  501    0 -0.31765909969E+02 -0.15117945205E+03  0.10070526253E+04  0.10334158359E+04  0.17300000000E+03 0.  1.
         -6    1    1    2    0  503  0.31765909969E+02  0.15117945205E+03  0.81394590149E+02  0.24580150338E+03  0.17300000000E+03 0. -1.
<mgrwt>
<rscale>  2 0.23193383E+03</rscale>
<asrwt>0</asrwt>
<pdfrwt beam="1">  1       21 0.18212803E+00 0.23193383E+03</pdfrwt>
<pdfrwt beam="2">  1       21 0.14674626E-01 0.23193383E+03</pdfrwt>
<totfact> 0.69634298E+03</totfact>
</mgrwt>
</event>
<event>
 4    1  0.4531281E+000  0.1785094E+03  0.7546771E-02  0.1169253E+00
         21   -1    0    0  503  502  0.00000000000E+00  0.00000000000E+00  0.21414249168E+03  0.21414249168E+03  0.00000000000E+00 0.  1.
         21   -1    0    0  501  503 -0.00000000000E+00 -0.00000000000E+00 -0.14960765001E+03  0.14960765001E+03  0.00000000000E+00 0.  1.
          6    1    1    2  501    0  0.41144397677E+02  0.15612320720E+02  0.18950866381E+02  0.17951251030E+03  0.17300000000E+03 0.  1.
         -6    1    1    2    0  502 -0.41144397677E+02 -0.15612320720E+02  0.45583975284E+02  0.18423763139E+03  0.17300000000E+03 0.  1.
<mgrwt>
<rscale>  2 0.17850940E+03</rscale>
<asrwt>0</asrwt>
<pdfrwt beam="1">  1       21 0.32944999E-01 0.17850940E+03</pdfrwt>
<pdfrwt beam="2">  1       21 0.23016561E-01 0.17850940E+03</pdfrwt>
<totfact> 0.15791059E+05</totfact>
</mgrwt>
</event>
<event>
 4    1  0.4531281E+000  0.2666043E+03  0.7546771E-02  0.1103239E+00
         21   -1    0    0  501  502  0.00000000000E+00  0.00000000000E+00  0.98412489797E+03  0.98412489797E+03  0.00000000000E+00 0. -1.
         21   -1    0    0  502  503 -0.00000000000E+00 -0.00000000000E+00 -0.73204687671E+02  0.73204687671E+02  0.00000000000E+00 0.  1.
          6    1    1    2  501    0  0.20009571780E+03  0.33324778721E+02  0.51663682184E+03  0.58137031472E+03  0.17300000000E+03 0. -1.
         -6    1    1    2    0  503 -0.20009571780E+03 -0.33324778721E+02  0.39428338846E+03  0.47595927092E+03  0.17300000000E+03 0. -1.
<mgrwt>
<rscale>  2 0.26660427E+03</rscale>
<asrwt>0</asrwt>
<pdfrwt beam="1">  1       21 0.15140382E+00 0.26660427E+03</pdfrwt>
<pdfrwt beam="2">  1       21 0.11262260E-01 0.26660427E+03</pdfrwt>
<totfact> 0.18334251E+04</totfact>
</mgrwt>
</event>
<event>
 4    1  0.4531281E+000  0.3126728E+03  0.7546771E-02  0.1079072E+00
         21   -1    0    0  503  502  0.00000000000E+00  0.00000000000E+00  0.63184568289E+03  0.63184568289E+03  0.00000000000E+00 0.  1.
         21   -1    0    0  501  503 -0.00000000000E+00 -0.00000000000E+00 -0.16283968902E+03  0.16283968902E+03  0.00000000000E+00 0. -1.
          6    1    1    2  501    0 -0.19852087198E+03 -0.16859640414E+03  0.32318550594E+03  0.44968117078E+03  0.17300000000E+03 0. -1.
         -6    1    1    2    0  502  0.19852087198E+03  0.16859640414E+03  0.14582048792E+03  0.34500420113E+03  0.17300000000E+03 0.  1.
<mgrwt>
<rscale>  2 0.31267281E+03</rscale>
<asrwt>0</asrwt>
<pdfrwt beam="1">  1       21 0.97207027E-01 0.31267281E+03</pdfrwt>
<pdfrwt beam="2">  1       21 0.25052260E-01 0.31267281E+03</pdfrwt>
<totfact> 0.12409875E+04</totfact>
</mgrwt>
</event>
<event>
 4    1  0.4531281E+000  0.3011729E+03  0.7546771E-02  0.1084656E+00
         21   -1    0    0  501  502  0.00000000000E+00  0.00000000000E+00  0.52833213585E+02  0.52833213585E+02  0.00000000000E+00 0.  1.
         21   -1    0    0  502  503 -0.00000000000E+00 -0.00000000000E+00 -0.20634360481E+04  0.20634360481E+04  0.00000000000E+00 0. -1.
          6    1    1    2  501    0 -0.24028037235E+03  0.55149489888E+02 -0.57162112621E+03  0.64610822275E+03  0.17300000000E+03 0.  1.
         -6    1    1    2    0  503  0.24028037235E+03 -0.55149489888E+02 -0.14389817083E+04  0.14701610389E+04  0.17300000000E+03 0. -1.
<mgrwt>
<rscale>  2 0.30117291E+03</rscale>
<asrwt>0</asrwt>
<pdfrwt beam="1">  1       21 0.81281869E-02 0.30117291E+03</pdfrwt>
<pdfrwt beam="2">  1       21 0.31745169E+00 0.30117291E+03</pdfrwt>
<totfact> 0.28358409E+03</totfact>
</mgrwt>
</event>
<event>
 4    1  0.4531281E+000  0.2599113E+03  0.7546771E-02  0.1107197E+00
         21   -1    0    0  503  502  0.00000000000E+00  0.00000000000E+00  0.15829354524E+03  0.15829354524E+03  0.00000000000E+00 0. -1.
         21   -1    0    0  501  503 -0.00000000000E+00 -0.00000000000E+00 -0.43363690926E+03  0.43363690926E+03  0.00000000000E+00 0. -1.
          6    1    1    2  501    0 -0.12563502328E+03  0.14778602062E+03 -0.17493416061E+03  0.31329830436E+03  0.17300000000E+03 0. -1.
         -6    1    1    2    0  502  0.12563502328E+03 -0.14778602062E+03 -0.10040920341E+03  0.27863215015E+03  0.17300000000E+03 0. -1.
<mgrwt>
<rscale>  2 0.25991127E+03</rscale>
<asrwt>0</asrwt>
<pdfrwt beam="1">  1       21 0.24352853E-01 0.25991127E+03</pdfrwt>
<pdfrwt beam="2">  1       21 0.66713370E-01 0.25991127E+03</pdfrwt>
<totfact> 0.31731621E+04</totfact>
</mgrwt>
</event>
<event>
 4    1  0.4531281E+000  0.1802234E+03  0.7546771E-02  0.1167587E+00
         21   -1    0    0  501  502  0.00000000000E+00  0.00000000000E+00  0.25080685237E+03  0.25080685237E+03  0.00000000000E+00 0. -1.
         21   -1    0    0  502  503 -0.00000000000E+00 -0.00000000000E+00 -0.33989168923E+03  0.33989168923E+03  0.00000000000E+00 0. -1.
          6    1    1    2  501    0  0.43734498983E+02 -0.25274094526E+02  0.18782530860E+03  0.26030526849E+03  0.17300000000E+03 0. -1.
         -6    1    1    2    0  503 -0.43734498983E+02  0.25274094526E+02 -0.27691014546E+03  0.33039327310E+03  0.17300000000E+03 0. -1.
<mgrwt>
<rscale>  2 0.18022343E+03</rscale>
<asrwt>0</asrwt>
<pdfrwt beam="1">  1       21 0.38585670E-01 0.18022343E+03</pdfrwt>
<pdfrwt beam="2">  1       21 0.52291029E-01 0.18022343E+03</pdfrwt>
<totfact> 0.22633048E+04</totfact>
</mgrwt>
</event>
<event>
 4    1  0.4531281E+000  0.1898515E+03  0.7546771E-02  0.1158595E+00
         21   -1    0    0  503  502  0.00000000000E+00  0.00000000000E+00  0.55539596338E+03  0.55539596338E+03  0.00000000000E+00 0.  1.
         21   -1    0    0  501  503 -0.00000000000E+00 -0.00000000000E+00 -0.66960946635E+02  0.66960946635E+02  0.00000000000E+00 0. -1.
          6    1    1    2  501    0 -0.24446455731E+01 -0.78157737704E+02  0.18958722124E+03  0.26830378810E+03  0.17300000000E+03 0. -1.
         -6    1    1    2    0  502  0.24446455731E+01  0.78157737704E+02  0.29884779551E+03  0.35405312191E+03  0.17300000000E+03 0.  1.
<mgrwt>
<rscale>  2 0.18985154E+03</rscale>
<asrwt>0</asrwt>
<pdfrwt beam="1">  1       21 0.85445530E-01 0.18985154E+03</pdfrwt>
<pdfrwt beam="2">  1       21 0.10301684E-01 0.18985154E+03</pdfrwt>
<totfact> 0.91262814E+04</totfact>
</mgrwt>
</event>
<event>
 4    1  0.4531281E+000  0.2386587E+03  0.7546771E-02  0.1120690E+00
         21   -1    0    0  501  502  0.00000000000E+00  0.00000000000E+00  0.10978832433E+03  0.10978832433E+03  0.00000000000E+00 0. -1.
         21   -1    0    0  502  503 -0.00000000000E+00 -0.00000000000E+00 -0.67245373960E+03  0.67245373960E+03  0.00000000000E+00 0. -1.
          6    1    1    2  501    0  0.12133816908E+03  0.11093251740E+03 -0.94370336279E+02  0.25663930927E+03  0.17300000000E+03 0. -1.
         -6    1    1    2    0  503 -0.12133816908E+03 -0.11093251740E+03 -0.46829507900E+03  0.52560275466E+03  0.17300000000E+03 0. -1.
<mgrwt>
<rscale>  2 0.23865870E+03</rscale>
<asrwt>0</asrwt>
<pdfrwt beam="1">  1       21 0.16890512E-01 0.23865870E+03</pdfrwt>
<pdfrwt beam="2">  1       21 0.10345442E+00 0.23865870E+03</pdfrwt>
<totfact> 0.23287650E+04</totfact>
</mgrwt>
</event>
<event>
 4    1  0.4531281E+000  0.2295163E+03  0.7546771E-02  0.1126981E+00
         21   -1    0    0  501  502  0.00000000000E+00  0.00000000000E+00  0.95325534626E+02  0.95325534626E+02  0.00000000000E+00 0.  1.
         21   -1    0    0  502  503 -0.00000000000E+00 -0.00000000000E+00 -0.73393903585E+03  0.73393903585E+03  0.00000000000E+00 0.  1.
          6    1    1    2  501    0 -0.47104811248E+02  0.14328248938E+03 -0.11321141478E+03  0.25591904861E+03  0.17300000000E+03 0.  1.
         -6    1    1    2    0  503  0.47104811248E+02 -0.14328248938E+03 -0.52540208644E+03  0.57334552186E+03  0.17300000000E+03 0.  1.
<mgrwt>
<rscale>  2 0.22951631E+03</rscale>
<asrwt>0</asrwt>
<pdfrwt beam="1">  1       21 0.14665467E-01 0.22951631E+03</pdfrwt>
<pdfrwt beam="2">  1       21 0.11291370E+00 0.22951631E+03</pdfrwt>
<totfact> 0.24525057E+04</totfact>
</mgrwt>
</event>
<event>
 4    1  0.4531281E+000  0.2270665E+03  0.7546771E-02  0.1128722E+00
         21   -1    0    0  503  502  0.00000000000E+00  0.00000000000E+00  0.21532912993E+04  0.21532912993E+04  0.00000000000E+00 0. -1.
         21   -1    0    0  501  503 -0.00000000000E+00 -0.00000000000E+00 -0.27999122441E+02  0.27999122441E+02  0.00000000000E+00 0. -1.
          6    1    1    2  501    0 -0.13376737370E+02  0.14646243964E+03  0.64760225788E+03  0.68625641544E+03  0.17300000000E+03 0. -1.
         -6    1    1    2    0  502  0.13376737370E+02 -0.14646243964E+03  0.14776899190E+04  0.14950340063E+04  0.17300000000E+03 0. -1.
<mgrwt>
<rscale>  2 0.22706647E+03</rscale>
<asrwt>0</asrwt>
<pdfrwt beam="1">  1       21 0.33127545E+00 0.22706647E+03</pdfrwt>
<pdfrwt beam="2">  1       21 0.43075590E-02 0.22706647E+03</pdfrwt>
<totfact> 0.74988509E+03</totfact>
</mgrwt>
</event>
<event>
 4    1  0.4531281E+000  0.1771955E+03  0.7546771E-02  0.1170545E+00
         21   -1    0    0  503  502  0.00000000000E+00  0.00000000000E+00  0.39829292185E+03  0.39829292185E+03  0.00000000000E+00 0.  1.
         21   -1    0    0  501  503 -0.00000000000E+00 -0.00000000000E+00 -0.21599189190E+03  0.21599189190E+03  0.00000000000E+00 0.  1.
          6    1    1    2  501    0 -0.20116126727E+02  0.32627984018E+02 -0.15360616940E+03  0.23450607492E+03  0.17300000000E+03 0.  1.
         -6    1    1    2    0  502  0.20116126727E+02 -0.32627984018E+02  0.33590719935E+03  0.37977873883E+03  0.17300000000E+03 0.  1.
<mgrwt>
<rscale>  2 0.17719550E+03</rscale>
<asrwt>0</asrwt>
<pdfrwt beam="1">  1       21 0.61275834E-01 0.17719550E+03</pdfrwt>
<pdfrwt beam="2">  1       21 0.33229522E-01 0.17719550E+03</pdfrwt>
<totfact> 0.21794801E+04</totfact>
</mgrwt>
</event>
<event>
 4    1  0.4531281E+000  0.2080565E+03  0.7546771E-02  0.1143114E+00
         21   -1    0    0  501  502  0.00000000000E+00  0.00000000000E+00  0.10741987296E+04  0.10741987296E+04  0.00000000000E+00 0.  1.
         21   -1    0    0  502  503 -0.00000000000E+00 -0.00000000000E+00 -0.55787410758E+02  0.55787410758E+02  0.00000000000E+00 0.  1.
          6    1    1    2  501    0  0.10295864074E+03 -0.52516869573E+02  0.80691998829E+03  0.83331108885E+03  0.17300000000E+03 0.  1.
         -6    1    1    2    0  503 -0.10295864074E+03  0.52516869573E+02  0.21149133056E+03  0.29667505152E+03  0.17300000000E+03 0.  1.
<mgrwt>
<rscale>  2 0.20805649E+03</rscale>
<asrwt>0</asrwt>
<pdfrwt beam="1">  1       21 0.16526133E+00 0.20805649E+03</pdfrwt>
<pdfrwt beam="2">  1       21 0.85826794E-02 0.20805649E+03</pdfrwt>
<totfact> 0.24222999E+04</totfact>
</mgrwt>
</event>
<event>
 4    1  0.4531281E+000  0.2884231E+03  0.7546771E-02  0.1091175E+00
         21   -1    0    0  503  502  0.00000000000E+00  0.00000000000E+00  0.14736636486E+04  0.14736636486E+04  0.00000000000E+00 0.  1.
         21   -1    0    0  501  503 -0.00000000000E+00 -0.00000000000E+00 -0.57635478570E+02  0.57635478570E+02  0.00000000000E+00 0. -1.
          6    1    1    2  501    0  0.19851824961E+03 -0.11768350405E+03  0.59819370350E+03  0.66409608451E+03  0.17300000000E+03 0. -1.
         -6    1    1    2    0  502 -0.19851824961E+03  0.11768350405E+03  0.81783446652E+03  0.86720304265E+03  0.17300000000E+03 0.  1.
<mgrwt>
<rscale>  2 0.28842313E+03</rscale>
<asrwt>0</asrwt>
<pdfrwt beam="1">  1       21 0.22671746E+00 0.28842313E+03</pdfrwt>
<pdfrwt beam="2">  1       21 0.88669978E-02 0.28842313E+03</pdfrwt>
<totfact> 0.85356861E+03</totfact>
</mgrwt>
</event>
<event>
 4    1  0.4531281E+000  0.2393696E+03  0.7546771E-02  0.1120214E+00
         21   -1    0    0  503  502  0.00000000000E+00  0.00000000000E+00  0.39341185056E+03  0.39341185056E+03  0.00000000000E+00 0. -1.
         21   -1    0    0  501  503 -0.00000000000E+00 -0.00000000000E+00 -0.24459549376E+03  0.24459549376E+03  0.00000000000E+00 0. -1.
          6    1    1    2  501    0  0.16543350019E+03  0.73614452720E+00 -0.12849285328E+03  0.27167664279E+03  0.17300000000E+03 0. -1.
         -6    1    1    2    0  502 -0.16543350019E+03 -0.73614452720E+00  0.27730921008E+03  0.36633070154E+03  0.17300000000E+03 0. -1.
<mgrwt>
<rscale>  2 0.23936956E+03</rscale>
<asrwt>0</asrwt>
<pdfrwt beam="1">  1       21 0.60524900E-01 0.23936956E+03</pdfrwt>
<pdfrwt beam="2">  1       21 0.37630076E-01 0.23936956E+03</pdfrwt>
<totfact> 0.16858957E+04</totfact>
</mgrwt>
</event>
<event>
 4    1  0.4531281E+000  0.1941031E+03  0.7546771E-02  0.1154812E+00
         21   -1    0    0  501  502  0.00000000000E+00  0.00000000000E+00  0.54794597784E+03  0.54794597784E+03  0.00000000000E+00 0.  1.
         21   -1    0    0  502  503 -0.00000000000E+00 -0.00000000000E+00 -0.93305942122E+02  0.93305942122E+02  0.00000000000E+00 0. -1.
          6    1    1    2  501    0  0.83305345475E+02  0.28411890889E+02  0.39177460119E+03  0.43722231675E+03  0.17300000000E+03 0.  1.
         -6    1    1    2    0  503 -0.83305345475E+02 -0.28411890889E+02  0.62865434533E+02  0.20402960321E+03  0.17300000000E+03 0. -1.
<mgrwt>
<rscale>  2 0.19410311E+03</rscale>
<asrwt>0</asrwt>
<pdfrwt beam="1">  1       21 0.84299379E-01 0.19410311E+03</pdfrwt>
<pdfrwt beam="2">  1       21 0.14354761E-01 0.19410311E+03</pdfrwt>
<totfact> 0.51854304E+04</totfact>
</mgrwt>
</event>
<event>
 4    1  0.4531281E+000  0.2123134E+03  0.7546771E-02  0.1139747E+00
         21   -1    0    0  501  502  0.00000000000E+00  0.00000000000E+00  0.28311339348E+02  0.28311339348E+02  0.00000000000E+00 0. -1.
         21   -1    0    0  502  503 -0.00000000000E+00 -0.00000000000E+00 -0.18362278771E+04  0.18362278771E+04  0.00000000000E+00 0.  1.
          6    1    1    2  501    0  0.89029075709E+02  0.84981296864E+02 -0.12438244363E+04  0.12618146558E+04  0.17300000000E+03 0.  1.
         -6    1    1    2    0  503 -0.89029075709E+02 -0.84981296864E+02 -0.56409210136E+03  0.60272456061E+03  0.17300000000E+03 0. -1.
<mgrwt>
<rscale>  2 0.21231344E+03</rscale>
<asrwt>0</asrwt>
<pdfrwt beam="1">  1       21 0.43555901E-02 0.21231344E+03</pdfrwt>
<pdfrwt beam="2">  1       21 0.28249664E+00 0.21231344E+03</pdfrwt>
<totfact> 0.14348027E+04</totfact>
</mgrwt>
</event>
<event>
 4    1  0.4531281E+000  0.1816664E+03  0.7546771E-02  0.1166200E+00
         21   -1    0    0  503  502  0.00000000000E+00  0.00000000000E+00  0.98132522476E+02  0.98132522476E+02  0.00000000000E+00 0. -1.
         21   -1    0    0  501  503 -0.00000000000E+00 -0.00000000000E+00 -0.38371105400E+03  0.38371105400E+03  0.00000000000E+00 0. -1.
          6    1    1    2  501    0 -0.54370492016E+02  0.10840956041E+02 -0.22746922003E+03  0.29110981226E+03  0.17300000000E+03 0. -1.
         -6    1    1    2    0  502  0.54370492016E+02 -0.10840956041E+02 -0.58109311486E+02  0.19073376421E+03  0.17300000000E+03 0. -1.
<mgrwt>
<rscale>  2 0.18166639E+03</rscale>
<asrwt>0</asrwt>
<pdfrwt beam="1">  1       21 0.15097311E-01 0.18166639E+03</pdfrwt>
<pdfrwt beam="2">  1       21 0.59032469E-01 0.18166639E+03</pdfrwt>
<totfact> 0.10445237E+05</totfact>
</mgrwt>
</event>
<event>
 4    1  0.4531281E+000  0.2024732E+03  0.7546771E-02  0.1147669E+00
         21   -1    0    0  503  502  0.00000000000E+00  0.00000000000E+00  0.11930384231E+03  0.11930384231E+03  0.00000000000E+00 0. -1.
         21   -1    0    0  501  503 -0.00000000000E+00 -0.00000000000E+00 -0.63761059293E+03  0.63761059293E+03  0.00000000000E+00 0. -1.
          6    1    1    2  501    0 -0.10452301279E+03  0.11888617747E+02 -0.51613639491E+03  0.55442959660E+03  0.17300000000E+03 0. -1.
         -6    1    1    2    0  502  0.10452301279E+03 -0.11888617747E+02 -0.21703557002E+01  0.20248483864E+03  0.17300000000E+03 0. -1.
<mgrwt>
<rscale>  2 0.20247321E+03</rscale>
<asrwt>0</asrwt>
<pdfrwt beam="1">  1       21 0.18354437E-01 0.20247321E+03</pdfrwt>
<pdfrwt beam="2">  1       21 0.98093938E-01 0.20247321E+03</pdfrwt>
<totfact> 0.23129279E+04</totfact>
</mgrwt>
</event>
<event>
 4    1  0.4531281E+000  0.2035072E+03  0.7546771E-02  0.1146813E+00
         21   -1    0    0  503  502  0.00000000000E+00  0.00000000000E+00  0.16792299548E+04  0.16792299548E+04  0.00000000000E+00 0. -1.
         21   -1    0    0  501  503 -0.00000000000E+00 -0.00000000000E+00 -0.24679368892E+02  0.24679368892E+02  0.00000000000E+00 0. -1.
          6    1    1    2  501    0  0.10591582918E+03 -0.16370810867E+02  0.80546142343E+03  0.83077269512E+03  0.17300000000E+03 0. -1.
         -6    1    1    2    0  502 -0.10591582918E+03  0.16370810867E+02  0.84908916250E+03  0.87313662859E+03  0.17300000000E+03 0. -1.
<mgrwt>
<rscale>  2 0.20350717E+03</rscale>
<asrwt>0</asrwt>
<pdfrwt beam="1">  1       21 0.25834298E+00 0.20350717E+03</pdfrwt>
<pdfrwt beam="2">  1       21 0.37968273E-02 0.20350717E+03</pdfrwt>
<totfact> 0.25170824E+04</totfact>
</mgrwt>
</event>
<event>
 4    1  0.4531281E+000  0.4463110E+03  0.7546771E-02  0.1028828E+00
         21   -1    0    0  501  502  0.00000000000E+00  0.00000000000E+00  0.80789306252E+03  0.80789306252E+03  0.00000000000E+00 0.  1.
         21   -1    0    0  502  503 -0.00000000000E+00 -0.00000000000E+00 -0.28108380459E+03  0.28108380459E+03  0.00000000000E+00 0. -1.
          6    1    1    2  501    0  0.30389272315E+03 -0.27733324404E+03  0.45422939033E+03  0.63680283799E+03  0.17300000000E+03 0.  1.
         -6    1    1    2    0  503 -0.30389272315E+03  0.27733324404E+03  0.72579867594E+02  0.45217402912E+03  0.17300000000E+03 0. -1.
<mgrwt>
<rscale>  2 0.44631101E+03</rscale>
<asrwt>0</asrwt>
<pdfrwt beam="1">  1       21 0.12429124E+00 0.44631101E+03</pdfrwt>
<pdfrwt beam="2">  1       21 0.43243662E-01 0.44631101E+03</pdfrwt>
<totfact> 0.21453740E+03</totfact>
</mgrwt>
</event>
<event>
 4    1  0.4531281E+000  0.1913001E+03  0.7546771E-02  0.1157294E+00
         21   -1    0    0  501  502  0.00000000000E+00  0.00000000000E+00  0.12446324857E+04  0.12446324857E+04  0.00000000000E+00 0. -1.
         21   -1    0    0  502  503 -0.00000000000E+00 -0.00000000000E+00 -0.54648352135E+02  0.54648352135E+02  0.00000000000E+00 0. -1.
          6    1    1    2  501    0 -0.80030477722E+02  0.16181534054E+02  0.10365387909E+04  0.10540438247E+04  0.17300000000E+03 0. -1.
         -6    1    1    2    0  503  0.80030477722E+02 -0.16181534054E+02  0.15344534265E+03  0.24523701309E+03  0.17300000000E+03 0. -1.
<mgrwt>
<rscale>  2 0.19130008E+03</rscale>
<asrwt>0</asrwt>
<pdfrwt beam="1">  1       21 0.19148190E+00 0.19130008E+03</pdfrwt>
<pdfrwt beam="2">  1       21 0.84074397E-02 0.19130008E+03</pdfrwt>
<totfact> 0.16800992E+04</totfact>
</mgrwt>
</event>
<event>
 4    1  0.4531281E+000  0.1772182E+03  0.7546771E-02  0.1170523E+00
         21   -1    0    0  503  502  0.00000000000E+00  0.00000000000E+00  0.39884065552E+03  0.39884065552E+03  0.00000000000E+00 0.  1.
         21   -1    0    0  501  503 -0.00000000000E+00 -0.00000000000E+00 -0.13586664777E+03  0.13586664777E+03  0.00000000000E+00 0.  1.
          6    1    1    2  501    0 -0.16375278563E+02 -0.34772855057E+02 -0.41867019415E+02  0.18209653624E+03  0.17300000000E+03 0.  1.
         -6    1    1    2    0  502  0.16375278563E+02  0.34772855057E+02  0.30484102717E+03  0.35261076705E+03  0.17300000000E+03 0.  1.
<mgrwt>
<rscale>  2 0.17721823E+03</rscale>
<asrwt>0</asrwt>
<pdfrwt beam="1">  1       21 0.61360100E-01 0.17721823E+03</pdfrwt>
<pdfrwt beam="2">  1       21 0.20902561E-01 0.17721823E+03</pdfrwt>
<totfact> 0.52859453E+04</totfact>
</mgrwt>
</event>
<event>
 4    1  0.4531281E+000  0.2169228E+03  0.7546771E-02  0.1136198E+00
         21   -1    0    0  503  502  0.00000000000E+00  0.00000000000E+00  0.51973802301E+03  0.51973802301E+03  0.00000000000E+00 0. -1.
         21   -1    0    0  501  503 -0.00000000000E+00 -0.00000000000E+00 -0.92345128216E+02  0.92345128216E+02  0.00000000000E+00 0.  1.
          6    1    1    2  501    0 -0.12514836973E+03 -0.38267516144E+02  0.17087227233E+03  0.27613918717E+03  0.17300000000E+03 0. -1.
         -6    1    1    2    0  502  0.12514836973E+03  0.38267516144E+02  0.25652062246E+03  0.33594396405E+03  0.17300000000E+03 0.  1.
<mgrwt>
<rscale>  2 0.21692284E+03</rscale>
<asrwt>0</asrwt>
<pdfrwt beam="1">  1       21 0.79959694E-01 0.21692284E+03</pdfrwt>
<pdfrwt beam="2">  1       21 0.14206943E-01 0.21692284E+03</pdfrwt>
<totfact> 0.58941749E+04</totfact>
</mgrwt>
</event>
<event>
 4    1  0.4531281E+000  0.2356474E+03  0.7546771E-02  0.1122727E+00
         21   -1    0    0  503  502  0.00000000000E+00  0.00000000000E+00  0.25050941250E+03  0.25050941250E+03  0.00000000000E+00 0. -1.
         21   -1    0    0  501  503 -0.00000000000E+00 -0.00000000000E+00 -0.24682029501E+03  0.24682029501E+03  0.00000000000E+00 0.  1.
          6    1    1    2  501    0 -0.15699560402E+03  0.30872164267E+02  0.81226191515E+02  0.24925369485E+03  0.17300000000E+03 0. -1.
         -6    1    1    2    0  502  0.15699560402E+03 -0.30872164267E+02 -0.77537074029E+02  0.24807601266E+03  0.17300000000E+03 0.  1.
<mgrwt>
<rscale>  2 0.23564743E+03</rscale>
<asrwt>0</asrwt>
<pdfrwt beam="1">  1       21 0.38539910E-01 0.23564743E+03</pdfrwt>
<pdfrwt beam="2">  1       21 0.37972353E-01 0.23564743E+03</pdfrwt>
<totfact> 0.42542236E+04</totfact>
</mgrwt>
</event>
<event>
 4    1  0.4531281E+000  0.2103721E+03  0.7546771E-02  0.1141272E+00
         21   -1    0    0  501  502  0.00000000000E+00  0.00000000000E+00  0.21316351231E+03  0.21316351231E+03  0.00000000000E+00 0.  1.
         21   -1    0    0  502  503 -0.00000000000E+00 -0.00000000000E+00 -0.25647775656E+03  0.25647775656E+03  0.00000000000E+00 0.  1.
          6    1    1    2  501    0 -0.76359977578E+02  0.92176855339E+02  0.80834993353E+02  0.22536795466E+03  0.17300000000E+03 0.  1.
         -6    1    1    2    0  503  0.76359977578E+02 -0.92176855339E+02 -0.12414923760E+03  0.24427331421E+03  0.17300000000E+03 0.  1.
<mgrwt>
<rscale>  2 0.21037210E+03</rscale>
<asrwt>0</asrwt>
<pdfrwt beam="1">  1       21 0.32794386E-01 0.21037210E+03</pdfrwt>
<pdfrwt beam="2">  1       21 0.39458116E-01 0.21037210E+03</pdfrwt>
<totfact> 0.54956055E+04</totfact>
</mgrwt>
</event>
<event>
 4    1  0.4531281E+000  0.2296842E+03  0.7546771E-02  0.1126862E+00
         21   -1    0    0  501  502  0.00000000000E+00  0.00000000000E+00  0.19812591835E+04  0.19812591835E+04  0.00000000000E+00 0. -1.
         21   -1    0    0  502  503 -0.00000000000E+00 -0.00000000000E+00 -0.39027487820E+02  0.39027487820E+02  0.00000000000E+00 0.  1.
          6    1    1    2  501    0  0.12616204760E+03  0.83120097100E+02  0.15405173920E+04  0.15575457129E+04  0.17300000000E+03 0. -1.
         -6    1    1    2    0  503 -0.12616204760E+03 -0.83120097100E+02  0.40171430368E+03  0.46274095840E+03  0.17300000000E+03 0.  1.
<mgrwt>
<rscale>  2 0.22968416E+03</rscale>
<asrwt>0</asrwt>
<pdfrwt beam="1">  1       21 0.30480903E+00 0.22968416E+03</pdfrwt>
<pdfrwt beam="2">  1       21 0.60042304E-02 0.22968416E+03</pdfrwt>
<totfact> 0.60631623E+03</totfact>
</mgrwt>
</event>
<event>
 4    1  0.4531281E+000  0.1880370E+03  0.7546771E-02  0.1160244E+00
         21   -1    0    0  501  502  0.00000000000E+00  0.00000000000E+00  0.31013991876E+03  0.31013991876E+03  0.00000000000E+00 0.  1.
         21   -1    0    0  502  503 -0.00000000000E+00 -0.00000000000E+00 -0.14695567833E+03  0.14695567833E+03  0.00000000000E+00 0.  1.
          6    1    1    2  501    0 -0.74855783011E+01  0.73300016775E+02  0.18981199009E+03  0.26718255543E+03  0.17300000000E+03 0.  1.
         -6    1    1    2    0  503  0.74855783011E+01 -0.73300016775E+02 -0.26627749655E+02  0.18991304166E+03  0.17300000000E+03 0.  1.
<mgrwt>
<rscale>  2 0.18803703E+03</rscale>
<asrwt>0</asrwt>
<pdfrwt beam="1">  1       21 0.47713834E-01 0.18803703E+03</pdfrwt>
<pdfrwt beam="2">  1       21 0.22608566E-01 0.18803703E+03</pdfrwt>
<totfact> 0.77143307E+04</totfact>
</mgrwt>
</event>
<event>
 4    1  0.4531281E+000  0.1853586E+03  0.7546771E-02  0.1162715E+00
         21   -1    0    0  501  502  0.00000000000E+00  0.00000000000E+00  0.33614565520E+03  0.33614565520E+03  0.00000000000E+00 0.  1.
         21   -1    0    0  502  503 -0.00000000000E+00 -0.00000000000E+00 -0.12724062651E+03  0.12724062651E+03  0.00000000000E+00 0.  1.
          6    1    1    2  501    0 -0.37378402245E+02 -0.55060452474E+02  0.20721322043E+03  0.27801999407E+03  0.17300000000E+03 0.  1.
         -6    1    1    2    0  503  0.37378402245E+02  0.55060452474E+02  0.16918082634E+01  0.18536628765E+03  0.17300000000E+03 0.  1.
<mgrwt>
<rscale>  2 0.18535857E+03</rscale>
<asrwt>0</asrwt>
<pdfrwt beam="1">  1       21 0.51714716E-01 0.18535857E+03</pdfrwt>
<pdfrwt beam="2">  1       21 0.19575481E-01 0.18535857E+03</pdfrwt>
<totfact> 0.85566334E+04</totfact>
</mgrwt>
</event>
<event>
 4    1  0.4531281E+000  0.1940099E+03  0.7546771E-02  0.1154894E+00
         21   -1    0    0  503  502  0.00000000000E+00  0.00000000000E+00  0.20568022457E+03  0.20568022457E+03  0.00000000000E+00 0.  1.
         21   -1    0    0  501  503 -0.00000000000E+00 -0.00000000000E+00 -0.30672640221E+03  0.30672640221E+03  0.00000000000E+00 0. -1.
          6    1    1    2  501    0  0.43004797250E+02  0.76560086260E+02 -0.21324166145E+03  0.28829128598E+03  0.17300000000E+03 0. -1.
         -6    1    1    2    0  502 -0.43004797250E+02 -0.76560086260E+02  0.11219548381E+03  0.22411534080E+03  0.17300000000E+03 0.  1.
<mgrwt>
<rscale>  2 0.19400995E+03</rscale>
<asrwt>0</asrwt>
<pdfrwt beam="1">  1       21 0.31643111E-01 0.19400995E+03</pdfrwt>
<pdfrwt beam="2">  1       21 0.47188677E-01 0.19400995E+03</pdfrwt>
<totfact> 0.41229621E+04</totfact>
</mgrwt>
</event>
<event>
 4    1  0.4531281E+000  0.1939591E+03  0.7546771E-02  0.1154938E+00
         21   -1    0    0  501  502  0.00000000000E+00  0.00000000000E+00  0.21003760673E+02  0.21003760673E+02  0.00000000000E+00 0. -1.
         21   -1    0    0  502  503 -0.00000000000E+00 -0.00000000000E+00 -0.18011164800E+04  0.18011164800E+04  0.00000000000E+00 0. -1.
          6    1    1    2  501    0  0.67120133435E+02 -0.56444781959E+02 -0.95795079669E+03  0.97738930555E+03  0.17300000000E+03 0. -1.
         -6    1    1    2    0  503 -0.67120133435E+02  0.56444781959E+02 -0.82216192267E+03  0.84473093516E+03  0.17300000000E+03 0. -1.
<mgrwt>
<rscale>  2 0.19395908E+03</rscale>
<asrwt>0</asrwt>
<pdfrwt beam="1">  1       21 0.32313491E-02 0.19395908E+03</pdfrwt>
<pdfrwt beam="2">  1       21 0.27709473E+00 0.19395908E+03</pdfrwt>
<totfact> 0.25843407E+04</totfact>
</mgrwt>
</event>
<event>
 4    1  0.4531281E+000  0.2048902E+03  0.7546771E-02  0.1145677E+00
         21   -1    0    0  503  502  0.00000000000E+00  0.00000000000E+00  0.42819343292E+03  0.42819343292E+03  0.00000000000E+00 0.  1.
         21   -1    0    0  501  503 -0.00000000000E+00 -0.00000000000E+00 -0.46287234631E+03  0.46287234631E+03  0.00000000000E+00 0. -1.
          6    1    1    2  501    0  0.31374799606E+01  0.10973223007E+03 -0.41288448357E+03  0.46092689537E+03  0.17300000000E+03 0. -1.
         -6    1    1    2    0  502 -0.31374799606E+01 -0.10973223007E+03  0.37820557018E+03  0.43013888386E+03  0.17300000000E+03 0.  1.
<mgrwt>
<rscale>  2 0.20489023E+03</rscale>
<asrwt>0</asrwt>
<pdfrwt beam="1">  1       21 0.65875914E-01 0.20489023E+03</pdfrwt>
<pdfrwt beam="2">  1       21 0.71211129E-01 0.20489023E+03</pdfrwt>
<totfact> 0.37391284E+03</totfact>
</mgrwt>
</event>
<event>
 4    1  0.4531281E+000  0.1744989E+03  0.7546771E-02  0.1173236E+00
         21   -1    0    0  503  502  0.00000000000E+00  0.00000000000E+00  0.25948562320E+03  0.25948562320E+03  0.00000000000E+00 0.  1.
         21   -1    0    0  501  503 -0.00000000000E+00 -0.00000000000E+00 -0.12402936282E+03  0.12402936282E+03  0.00000000000E+00 0.  1.
          6    1    1    2  501    0 -0.17914242930E+02 -0.14140238578E+02  0.11223778577E+03  0.20747816030E+03  0.17300000000E+03 0. -1.
         -6    1    1    2    0  502  0.17914242930E+02  0.14140238578E+02  0.23218474606E+02  0.17603682572E+03  0.17300000000E+03 0. -1.
<mgrwt>
<rscale>  2 0.17449890E+03</rscale>
<asrwt>0</asrwt>
<pdfrwt beam="1">  1       21 0.39920865E-01 0.17449890E+03</pdfrwt>
<pdfrwt beam="2">  1       21 0.19081441E-01 0.17449890E+03</pdfrwt>
<totfact> 0.15327902E+05</totfact>
</mgrwt>
</event>
<event>
 4    1  0.4531281E+000  0.1883012E+03  0.7546771E-02  0.1160002E+00
         21   -1    0    0  503  502  0.00000000000E+00  0.00000000000E+00  0.96518019979E+03  0.96518019979E+03  0.00000000000E+00 0. -1.
         21   -1    0    0  501  503 -0.00000000000E+00 -0.00000000000E+00 -0.87555893579E+02  0.87555893579E+02  0.00000000000E+00 0.  1.
          6    1    1    2  501    0 -0.24347859634E+02  0.70253372966E+02  0.37796329280E+02  0.19205706753E+03  0.17300000000E+03 0.  1.
         -6    1    1    2    0  502  0.24347859634E+02 -0.70253372966E+02  0.83982797693E+03  0.86067902584E+03  0.17300000000E+03 0. -1.
<mgrwt>
<rscale>  2 0.18830123E+03</rscale>
<asrwt>0</asrwt>
<pdfrwt beam="1">  1       21 0.14848925E+00 0.18830123E+03</pdfrwt>
<pdfrwt beam="2">  1       21 0.13470138E-01 0.18830123E+03</pdfrwt>
<totfact> 0.14680185E+04</totfact>
</mgrwt>
</event>
<event>
 4    1  0.4531281E+000  0.2038052E+03  0.7546771E-02  0.1146568E+00
         21   -1    0    0  501  502  0.00000000000E+00  0.00000000000E+00  0.10238099060E+03  0.10238099060E+03  0.00000000000E+00 0. -1.
         21   -1    0    0  502  503 -0.00000000000E+00 -0.00000000000E+00 -0.11905919922E+04  0.11905919922E+04  0.00000000000E+00 0. -1.
          6    1    1    2  501    0  0.96505542546E+02  0.47898312411E+02 -0.19199783433E+02  0.20470759575E+03  0.17300000000E+03 0. -1.
         -6    1    1    2    0  503 -0.96505542546E+02 -0.47898312411E+02 -0.10690112182E+04  0.10882653870E+04  0.17300000000E+03 0. -1.
<mgrwt>
<rscale>  2 0.20380522E+03</rscale>
<asrwt>0</asrwt>
<pdfrwt beam="1">  1       21 0.15750921E-01 0.20380522E+03</pdfrwt>
<pdfrwt beam="2">  1       21 0.18316800E+00 0.20380522E+03</pdfrwt>
<totfact> 0.61553424E+03</totfact>
</mgrwt>
</event>
<event>
 4    1  0.4531281E+000  0.3103909E+03  0.7546771E-02  0.1080159E+00
         21   -1    0    0  501  502  0.00000000000E+00  0.00000000000E+00  0.28278434779E+03  0.28278434779E+03  0.00000000000E+00 0. -1.
         21   -1    0    0  502  503 -0.00000000000E+00 -0.00000000000E+00 -0.35031811246E+03  0.35031811246E+03  0.00000000000E+00 0.  1.
          6    1    1    2  501    0 -0.20249728772E+03  0.15939995386E+03  0.18705122806E+02  0.31095398123E+03  0.17300000000E+03 0. -1.
         -6    1    1    2    0  503  0.20249728772E+03 -0.15939995386E+03 -0.86238887478E+02  0.32214847902E+03  0.17300000000E+03 0. -1.
<mgrwt>
<rscale>  2 0.31039088E+03</rscale>
<asrwt>0</asrwt>
<pdfrwt beam="1">  1       21 0.43505284E-01 0.31039088E+03</pdfrwt>
<pdfrwt beam="2">  1       21 0.53895094E-01 0.31039088E+03</pdfrwt>
<totfact> 0.15574489E+04</totfact>
</mgrwt>
</event>
<event>
 4    1  0.4531281E+000  0.1879359E+03  0.7546771E-02  0.1160336E+00
         21   -1    0    0  503  502  0.00000000000E+00  0.00000000000E+00  0.13861158817E+03  0.13861158817E+03  0.00000000000E+00 0. -1.
         21   -1    0    0  501  503 -0.00000000000E+00 -0.00000000000E+00 -0.30115138151E+03  0.30115138151E+03  0.00000000000E+00 0.  1.
          6    1    1    2  501    0 -0.65496087495E+02  0.33183606841E+02 -0.16752237374E+03  0.25176106717E+03  0.17300000000E+03 0.  1.
         -6    1    1    2    0  502  0.65496087495E+02 -0.33183606841E+02  0.49825804014E+01  0.18800190251E+03  0.17300000000E+03 0. -1.
<mgrwt>
<rscale>  2 0.18793586E+03</rscale>
<asrwt>0</asrwt>
<pdfrwt beam="1">  1       21 0.21324860E-01 0.18793586E+03</pdfrwt>
<pdfrwt beam="2">  1       21 0.46330982E-01 0.18793586E+03</pdfrwt>
<totfact> 0.91518105E+04</totfact>
</mgrwt>
</event>
<event>
 4    1  0.4531281E+000  0.1776086E+03  0.7546771E-02  0.1170138E+00
         21   -1    0    0  501  502  0.00000000000E+00  0.00000000000E+00  0.26277763342E+04  0.26277763342E+04  0.00000000000E+00 0.  1.
         21   -1    0    0  502  503 -0.00000000000E+00 -0.00000000000E+00 -0.12004855245E+02  0.12004855245E+02  0.00000000000E+00 0.  1.
          6    1    1    2  501    0  0.22543465296E+02  0.33280984266E+02  0.12996013534E+04  0.13116815580E+04  0.17300000000E+03 0.  1.
         -6    1    1    2    0  503 -0.22543465296E+02 -0.33280984266E+02  0.13161701256E+04  0.13280996315E+04  0.17300000000E+03 0.  1.
<mgrwt>
<rscale>  2 0.17760865E+03</rscale>
<asrwt>0</asrwt>
<pdfrwt beam="1">  1       21 0.40427282E+00 0.17760865E+03</pdfrwt>
<pdfrwt beam="2">  1       21 0.18469029E-02 0.17760865E+03</pdfrwt>
<totfact> 0.11712585E+04</totfact>
</mgrwt>
</event>
<event>
 4    1  0.4531281E+000  0.2215686E+03  0.7546771E-02  0.1132719E+00
         21   -1    0    0  501  502  0.00000000000E+00  0.00000000000E+00  0.79565883118E+03  0.79565883118E+03  0.00000000000E+00 0. -1.
         21   -1    0    0  502  503 -0.00000000000E+00 -0.00000000000E+00 -0.61701102436E+02  0.61701102436E+02  0.00000000000E+00 0.  1.
          6    1    1    2  501    0  0.11074371628E+03  0.83063053270E+02  0.36577755752E+03  0.42765156740E+03  0.17300000000E+03 0.  1.
         -6    1    1    2    0  503 -0.11074371628E+03 -0.83063053270E+02  0.36818017122E+03  0.42970836621E+03  0.17300000000E+03 0.  1.
<mgrwt>
<rscale>  2 0.22156859E+03</rscale>
<asrwt>0</asrwt>
<pdfrwt beam="1">  1       21 0.12240904E+00 0.22156859E+03</pdfrwt>
<pdfrwt beam="2">  1       21 0.94924779E-02 0.22156859E+03</pdfrwt>
<totfact> 0.44029262E+04</totfact>
</mgrwt>
</event>
<event>
 4    1  0.4531281E+000  0.4388142E+03  0.7546771E-02  0.1031111E+00
         21   -1    0    0  501  502  0.00000000000E+00  0.00000000000E+00  0.57732565170E+03  0.57732565170E+03  0.00000000000E+00 0.  1.
         21   -1    0    0  502  503 -0.00000000000E+00 -0.00000000000E+00 -0.34452846385E+03  0.34452846385E+03  0.00000000000E+00 0. -1.
          6    1    1    2  501    0  0.10356863147E+03 -0.38974659187E+03  0.34060252607E+02  0.44013403425E+03  0.17300000000E+03 0. -1.
         -6    1    1    2    0  503 -0.10356863147E+03  0.38974659187E+03  0.19873693524E+03  0.48172008130E+03  0.17300000000E+03 0.  1.
<mgrwt>
<rscale>  2 0.43881416E+03</rscale>
<asrwt>0</asrwt>
<pdfrwt beam="1">  1       21 0.88819331E-01 0.43881416E+03</pdfrwt>
<pdfrwt beam="2">  1       21 0.53004379E-01 0.43881416E+03</pdfrwt>
<totfact> 0.31952464E+03</totfact>
</mgrwt>
</event>
<event>
 4    1  0.4531281E+000  0.2440769E+03  0.7546771E-02  0.1117106E+00
         21   -1    0    0  503  502  0.00000000000E+00  0.00000000000E+00  0.38358447547E+02  0.38358447547E+02  0.00000000000E+00 0. -1.
         21   -1    0    0  501  503 -0.00000000000E+00 -0.00000000000E+00 -0.15933002120E+04  0.15933002120E+04  0.00000000000E+00 0. -1.
          6    1    1    2  501    0 -0.21910767308E+02  0.17077595735E+03 -0.64784108910E+03  0.69229443596E+03  0.17300000000E+03 0. -1.
         -6    1    1    2    0  502  0.21910767308E+02 -0.17077595735E+03 -0.90710067535E+03  0.93936422358E+03  0.17300000000E+03 0. -1.
<mgrwt>
<rscale>  2 0.24407685E+03</rscale>
<asrwt>0</asrwt>
<pdfrwt beam="1">  1       21 0.59013012E-02 0.24407685E+03</pdfrwt>
<pdfrwt beam="2">  1       21 0.24512304E+00 0.24407685E+03</pdfrwt>
<totfact> 0.13816376E+04</totfact>
</mgrwt>
</event>
<event>
 4    1  0.4531281E+000  0.2130629E+03  0.7546771E-02  0.1139163E+00
         21   -1    0    0  501  502  0.00000000000E+00  0.00000000000E+00  0.46525467225E+03  0.46525467225E+03  0.00000000000E+00 0.  1.
         21   -1    0    0  502  503 -0.00000000000E+00 -0.00000000000E+00 -0.23616794367E+03  0.23616794367E+03  0.00000000000E+00 0.  1.
          6    1    1    2  501    0 -0.10071686223E+03 -0.72958217078E+02  0.38321059155E+03  0.43845882960E+03  0.17300000000E+03 0.  1.
         -6    1    1    2    0  503  0.10071686223E+03  0.72958217078E+02 -0.15412386297E+03  0.26296378632E+03  0.17300000000E+03 0.  1.
<mgrwt>
<rscale>  2 0.21306287E+03</rscale>
<asrwt>0</asrwt>
<pdfrwt beam="1">  1       21 0.71577642E-01 0.21306287E+03</pdfrwt>
<pdfrwt beam="2">  1       21 0.36333530E-01 0.21306287E+03</pdfrwt>
<totfact> 0.12715855E+04</totfact>
</mgrwt>
</event>
<event>
 4    1  0.4531281E+000  0.1992956E+03  0.7546771E-02  0.1150335E+00
         21   -1    0    0  503  502  0.00000000000E+00  0.00000000000E+00  0.25611116591E+03  0.25611116591E+03  0.00000000000E+00 0. -1.
         21   -1    0    0  501  503 -0.00000000000E+00 -0.00000000000E+00 -0.27211459860E+03  0.27211459860E+03  0.00000000000E+00 0.  1.
          6    1    1    2  501    0  0.43511472473E+02 -0.88862162666E+02  0.16520449531E+03  0.25886532688E+03  0.17300000000E+03 0. -1.
         -6    1    1    2    0  502 -0.43511472473E+02  0.88862162666E+02 -0.18120792800E+03  0.26936043763E+03  0.17300000000E+03 0.  1.
<mgrwt>
<rscale>  2 0.19929559E+03</rscale>
<asrwt>0</asrwt>
<pdfrwt beam="1">  1       21 0.39401718E-01 0.19929559E+03</pdfrwt>
<pdfrwt beam="2">  1       21 0.41863785E-01 0.19929559E+03</pdfrwt>
<totfact> 0.33984401E+04</totfact>
</mgrwt>
</event>
<event>
 4    1  0.4531281E+000  0.2589027E+03  0.7546771E-02  0.1107804E+00
         21   -1    0    0  503  502  0.00000000000E+00  0.00000000000E+00  0.57668280426E+02  0.57668280426E+02  0.00000000000E+00 0. -1.
         21   -1    0    0  501  503 -0.00000000000E+00 -0.00000000000E+00 -0.11735316449E+04  0.11735316449E+04  0.00000000000E+00 0. -1.
          6    1    1    2  501    0 -0.18936949099E+03 -0.35225181958E+02 -0.49783638873E+03  0.56113428651E+03  0.17300000000E+03 0. -1.
         -6    1    1    2    0  502  0.18936949099E+03  0.35225181958E+02 -0.61802697573E+03  0.67006563879E+03  0.17300000000E+03 0. -1.
<mgrwt>
<rscale>  2 0.25890272E+03</rscale>
<asrwt>0</asrwt>
<pdfrwt beam="1">  1       21 0.88720432E-02 0.25890272E+03</pdfrwt>
<pdfrwt beam="2">  1       21 0.18054333E+00 0.25890272E+03</pdfrwt>
<totfact> 0.17303159E+04</totfact>
</mgrwt>
</event>
<event>
 4    1  0.4531281E+000  0.2781879E+03  0.7546771E-02  0.1096683E+00
         21   -1    0    0  501  502  0.00000000000E+00  0.00000000000E+00  0.67623228545E+03  0.67623228545E+03  0.00000000000E+00 0. -1.
         21   -1    0    0  502  503 -0.00000000000E+00 -0.00000000000E+00 -0.23778993818E+03  0.23778993818E+03  0.00000000000E+00 0. -1.
          6    1    1    2  501    0 -0.21706493951E+03 -0.18502083743E+02  0.54837447026E+03  0.61490086575E+03  0.17300000000E+03 0. -1.
         -6    1    1    2    0  503  0.21706493951E+03  0.18502083743E+02 -0.10993212299E+03  0.29912135787E+03  0.17300000000E+03 0. -1.
<mgrwt>
<rscale>  2 0.27818791E+03</rscale>
<asrwt>0</asrwt>
<pdfrwt beam="1">  1       21 0.10403574E+00 0.27818791E+03</pdfrwt>
<pdfrwt beam="2">  1       21 0.36583068E-01 0.27818791E+03</pdfrwt>
<totfact> 0.50815108E+03</totfact>
</mgrwt>
</event>
<event>
 4    1  0.4531281E+000  0.1910443E+03  0.7546771E-02  0.1157523E+00
         21   -1    0    0  503  502  0.00000000000E+00  0.00000000000E+00  0.29561318991E+03  0.29561318991E+03  0.00000000000E+00 0.  1.
         21   -1    0    0  501  503 -0.00000000000E+00 -0.00000000000E+00 -0.35958786735E+03  0.35958786735E+03  0.00000000000E+00 0.  1.
          6    1    1    2  501    0  0.46924320299E+02  0.66083450297E+02 -0.29745462134E+03  0.35352109696E+03  0.17300000000E+03 0.  1.
         -6    1    1    2    0  502 -0.46924320299E+02 -0.66083450297E+02  0.23347994390E+03  0.30167996030E+03  0.17300000000E+03 0.  1.
<mgrwt>
<rscale>  2 0.19104427E+03</rscale>
<asrwt>0</asrwt>
<pdfrwt beam="1">  1       21 0.45478953E-01 0.19104427E+03</pdfrwt>
<pdfrwt beam="2">  1       21 0.55321210E-01 0.19104427E+03</pdfrwt>
<totfact> 0.14300595E+04</totfact>
</mgrwt>
</event>
<event>
 4    1  0.4531281E+000  0.2870118E+03  0.7546771E-02  0.1091920E+00
         21   -1    0    0  501  502  0.00000000000E+00  0.00000000000E+00  0.46969950881E+02  0.46969950881E+02  0.00000000000E+00 0.  1.
         21   -1    0    0  502  503 -0.00000000000E+00 -0.00000000000E+00 -0.18805546762E+04  0.18805546762E+04  0.00000000000E+00 0. -1.
          6    1    1    2  501    0 -0.10372259953E+03 -0.20417735380E+03 -0.11670075740E+04  0.12017830284E+04  0.17300000000E+03 0. -1.
         -6    1    1    2    0  503  0.10372259953E+03  0.20417735380E+03 -0.66657715125E+03  0.72574159866E+03  0.17300000000E+03 0.  1.
<mgrwt>
<rscale>  2 0.28701179E+03</rscale>
<asrwt>0</asrwt>
<pdfrwt beam="1">  1       21 0.72261473E-02 0.28701179E+03</pdfrwt>
<pdfrwt beam="2">  1       21 0.28931606E+00 0.28701179E+03</pdfrwt>
<totfact> 0.51610141E+03</totfact>
</mgrwt>
</event>
<event>
 4    1  0.4531281E+000  0.1816020E+03  0.7546771E-02  0.1166262E+00
         21   -1    0    0  501  502  0.00000000000E+00  0.00000000000E+00  0.28496073946E+03  0.28496073946E+03  0.00000000000E+00 0. -1.
         21   -1    0    0  502  503 -0.00000000000E+00 -0.00000000000E+00 -0.32439340778E+03  0.32439340778E+03  0.00000000000E+00 0. -1.
          6    1    1    2  501    0  0.32580544252E+02 -0.44596018818E+02  0.22464023959E+03  0.28886421378E+03  0.17300000000E+03 0. -1.
         -6    1    1    2    0  503 -0.32580544252E+02  0.44596018818E+02 -0.26407290791E+03  0.32048993346E+03  0.17300000000E+03 0. -1.
<mgrwt>
<rscale>  2 0.18160203E+03</rscale>
<asrwt>0</asrwt>
<pdfrwt beam="1">  1       21 0.43840114E-01 0.18160203E+03</pdfrwt>
<pdfrwt beam="2">  1       21 0.49906678E-01 0.18160203E+03</pdfrwt>
<totfact> 0.19250616E+04</totfact>
</mgrwt>
</event>
<event>
 4    1  0.4531281E+000  0.1966141E+03  0.7546771E-02  0.1152628E+00
         21   -1    0    0  501  502  0.00000000000E+00  0.00000000000E+00  0.13872498148E+03  0.13872498148E+03  0.00000000000E+00 0. -1.
         21   -1    0    0  502  503 -0.00000000000E+00 -0.00000000000E+00 -0.29155453608E+03  0.29155453608E+03  0.00000000000E+00 0.  1.
          6    1    1    2  501    0  0.20406123669E+02 -0.91168409353E+02 -0.31170317412E+02  0.19906952915E+03  0.17300000000E+03 0. -1.
         -6    1    1    2    0  503 -0.20406123669E+02  0.91168409353E+02 -0.12165923719E+03  0.23120998841E+03  0.17300000000E+03 0.  1.
<mgrwt>
<rscale>  2 0.19661406E+03</rscale>
<asrwt>0</asrwt>
<pdfrwt beam="1">  1       21 0.21342305E-01 0.19661406E+03</pdfrwt>
<pdfrwt beam="2">  1       21 0.44854544E-01 0.19661406E+03</pdfrwt>
<totfact> 0.97339699E+04</totfact>
</mgrwt>
</event>
<event>
 4    1  0.4531281E+000  0.4330300E+03  0.7546771E-02  0.1032907E+00
         21   -1    0    0  503  502  0.00000000000E+00  0.00000000000E+00  0.31020910972E+03  0.31020910972E+03  0.00000000000E+00 0. -1.
         21   -1    0    0  501  503 -0.00000000000E+00 -0.00000000000E+00 -0.92870655476E+03  0.92870655476E+03  0.00000000000E+00 0.  1.
          6    1    1    2  501    0 -0.35877290664E+03 -0.16990583125E+03 -0.67526233935E+03  0.80218091287E+03  0.17300000000E+03 0.  1.
         -6    1    1    2    0  502  0.35877290664E+03  0.16990583125E+03  0.56764894306E+02  0.43673475160E+03  0.17300000000E+03 0. -1.
<mgrwt>
<rscale>  2 0.43303001E+03</rscale>
<asrwt>0</asrwt>
<pdfrwt beam="1">  1       21 0.47724479E-01 0.43303001E+03</pdfrwt>
<pdfrwt beam="2">  1       21 0.14287793E+00 0.43303001E+03</pdfrwt>
<totfact> 0.12184651E+03</totfact>
</mgrwt>
</event>
<event>
 4    1  0.4531281E+000  0.1857746E+03  0.7546771E-02  0.1162329E+00
         21   -1    0    0  501  502  0.00000000000E+00  0.00000000000E+00  0.12007328734E+03  0.12007328734E+03  0.00000000000E+00 0. -1.
         21   -1    0    0  502  503 -0.00000000000E+00 -0.00000000000E+00 -0.55318806896E+03  0.55318806896E+03  0.00000000000E+00 0. -1.
          6    1    1    2  501    0 -0.16283388183E+01 -0.67679718801E+02  0.16768918668E+02  0.18652987015E+03  0.17300000000E+03 0. -1.
         -6    1    1    2    0  503  0.16283388183E+01  0.67679718801E+02 -0.44988370029E+03  0.48673148615E+03  0.17300000000E+03 0. -1.
<mgrwt>
<rscale>  2 0.18577458E+03</rscale>
<asrwt>0</asrwt>
<pdfrwt beam="1">  1       21 0.18472813E-01 0.18577458E+03</pdfrwt>
<pdfrwt beam="2">  1       21 0.85105858E-01 0.18577458E+03</pdfrwt>
<totfact> 0.32093511E+04</totfact>
</mgrwt>
</event>
<event>
 4    1  0.4531281E+000  0.1787133E+03  0.7546771E-02  0.1169054E+00
         21   -1    0    0  501  502  0.00000000000E+00  0.00000000000E+00  0.58765602063E+03  0.58765602063E+03  0.00000000000E+00 0. -1.
         21   -1    0    0  502  503 -0.00000000000E+00 -0.00000000000E+00 -0.17984090984E+03  0.17984090984E+03  0.00000000000E+00 0. -1.
          6    1    1    2  501    0  0.44826224285E+02 -0.18815546384E+00  0.52446844836E+03  0.55408084168E+03  0.17300000000E+03 0. -1.
         -6    1    1    2    0  503 -0.44826224285E+02  0.18815546384E+00 -0.11665333757E+03  0.21341608879E+03  0.17300000000E+03 0. -1.
<mgrwt>
<rscale>  2 0.17871325E+03</rscale>
<asrwt>0</asrwt>
<pdfrwt beam="1">  1       21 0.90408618E-01 0.17871325E+03</pdfrwt>
<pdfrwt beam="2">  1       21 0.27667832E-01 0.17871325E+03</pdfrwt>
<totfact> 0.13083516E+04</totfact>
</mgrwt>
</event>
<event>
 4    1  0.4531281E+000  0.1743957E+03  0.7546771E-02  0.1173340E+00
         21   -1    0    0  501  502  0.00000000000E+00  0.00000000000E+00  0.71259274966E+02  0.71259274966E+02  0.00000000000E+00 0. -1.
         21   -1    0    0  502  503 -0.00000000000E+00 -0.00000000000E+00 -0.62655695845E+03  0.62655695845E+03  0.00000000000E+00 0. -1.
          6    1    1    2  501    0 -0.21996485579E+02 -0.10020182702E+01 -0.80644503662E+02  0.19213897415E+03  0.17300000000E+03 0. -1.
         -6    1    1    2    0  503  0.21996485579E+02  0.10020182702E+01 -0.47465317983E+03  0.50567725927E+03  0.17300000000E+03 0. -1.
<mgrwt>
<rscale>  2 0.17439567E+03</rscale>
<asrwt>0</asrwt>
<pdfrwt beam="1">  1       21 0.10962965E-01 0.17439567E+03</pdfrwt>
<pdfrwt beam="2">  1       21 0.96393382E-01 0.17439567E+03</pdfrwt>
<totfact> 0.62259572E+04</totfact>
</mgrwt>
</event>
<event>
 4    1  0.4531281E+000  0.3434595E+03  0.7546771E-02  0.1065332E+00
         21   -1    0    0  503  502  0.00000000000E+00  0.00000000000E+00  0.13176541629E+04  0.13176541629E+04  0.00000000000E+00 0.  1.
         21   -1    0    0  501  503 -0.00000000000E+00 -0.00000000000E+00 -0.97586109941E+02  0.97586109941E+02  0.00000000000E+00 0. -1.
          6    1    1    2  501    0 -0.29629247408E+03 -0.15690245231E+02  0.40666984329E+03  0.53230139529E+03  0.17300000000E+03 0. -1.
         -6    1    1    2    0  502  0.29629247408E+03  0.15690245231E+02  0.81339820966E+03  0.88293887753E+03  0.17300000000E+03 0.  1.
<mgrwt>
<rscale>  2 0.34345948E+03</rscale>
<asrwt>0</asrwt>
<pdfrwt beam="1">  1       21 0.20271601E+00 0.34345948E+03</pdfrwt>
<pdfrwt beam="2">  1       21 0.15013249E-01 0.34345948E+03</pdfrwt>
<totfact> 0.45445353E+03</totfact>
</mgrwt>
</event>
<event>
 4    1  0.4531281E+000  0.1971853E+03  0.7546771E-02  0.1152136E+00
         21   -1    0    0  501  502  0.00000000000E+00  0.00000000000E+00  0.78821848002E+03  0.78821848002E+03  0.00000000000E+00 0. -1.
         21   -1    0    0  502  503 -0.00000000000E+00 -0.00000000000E+00 -0.51613589633E+02  0.51613589633E+02  0.00000000000E+00 0. -1.
          6    1    1    2  501    0  0.55188748571E+02 -0.76858598248E+02  0.45664765305E+03  0.49740237347E+03  0.17300000000E+03 0.  1.
         -6    1    1    2    0  503 -0.55188748571E+02  0.76858598248E+02  0.27995723734E+03  0.34242969619E+03  0.17300000000E+03 0.  1.
<mgrwt>
<rscale>  2 0.19718530E+03</rscale>
<asrwt>0</asrwt>
<pdfrwt beam="1">  1       21 0.12126437E+00 0.19718530E+03</pdfrwt>
<pdfrwt beam="2">  1       21 0.79405528E-02 0.19718530E+03</pdfrwt>
<totfact> 0.62408460E+04</totfact>
</mgrwt>
</event>
<event>
 4    1  0.4531281E+000  0.1895762E+03  0.7546771E-02  0.1158844E+00
         21   -1    0    0  501  502  0.00000000000E+00  0.00000000000E+00  0.90732403940E+03  0.90732403940E+03  0.00000000000E+00 0.  1.
         21   -1    0    0  502  503 -0.00000000000E+00 -0.00000000000E+00 -0.46422457706E+02  0.46422457706E+02  0.00000000000E+00 0.  1.
          6    1    1    2  501    0 -0.75417727947E+02 -0.17953194428E+02  0.61313003265E+03  0.64176910787E+03  0.17300000000E+03 0.  1.
         -6    1    1    2    0  503  0.75417727947E+02  0.17953194428E+02  0.24777154904E+03  0.31197738923E+03  0.17300000000E+03 0.  1.
<mgrwt>
<rscale>  2 0.18957624E+03</rscale>
<asrwt>0</asrwt>
<pdfrwt beam="1">  1       21 0.13958830E+00 0.18957624E+03</pdfrwt>
<pdfrwt beam="2">  1       21 0.71419173E-02 0.18957624E+03</pdfrwt>
<totfact> 0.52768891E+04</totfact>
</mgrwt>
</event>
<event>
 4    1  0.4531281E+000  0.2166378E+03  0.7546771E-02  0.1136415E+00
         21   -1    0    0  503  502  0.00000000000E+00  0.00000000000E+00  0.73997942045E+03  0.73997942045E+03  0.00000000000E+00 0. -1.
         21   -1    0    0  501  503 -0.00000000000E+00 -0.00000000000E+00 -0.75970850702E+02  0.75970850702E+02  0.00000000000E+00 0.  1.
          6    1    1    2  501    0 -0.83372704816E+02 -0.10025928412E+03  0.16620227421E+03  0.27304784913E+03  0.17300000000E+03 0.  1.
         -6    1    1    2    0  502  0.83372704816E+02  0.10025928412E+03  0.49780629554E+03  0.54290242202E+03  0.17300000000E+03 0. -1.
<mgrwt>
<rscale>  2 0.21663779E+03</rscale>
<asrwt>0</asrwt>
<pdfrwt beam="1">  1       21 0.11384298E+00 0.21663779E+03</pdfrwt>
<pdfrwt beam="2">  1       21 0.11687824E-01 0.21663779E+03</pdfrwt>
<totfact> 0.36478251E+04</totfact>
</mgrwt>
</event>
<event>
 4    1  0.4531281E+000  0.2726820E+03  0.7546771E-02  0.1099754E+00
         21   -1    0    0  503  502  0.00000000000E+00  0.00000000000E+00  0.72650623118E+02  0.72650623118E+02  0.00000000000E+00 0. -1.
         21   -1    0    0  501  503 -0.00000000000E+00 -0.00000000000E+00 -0.10265251198E+04  0.10265251198E+04  0.00000000000E+00 0.  1.
          6    1    1    2  501    0 -0.20840380105E+03  0.31533378854E+02 -0.44693897696E+03  0.52355510446E+03  0.17300000000E+03 0. -1.
         -6    1    1    2    0  502  0.20840380105E+03 -0.31533378854E+02 -0.50693551972E+03  0.57562063847E+03  0.17300000000E+03 0. -1.
<mgrwt>
<rscale>  2 0.27268205E+03</rscale>
<asrwt>0</asrwt>
<pdfrwt beam="1">  1       21 0.11177019E-01 0.27268205E+03</pdfrwt>
<pdfrwt beam="2">  1       21 0.15792694E+00 0.27268205E+03</pdfrwt>
<totfact> 0.16535659E+04</totfact>
</mgrwt>
</event>
<event>
 4    1  0.4531281E+000  0.1924234E+03  0.7546771E-02  0.1156294E+00
         21   -1    0    0  503  502  0.00000000000E+00  0.00000000000E+00  0.15260042763E+03  0.15260042763E+03  0.00000000000E+00 0. -1.
         21   -1    0    0  501  503 -0.00000000000E+00 -0.00000000000E+00 -0.24908955299E+03  0.24908955299E+03  0.00000000000E+00 0. -1.
          6    1    1    2  501    0 -0.84074243760E+02 -0.54126445105E+01 -0.80565990568E+02  0.20860885413E+03  0.17300000000E+03 0. -1.
         -6    1    1    2    0  502  0.84074243760E+02  0.54126445105E+01 -0.15923134788E+02  0.19308112649E+03  0.17300000000E+03 0. -1.
<mgrwt>
<rscale>  2 0.19242343E+03</rscale>
<asrwt>0</asrwt>
<pdfrwt beam="1">  1       21 0.23476989E-01 0.19242343E+03</pdfrwt>
<pdfrwt beam="2">  1       21 0.38321469E-01 0.19242343E+03</pdfrwt>
<totfact> 0.11211756E+05</totfact>
</mgrwt>
</event>
<event>
 4    1  0.4531281E+000  0.2149383E+03  0.7546771E-02  0.1137714E+00
         21   -1    0    0  503  502  0.00000000000E+00  0.00000000000E+00  0.99239721456E+02  0.99239721456E+02  0.00000000000E+00 0. -1.
         21   -1    0    0  501  503 -0.00000000000E+00 -0.00000000000E+00 -0.49184021276E+03  0.49184021276E+03  0.00000000000E+00 0. -1.
          6    1    1    2  501    0 -0.54715583714E+02  0.11522014216E+03 -0.26466237025E+03  0.34094669157E+03  0.17300000000E+03 0. -1.
         -6    1    1    2    0  502  0.54715583714E+02 -0.11522014216E+03 -0.12793812105E+03  0.25013324265E+03  0.17300000000E+03 0. -1.
<mgrwt>
<rscale>  2 0.21493831E+03</rscale>
<asrwt>0</asrwt>
<pdfrwt beam="1">  1       21 0.15267649E-01 0.21493831E+03</pdfrwt>
<pdfrwt beam="2">  1       21 0.75667726E-01 0.21493831E+03</pdfrwt>
<totfact> 0.58590924E+04</totfact>
</mgrwt>
</event>
<event>
 4    1  0.4531281E+000  0.2574928E+03  0.7546771E-02  0.1108659E+00
         21   -1    0    0  503  502  0.00000000000E+00  0.00000000000E+00  0.80000474831E+03  0.80000474831E+03  0.00000000000E+00 0. -1.
         21   -1    0    0  501  503 -0.00000000000E+00 -0.00000000000E+00 -0.83436167623E+02  0.83436167623E+02  0.00000000000E+00 0.  1.
          6    1    1    2  501    0 -0.14725963171E+03  0.12119466397E+03  0.39442304162E+03  0.47103299403E+03  0.17300000000E+03 0.  1.
         -6    1    1    2    0  502  0.14725963171E+03 -0.12119466397E+03  0.32214553906E+03  0.41240792190E+03  0.17300000000E+03 0. -1.
<mgrwt>
<rscale>  2 0.25749281E+03</rscale>
<asrwt>0</asrwt>
<pdfrwt beam="1">  1       21 0.12307765E+00 0.25749281E+03</pdfrwt>
<pdfrwt beam="2">  1       21 0.12836334E-01 0.25749281E+03</pdfrwt>
<totfact> 0.24882358E+04</totfact>
</mgrwt>
</event>
<event>
 4    1  0.4531281E+000  0.2362034E+03  0.7546771E-02  0.1122348E+00
         21   -1    0    0  501  502  0.00000000000E+00  0.00000000000E+00  0.28948581702E+03  0.28948581702E+03  0.00000000000E+00 0. -1.
         21   -1    0    0  502  503 -0.00000000000E+00 -0.00000000000E+00 -0.31615143579E+03  0.31615143579E+03  0.00000000000E+00 0.  1.
          6    1    1    2  501    0 -0.48208026984E+02 -0.15342430018E+03  0.17587269990E+03  0.29448809198E+03  0.17300000000E+03 0. -1.
         -6    1    1    2    0  503  0.48208026984E+02  0.15342430018E+03 -0.20253831866E+03  0.31114916082E+03  0.17300000000E+03 0.  1.
<mgrwt>
<rscale>  2 0.23620337E+03</rscale>
<asrwt>0</asrwt>
<pdfrwt beam="1">  1       21 0.44536280E-01 0.23620337E+03</pdfrwt>
<pdfrwt beam="2">  1       21 0.48638682E-01 0.23620337E+03</pdfrwt>
<totfact> 0.19057589E+04</totfact>
</mgrwt>
</event>
<event>
 4    1  0.4531281E+000  0.2148210E+03  0.7546771E-02  0.1137804E+00
         21   -1    0    0  503  502  0.00000000000E+00  0.00000000000E+00  0.16149402599E+04  0.16149402599E+04  0.00000000000E+00 0.  1.
         21   -1    0    0  501  503 -0.00000000000E+00 -0.00000000000E+00 -0.95524995963E+02  0.95524995963E+02  0.00000000000E+00 0.  1.
          6    1    1    2  501    0 -0.10696277927E+03 -0.69123321984E+02  0.43731225210E+02  0.21922702810E+03  0.17300000000E+03 0.  1.
         -6    1    1    2    0  502  0.10696277927E+03  0.69123321984E+02  0.14756840387E+04  0.14912382278E+04  0.17300000000E+03 0.  1.
<mgrwt>
<rscale>  2 0.21482102E+03</rscale>
<asrwt>0</asrwt>
<pdfrwt beam="1">  1       21 0.24845233E+00 0.21482102E+03</pdfrwt>
<pdfrwt beam="2">  1       21 0.14696154E-01 0.21482102E+03</pdfrwt>
<totfact> 0.27003411E+03</totfact>
</mgrwt>
</event>
<event>
 4    1  0.4531281E+000  0.1883853E+03  0.7546771E-02  0.1159926E+00
         21   -1    0    0  501  502  0.00000000000E+00  0.00000000000E+00  0.28917007631E+03  0.28917007631E+03  0.00000000000E+00 0.  1.
         21   -1    0    0  502  503 -0.00000000000E+00 -0.00000000000E+00 -0.14083360965E+03  0.14083360965E+03  0.00000000000E+00 0.  1.
          6    1    1    2  501    0  0.70938187739E+02 -0.22973651004E+02  0.15125964042E+03  0.24159572418E+03  0.17300000000E+03 0.  1.
         -6    1    1    2    0  503 -0.70938187739E+02  0.22973651004E+02 -0.29231737640E+01  0.18840796179E+03  0.17300000000E+03 0.  1.
<mgrwt>
<rscale>  2 0.18838528E+03</rscale>
<asrwt>0</asrwt>
<pdfrwt beam="1">  1       21 0.44487704E-01 0.18838528E+03</pdfrwt>
<pdfrwt beam="2">  1       21 0.21666709E-01 0.18838528E+03</pdfrwt>
<totfact> 0.96534731E+04</totfact>
</mgrwt>
</event>
<event>
 4    1  0.4531281E+000  0.1986436E+03  0.7546771E-02  0.1150888E+00
         21   -1    0    0  501  502  0.00000000000E+00  0.00000000000E+00  0.86336489249E+03  0.86336489249E+03  0.00000000000E+00 0.  1.
         21   -1    0    0  502  503 -0.00000000000E+00 -0.00000000000E+00 -0.49939662887E+02  0.49939662887E+02  0.00000000000E+00 0.  1.
          6    1    1    2  501    0  0.48516064442E+01  0.97502569307E+02  0.53970291073E+03  0.57509870540E+03  0.17300000000E+03 0.  1.
         -6    1    1    2    0  503 -0.48516064442E+01 -0.97502569307E+02  0.27372231888E+03  0.33820584998E+03  0.17300000000E+03 0.  1.
<mgrwt>
<rscale>  2 0.19864362E+03</rscale>
<asrwt>0</asrwt>
<pdfrwt beam="1">  1       21 0.13282536E+00 0.19864362E+03</pdfrwt>
<pdfrwt beam="2">  1       21 0.76830257E-02 0.19864362E+03</pdfrwt>
<totfact> 0.52532953E+04</totfact>
</mgrwt>
</event>
<event>
 4    1  0.4531281E+000  0.2326508E+03  0.7546771E-02  0.1124788E+00
         21   -1    0    0  501  502  0.00000000000E+00  0.00000000000E+00  0.12683142441E+04  0.12683142441E+04  0.00000000000E+00 0.  1.
         21   -1    0    0  502  503 -0.00000000000E+00 -0.00000000000E+00 -0.51556917621E+02  0.51556917621E+02  0.00000000000E+00 0.  1.
          6    1    1    2  501    0 -0.90660433381E+02  0.12640444951E+03  0.88227766910E+03  0.91243645501E+03  0.17300000000E+03 0.  1.
         -6    1    1    2    0  503  0.90660433381E+02 -0.12640444951E+03  0.33447965740E+03  0.40743470674E+03  0.17300000000E+03 0.  1.
<mgrwt>
<rscale>  2 0.23265081E+03</rscale>
<asrwt>0</asrwt>
<pdfrwt beam="1">  1       21 0.19512524E+00 0.23265081E+03</pdfrwt>
<pdfrwt beam="2">  1       21 0.79318345E-02 0.23265081E+03</pdfrwt>
<totfact> 0.17082782E+04</totfact>
</mgrwt>
</event>
<event>
 4    1  0.4531281E+000  0.2074588E+03  0.7546771E-02  0.1143594E+00
         21   -1    0    0  501  502  0.00000000000E+00  0.00000000000E+00  0.89039064645E+03  0.89039064645E+03  0.00000000000E+00 0. -1.
         21   -1    0    0  502  503 -0.00000000000E+00 -0.00000000000E+00 -0.75655541015E+02  0.75655541015E+02  0.00000000000E+00 0. -1.
          6    1    1    2  501    0 -0.11206338340E+03  0.23493248587E+02  0.69761833654E+03  0.72781211731E+03  0.17300000000E+03 0. -1.
         -6    1    1    2    0  503  0.11206338340E+03 -0.23493248587E+02  0.11711676890E+03  0.23823407016E+03  0.17300000000E+03 0. -1.
<mgrwt>
<rscale>  2 0.20745875E+03</rscale>
<asrwt>0</asrwt>
<pdfrwt beam="1">  1       21 0.13698317E+00 0.20745875E+03</pdfrwt>
<pdfrwt beam="2">  1       21 0.11639315E-01 0.20745875E+03</pdfrwt>
<totfact> 0.23236217E+04</totfact>
</mgrwt>
</event>
<event>
 4    1  0.4531281E+000  0.1944377E+03  0.7546771E-02  0.1154519E+00
         21   -1    0    0  503  502  0.00000000000E+00  0.00000000000E+00  0.25779118277E+03  0.25779118277E+03  0.00000000000E+00 0. -1.
         21   -1    0    0  501  503 -0.00000000000E+00 -0.00000000000E+00 -0.14733408708E+03  0.14733408708E+03  0.00000000000E+00 0. -1.
          6    1    1    2  501    0 -0.11321030034E+02  0.88027601220E+02  0.41462991348E+02  0.19880946645E+03  0.17300000000E+03 0. -1.
         -6    1    1    2    0  502  0.11321030034E+02 -0.88027601220E+02  0.68994104340E+02  0.20631580340E+03  0.17300000000E+03 0. -1.
<mgrwt>
<rscale>  2 0.19443771E+03</rscale>
<asrwt>0</asrwt>
<pdfrwt beam="1">  1       21 0.39660182E-01 0.19443771E+03</pdfrwt>
<pdfrwt beam="2">  1       21 0.22666783E-01 0.19443771E+03</pdfrwt>
<totfact> 0.11173980E+05</totfact>
</mgrwt>
</event>
<event>
 4    1  0.4531281E+000  0.1769523E+03  0.7546771E-02  0.1170786E+00
         21   -1    0    0  501  502  0.00000000000E+00  0.00000000000E+00  0.84101140141E+02  0.84101140141E+02  0.00000000000E+00 0. -1.
         21   -1    0    0  502  503 -0.00000000000E+00 -0.00000000000E+00 -0.53622004164E+03  0.53622004164E+03  0.00000000000E+00 0. -1.
          6    1    1    2  501    0 -0.37122598632E+02 -0.22458611380E+01 -0.54580423714E+02  0.18517870794E+03  0.17300000000E+03 0. -1.
         -6    1    1    2    0  503  0.37122598632E+02  0.22458611380E+01 -0.39753847778E+03  0.43514247384E+03  0.17300000000E+03 0. -1.
<mgrwt>
<rscale>  2 0.17695234E+03</rscale>
<asrwt>0</asrwt>
<pdfrwt beam="1">  1       21 0.12938637E-01 0.17695234E+03</pdfrwt>
<pdfrwt beam="2">  1       21 0.82495389E-01 0.17695234E+03</pdfrwt>
<totfact> 0.66234151E+04</totfact>
</mgrwt>
</event>
<event>
 4    1  0.4531281E+000  0.2695008E+03  0.7546771E-02  0.1101566E+00
         21   -1    0    0  501  502  0.00000000000E+00  0.00000000000E+00  0.48306896428E+03  0.48306896428E+03  0.00000000000E+00 0. -1.
         21   -1    0    0  502  503 -0.00000000000E+00 -0.00000000000E+00 -0.17690888369E+03  0.17690888369E+03  0.00000000000E+00 0. -1.
          6    1    1    2  501    0 -0.85026688293E+02  0.18834053501E+03  0.28093213615E+03  0.38929880551E+03  0.17300000000E+03 0. -1.
         -6    1    1    2    0  503  0.85026688293E+02 -0.18834053501E+03  0.25227944438E+02  0.27067904246E+03  0.17300000000E+03 0. -1.
<mgrwt>
<rscale>  2 0.26950083E+03</rscale>
<asrwt>0</asrwt>
<pdfrwt beam="1">  1       21 0.74318302E-01 0.26950083E+03</pdfrwt>
<pdfrwt beam="2">  1       21 0.27216752E-01 0.26950083E+03</pdfrwt>
<totfact> 0.20052133E+04</totfact>
</mgrwt>
</event>
<event>
 4    1  0.4531281E+000  0.1782739E+03  0.7546771E-02  0.1169484E+00
         21   -1    0    0  503  502  0.00000000000E+00  0.00000000000E+00  0.17199676786E+04  0.17199676786E+04  0.00000000000E+00 0. -1.
         21   -1    0    0  501  503 -0.00000000000E+00 -0.00000000000E+00 -0.24607794734E+02  0.24607794734E+02  0.00000000000E+00 0. -1.
          6    1    1    2  501    0 -0.59234657956E+01  0.42632291499E+02  0.41232284973E+03  0.44921234638E+03  0.17300000000E+03 0. -1.
         -6    1    1    2    0  502  0.59234657956E+01 -0.42632291499E+02  0.12830370341E+04  0.12953631270E+04  0.17300000000E+03 0. -1.
<mgrwt>
<rscale>  2 0.17827395E+03</rscale>
<asrwt>0</asrwt>
<pdfrwt beam="1">  1       21 0.26461032E+00 0.17827395E+03</pdfrwt>
<pdfrwt beam="2">  1       21 0.37858159E-02 0.17827395E+03</pdfrwt>
<totfact> 0.23784223E+04</totfact>
</mgrwt>
</event>
<event>
 4    1  0.4531281E+000  0.2347588E+03  0.7546771E-02  0.1123334E+00
         21   -1    0    0  501  502  0.00000000000E+00  0.00000000000E+00  0.42352156197E+03  0.42352156197E+03  0.00000000000E+00 0. -1.
         21   -1    0    0  502  503 -0.00000000000E+00 -0.00000000000E+00 -0.15935747743E+03  0.15935747743E+03  0.00000000000E+00 0. -1.
          6    1    1    2  501    0 -0.15533507976E+02 -0.15792841952E+03  0.25690046148E+03  0.34800793478E+03  0.17300000000E+03 0. -1.
         -6    1    1    2    0  503  0.15533507976E+02  0.15792841952E+03  0.72636230553E+01  0.23487110461E+03  0.17300000000E+03 0. -1.
<mgrwt>
<rscale>  2 0.23475876E+03</rscale>
<asrwt>0</asrwt>
<pdfrwt beam="1">  1       21 0.65157163E-01 0.23475876E+03</pdfrwt>
<pdfrwt beam="2">  1       21 0.24516535E-01 0.23475876E+03</pdfrwt>
<totfact> 0.33362193E+04</totfact>
</mgrwt>
</event>
<event>
 4    1  0.4531281E+000  0.2233464E+03  0.7546771E-02  0.1131412E+00
         21   -1    0    0  501  502  0.00000000000E+00  0.00000000000E+00  0.15289522270E+04  0.15289522270E+04  0.00000000000E+00 0.  1.
         21   -1    0    0  502  503 -0.00000000000E+00 -0.00000000000E+00 -0.37086448896E+02  0.37086448896E+02  0.00000000000E+00 0.  1.
          6    1    1    2  501    0 -0.68693556785E+02 -0.12343347865E+03  0.10174849445E+04  0.10417097680E+04  0.17300000000E+03 0.  1.
         -6    1    1    2    0  503  0.68693556785E+02  0.12343347865E+03  0.47438083359E+03  0.52432890791E+03  0.17300000000E+03 0.  1.
<mgrwt>
<rscale>  2 0.22334643E+03</rscale>
<asrwt>0</asrwt>
<pdfrwt beam="1">  1       21 0.23522337E+00 0.22334643E+03</pdfrwt>
<pdfrwt beam="2">  1       21 0.57056087E-02 0.22334643E+03</pdfrwt>
<totfact> 0.17049261E+04</totfact>
</mgrwt>
</event>
<event>
 4    1  0.4531281E+000  0.1928906E+03  0.7546771E-02  0.1155880E+00
         21   -1    0    0  503  502  0.00000000000E+00  0.00000000000E+00  0.36364595209E+03  0.36364595209E+03  0.00000000000E+00 0. -1.
         21   -1    0    0  501  503 -0.00000000000E+00 -0.00000000000E+00 -0.10755745419E+03  0.10755745419E+03  0.00000000000E+00 0. -1.
          6    1    1    2  501    0 -0.80410871532E+02 -0.28493731721E+02  0.76034607046E+02  0.20733562761E+03  0.17300000000E+03 0. -1.
         -6    1    1    2    0  502  0.80410871532E+02  0.28493731721E+02  0.18005389085E+03  0.26386777867E+03  0.17300000000E+03 0. -1.
<mgrwt>
<rscale>  2 0.19289065E+03</rscale>
<asrwt>0</asrwt>
<pdfrwt beam="1">  1       21 0.55945530E-01 0.19289065E+03</pdfrwt>
<pdfrwt beam="2">  1       21 0.16547301E-01 0.19289065E+03</pdfrwt>
<totfact> 0.98628255E+04</totfact>
</mgrwt>
</event>
<event>
 4    1  0.4531281E+000  0.2543364E+03  0.7546771E-02  0.1110595E+00
         21   -1    0    0  501  502  0.00000000000E+00  0.00000000000E+00  0.84263261622E+02  0.84263261622E+02  0.00000000000E+00 0.  1.
         21   -1    0    0  502  503 -0.00000000000E+00 -0.00000000000E+00 -0.88051700161E+03  0.88051700161E+03  0.00000000000E+00 0. -1.
          6    1    1    2  501    0  0.14509889602E+03  0.11706551776E+03 -0.22543981719E+03  0.33986782173E+03  0.17300000000E+03 0.  1.
         -6    1    1    2    0  503 -0.14509889602E+03 -0.11706551776E+03 -0.57081392281E+03  0.62491244150E+03  0.17300000000E+03 0. -1.
<mgrwt>
<rscale>  2 0.25433644E+03</rscale>
<asrwt>0</asrwt>
<pdfrwt beam="1">  1       21 0.12963578E-01 0.25433644E+03</pdfrwt>
<pdfrwt beam="2">  1       21 0.13546416E+00 0.25433644E+03</pdfrwt>
<totfact> 0.19180313E+04</totfact>
</mgrwt>
</event>
<event>
 4    1  0.4531281E+000  0.1741179E+03  0.7546771E-02  0.1173620E+00
         21   -1    0    0  501  502  0.00000000000E+00  0.00000000000E+00  0.11300023645E+04  0.11300023645E+04  0.00000000000E+00 0. -1.
         21   -1    0    0  502  503 -0.00000000000E+00 -0.00000000000E+00 -0.99104500378E+02  0.99104500378E+02  0.00000000000E+00 0. -1.
          6    1    1    2  501    0 -0.81513715419E+01  0.17933402732E+02  0.10402659793E+04  0.10547371044E+04  0.17300000000E+03 0. -1.
         -6    1    1    2    0  503  0.81513715419E+01 -0.17933402732E+02 -0.93681151291E+01  0.17436976049E+03  0.17300000000E+03 0. -1.
<mgrwt>
<rscale>  2 0.17411792E+03</rscale>
<asrwt>0</asrwt>
<pdfrwt beam="1">  1       21 0.17384651E+00 0.17411792E+03</pdfrwt>
<pdfrwt beam="2">  1       21 0.15246847E-01 0.17411792E+03</pdfrwt>
<totfact> 0.77597318E+03</totfact>
</mgrwt>
</event>
<event>
 4    1  0.4531281E+000  0.2733477E+03  0.7546771E-02  0.1099379E+00
         21   -1    0    0  501  502  0.00000000000E+00  0.00000000000E+00  0.12771034267E+03  0.12771034267E+03  0.00000000000E+00 0.  1.
         21   -1    0    0  502  503 -0.00000000000E+00 -0.00000000000E+00 -0.93362632986E+03  0.93362632986E+03  0.00000000000E+00 0. -1.
          6    1    1    2  501    0  0.15918432092E+03 -0.13946432168E+03 -0.78711136030E+02  0.28445454467E+03  0.17300000000E+03 0.  1.
         -6    1    1    2    0  503 -0.15918432092E+03  0.13946432168E+03 -0.72720485116E+03  0.77688212787E+03  0.17300000000E+03 0. -1.
<mgrwt>
<rscale>  2 0.27334766E+03</rscale>
<asrwt>0</asrwt>
<pdfrwt beam="1">  1       21 0.19647745E-01 0.27334766E+03</pdfrwt>
<pdfrwt beam="2">  1       21 0.14363482E+00 0.27334766E+03</pdfrwt>
<totfact> 0.75676613E+03</totfact>
</mgrwt>
</event>
<event>
 4    1  0.4531281E+000  0.3447953E+03  0.7546771E-02  0.1064772E+00
         21   -1    0    0  501  502  0.00000000000E+00  0.00000000000E+00  0.16036258243E+04  0.16036258243E+04  0.00000000000E+00 0.  1.
         21   -1    0    0  502  503 -0.00000000000E+00 -0.00000000000E+00 -0.89730357578E+02  0.89730357578E+02  0.00000000000E+00 0.  1.
          6    1    1    2  501    0 -0.29795920830E+03 -0.13232572804E+02  0.11099317639E+04  0.11622531184E+04  0.17300000000E+03 0.  1.
         -6    1    1    2    0  503  0.29795920830E+03  0.13232572804E+02  0.40396370281E+03  0.53110306343E+03  0.17300000000E+03 0.  1.
<mgrwt>
<rscale>  2 0.34479529E+03</rscale>
<asrwt>0</asrwt>
<pdfrwt beam="1">  1       21 0.24671164E+00 0.34479529E+03</pdfrwt>
<pdfrwt beam="2">  1       21 0.13804672E-01 0.34479529E+03</pdfrwt>
<totfact> 0.28039782E+03</totfact>
</mgrwt>
</event>
<event>
 4    1  0.4531281E+000  0.2418475E+03  0.7546771E-02  0.1118568E+00
         21   -1    0    0  501  502  0.00000000000E+00  0.00000000000E+00  0.30329433038E+03  0.30329433038E+03  0.00000000000E+00 0.  1.
         21   -1    0    0  502  503 -0.00000000000E+00 -0.00000000000E+00 -0.20735855482E+03  0.20735855482E+03  0.00000000000E+00 0.  1.
          6    1    1    2  501    0 -0.16662534920E+03  0.28234897731E+02  0.11550641555E+03  0.26801482884E+03  0.17300000000E+03 0.  1.
         -6    1    1    2    0  503  0.16662534920E+03 -0.28234897731E+02 -0.19570639989E+02  0.24263805636E+03  0.17300000000E+03 0.  1.
<mgrwt>
<rscale>  2 0.24184751E+03</rscale>
<asrwt>0</asrwt>
<pdfrwt beam="1">  1       21 0.46660666E-01 0.24184751E+03</pdfrwt>
<pdfrwt beam="2">  1       21 0.31901316E-01 0.24184751E+03</pdfrwt>
<totfact> 0.40597610E+04</totfact>
</mgrwt>
</event>
<event>
 4    1  0.4531281E+000  0.2316046E+03  0.7546771E-02  0.1125515E+00
         21   -1    0    0  503  502  0.00000000000E+00  0.00000000000E+00  0.26017636166E+03  0.26017636166E+03  0.00000000000E+00 0.  1.
         21   -1    0    0  501  503 -0.00000000000E+00 -0.00000000000E+00 -0.24779013316E+03  0.24779013316E+03  0.00000000000E+00 0.  1.
          6    1    1    2  501    0 -0.72806244302E+02 -0.13568687974E+03 -0.97897706377E+02  0.25144510227E+03  0.17300000000E+03 0.  1.
         -6    1    1    2    0  502  0.72806244302E+02  0.13568687974E+03  0.11028393487E+03  0.25652139255E+03  0.17300000000E+03 0.  1.
<mgrwt>
<rscale>  2 0.23160457E+03</rscale>
<asrwt>0</asrwt>
<pdfrwt beam="1">  1       21 0.40027133E-01 0.23160457E+03</pdfrwt>
<pdfrwt beam="2">  1       21 0.38121559E-01 0.23160457E+03</pdfrwt>
<totfact> 0.39162891E+04</totfact>
</mgrwt>
</event>
<event>
 4    1  0.4531281E+000  0.1931575E+03  0.7546771E-02  0.1155644E+00
         21   -1    0    0  501  502  0.00000000000E+00  0.00000000000E+00  0.29741352584E+03  0.29741352584E+03  0.00000000000E+00 0.  1.
         21   -1    0    0  502  503 -0.00000000000E+00 -0.00000000000E+00 -0.13265536826E+03  0.13265536826E+03  0.00000000000E+00 0. -1.
          6    1    1    2  501    0 -0.64857115716E+02  0.56341449701E+02  0.13250321499E+03  0.23423685960E+03  0.17300000000E+03 0.  1.
         -6    1    1    2    0  503  0.64857115716E+02 -0.56341449701E+02  0.32254942594E+02  0.19583203450E+03  0.17300000000E+03 0.  1.
<mgrwt>
<rscale>  2 0.19315746E+03</rscale>
<asrwt>0</asrwt>
<pdfrwt beam="1">  1       21 0.45755927E-01 0.19315746E+03</pdfrwt>
<pdfrwt beam="2">  1       21 0.20408518E-01 0.19315746E+03</pdfrwt>
<totfact> 0.10176580E+05</totfact>
</mgrwt>
</event>
<event>
 4    1  0.4531281E+000  0.2340070E+03  0.7546771E-02  0.1123851E+00
         21   -1    0    0  501  502  0.00000000000E+00  0.00000000000E+00  0.18297458463E+03  0.18297458463E+03  0.00000000000E+00 0.  1.
         21   -1    0    0  502  503 -0.00000000000E+00 -0.00000000000E+00 -0.62267320214E+03  0.62267320214E+03  0.00000000000E+00 0. -1.
          6    1    1    2  501    0  0.15625932939E+03 -0.20330216239E+02  0.70456341200E+02  0.24438369775E+03  0.17300000000E+03 0.  1.
         -6    1    1    2    0  503 -0.15625932939E+03  0.20330216239E+02 -0.51015495871E+03  0.56126408901E+03  0.17300000000E+03 0. -1.
<mgrwt>
<rscale>  2 0.23400704E+03</rscale>
<asrwt>0</asrwt>
<pdfrwt beam="1">  1       21 0.28149937E-01 0.23400704E+03</pdfrwt>
<pdfrwt beam="2">  1       21 0.95795876E-01 0.23400704E+03</pdfrwt>
<totfact> 0.10662259E+04</totfact>
</mgrwt>
</event>
<event>
 4    1  0.4531281E+000  0.1821196E+03  0.7546771E-02  0.1165767E+00
         21   -1    0    0  501  502  0.00000000000E+00  0.00000000000E+00  0.99704683287E+03  0.99704683287E+03  0.00000000000E+00 0. -1.
         21   -1    0    0  502  503 -0.00000000000E+00 -0.00000000000E+00 -0.39166693127E+02  0.39166693127E+02  0.00000000000E+00 0.  1.
          6    1    1    2  501    0  0.26067041185E+02 -0.50587171090E+02  0.68004373194E+03  0.70400783366E+03  0.17300000000E+03 0.  1.
         -6    1    1    2    0  503 -0.26067041185E+02  0.50587171090E+02  0.27783640781E+03  0.33220569233E+03  0.17300000000E+03 0.  1.
<mgrwt>
<rscale>  2 0.18211961E+03</rscale>
<asrwt>0</asrwt>
<pdfrwt beam="1">  1       21 0.15339180E+00 0.18211961E+03</pdfrwt>
<pdfrwt beam="2">  1       21 0.60256458E-02 0.18211961E+03</pdfrwt>
<totfact> 0.55476172E+04</totfact>
</mgrwt>
</event>
<event>
 4    1  0.4531281E+000  0.4468114E+03  0.7546771E-02  0.1028677E+00
         21   -1    0    0  501  502  0.00000000000E+00  0.00000000000E+00  0.40931769112E+03  0.40931769112E+03  0.00000000000E+00 0.  1.
         21   -1    0    0  502  503 -0.00000000000E+00 -0.00000000000E+00 -0.59036116064E+03  0.59036116064E+03  0.00000000000E+00 0. -1.
          6    1    1    2  501    0  0.28425362363E+03  0.29818003667E+03  0.11787498395E+03  0.46209844044E+03  0.17300000000E+03 0.  1.
         -6    1    1    2    0  503 -0.28425362363E+03 -0.29818003667E+03 -0.29891845347E+03  0.53758041132E+03  0.17300000000E+03 0. -1.
<mgrwt>
<rscale>  2 0.44681143E+03</rscale>
<asrwt>0</asrwt>
<pdfrwt beam="1">  1       21 0.62971953E-01 0.44681143E+03</pdfrwt>
<pdfrwt beam="2">  1       21 0.90824794E-01 0.44681143E+03</pdfrwt>
<totfact> 0.20767334E+03</totfact>
</mgrwt>
</event>
<event>
 4    1  0.4531281E+000  0.1984826E+03  0.7546771E-02  0.1151026E+00
         21   -1    0    0  503  502  0.00000000000E+00  0.00000000000E+00  0.39379764503E+03  0.39379764503E+03  0.00000000000E+00 0. -1.
         21   -1    0    0  501  503 -0.00000000000E+00 -0.00000000000E+00 -0.10051283032E+03  0.10051283032E+03  0.00000000000E+00 0. -1.
          6    1    1    2  501    0 -0.35091120265E+02 -0.90746581271E+02  0.16360258832E+03  0.25721807021E+03  0.17300000000E+03 0. -1.
         -6    1    1    2    0  502  0.35091120265E+02  0.90746581271E+02  0.12968222638E+03  0.23709240514E+03  0.17300000000E+03 0. -1.
<mgrwt>
<rscale>  2 0.19848257E+03</rscale>
<asrwt>0</asrwt>
<pdfrwt beam="1">  1       21 0.60584253E-01 0.19848257E+03</pdfrwt>
<pdfrwt beam="2">  1       21 0.15463512E-01 0.19848257E+03</pdfrwt>
<totfact> 0.93953068E+04</totfact>
</mgrwt>
</event>
<event>
 4    1  0.4531281E+000  0.1895024E+03  0.7546771E-02  0.1158911E+00
         21   -1    0    0  503  502  0.00000000000E+00  0.00000000000E+00  0.36525129678E+03  0.36525129678E+03  0.00000000000E+00 0.  1.
         21   -1    0    0  501  503 -0.00000000000E+00 -0.00000000000E+00 -0.16740975485E+03  0.16740975485E+03  0.00000000000E+00 0. -1.
          6    1    1    2  501    0  0.76171090964E+02  0.13420786645E+02 -0.72175461263E+02  0.20278177882E+03  0.17300000000E+03 0. -1.
         -6    1    1    2    0  502 -0.76171090964E+02 -0.13420786645E+02  0.27001700320E+03  0.32987927281E+03  0.17300000000E+03 0.  1.
<mgrwt>
<rscale>  2 0.18950238E+03</rscale>
<asrwt>0</asrwt>
<pdfrwt beam="1">  1       21 0.56192507E-01 0.18950238E+03</pdfrwt>
<pdfrwt beam="2">  1       21 0.25755347E-01 0.18950238E+03</pdfrwt>
<totfact> 0.42715001E+04</totfact>
</mgrwt>
</event>
<event>
 4    1  0.4531281E+000  0.2122973E+03  0.7546771E-02  0.1139760E+00
         21   -1    0    0  501  502  0.00000000000E+00  0.00000000000E+00  0.36898663190E+03  0.36898663190E+03  0.00000000000E+00 0. -1.
         21   -1    0    0  502  503 -0.00000000000E+00 -0.00000000000E+00 -0.19914312881E+03  0.19914312881E+03  0.00000000000E+00 0.  1.
          6    1    1    2  501    0  0.33046027261E+02  0.11852889716E+03  0.26155519039E+03  0.33686979235E+03  0.17300000000E+03 0. -1.
         -6    1    1    2    0  503 -0.33046027261E+02 -0.11852889716E+03 -0.91711687300E+02  0.23125996836E+03  0.17300000000E+03 0. -1.
<mgrwt>
<rscale>  2 0.21229729E+03</rscale>
<asrwt>0</asrwt>
<pdfrwt beam="1">  1       21 0.56767174E-01 0.21229729E+03</pdfrwt>
<pdfrwt beam="2">  1       21 0.30637404E-01 0.21229729E+03</pdfrwt>
<totfact> 0.29514773E+04</totfact>
</mgrwt>
</event>
<event>
 4    1  0.4531281E+000  0.2269588E+03  0.7546771E-02  0.1128799E+00
         21   -1    0    0  503  502  0.00000000000E+00  0.00000000000E+00  0.12624940102E+03  0.12624940102E+03  0.00000000000E+00 0.  1.
         21   -1    0    0  501  503 -0.00000000000E+00 -0.00000000000E+00 -0.41479202976E+03  0.41479202976E+03  0.00000000000E+00 0. -1.
          6    1    1    2  501    0 -0.28397729184E+02  0.14413488906E+03 -0.17887703579E+03  0.28897628138E+03  0.17300000000E+03 0. -1.
         -6    1    1    2    0  502  0.28397729184E+02 -0.14413488906E+03 -0.10966559296E+03  0.25206514941E+03  0.17300000000E+03 0.  1.
<mgrwt>
<rscale>  2 0.22695880E+03</rscale>
<asrwt>0</asrwt>
<pdfrwt beam="1">  1       21 0.19422985E-01 0.22695880E+03</pdfrwt>
<pdfrwt beam="2">  1       21 0.63814157E-01 0.22695880E+03</pdfrwt>
<totfact> 0.54432842E+04</totfact>
</mgrwt>
</event>
<event>
 4    1  0.4531281E+000  0.1738548E+03  0.7546771E-02  0.1173886E+00
         21   -1    0    0  503  502  0.00000000000E+00  0.00000000000E+00  0.35342561380E+03  0.35342561380E+03  0.00000000000E+00 0.  1.
         21   -1    0    0  501  503 -0.00000000000E+00 -0.00000000000E+00 -0.10522077655E+03  0.10522077655E+03  0.00000000000E+00 0.  1.
          6    1    1    2  501    0  0.16572924699E+02  0.46730286351E+01  0.24877203962E+02  0.17562566528E+03  0.17300000000E+03 0.  1.
         -6    1    1    2    0  502 -0.16572924699E+02 -0.46730286351E+01  0.22332763328E+03  0.28302072507E+03  0.17300000000E+03 0.  1.
<mgrwt>
<rscale>  2 0.17385482E+03</rscale>
<asrwt>0</asrwt>
<pdfrwt beam="1">  1       21 0.54373171E-01 0.17385482E+03</pdfrwt>
<pdfrwt beam="2">  1       21 0.16187812E-01 0.17385482E+03</pdfrwt>
<totfact> 0.10983804E+05</totfact>
</mgrwt>
</event>
<event>
 4    1  0.4531281E+000  0.2580743E+03  0.7546771E-02  0.1108306E+00
         21   -1    0    0  503  502  0.00000000000E+00  0.00000000000E+00  0.66986429242E+03  0.66986429242E+03  0.00000000000E+00 0.  1.
         21   -1    0    0  501  503 -0.00000000000E+00 -0.00000000000E+00 -0.19898539763E+03  0.19898539763E+03  0.00000000000E+00 0. -1.
          6    1    1    2  501    0  0.18071444623E+03 -0.63368965626E+02 -0.71847311867E+02  0.26788873269E+03  0.17300000000E+03 0. -1.
         -6    1    1    2    0  502 -0.18071444623E+03  0.63368965626E+02  0.54272620665E+03  0.60096095736E+03  0.17300000000E+03 0.  1.
<mgrwt>
<rscale>  2 0.25807429E+03</rscale>
<asrwt>0</asrwt>
<pdfrwt beam="1">  1       21 0.10305604E+00 0.25807429E+03</pdfrwt>
<pdfrwt beam="2">  1       21 0.30613138E-01 0.25807429E+03</pdfrwt>
<totfact> 0.74965975E+03</totfact>
</mgrwt>
</event>
<event>
 4    1  0.4531281E+000  0.2448184E+03  0.7546771E-02  0.1116624E+00
         21   -1    0    0  501  502  0.00000000000E+00  0.00000000000E+00  0.33302327296E+03  0.33302327296E+03  0.00000000000E+00 0.  1.
         21   -1    0    0  502  503 -0.00000000000E+00 -0.00000000000E+00 -0.22815412803E+03  0.22815412803E+03  0.00000000000E+00 0.  1.
          6    1    1    2  501    0  0.58543941312E+02  0.16303268762E+03  0.18137317315E+03  0.30468389888E+03  0.17300000000E+03 0.  1.
         -6    1    1    2    0  503 -0.58543941312E+02 -0.16303268762E+03 -0.76504028217E+02  0.25649350212E+03  0.17300000000E+03 0.  1.
<mgrwt>
<rscale>  2 0.24481840E+03</rscale>
<asrwt>0</asrwt>
<pdfrwt beam="1">  1       21 0.51234350E-01 0.24481840E+03</pdfrwt>
<pdfrwt beam="2">  1       21 0.35100635E-01 0.24481840E+03</pdfrwt>
<totfact> 0.27582638E+04</totfact>
</mgrwt>
</event>
<event>
 4    1  0.4531281E+000  0.1883315E+03  0.7546771E-02  0.1159975E+00
         21   -1    0    0  503  502  0.00000000000E+00  0.00000000000E+00  0.42202419707E+02  0.42202419707E+02  0.00000000000E+00 0.  1.
         21   -1    0    0  501  503 -0.00000000000E+00 -0.00000000000E+00 -0.16085117335E+04  0.16085117335E+04  0.00000000000E+00 0. -1.
          6    1    1    2  501    0  0.21276838318E+02  0.71323503646E+02 -0.13534892138E+04  0.13665291061E+04  0.17300000000E+03 0. -1.
         -6    1    1    2    0  502 -0.21276838318E+02 -0.71323503646E+02 -0.21282009999E+03  0.28418504707E+03  0.17300000000E+03 0.  1.
<mgrwt>
<rscale>  2 0.18833148E+03</rscale>
<asrwt>0</asrwt>
<pdfrwt beam="1">  1       21 0.64926802E-02 0.18833148E+03</pdfrwt>
<pdfrwt beam="2">  1       21 0.24746333E+00 0.18833148E+03</pdfrwt>
<totfact> 0.11899653E+04</totfact>
</mgrwt>
</event>
<event>
 4    1  0.4531281E+000  0.1827090E+03  0.7546771E-02  0.1165207E+00
         21   -1    0    0  501  502  0.00000000000E+00  0.00000000000E+00  0.93891103342E+02  0.93891103342E+02  0.00000000000E+00 0. -1.
         21   -1    0    0  502  503 -0.00000000000E+00 -0.00000000000E+00 -0.52613317706E+03  0.52613317706E+03  0.00000000000E+00 0.  1.
          6    1    1    2  501    0 -0.32443711787E+02 -0.48999791102E+02 -0.39596741855E+02  0.18695046384E+03  0.17300000000E+03 0.  1.
         -6    1    1    2    0  503  0.32443711787E+02  0.48999791102E+02 -0.39264533187E+03  0.43307381657E+03  0.17300000000E+03 0.  1.
<mgrwt>
<rscale>  2 0.18270899E+03</rscale>
<asrwt>0</asrwt>
<pdfrwt beam="1">  1       21 0.14444785E-01 0.18270899E+03</pdfrwt>
<pdfrwt beam="2">  1       21 0.80943565E-01 0.18270899E+03</pdfrwt>
<totfact> 0.56531206E+04</totfact>
</mgrwt>
</event>
<event>
 4    1  0.4531281E+000  0.2112073E+03  0.7546771E-02  0.1140614E+00
         21   -1    0    0  503  502  0.00000000000E+00  0.00000000000E+00  0.16967169264E+03  0.16967169264E+03  0.00000000000E+00 0.  1.
         21   -1    0    0  501  503 -0.00000000000E+00 -0.00000000000E+00 -0.26485902264E+03  0.26485902264E+03  0.00000000000E+00 0.  1.
          6    1    1    2  501    0 -0.48487207085E+02  0.11103380220E+03 -0.28959655494E+02  0.21318343305E+03  0.17300000000E+03 0.  1.
         -6    1    1    2    0  502  0.48487207085E+02 -0.11103380220E+03 -0.66227674502E+02  0.22134728223E+03  0.17300000000E+03 0.  1.
<mgrwt>
<rscale>  2 0.21120728E+03</rscale>
<asrwt>0</asrwt>
<pdfrwt beam="1">  1       21 0.26103337E-01 0.21120728E+03</pdfrwt>
<pdfrwt beam="2">  1       21 0.40747542E-01 0.21120728E+03</pdfrwt>
<totfact> 0.80276412E+04</totfact>
</mgrwt>
</event>
<event>
 4    1  0.4531281E+000  0.1953210E+03  0.7546771E-02  0.1153748E+00
         21   -1    0    0  503  502  0.00000000000E+00  0.00000000000E+00  0.50038874841E+03  0.50038874841E+03  0.00000000000E+00 0. -1.
         21   -1    0    0  501  503 -0.00000000000E+00 -0.00000000000E+00 -0.83672953676E+02  0.83672953676E+02  0.00000000000E+00 0. -1.
          6    1    1    2  501    0 -0.68109474857E+02 -0.59853184808E+02  0.12132608974E+03  0.22993547866E+03  0.17300000000E+03 0. -1.
         -6    1    1    2    0  502  0.68109474857E+02  0.59853184808E+02  0.29538970499E+03  0.35412622342E+03  0.17300000000E+03 0. -1.
<mgrwt>
<rscale>  2 0.19532103E+03</rscale>
<asrwt>0</asrwt>
<pdfrwt beam="1">  1       21 0.76982882E-01 0.19532103E+03</pdfrwt>
<pdfrwt beam="2">  1       21 0.12872762E-01 0.19532103E+03</pdfrwt>
<totfact> 0.77504458E+04</totfact>
</mgrwt>
</event>
<event>
 4    1  0.4531281E+000  0.2647577E+03  0.7546771E-02  0.1104318E+00
         21   -1    0    0  503  502  0.00000000000E+00  0.00000000000E+00  0.74943392396E+03  0.74943392396E+03  0.00000000000E+00 0. -1.
         21   -1    0    0  501  503 -0.00000000000E+00 -0.00000000000E+00 -0.15264759728E+03  0.15264759728E+03  0.00000000000E+00 0.  1.
          6    1    1    2  501    0 -0.18537630308E+03 -0.76179234554E+02  0.17708343532E+02  0.26534926974E+03  0.17300000000E+03 0.  1.
         -6    1    1    2    0  502  0.18537630308E+03  0.76179234554E+02  0.57907798316E+03  0.63673225150E+03  0.17300000000E+03 0. -1.
<mgrwt>
<rscale>  2 0.26475772E+03</rscale>
<asrwt>0</asrwt>
<pdfrwt beam="1">  1       21 0.11529752E+00 0.26475772E+03</pdfrwt>
<pdfrwt beam="2">  1       21 0.23484246E-01 0.26475772E+03</pdfrwt>
<totfact> 0.94954211E+03</totfact>
</mgrwt>
</event>
<event>
 4    1  0.4531281E+000  0.2872970E+03  0.7546771E-02  0.1091769E+00
         21   -1    0    0  501  502  0.00000000000E+00  0.00000000000E+00  0.24620400599E+04  0.24620400599E+04  0.00000000000E+00 0. -1.
         21   -1    0    0  502  503 -0.00000000000E+00 -0.00000000000E+00 -0.39558984226E+02  0.39558984226E+02  0.00000000000E+00 0. -1.
          6    1    1    2  501    0 -0.18512269571E+03  0.13542578534E+03  0.16997490717E+04  0.17238580170E+04  0.17300000000E+03 0. -1.
         -6    1    1    2    0  503  0.18512269571E+03 -0.13542578534E+03  0.72273200391E+03  0.77774102713E+03  0.17300000000E+03 0. -1.
<mgrwt>
<rscale>  2 0.28729698E+03</rscale>
<asrwt>0</asrwt>
<pdfrwt beam="1">  1       21 0.37877527E+00 0.28729698E+03</pdfrwt>
<pdfrwt beam="2">  1       21 0.60859995E-02 0.28729698E+03</pdfrwt>
<totfact> 0.20291681E+03</totfact>
</mgrwt>
</event>
<event>
 4    1  0.4531281E+000  0.2694625E+03  0.7546771E-02  0.1101588E+00
         21   -1    0    0  503  502  0.00000000000E+00  0.00000000000E+00  0.29213136582E+03  0.29213136582E+03  0.00000000000E+00 0. -1.
         21   -1    0    0  501  503 -0.00000000000E+00 -0.00000000000E+00 -0.35390493308E+03  0.35390493308E+03  0.00000000000E+00 0.  1.
          6    1    1    2  501    0  0.84413714982E+02 -0.18856122980E+03 -0.20712726906E+03  0.33987014910E+03  0.17300000000E+03 0.  1.
         -6    1    1    2    0  502 -0.84413714982E+02  0.18856122980E+03  0.14535370180E+03  0.30616614980E+03  0.17300000000E+03 0. -1.
<mgrwt>
<rscale>  2 0.26946245E+03</rscale>
<asrwt>0</asrwt>
<pdfrwt beam="1">  1       21 0.44943287E-01 0.26946245E+03</pdfrwt>
<pdfrwt beam="2">  1       21 0.54446912E-01 0.26946245E+03</pdfrwt>
<totfact> 0.14504464E+04</totfact>
</mgrwt>
</event>
<event>
 4    1  0.4531281E+000  0.1771070E+03  0.7546771E-02  0.1170633E+00
         21   -1    0    0  501  502  0.00000000000E+00  0.00000000000E+00  0.35514418655E+03  0.35514418655E+03  0.00000000000E+00 0. -1.
         21   -1    0    0  502  503 -0.00000000000E+00 -0.00000000000E+00 -0.95411257607E+02  0.95411257607E+02  0.00000000000E+00 0. -1.
          6    1    1    2  501    0  0.27386362662E+02  0.26227667962E+02  0.19127532113E+03  0.26067825360E+03  0.17300000000E+03 0. -1.
         -6    1    1    2    0  503 -0.27386362662E+02 -0.26227667962E+02  0.68457607815E+02  0.18987719056E+03  0.17300000000E+03 0. -1.
<mgrwt>
<rscale>  2 0.17710704E+03</rscale>
<asrwt>0</asrwt>
<pdfrwt beam="1">  1       21 0.54637567E-01 0.17710704E+03</pdfrwt>
<pdfrwt beam="2">  1       21 0.14678655E-01 0.17710704E+03</pdfrwt>
<totfact> 0.12976958E+05</totfact>
</mgrwt>
</event>
<event>
 4    1  0.4531281E+000  0.2028964E+03  0.7546771E-02  0.1147318E+00
         21   -1    0    0  503  502  0.00000000000E+00  0.00000000000E+00  0.79003166763E+02  0.79003166763E+02  0.00000000000E+00 0. -1.
         21   -1    0    0  501  503 -0.00000000000E+00 -0.00000000000E+00 -0.78537102705E+03  0.78537102705E+03  0.00000000000E+00 0.  1.
          6    1    1    2  501    0  0.76859563562E+02  0.73010622540E+02 -0.60389634790E+03  0.63706965280E+03  0.17300000000E+03 0.  1.
         -6    1    1    2    0  502 -0.76859563562E+02 -0.73010622540E+02 -0.10247151239E+03  0.22730454102E+03  0.17300000000E+03 0. -1.
<mgrwt>
<rscale>  2 0.20289639E+03</rscale>
<asrwt>0</asrwt>
<pdfrwt beam="1">  1       21 0.12154334E-01 0.20289639E+03</pdfrwt>
<pdfrwt beam="2">  1       21 0.12082631E+00 0.20289639E+03</pdfrwt>
<totfact> 0.29597136E+04</totfact>
</mgrwt>
</event>
<event>
 4    1  0.4531281E+000  0.1742739E+03  0.7546771E-02  0.1173463E+00
         21   -1    0    0  501  502  0.00000000000E+00  0.00000000000E+00  0.21614522734E+03  0.21614522734E+03  0.00000000000E+00 0.  1.
         21   -1    0    0  502  503 -0.00000000000E+00 -0.00000000000E+00 -0.22117152860E+03  0.22117152860E+03  0.00000000000E+00 0.  1.
          6    1    1    2  501    0 -0.20820367774E+02  0.29832380562E+01  0.12953262258E+03  0.21714070953E+03  0.17300000000E+03 0.  1.
         -6    1    1    2    0  503  0.20820367774E+02 -0.29832380562E+01 -0.13455892384E+03  0.22017604640E+03  0.17300000000E+03 0.  1.
<mgrwt>
<rscale>  2 0.17427389E+03</rscale>
<asrwt>0</asrwt>
<pdfrwt beam="1">  1       21 0.33253112E-01 0.17427389E+03</pdfrwt>
<pdfrwt beam="2">  1       21 0.34026389E-01 0.17427389E+03</pdfrwt>
<totfact> 0.73035446E+04</totfact>
</mgrwt>
</event>
<event>
 4    1  0.4531281E+000  0.1856537E+03  0.7546771E-02  0.1162441E+00
         21   -1    0    0  503  502  0.00000000000E+00  0.00000000000E+00  0.35516147387E+02  0.35516147387E+02  0.00000000000E+00 0. -1.
         21   -1    0    0  501  503 -0.00000000000E+00 -0.00000000000E+00 -0.97929473744E+03  0.97929473744E+03  0.00000000000E+00 0. -1.
          6    1    1    2  501    0 -0.65554803225E+02 -0.15519283136E+02 -0.42371655071E+03  0.46260457814E+03  0.17300000000E+03 0. -1.
         -6    1    1    2    0  502  0.65554803225E+02  0.15519283136E+02 -0.52006203935E+03  0.55220630669E+03  0.17300000000E+03 0. -1.
<mgrwt>
<rscale>  2 0.18565366E+03</rscale>
<asrwt>0</asrwt>
<pdfrwt beam="1">  1       21 0.54640238E-02 0.18565366E+03</pdfrwt>
<pdfrwt beam="2">  1       21 0.15066070E+00 0.18565366E+03</pdfrwt>
<totfact> 0.68600216E+04</totfact>
</mgrwt>
</event>
<event>
 4    1  0.4531281E+000  0.1820076E+03  0.7546771E-02  0.1165874E+00
         21   -1    0    0  501  502  0.00000000000E+00  0.00000000000E+00  0.45693341350E+03  0.45693341350E+03  0.00000000000E+00 0. -1.
         21   -1    0    0  502  503 -0.00000000000E+00 -0.00000000000E+00 -0.87391500523E+02  0.87391500523E+02  0.00000000000E+00 0. -1.
          6    1    1    2  501    0 -0.55234040626E+02  0.12122670253E+02  0.29712585681E+03  0.34844014287E+03  0.17300000000E+03 0. -1.
         -6    1    1    2    0  503  0.55234040626E+02 -0.12122670253E+02  0.72416056161E+02  0.19588477115E+03  0.17300000000E+03 0. -1.
<mgrwt>
<rscale>  2 0.18200758E+03</rscale>
<asrwt>0</asrwt>
<pdfrwt beam="1">  1       21 0.70297447E-01 0.18200758E+03</pdfrwt>
<pdfrwt beam="2">  1       21 0.13444846E-01 0.18200758E+03</pdfrwt>
<totfact> 0.88193995E+04</totfact>
</mgrwt>
</event>
<event>
 4    1  0.4531281E+000  0.1933572E+03  0.7546771E-02  0.1155468E+00
         21   -1    0    0  501  502  0.00000000000E+00  0.00000000000E+00  0.57027070262E+02  0.57027070262E+02  0.00000000000E+00 0. -1.
         21   -1    0    0  502  503 -0.00000000000E+00 -0.00000000000E+00 -0.67752448431E+03  0.67752448431E+03  0.00000000000E+00 0. -1.
          6    1    1    2  501    0 -0.83676797037E+02 -0.21359256994E+02 -0.24418223490E+03  0.31146747513E+03  0.17300000000E+03 0. -1.
         -6    1    1    2    0  503  0.83676797037E+02  0.21359256994E+02 -0.37631517915E+03  0.42308407945E+03  0.17300000000E+03 0. -1.
<mgrwt>
<rscale>  2 0.19335725E+03</rscale>
<asrwt>0</asrwt>
<pdfrwt beam="1">  1       21 0.87733955E-02 0.19335725E+03</pdfrwt>
<pdfrwt beam="2">  1       21 0.10423454E+00 0.19335725E+03</pdfrwt>
<totfact> 0.75931445E+04</totfact>
</mgrwt>
</event>
<event>
 4    1  0.4531281E+000  0.1776372E+03  0.7546771E-02  0.1170110E+00
         21   -1    0    0  503  502  0.00000000000E+00  0.00000000000E+00  0.10465058877E+04  0.10465058877E+04  0.00000000000E+00 0. -1.
         21   -1    0    0  501  503 -0.00000000000E+00 -0.00000000000E+00 -0.31677967701E+02  0.31677967701E+02  0.00000000000E+00 0.  1.
          6    1    1    2  501    0 -0.39522175437E+02  0.79990236543E+01  0.38912178071E+03  0.42775080006E+03  0.17300000000E+03 0. -1.
         -6    1    1    2    0  502  0.39522175437E+02 -0.79990236543E+01  0.62570613924E+03  0.65043305529E+03  0.17300000000E+03 0. -1.
<mgrwt>
<rscale>  2 0.17763723E+03</rscale>
<asrwt>0</asrwt>
<pdfrwt beam="1">  1       21 0.16100088E+00 0.17763723E+03</pdfrwt>
<pdfrwt beam="2">  1       21 0.48735343E-02 0.17763723E+03</pdfrwt>
<totfact> 0.70094323E+04</totfact>
</mgrwt>
</event>
<event>
 4    1  0.4531281E+000  0.1820214E+03  0.7546771E-02  0.1165861E+00
         21   -1    0    0  503  502  0.00000000000E+00  0.00000000000E+00  0.42018928444E+02  0.42018928444E+02  0.00000000000E+00 0. -1.
         21   -1    0    0  501  503 -0.00000000000E+00 -0.00000000000E+00 -0.12261982835E+04  0.12261982835E+04  0.00000000000E+00 0. -1.
          6    1    1    2  501    0  0.56574186944E+02 -0.14624807799E+01 -0.97094418602E+03  0.98785848675E+03  0.17300000000E+03 0. -1.
         -6    1    1    2    0  502 -0.56574186944E+02  0.14624807799E+01 -0.21323516903E+03  0.28035872519E+03  0.17300000000E+03 0. -1.
<mgrwt>
<rscale>  2 0.18202137E+03</rscale>
<asrwt>0</asrwt>
<pdfrwt beam="1">  1       21 0.64644516E-02 0.18202137E+03</pdfrwt>
<pdfrwt beam="2">  1       21 0.18864586E+00 0.18202137E+03</pdfrwt>
<totfact> 0.27831637E+04</totfact>
</mgrwt>
</event>
<event>
 4    1  0.4531281E+000  0.2066317E+03  0.7546771E-02  0.1144261E+00
         21   -1    0    0  501  502  0.00000000000E+00  0.00000000000E+00  0.43378545995E+02  0.43378545995E+02  0.00000000000E+00 0.  1.
         21   -1    0    0  502  503 -0.00000000000E+00 -0.00000000000E+00 -0.10262117661E+04  0.10262117661E+04  0.00000000000E+00 0.  1.
          6    1    1    2  501    0  0.47842242742E+02 -0.10236583916E+03 -0.38331320896E+03  0.43546028680E+03  0.17300000000E+03 0.  1.
         -6    1    1    2    0  503 -0.47842242742E+02  0.10236583916E+03 -0.59952001117E+03  0.63413002532E+03  0.17300000000E+03 0.  1.
<mgrwt>
<rscale>  2 0.20663167E+03</rscale>
<asrwt>0</asrwt>
<pdfrwt beam="1">  1       21 0.66736232E-02 0.20663167E+03</pdfrwt>
<pdfrwt beam="2">  1       21 0.15787872E+00 0.20663167E+03</pdfrwt>
<totfact> 0.42498026E+04</totfact>
</mgrwt>
</event>
<event>
 4    1  0.4531281E+000  0.2066953E+03  0.7546771E-02  0.1144210E+00
         21   -1    0    0  503  502  0.00000000000E+00  0.00000000000E+00  0.58731300152E+03  0.58731300152E+03  0.00000000000E+00 0.  1.
         21   -1    0    0  501  503 -0.00000000000E+00 -0.00000000000E+00 -0.66544888659E+03  0.66544888659E+03  0.00000000000E+00 0.  1.
          6    1    1    2  501    0 -0.86363802558E+02 -0.73042653375E+02 -0.63022215650E+03  0.66325176377E+03  0.17300000000E+03 0.  1.
         -6    1    1    2    0  502  0.86363802558E+02  0.73042653375E+02  0.55208627143E+03  0.58951012434E+03  0.17300000000E+03 0.  1.
<mgrwt>
<rscale>  2 0.20669527E+03</rscale>
<asrwt>0</asrwt>
<pdfrwt beam="1">  1       21 0.90355846E-01 0.20669527E+03</pdfrwt>
<pdfrwt beam="2">  1       21 0.10237675E+00 0.20669527E+03</pdfrwt>
<totfact> 0.79657600E+02</totfact>
</mgrwt>
</event>
<event>
 4    1  0.4531281E+000  0.1834525E+03  0.7546771E-02  0.1164503E+00
         21   -1    0    0  501  502  0.00000000000E+00  0.00000000000E+00  0.17512817584E+03  0.17512817584E+03  0.00000000000E+00 0. -1.
         21   -1    0    0  502  503 -0.00000000000E+00 -0.00000000000E+00 -0.36288346763E+03  0.36288346763E+03  0.00000000000E+00 0.  1.
          6    1    1    2  501    0  0.56564708713E+02  0.22940565827E+02  0.90627583578E+02  0.20461719072E+03  0.17300000000E+03 0. -1.
         -6    1    1    2    0  503 -0.56564708713E+02 -0.22940565827E+02 -0.27838287537E+03  0.33339445276E+03  0.17300000000E+03 0.  1.
<mgrwt>
<rscale>  2 0.18345254E+03</rscale>
<asrwt>0</asrwt>
<pdfrwt beam="1">  1       21 0.26942796E-01 0.18345254E+03</pdfrwt>
<pdfrwt beam="2">  1       21 0.55828226E-01 0.18345254E+03</pdfrwt>
<totfact> 0.39839663E+04</totfact>
</mgrwt>
</event>
<event>
 4    1  0.4531281E+000  0.2233021E+03  0.7546771E-02  0.1131445E+00
         21   -1    0    0  503  502  0.00000000000E+00  0.00000000000E+00  0.11673933437E+03  0.11673933437E+03  0.00000000000E+00 0.  1.
         21   -1    0    0  501  503 -0.00000000000E+00 -0.00000000000E+00 -0.66900523793E+03  0.66900523793E+03  0.00000000000E+00 0. -1.
          6    1    1    2  501    0 -0.16386484849E+02 -0.14023660978E+03 -0.51235749651E+03  0.55890431009E+03  0.17300000000E+03 0. -1.
         -6    1    1    2    0  502  0.16386484849E+02  0.14023660978E+03 -0.39908407054E+02  0.22684026222E+03  0.17300000000E+03 0.  1.
<mgrwt>
<rscale>  2 0.22330209E+03</rscale>
<asrwt>0</asrwt>
<pdfrwt beam="1">  1       21 0.17959898E-01 0.22330209E+03</pdfrwt>
<pdfrwt beam="2">  1       21 0.10292388E+00 0.22330209E+03</pdfrwt>
<totfact> 0.21217371E+04</totfact>
</mgrwt>
</event>
<event>
 4    1  0.4531281E+000  0.2595005E+03  0.7546771E-02  0.1107444E+00
         21   -1    0    0  503  502  0.00000000000E+00  0.00000000000E+00  0.63663171593E+02  0.63663171593E+02  0.00000000000E+00 0.  1.
         21   -1    0    0  501  503 -0.00000000000E+00 -0.00000000000E+00 -0.12294158081E+04  0.12294158081E+04  0.00000000000E+00 0.  1.
          6    1    1    2  501    0 -0.63384746765E+02  0.18273987079E+03 -0.34129000540E+03  0.42874159383E+03  0.17300000000E+03 0.  1.
         -6    1    1    2    0  502  0.63384746765E+02 -0.18273987079E+03 -0.82446263111E+03  0.86433738586E+03  0.17300000000E+03 0.  1.
<mgrwt>
<rscale>  2 0.25950046E+03</rscale>
<asrwt>0</asrwt>
<pdfrwt beam="1">  1       21 0.97943334E-02 0.25950046E+03</pdfrwt>
<pdfrwt beam="2">  1       21 0.18914091E+00 0.25950046E+03</pdfrwt>
<totfact> 0.12693859E+04</totfact>
</mgrwt>
</event>
<event>
 4    1  0.4531281E+000  0.2090924E+03  0.7546771E-02  0.1142287E+00
         21   -1    0    0  501  502  0.00000000000E+00  0.00000000000E+00  0.20415945425E+03  0.20415945425E+03  0.00000000000E+00 0.  1.
         21   -1    0    0  502  503 -0.00000000000E+00 -0.00000000000E+00 -0.55546882214E+03  0.55546882214E+03  0.00000000000E+00 0.  1.
          6    1    1    2  501    0 -0.10046034480E+03 -0.60814148959E+02  0.12207685846E+03  0.24212063308E+03  0.17300000000E+03 0.  1.
         -6    1    1    2    0  503  0.10046034480E+03  0.60814148959E+02 -0.47338622635E+03  0.51750764331E+03  0.17300000000E+03 0.  1.
<mgrwt>
<rscale>  2 0.20909242E+03</rscale>
<asrwt>0</asrwt>
<pdfrwt beam="1">  1       21 0.31409147E-01 0.20909242E+03</pdfrwt>
<pdfrwt beam="2">  1       21 0.85456741E-01 0.20909242E+03</pdfrwt>
<totfact> 0.11404105E+04</totfact>
</mgrwt>
</event>
<event>
 4    1  0.4531281E+000  0.2612803E+03  0.7546771E-02  0.1106376E+00
         21   -1    0    0  501  502  0.00000000000E+00  0.00000000000E+00  0.94999400064E+02  0.94999400064E+02  0.00000000000E+00 0. -1.
         21   -1    0    0  502  503 -0.00000000000E+00 -0.00000000000E+00 -0.83999688195E+03  0.83999688195E+03  0.00000000000E+00 0. -1.
          6    1    1    2  501    0 -0.69123995944E+02  0.18319468380E+03 -0.55021567417E+03  0.60910155729E+03  0.17300000000E+03 0. -1.
         -6    1    1    2    0  503  0.69123995944E+02 -0.18319468380E+03 -0.19478180772E+03  0.32589472473E+03  0.17300000000E+03 0. -1.
<mgrwt>
<rscale>  2 0.26128035E+03</rscale>
<asrwt>0</asrwt>
<pdfrwt beam="1">  1       21 0.14615292E-01 0.26128035E+03</pdfrwt>
<pdfrwt beam="2">  1       21 0.12923029E+00 0.26128035E+03</pdfrwt>
<totfact> 0.17330974E+04</totfact>
</mgrwt>
</event>
<event>
 4    1  0.4531281E+000  0.1814585E+03  0.7546771E-02  0.1166399E+00
         21   -1    0    0  503  502  0.00000000000E+00  0.00000000000E+00  0.10695292492E+04  0.10695292492E+04  0.00000000000E+00 0.  1.
         21   -1    0    0  501  503 -0.00000000000E+00 -0.00000000000E+00 -0.38256646611E+02  0.38256646611E+02  0.00000000000E+00 0.  1.
          6    1    1    2  501    0  0.23369839921E+02  0.49518234016E+02  0.27088045696E+03  0.32604206306E+03  0.17300000000E+03 0.  1.
         -6    1    1    2    0  502 -0.23369839921E+02 -0.49518234016E+02  0.76039214560E+03  0.78174383273E+03  0.17300000000E+03 0.  1.
<mgrwt>
<rscale>  2 0.18145855E+03</rscale>
<asrwt>0</asrwt>
<pdfrwt beam="1">  1       21 0.16454294E+00 0.18145855E+03</pdfrwt>
<pdfrwt beam="2">  1       21 0.58856388E-02 0.18145855E+03</pdfrwt>
<totfact> 0.47858704E+04</totfact>
</mgrwt>
</event>
<event>
 4    1  0.4531281E+000  0.2235278E+03  0.7546771E-02  0.1131280E+00
         21   -1    0    0  501  502  0.00000000000E+00  0.00000000000E+00  0.12066348970E+03  0.12066348970E+03  0.00000000000E+00 0. -1.
         21   -1    0    0  502  503 -0.00000000000E+00 -0.00000000000E+00 -0.50684308338E+03  0.50684308338E+03  0.00000000000E+00 0.  1.
          6    1    1    2  501    0  0.13770961396E+03 -0.32737458581E+02 -0.58865081699E+02  0.23114881963E+03  0.17300000000E+03 0. -1.
         -6    1    1    2    0  503 -0.13770961396E+03  0.32737458581E+02 -0.32731451198E+03  0.39635775346E+03  0.17300000000E+03 0.  1.
<mgrwt>
<rscale>  2 0.22352780E+03</rscale>
<asrwt>0</asrwt>
<pdfrwt beam="1">  1       21 0.18563614E-01 0.22352780E+03</pdfrwt>
<pdfrwt beam="2">  1       21 0.77975858E-01 0.22352780E+03</pdfrwt>
<totfact> 0.38035337E+04</totfact>
</mgrwt>
</event>
<event>
 4    1  0.4531281E+000  0.1756457E+03  0.7546771E-02  0.1172085E+00
         21   -1    0    0  501  502  0.00000000000E+00  0.00000000000E+00  0.18129135213E+03  0.18129135213E+03  0.00000000000E+00 0. -1.
         21   -1    0    0  502  503 -0.00000000000E+00 -0.00000000000E+00 -0.19378539292E+03  0.19378539292E+03  0.00000000000E+00 0. -1.
          6    1    1    2  501    0  0.11104822001E+02 -0.28268259280E+02  0.59212577303E+02  0.18535787241E+03  0.17300000000E+03 0. -1.
         -6    1    1    2    0  503 -0.11104822001E+02  0.28268259280E+02 -0.71706618097E+02  0.18971887263E+03  0.17300000000E+03 0. -1.
<mgrwt>
<rscale>  2 0.17564570E+03</rscale>
<asrwt>0</asrwt>
<pdfrwt beam="1">  1       21 0.27890978E-01 0.17564570E+03</pdfrwt>
<pdfrwt beam="2">  1       21 0.29813137E-01 0.17564570E+03</pdfrwt>
<totfact> 0.13318139E+05</totfact>
</mgrwt>
</event>
<event>
 4    1  0.4531281E+000  0.1730194E+03  0.7546771E-02  0.1174735E+00
         21   -1    0    0  501  502  0.00000000000E+00  0.00000000000E+00  0.34056512647E+03  0.34056512647E+03  0.00000000000E+00 0. -1.
         21   -1    0    0  502  503 -0.00000000000E+00 -0.00000000000E+00 -0.87904270814E+02  0.87904270814E+02  0.00000000000E+00 0. -1.
          6    1    1    2  501    0  0.13862806583E+01 -0.21858176932E+01  0.12485001794E+03  0.21336172701E+03  0.17300000000E+03 0. -1.
         -6    1    1    2    0  503 -0.13862806583E+01  0.21858176932E+01  0.12781083772E+03  0.21510767027E+03  0.17300000000E+03 0. -1.
<mgrwt>
<rscale>  2 0.17301936E+03</rscale>
<asrwt>0</asrwt>
<pdfrwt beam="1">  1       21 0.52394634E-01 0.17301936E+03</pdfrwt>
<pdfrwt beam="2">  1       21 0.13523734E-01 0.17301936E+03</pdfrwt>
<totfact> 0.16457888E+05</totfact>
</mgrwt>
</event>
<event>
 4    1  0.4531281E+000  0.1980310E+03  0.7546771E-02  0.1151411E+00
         21   -1    0    0  503  502  0.00000000000E+00  0.00000000000E+00  0.43811719333E+02  0.43811719333E+02  0.00000000000E+00 0.  1.
         21   -1    0    0  501  503 -0.00000000000E+00 -0.00000000000E+00 -0.10361509085E+04  0.10361509085E+04  0.00000000000E+00 0.  1.
          6    1    1    2  501    0  0.54110467109E+02 -0.79745496322E+02 -0.69539307399E+03  0.72304067257E+03  0.17300000000E+03 0.  1.
         -6    1    1    2    0  502 -0.54110467109E+02  0.79745496322E+02 -0.29694611520E+03  0.35692195529E+03  0.17300000000E+03 0.  1.
<mgrwt>
<rscale>  2 0.19803102E+03</rscale>
<asrwt>0</asrwt>
<pdfrwt beam="1">  1       21 0.67402648E-02 0.19803102E+03</pdfrwt>
<pdfrwt beam="2">  1       21 0.15940783E+00 0.19803102E+03</pdfrwt>
<totfact> 0.40913931E+04</totfact>
</mgrwt>
</event>
<event>
 4    1  0.4531281E+000  0.2077629E+03  0.7546771E-02  0.1143350E+00
         21   -1    0    0  501  502  0.00000000000E+00  0.00000000000E+00  0.52399869443E+02  0.52399869443E+02  0.00000000000E+00 0. -1.
         21   -1    0    0  502  503 -0.00000000000E+00 -0.00000000000E+00 -0.84569192653E+03  0.84569192653E+03  0.00000000000E+00 0.  1.
          6    1    1    2  501    0 -0.59427797089E+02  0.98512717300E+02 -0.46894433805E+03  0.51290760448E+03  0.17300000000E+03 0.  1.
         -6    1    1    2    0  503  0.59427797089E+02 -0.98512717300E+02 -0.32434771903E+03  0.38518419149E+03  0.17300000000E+03 0.  1.
<mgrwt>
<rscale>  2 0.20776289E+03</rscale>
<asrwt>0</asrwt>
<pdfrwt beam="1">  1       21 0.80615192E-02 0.20776289E+03</pdfrwt>
<pdfrwt beam="2">  1       21 0.13010644E+00 0.20776289E+03</pdfrwt>
<totfact> 0.50665202E+04</totfact>
</mgrwt>
</event>
<event>
 4    1  0.4531281E+000  0.2257660E+03  0.7546771E-02  0.1129656E+00
         21   -1    0    0  503  502  0.00000000000E+00  0.00000000000E+00  0.30218253069E+03  0.30218253069E+03  0.00000000000E+00 0. -1.
         21   -1    0    0  501  503 -0.00000000000E+00 -0.00000000000E+00 -0.20228982828E+03  0.20228982828E+03  0.00000000000E+00 0.  1.
          6    1    1    2  501    0  0.50925824294E+02  0.13582291459E+03  0.15276998773E+03  0.27259672202E+03  0.17300000000E+03 0.  1.
         -6    1    1    2    0  502 -0.50925824294E+02 -0.13582291459E+03 -0.52877285310E+02  0.23187563695E+03  0.17300000000E+03 0.  1.
<mgrwt>
<rscale>  2 0.22576604E+03</rscale>
<asrwt>0</asrwt>
<pdfrwt beam="1">  1       21 0.46489620E-01 0.22576604E+03</pdfrwt>
<pdfrwt beam="2">  1       21 0.31121512E-01 0.22576604E+03</pdfrwt>
<totfact> 0.43255359E+04</totfact>
</mgrwt>
</event>
<event>
 4    1  0.4531281E+000  0.2770713E+03  0.7546771E-02  0.1097299E+00
         21   -1    0    0  503  502  0.00000000000E+00  0.00000000000E+00  0.15841408035E+03  0.15841408035E+03  0.00000000000E+00 0.  1.
         21   -1    0    0  501  503 -0.00000000000E+00 -0.00000000000E+00 -0.49719897029E+03  0.49719897029E+03  0.00000000000E+00 0.  1.
          6    1    1    2  501    0 -0.19607427679E+03  0.91620869757E+02 -0.22156073020E+03  0.35476423574E+03  0.17300000000E+03 0.  1.
         -6    1    1    2    0  502  0.19607427679E+03 -0.91620869757E+02 -0.11722415974E+03  0.30084881489E+03  0.17300000000E+03 0.  1.
<mgrwt>
<rscale>  2 0.27707130E+03</rscale>
<asrwt>0</asrwt>
<pdfrwt beam="1">  1       21 0.24371397E-01 0.27707130E+03</pdfrwt>
<pdfrwt beam="2">  1       21 0.76492149E-01 0.27707130E+03</pdfrwt>
<totfact> 0.23177877E+04</totfact>
</mgrwt>
</event>
<event>
 4    1  0.4531281E+000  0.2195166E+03  0.7546771E-02  0.1134244E+00
         21   -1    0    0  503  502  0.00000000000E+00  0.00000000000E+00  0.89749390743E+02  0.89749390743E+02  0.00000000000E+00 0.  1.
         21   -1    0    0  501  503 -0.00000000000E+00 -0.00000000000E+00 -0.65919471037E+03  0.65919471037E+03  0.00000000000E+00 0.  1.
          6    1    1    2  501    0 -0.84923602728E+02 -0.10510251944E+03 -0.12343749330E+03  0.25184195966E+03  0.17300000000E+03 0.  1.
         -6    1    1    2    0  502  0.84923602728E+02  0.10510251944E+03 -0.44600782633E+03  0.49710214146E+03  0.17300000000E+03 0.  1.
<mgrwt>
<rscale>  2 0.21951665E+03</rscale>
<asrwt>0</asrwt>
<pdfrwt beam="1">  1       21 0.13807599E-01 0.21951665E+03</pdfrwt>
<pdfrwt beam="2">  1       21 0.10141457E+00 0.21951665E+03</pdfrwt>
<totfact> 0.35678648E+04</totfact>
</mgrwt>
</event>
<event>
 4    1  0.4531281E+000  0.1856587E+03  0.7546771E-02  0.1162436E+00
         21   -1    0    0  501  502  0.00000000000E+00  0.00000000000E+00  0.28790816593E+03  0.28790816593E+03  0.00000000000E+00 0. -1.
         21   -1    0    0  502  503 -0.00000000000E+00 -0.00000000000E+00 -0.18090491042E+03  0.18090491042E+03  0.00000000000E+00 0. -1.
          6    1    1    2  501    0 -0.67366945352E+02  0.13541515496E+01  0.18982087317E+03  0.26552043790E+03  0.17300000000E+03 0. -1.
         -6    1    1    2    0  503  0.67366945352E+02 -0.13541515496E+01 -0.82817617661E+02  0.20329263845E+03  0.17300000000E+03 0. -1.
<mgrwt>
<rscale>  2 0.18565866E+03</rscale>
<asrwt>0</asrwt>
<pdfrwt beam="1">  1       21 0.44293564E-01 0.18565866E+03</pdfrwt>
<pdfrwt beam="2">  1       21 0.27831525E-01 0.18565866E+03</pdfrwt>
<totfact> 0.60524764E+04</totfact>
</mgrwt>
</event>
<event>
 4    1  0.4531281E+000  0.2202246E+03  0.7546771E-02  0.1133716E+00
         21   -1    0    0  501  502  0.00000000000E+00  0.00000000000E+00  0.69708813897E+03  0.69708813897E+03  0.00000000000E+00 0.  1.
         21   -1    0    0  502  503 -0.00000000000E+00 -0.00000000000E+00 -0.22804747852E+03  0.22804747852E+03  0.00000000000E+00 0. -1.
          6    1    1    2  501    0  0.12755021299E+03 -0.47966964853E+02  0.62012448094E+03  0.65806782204E+03  0.17300000000E+03 0.  1.
         -6    1    1    2    0  503 -0.12755021299E+03  0.47966964853E+02 -0.15108382049E+03  0.26706779545E+03  0.17300000000E+03 0. -1.
<mgrwt>
<rscale>  2 0.22022463E+03</rscale>
<asrwt>0</asrwt>
<pdfrwt beam="1">  1       21 0.10724433E+00 0.22022463E+03</pdfrwt>
<pdfrwt beam="2">  1       21 0.35084228E-01 0.22022463E+03</pdfrwt>
<totfact> 0.53253509E+03</totfact>
</mgrwt>
</event>
<event>
 4    1  0.4531281E+000  0.1996585E+03  0.7546771E-02  0.1150027E+00
         21   -1    0    0  501  502  0.00000000000E+00  0.00000000000E+00  0.23852012068E+04  0.23852012068E+04  0.00000000000E+00 0.  1.
         21   -1    0    0  502  503 -0.00000000000E+00 -0.00000000000E+00 -0.64622585829E+02  0.64622585829E+02  0.00000000000E+00 0.  1.
          6    1    1    2  501    0 -0.83045551457E+02 -0.55117451787E+02  0.22149787539E+04  0.22239591672E+04  0.17300000000E+03 0.  1.
         -6    1    1    2    0  503  0.83045551457E+02  0.55117451787E+02  0.10559986711E+03  0.22586462548E+03  0.17300000000E+03 0.  1.
<mgrwt>
<rscale>  2 0.19965845E+03</rscale>
<asrwt>0</asrwt>
<pdfrwt beam="1">  1       21 0.36695396E+00 0.19965845E+03</pdfrwt>
<pdfrwt beam="2">  1       21 0.99419381E-02 0.19965845E+03</pdfrwt>
<totfact> 0.11250754E+03</totfact>
</mgrwt>
</event>
<event>
 4    1  0.4531281E+000  0.2325212E+03  0.7546771E-02  0.1124878E+00
         21   -1    0    0  501  502  0.00000000000E+00  0.00000000000E+00  0.17329471359E+03  0.17329471359E+03  0.00000000000E+00 0.  1.
         21   -1    0    0  502  503 -0.00000000000E+00 -0.00000000000E+00 -0.36018959790E+03  0.36018959790E+03  0.00000000000E+00 0.  1.
          6    1    1    2  501    0 -0.14008996847E+03  0.67170695034E+02  0.41303080876E+01  0.23255786588E+03  0.17300000000E+03 0. -1.
         -6    1    1    2    0  503  0.14008996847E+03 -0.67170695034E+02 -0.19102519240E+03  0.30092644561E+03  0.17300000000E+03 0. -1.
<mgrwt>
<rscale>  2 0.23252119E+03</rscale>
<asrwt>0</asrwt>
<pdfrwt beam="1">  1       21 0.26660726E-01 0.23252119E+03</pdfrwt>
<pdfrwt beam="2">  1       21 0.55413783E-01 0.23252119E+03</pdfrwt>
<totfact> 0.40320045E+04</totfact>
</mgrwt>
</event>
<event>
 4    1  0.4531281E+000  0.2185523E+03  0.7546771E-02  0.1134967E+00
         21   -1    0    0  501  502  0.00000000000E+00  0.00000000000E+00  0.52979155295E+03  0.52979155295E+03  0.00000000000E+00 0.  1.
         21   -1    0    0  502  503 -0.00000000000E+00 -0.00000000000E+00 -0.91629323095E+02  0.91629323095E+02  0.00000000000E+00 0.  1.
          6    1    1    2  501    0  0.31489860464E+02 -0.12978634564E+03  0.17971268861E+03  0.28295186388E+03  0.17300000000E+03 0.  1.
         -6    1    1    2    0  503 -0.31489860464E+02  0.12978634564E+03  0.25844954124E+03  0.33846901216E+03  0.17300000000E+03 0.  1.
<mgrwt>
<rscale>  2 0.21855230E+03</rscale>
<asrwt>0</asrwt>
<pdfrwt beam="1">  1       21 0.81506391E-01 0.21855230E+03</pdfrwt>
<pdfrwt beam="2">  1       21 0.14096819E-01 0.21855230E+03</pdfrwt>
<totfact> 0.57193484E+04</totfact>
</mgrwt>
</event>
<event>
 4    1  0.4531281E+000  0.1932188E+03  0.7546771E-02  0.1155590E+00
         21   -1    0    0  503  502  0.00000000000E+00  0.00000000000E+00  0.32371234807E+03  0.32371234807E+03  0.00000000000E+00 0.  1.
         21   -1    0    0  501  503 -0.00000000000E+00 -0.00000000000E+00 -0.17415765740E+03  0.17415765740E+03  0.00000000000E+00 0.  1.
          6    1    1    2  501    0  0.84712513291E+02  0.15108939736E+02 -0.69902610105E+02  0.20547473048E+03  0.17300000000E+03 0.  1.
         -6    1    1    2    0  502 -0.84712513291E+02 -0.15108939736E+02  0.21945730078E+03  0.29239527499E+03  0.17300000000E+03 0.  1.
<mgrwt>
<rscale>  2 0.19321876E+03</rscale>
<asrwt>0</asrwt>
<pdfrwt beam="1">  1       21 0.49801900E-01 0.19321876E+03</pdfrwt>
<pdfrwt beam="2">  1       21 0.26793486E-01 0.19321876E+03</pdfrwt>
<totfact> 0.50950471E+04</totfact>
</mgrwt>
</event>
<event>
 4    1  0.4531281E+000  0.1785517E+03  0.7546771E-02  0.1169212E+00
         21   -1    0    0  501  502  0.00000000000E+00  0.00000000000E+00  0.64055415903E+02  0.64055415903E+02  0.00000000000E+00 0.  1.
         21   -1    0    0  502  503 -0.00000000000E+00 -0.00000000000E+00 -0.83905251102E+03  0.83905251102E+03  0.00000000000E+00 0.  1.
          6    1    1    2  501    0 -0.24256569821E+02  0.36923202518E+02 -0.99484662522E+02  0.20439643378E+03  0.17300000000E+03 0.  1.
         -6    1    1    2    0  503  0.24256569821E+02 -0.36923202518E+02 -0.67551243259E+03  0.69871149314E+03  0.17300000000E+03 0.  1.
<mgrwt>
<rscale>  2 0.17855168E+03</rscale>
<asrwt>0</asrwt>
<pdfrwt beam="1">  1       21 0.98546795E-02 0.17855168E+03</pdfrwt>
<pdfrwt beam="2">  1       21 0.12908500E+00 0.17855168E+03</pdfrwt>
<totfact> 0.36936750E+04</totfact>
</mgrwt>
</event>
<event>
 4    1  0.4531281E+000  0.1799455E+03  0.7546771E-02  0.1167856E+00
         21   -1    0    0  503  502  0.00000000000E+00  0.00000000000E+00  0.51044145836E+03  0.51044145836E+03  0.00000000000E+00 0.  1.
         21   -1    0    0  501  503 -0.00000000000E+00 -0.00000000000E+00 -0.20779548976E+03  0.20779548976E+03  0.00000000000E+00 0.  1.
          6    1    1    2  501    0  0.48833770739E+02 -0.81641204910E+01 -0.14800152700E+03  0.23299107713E+03  0.17300000000E+03 0.  1.
         -6    1    1    2    0  502 -0.48833770739E+02  0.81641204910E+01  0.45064749559E+03  0.48524587099E+03  0.17300000000E+03 0.  1.
<mgrwt>
<rscale>  2 0.17994552E+03</rscale>
<asrwt>0</asrwt>
<pdfrwt beam="1">  1       21 0.78529455E-01 0.17994552E+03</pdfrwt>
<pdfrwt beam="2">  1       21 0.31968537E-01 0.17994552E+03</pdfrwt>
<totfact> 0.13609060E+04</totfact>
</mgrwt>
</event>
<event>
 4    1  0.4531281E+000  0.1833544E+03  0.7546771E-02  0.1164596E+00
         21   -1    0    0  503  502  0.00000000000E+00  0.00000000000E+00  0.15341931057E+04  0.15341931057E+04  0.00000000000E+00 0.  1.
         21   -1    0    0  501  503 -0.00000000000E+00 -0.00000000000E+00 -0.30302570741E+02  0.30302570741E+02  0.00000000000E+00 0.  1.
          6    1    1    2  501    0  0.42062290066E+01 -0.60598264932E+02  0.34034717968E+03  0.38659416032E+03  0.17300000000E+03 0.  1.
         -6    1    1    2    0  502 -0.42062290066E+01  0.60598264932E+02  0.11635433553E+04  0.11779015162E+04  0.17300000000E+03 0.  1.
<mgrwt>
<rscale>  2 0.18335442E+03</rscale>
<asrwt>0</asrwt>
<pdfrwt beam="1">  1       21 0.23602965E+00 0.18335442E+03</pdfrwt>
<pdfrwt beam="2">  1       21 0.46619352E-02 0.18335442E+03</pdfrwt>
<totfact> 0.24552451E+04</totfact>
</mgrwt>
</event>
<event>
 4    1  0.4531281E+000  0.1909089E+03  0.7546771E-02  0.1157644E+00
         21   -1    0    0  501  502  0.00000000000E+00  0.00000000000E+00  0.34132675967E+03  0.34132675967E+03  0.00000000000E+00 0. -1.
         21   -1    0    0  502  503 -0.00000000000E+00 -0.00000000000E+00 -0.21554005782E+03  0.21554005782E+03  0.00000000000E+00 0. -1.
          6    1    1    2  501    0 -0.78980738795E+02  0.16710688193E+02  0.26067954082E+03  0.32310993052E+03  0.17300000000E+03 0. -1.
         -6    1    1    2    0  503  0.78980738795E+02 -0.16710688193E+02 -0.13489283897E+03  0.23375688697E+03  0.17300000000E+03 0. -1.
<mgrwt>
<rscale>  2 0.19090889E+03</rscale>
<asrwt>0</asrwt>
<pdfrwt beam="1">  1       21 0.52511809E-01 0.19090889E+03</pdfrwt>
<pdfrwt beam="2">  1       21 0.33160009E-01 0.19090889E+03</pdfrwt>
<totfact> 0.30142988E+04</totfact>
</mgrwt>
</event>
<event>
 4    1  0.4531281E+000  0.2188958E+03  0.7546771E-02  0.1134709E+00
         21   -1    0    0  503  502  0.00000000000E+00  0.00000000000E+00  0.50333724829E+03  0.50333724829E+03  0.00000000000E+00 0. -1.
         21   -1    0    0  501  503 -0.00000000000E+00 -0.00000000000E+00 -0.15740718675E+03  0.15740718675E+03  0.00000000000E+00 0. -1.
          6    1    1    2  501    0  0.34310527852E+02  0.12965010455E+03 -0.34730798990E+02  0.22163391060E+03  0.17300000000E+03 0. -1.
         -6    1    1    2    0  502 -0.34310527852E+02 -0.12965010455E+03  0.38066086052E+03  0.43911052443E+03  0.17300000000E+03 0. -1.
<mgrwt>
<rscale>  2 0.21889578E+03</rscale>
<asrwt>0</asrwt>
<pdfrwt beam="1">  1       21 0.77436499E-01 0.21889578E+03</pdfrwt>
<pdfrwt beam="2">  1       21 0.24216490E-01 0.21889578E+03</pdfrwt>
<totfact> 0.23466066E+04</totfact>
</mgrwt>
</event>
<event>
 4    1  0.4531281E+000  0.2432400E+03  0.7546771E-02  0.1117653E+00
         21   -1    0    0  503  502  0.00000000000E+00  0.00000000000E+00  0.52727324436E+02  0.52727324436E+02  0.00000000000E+00 0.  1.
         21   -1    0    0  501  503 -0.00000000000E+00 -0.00000000000E+00 -0.14370366646E+04  0.14370366646E+04  0.00000000000E+00 0.  1.
          6    1    1    2  501    0  0.13586766568E+03  0.10381078221E+03 -0.10408613935E+04  0.10689051135E+04  0.17300000000E+03 0.  1.
         -6    1    1    2    0  502 -0.13586766568E+03 -0.10381078221E+03 -0.34344794659E+03  0.42085887551E+03  0.17300000000E+03 0.  1.
<mgrwt>
<rscale>  2 0.24324001E+03</rscale>
<asrwt>0</asrwt>
<pdfrwt beam="1">  1       21 0.81118960E-02 0.24324001E+03</pdfrwt>
<pdfrwt beam="2">  1       21 0.22108257E+00 0.24324001E+03</pdfrwt>
<totfact> 0.11146729E+04</totfact>
</mgrwt>
</event>
<event>
 4    1  0.4531281E+000  0.2181944E+03  0.7546771E-02  0.1135236E+00
         21   -1    0    0  503  502  0.00000000000E+00  0.00000000000E+00  0.33306850945E+03  0.33306850945E+03  0.00000000000E+00 0. -1.
         21   -1    0    0  501  503 -0.00000000000E+00 -0.00000000000E+00 -0.16601651201E+03  0.16601651201E+03  0.00000000000E+00 0. -1.
          6    1    1    2  501    0  0.12777100532E+03 -0.36801743361E+02 -0.95107219643E+01  0.21840158412E+03  0.17300000000E+03 0. -1.
         -6    1    1    2    0  502 -0.12777100532E+03  0.36801743361E+02  0.17656271941E+03  0.28068343734E+03  0.17300000000E+03 0. -1.
<mgrwt>
<rscale>  2 0.21819440E+03</rscale>
<asrwt>0</asrwt>
<pdfrwt beam="1">  1       21 0.51241309E-01 0.21819440E+03</pdfrwt>
<pdfrwt beam="2">  1       21 0.25541002E-01 0.21819440E+03</pdfrwt>
<totfact> 0.52004374E+04</totfact>
</mgrwt>
</event>
<event>
 4    1  0.4531281E+000  0.2080290E+03  0.7546771E-02  0.1143136E+00
         21   -1    0    0  501  502  0.00000000000E+00  0.00000000000E+00  0.94069429804E+02  0.94069429804E+02  0.00000000000E+00 0.  1.
         21   -1    0    0  502  503 -0.00000000000E+00 -0.00000000000E+00 -0.56104315462E+03  0.56104315462E+03  0.00000000000E+00 0. -1.
          6    1    1    2  501    0 -0.55780919539E+02 -0.10117086504E+03 -0.94508502830E+02  0.22849050752E+03  0.17300000000E+03 0.  1.
         -6    1    1    2    0  503  0.55780919539E+02  0.10117086504E+03 -0.37246522198E+03  0.42662207691E+03  0.17300000000E+03 0. -1.
<mgrwt>
<rscale>  2 0.20802898E+03</rscale>
<asrwt>0</asrwt>
<pdfrwt beam="1">  1       21 0.14472220E-01 0.20802898E+03</pdfrwt>
<pdfrwt beam="2">  1       21 0.86314329E-01 0.20802898E+03</pdfrwt>
<totfact> 0.48061210E+04</totfact>
</mgrwt>
</event>
<event>
 4    1  0.4531281E+000  0.3013175E+03  0.7546771E-02  0.1084584E+00
         21   -1    0    0  501  502  0.00000000000E+00  0.00000000000E+00  0.11042241150E+03  0.11042241150E+03  0.00000000000E+00 0.  1.
         21   -1    0    0  502  503 -0.00000000000E+00 -0.00000000000E+00 -0.82943751998E+03  0.82943751998E+03  0.00000000000E+00 0.  1.
          6    1    1    2  501    0 -0.21097142552E+03  0.12788380005E+03 -0.40332491926E+03  0.50345128781E+03  0.17300000000E+03 0.  1.
         -6    1    1    2    0  503  0.21097142552E+03 -0.12788380005E+03 -0.31569018922E+03  0.43640864367E+03  0.17300000000E+03 0.  1.
<mgrwt>
<rscale>  2 0.30131746E+03</rscale>
<asrwt>0</asrwt>
<pdfrwt beam="1">  1       21 0.16988063E-01 0.30131746E+03</pdfrwt>
<pdfrwt beam="2">  1       21 0.12760577E+00 0.30131746E+03</pdfrwt>
<totfact> 0.13303989E+04</totfact>
</mgrwt>
</event>
<event>
 4    1  0.4531281E+000  0.1853735E+03  0.7546771E-02  0.1162702E+00
         21   -1    0    0  501  502  0.00000000000E+00  0.00000000000E+00  0.86998503789E+02  0.86998503789E+02  0.00000000000E+00 0. -1.
         21   -1    0    0  502  503 -0.00000000000E+00 -0.00000000000E+00 -0.11404493275E+04  0.11404493275E+04  0.00000000000E+00 0. -1.
          6    1    1    2  501    0  0.66412320430E+02  0.48733774893E+01 -0.30535793983E+02  0.18787171375E+03  0.17300000000E+03 0. -1.
         -6    1    1    2    0  503 -0.66412320430E+02 -0.48733774893E+01 -0.10229150297E+04  0.10395761175E+04  0.17300000000E+03 0. -1.
<mgrwt>
<rscale>  2 0.18537353E+03</rscale>
<asrwt>0</asrwt>
<pdfrwt beam="1">  1       21 0.13384385E-01 0.18537353E+03</pdfrwt>
<pdfrwt beam="2">  1       21 0.17545375E+00 0.18537353E+03</pdfrwt>
<totfact> 0.94849350E+03</totfact>
</mgrwt>
</event>
<event>
 4    1  0.4531281E+000  0.1995617E+03  0.7546771E-02  0.1150109E+00
         21   -1    0    0  501  502  0.00000000000E+00  0.00000000000E+00  0.91424785706E+03  0.91424785706E+03  0.00000000000E+00 0.  1.
         21   -1    0    0  502  503 -0.00000000000E+00 -0.00000000000E+00 -0.43974266491E+02  0.43974266491E+02  0.00000000000E+00 0. -1.
          6    1    1    2  501    0  0.44665038660E+02 -0.88887021863E+02  0.48162512333E+03  0.52133255007E+03  0.17300000000E+03 0. -1.
         -6    1    1    2    0  503 -0.44665038660E+02  0.88887021863E+02  0.38864846723E+03  0.43688957348E+03  0.17300000000E+03 0. -1.
<mgrwt>
<rscale>  2 0.19956169E+03</rscale>
<asrwt>0</asrwt>
<pdfrwt beam="1">  1       21 0.14065350E+00 0.19956169E+03</pdfrwt>
<pdfrwt beam="2">  1       21 0.67652725E-02 0.19956169E+03</pdfrwt>
<totfact> 0.56509039E+04</totfact>
</mgrwt>
</event>
<event>
 4    1  0.4531281E+000  0.2238636E+03  0.7546771E-02  0.1131035E+00
         21   -1    0    0  501  502  0.00000000000E+00  0.00000000000E+00  0.37230908489E+03  0.37230908489E+03  0.00000000000E+00 0. -1.
         21   -1    0    0  502  503 -0.00000000000E+00 -0.00000000000E+00 -0.13596774937E+03  0.13596774937E+03  0.00000000000E+00 0. -1.
          6    1    1    2  501    0  0.84125053068E+02 -0.11449407114E+03  0.14360686962E+03  0.26596588105E+03  0.17300000000E+03 0. -1.
         -6    1    1    2    0  503 -0.84125053068E+02  0.11449407114E+03  0.92734465901E+02  0.24231095321E+03  0.17300000000E+03 0. -1.
<mgrwt>
<rscale>  2 0.22386361E+03</rscale>
<asrwt>0</asrwt>
<pdfrwt beam="1">  1       21 0.57278320E-01 0.22386361E+03</pdfrwt>
<pdfrwt beam="2">  1       21 0.20918115E-01 0.22386361E+03</pdfrwt>
<totfact> 0.59884011E+04</totfact>
</mgrwt>
</event>
<event>
 4    1  0.4531281E+000  0.1763655E+03  0.7546771E-02  0.1171368E+00
         21   -1    0    0  501  502  0.00000000000E+00  0.00000000000E+00  0.14394450015E+03  0.14394450015E+03  0.00000000000E+00 0.  1.
         21   -1    0    0  502  503 -0.00000000000E+00 -0.00000000000E+00 -0.30908007267E+03  0.30908007267E+03  0.00000000000E+00 0.  1.
          6    1    1    2  501    0  0.23317076092E+02  0.25141415547E+02  0.41676847579E+02  0.18122289159E+03  0.17300000000E+03 0.  1.
         -6    1    1    2    0  503 -0.23317076092E+02 -0.25141415547E+02 -0.20681242009E+03  0.27180168123E+03  0.17300000000E+03 0.  1.
<mgrwt>
<rscale>  2 0.17636546E+03</rscale>
<asrwt>0</asrwt>
<pdfrwt beam="1">  1       21 0.22145308E-01 0.17636546E+03</pdfrwt>
<pdfrwt beam="2">  1       21 0.47550780E-01 0.17636546E+03</pdfrwt>
<totfact> 0.81173792E+04</totfact>
</mgrwt>
</event>
<event>
 4    1  0.4531281E+000  0.1933918E+03  0.7546771E-02  0.1155437E+00
         21   -1    0    0  501  502  0.00000000000E+00  0.00000000000E+00  0.12593111568E+03  0.12593111568E+03  0.00000000000E+00 0. -1.
         21   -1    0    0  502  503 -0.00000000000E+00 -0.00000000000E+00 -0.40253529037E+03  0.40253529037E+03  0.00000000000E+00 0. -1.
          6    1    1    2  501    0 -0.38260121562E+02  0.77508433906E+02 -0.30004645519E+01  0.19341508994E+03  0.17300000000E+03 0. -1.
         -6    1    1    2    0  503  0.38260121562E+02 -0.77508433906E+02 -0.27360371014E+03  0.33505131611E+03  0.17300000000E+03 0. -1.
<mgrwt>
<rscale>  2 0.19339182E+03</rscale>
<asrwt>0</asrwt>
<pdfrwt beam="1">  1       21 0.19374018E-01 0.19339182E+03</pdfrwt>
<pdfrwt beam="2">  1       21 0.61928506E-01 0.19339182E+03</pdfrwt>
<totfact> 0.59272582E+04</totfact>
</mgrwt>
</event>
<event>
 4    1  0.4531281E+000  0.1766962E+03  0.7546771E-02  0.1171039E+00
         21   -1    0    0  501  502  0.00000000000E+00  0.00000000000E+00  0.30673768627E+03  0.30673768627E+03  0.00000000000E+00 0. -1.
         21   -1    0    0  502  503 -0.00000000000E+00 -0.00000000000E+00 -0.64664927128E+03  0.64664927128E+03  0.00000000000E+00 0. -1.
          6    1    1    2  501    0  0.28751578506E+02 -0.21584301912E+02  0.26761534513E+03  0.32068599643E+03  0.17300000000E+03 0. -1.
         -6    1    1    2    0  503 -0.28751578506E+02  0.21584301912E+02 -0.60752693014E+03  0.63270096112E+03  0.17300000000E+03 0. -1.
<mgrwt>
<rscale>  2 0.17669617E+03</rscale>
<asrwt>0</asrwt>
<pdfrwt beam="1">  1       21 0.47190413E-01 0.17669617E+03</pdfrwt>
<pdfrwt beam="2">  1       21 0.99484503E-01 0.17669617E+03</pdfrwt>
<totfact> 0.36199442E+03</totfact>
</mgrwt>
</event>
<event>
 4    1  0.4531281E+000  0.2196887E+03  0.7546771E-02  0.1134115E+00
         21   -1    0    0  501  502  0.00000000000E+00  0.00000000000E+00  0.57659601215E+02  0.57659601215E+02  0.00000000000E+00 0.  1.
         21   -1    0    0  502  503 -0.00000000000E+00 -0.00000000000E+00 -0.23145831599E+04  0.23145831599E+04  0.00000000000E+00 0. -1.
          6    1    1    2  501    0  0.83084316444E+02 -0.10691639628E+03 -0.18077783250E+03  0.28450614081E+03  0.17300000000E+03 0.  1.
         -6    1    1    2    0  503 -0.83084316444E+02  0.10691639628E+03 -0.20761457262E+04  0.20877366203E+04  0.17300000000E+03 0. -1.
<mgrwt>
<rscale>  2 0.21968869E+03</rscale>
<asrwt>0</asrwt>
<pdfrwt beam="1">  1       21 0.88707083E-02 0.21968869E+03</pdfrwt>
<pdfrwt beam="2">  1       21 0.35608970E+00 0.21968869E+03</pdfrwt>
<totfact> 0.15553321E+03</totfact>
</mgrwt>
</event>
<event>
 4    1  0.4531281E+000  0.1850632E+03  0.7546771E-02  0.1162991E+00
         21   -1    0    0  503  502  0.00000000000E+00  0.00000000000E+00  0.59222011177E+03  0.59222011177E+03  0.00000000000E+00 0. -1.
         21   -1    0    0  501  503 -0.00000000000E+00 -0.00000000000E+00 -0.64962994823E+02  0.64962994823E+02  0.00000000000E+00 0. -1.
          6    1    1    2  501    0  0.57485498491E+02 -0.31855961139E+02  0.15474955724E+03  0.24123807797E+03  0.17300000000E+03 0. -1.
         -6    1    1    2    0  502 -0.57485498491E+02  0.31855961139E+02  0.37250755970E+03  0.41594502862E+03  0.17300000000E+03 0. -1.
<mgrwt>
<rscale>  2 0.18506319E+03</rscale>
<asrwt>0</asrwt>
<pdfrwt beam="1">  1       21 0.91110783E-01 0.18506319E+03</pdfrwt>
<pdfrwt beam="2">  1       21 0.99943073E-02 0.18506319E+03</pdfrwt>
<totfact> 0.83211166E+04</totfact>
</mgrwt>
</event>
<event>
 4    1  0.4531281E+000  0.1971230E+03  0.7546771E-02  0.1152189E+00
         21   -1    0    0  501  502  0.00000000000E+00  0.00000000000E+00  0.16291086391E+03  0.16291086391E+03  0.00000000000E+00 0. -1.
         21   -1    0    0  502  503 -0.00000000000E+00 -0.00000000000E+00 -0.34453857761E+03  0.34453857761E+03  0.00000000000E+00 0.  1.
          6    1    1    2  501    0  0.24176234337E+02 -0.91345462803E+02  0.49931810607E+02  0.20334864050E+03  0.17300000000E+03 0. -1.
         -6    1    1    2    0  503 -0.24176234337E+02  0.91345462803E+02 -0.23155952431E+03  0.30410080102E+03  0.17300000000E+03 0.  1.
<mgrwt>
<rscale>  2 0.19712302E+03</rscale>
<asrwt>0</asrwt>
<pdfrwt beam="1">  1       21 0.25063210E-01 0.19712302E+03</pdfrwt>
<pdfrwt beam="2">  1       21 0.53005935E-01 0.19712302E+03</pdfrwt>
<totfact> 0.50717796E+04</totfact>
</mgrwt>
</event>
<event>
 4    1  0.4531281E+000  0.1949867E+03  0.7546771E-02  0.1154039E+00
         21   -1    0    0  501  502  0.00000000000E+00  0.00000000000E+00  0.45032182951E+03  0.45032182951E+03  0.00000000000E+00 0. -1.
         21   -1    0    0  502  503 -0.00000000000E+00 -0.00000000000E+00 -0.85649143900E+02  0.85649143900E+02  0.00000000000E+00 0. -1.
          6    1    1    2  501    0 -0.67876928025E+02 -0.59021434158E+02  0.21433406878E+03  0.28975662217E+03  0.17300000000E+03 0. -1.
         -6    1    1    2    0  503  0.67876928025E+02  0.59021434158E+02  0.15033861682E+03  0.24621435124E+03  0.17300000000E+03 0. -1.
<mgrwt>
<rscale>  2 0.19498668E+03</rscale>
<asrwt>0</asrwt>
<pdfrwt beam="1">  1       21 0.69280280E-01 0.19498668E+03</pdfrwt>
<pdfrwt beam="2">  1       21 0.13176792E-01 0.19498668E+03</pdfrwt>
<totfact> 0.93949758E+04</totfact>
</mgrwt>
</event>
<event>
 4    1  0.4531281E+000  0.1833987E+03  0.7546771E-02  0.1164554E+00
         21   -1    0    0  503  502  0.00000000000E+00  0.00000000000E+00  0.21510641891E+03  0.21510641891E+03  0.00000000000E+00 0.  1.
         21   -1    0    0  501  503 -0.00000000000E+00 -0.00000000000E+00 -0.46161094909E+03  0.46161094909E+03  0.00000000000E+00 0.  1.
          6    1    1    2  501    0 -0.13952165050E+00  0.60877463928E+02 -0.39839897914E+03  0.43858503356E+03  0.17300000000E+03 0.  1.
         -6    1    1    2    0  502  0.13952165050E+00 -0.60877463928E+02  0.15189444896E+03  0.23813233444E+03  0.17300000000E+03 0.  1.
<mgrwt>
<rscale>  2 0.18339871E+03</rscale>
<asrwt>0</asrwt>
<pdfrwt beam="1">  1       21 0.33093295E-01 0.18339871E+03</pdfrwt>
<pdfrwt beam="2">  1       21 0.71017069E-01 0.18339871E+03</pdfrwt>
<totfact> 0.15871444E+04</totfact>
</mgrwt>
</event>
<event>
 4    1  0.4531281E+000  0.1807528E+03  0.7546771E-02  0.1167076E+00
         21   -1    0    0  501  502  0.00000000000E+00  0.00000000000E+00  0.21559387971E+04  0.21559387971E+04  0.00000000000E+00 0. -1.
         21   -1    0    0  502  503 -0.00000000000E+00 -0.00000000000E+00 -0.16328023636E+02  0.16328023636E+02  0.00000000000E+00 0. -1.
          6    1    1    2  501    0  0.43592492560E+02  0.29021942717E+02  0.77859059861E+03  0.79929650244E+03  0.17300000000E+03 0. -1.
         -6    1    1    2    0  503 -0.43592492560E+02 -0.29021942717E+02  0.13610201749E+04  0.13729703183E+04  0.17300000000E+03 0. -1.
<mgrwt>
<rscale>  2 0.18075281E+03</rscale>
<asrwt>0</asrwt>
<pdfrwt beam="1">  1       21 0.33168267E+00 0.18075281E+03</pdfrwt>
<pdfrwt beam="2">  1       21 0.25120053E-02 0.18075281E+03</pdfrwt>
<totfact> 0.19237599E+04</totfact>
</mgrwt>
</event>
<event>
 4    1  0.4531281E+000  0.1775107E+03  0.7546771E-02  0.1170234E+00
         21   -1    0    0  501  502  0.00000000000E+00  0.00000000000E+00  0.42686018127E+03  0.42686018127E+03  0.00000000000E+00 0.  1.
         21   -1    0    0  502  503 -0.00000000000E+00 -0.00000000000E+00 -0.75298184360E+02  0.75298184360E+02  0.00000000000E+00 0.  1.
          6    1    1    2  501    0 -0.12735042089E+02  0.37667680568E+02  0.14058023390E+03  0.22643506270E+03  0.17300000000E+03 0. -1.
         -6    1    1    2    0  503  0.12735042089E+02 -0.37667680568E+02  0.21098176301E+03  0.27572330293E+03  0.17300000000E+03 0. -1.
<mgrwt>
<rscale>  2 0.17751066E+03</rscale>
<asrwt>0</asrwt>
<pdfrwt beam="1">  1       21 0.65670796E-01 0.17751066E+03</pdfrwt>
<pdfrwt beam="2">  1       21 0.11584336E-01 0.17751066E+03</pdfrwt>
<totfact> 0.13390607E+05</totfact>
</mgrwt>
</event>
<event>
 4    1  0.4531281E+000  0.1839338E+03  0.7546771E-02  0.1164049E+00
         21   -1    0    0  503  502  0.00000000000E+00  0.00000000000E+00  0.60614393570E+02  0.60614393570E+02  0.00000000000E+00 0. -1.
         21   -1    0    0  501  503 -0.00000000000E+00 -0.00000000000E+00 -0.57592150224E+03  0.57592150224E+03  0.00000000000E+00 0. -1.
          6    1    1    2  501    0  0.30114390704E+02  0.54733601091E+02 -0.31356874303E+03  0.36353404273E+03  0.17300000000E+03 0. -1.
         -6    1    1    2    0  502 -0.30114390704E+02 -0.54733601091E+02 -0.20173836564E+03  0.27300185309E+03  0.17300000000E+03 0. -1.
<mgrwt>
<rscale>  2 0.18393380E+03</rscale>
<asrwt>0</asrwt>
<pdfrwt beam="1">  1       21 0.93252911E-02 0.18393380E+03</pdfrwt>
<pdfrwt beam="2">  1       21 0.88603310E-01 0.18393380E+03</pdfrwt>
<totfact> 0.10031563E+05</totfact>
</mgrwt>
</event>
<event>
 4    1  0.4531281E+000  0.2384529E+03  0.7546771E-02  0.1120828E+00
         21   -1    0    0  501  502  0.00000000000E+00  0.00000000000E+00  0.42563488775E+03  0.42563488775E+03  0.00000000000E+00 0. -1.
         21   -1    0    0  502  503 -0.00000000000E+00 -0.00000000000E+00 -0.13534195985E+03  0.13534195985E+03  0.00000000000E+00 0.  1.
          6    1    1    2  501    0  0.78334538153E+02  0.14420292754E+03  0.11321727091E+03  0.26396578303E+03  0.17300000000E+03 0.  1.
         -6    1    1    2    0  503 -0.78334538153E+02 -0.14420292754E+03  0.17707565700E+03  0.29701106457E+03  0.17300000000E+03 0. -1.
<mgrwt>
<rscale>  2 0.23845290E+03</rscale>
<asrwt>0</asrwt>
<pdfrwt beam="1">  1       21 0.65482290E-01 0.23845290E+03</pdfrwt>
<pdfrwt beam="2">  1       21 0.20821840E-01 0.23845290E+03</pdfrwt>
<totfact> 0.44929847E+04</totfact>
</mgrwt>
</event>
<event>
 4    1  0.4531281E+000  0.2053203E+03  0.7546771E-02  0.1145326E+00
         21   -1    0    0  501  502  0.00000000000E+00  0.00000000000E+00  0.13881230215E+03  0.13881230215E+03  0.00000000000E+00 0. -1.
         21   -1    0    0  502  503 -0.00000000000E+00 -0.00000000000E+00 -0.35811472318E+03  0.35811472318E+03  0.00000000000E+00 0.  1.
          6    1    1    2  501    0  0.40660149298E+02 -0.10283081022E+03 -0.12793357705E+02  0.20571848063E+03  0.17300000000E+03 0. -1.
         -6    1    1    2    0  503 -0.40660149298E+02  0.10283081022E+03 -0.20650906332E+03  0.29120854470E+03  0.17300000000E+03 0.  1.
<mgrwt>
<rscale>  2 0.20532029E+03</rscale>
<asrwt>0</asrwt>
<pdfrwt beam="1">  1       21 0.21355739E-01 0.20532029E+03</pdfrwt>
<pdfrwt beam="2">  1       21 0.55094572E-01 0.20532029E+03</pdfrwt>
<totfact> 0.63073753E+04</totfact>
</mgrwt>
</event>
<event>
 4    1  0.4531281E+000  0.3007711E+03  0.7546771E-02  0.1084856E+00
         21   -1    0    0  501  502  0.00000000000E+00  0.00000000000E+00  0.49074541682E+03  0.49074541682E+03  0.00000000000E+00 0.  1.
         21   -1    0    0  502  503 -0.00000000000E+00 -0.00000000000E+00 -0.20933538249E+03  0.20933538249E+03  0.00000000000E+00 0. -1.
          6    1    1    2  501    0  0.24368549968E+03  0.33935457572E+02  0.26166463671E+03  0.39866228833E+03  0.17300000000E+03 0.  1.
         -6    1    1    2    0  503 -0.24368549968E+03 -0.33935457572E+02  0.19745397617E+02  0.30141851098E+03  0.17300000000E+03 0. -1.
<mgrwt>
<rscale>  2 0.30077107E+03</rscale>
<asrwt>0</asrwt>
<pdfrwt beam="1">  1       21 0.75499295E-01 0.30077107E+03</pdfrwt>
<pdfrwt beam="2">  1       21 0.32205444E-01 0.30077107E+03</pdfrwt>
<totfact> 0.13714810E+04</totfact>
</mgrwt>
</event>
<event>
 4    1  0.4531281E+000  0.3739946E+03  0.7546771E-02  0.1053176E+00
         21   -1    0    0  501  502  0.00000000000E+00  0.00000000000E+00  0.38100532611E+03  0.38100532611E+03  0.00000000000E+00 0.  1.
         21   -1    0    0  502  503 -0.00000000000E+00 -0.00000000000E+00 -0.64605402817E+03  0.64605402817E+03  0.00000000000E+00 0. -1.
          6    1    1    2  501    0  0.75974587382E+02 -0.32275501876E+03  0.20490858089E+03  0.42644984065E+03  0.17300000000E+03 0.  1.
         -6    1    1    2    0  503 -0.75974587382E+02  0.32275501876E+03 -0.46995728295E+03  0.60060951363E+03  0.17300000000E+03 0. -1.
<mgrwt>
<rscale>  2 0.37399457E+03</rscale>
<asrwt>0</asrwt>
<pdfrwt beam="1">  1       21 0.58616205E-01 0.37399457E+03</pdfrwt>
<pdfrwt beam="2">  1       21 0.99392926E-01 0.37399457E+03</pdfrwt>
<totfact> 0.20191335E+03</totfact>
</mgrwt>
</event>
<event>
 4    1  0.4531281E+000  0.2018900E+03  0.7546771E-02  0.1148154E+00
         21   -1    0    0  501  502  0.00000000000E+00  0.00000000000E+00  0.35368017294E+03  0.35368017294E+03  0.00000000000E+00 0.  1.
         21   -1    0    0  502  503 -0.00000000000E+00 -0.00000000000E+00 -0.17305056334E+03  0.17305056334E+03  0.00000000000E+00 0. -1.
          6    1    1    2  501    0  0.25055495328E+02  0.10100879471E+03  0.24253081832E+03  0.31556418094E+03  0.17300000000E+03 0.  1.
         -6    1    1    2    0  503 -0.25055495328E+02 -0.10100879471E+03 -0.61901208719E+02  0.21116655534E+03  0.17300000000E+03 0.  1.
<mgrwt>
<rscale>  2 0.20188996E+03</rscale>
<asrwt>0</asrwt>
<pdfrwt beam="1">  1       21 0.54412334E-01 0.20188996E+03</pdfrwt>
<pdfrwt beam="2">  1       21 0.26623164E-01 0.20188996E+03</pdfrwt>
<totfact> 0.42643199E+04</totfact>
</mgrwt>
</event>
<event>
 4    1  0.4531281E+000  0.1865621E+03  0.7546771E-02  0.1161599E+00
         21   -1    0    0  503  502  0.00000000000E+00  0.00000000000E+00  0.97021547346E+03  0.97021547346E+03  0.00000000000E+00 0. -1.
         21   -1    0    0  501  503 -0.00000000000E+00 -0.00000000000E+00 -0.71291129720E+02  0.71291129720E+02  0.00000000000E+00 0. -1.
          6    1    1    2  501    0 -0.68511126443E+02  0.13513861304E+02  0.82415182541E+02  0.20395504703E+03  0.17300000000E+03 0. -1.
         -6    1    1    2    0  502  0.68511126443E+02 -0.13513861304E+02  0.81650916120E+03  0.83755155616E+03  0.17300000000E+03 0. -1.
<mgrwt>
<rscale>  2 0.18656205E+03</rscale>
<asrwt>0</asrwt>
<pdfrwt beam="1">  1       21 0.14926391E+00 0.18656205E+03</pdfrwt>
<pdfrwt beam="2">  1       21 0.10967867E-01 0.18656205E+03</pdfrwt>
<totfact> 0.20944287E+04</totfact>
</mgrwt>
</event>
<event>
 4    1  0.4531281E+000  0.2998850E+03  0.7546771E-02  0.1085298E+00
         21   -1    0    0  501  502  0.00000000000E+00  0.00000000000E+00  0.51545046510E+03  0.51545046510E+03  0.00000000000E+00 0. -1.
         21   -1    0    0  502  503 -0.00000000000E+00 -0.00000000000E+00 -0.53628663917E+03  0.53628663917E+03  0.00000000000E+00 0.  1.
          6    1    1    2  501    0  0.22330920066E+03 -0.10067276710E+03  0.42152105067E+03  0.51731131951E+03  0.17300000000E+03 0. -1.
         -6    1    1    2    0  503 -0.22330920066E+03  0.10067276710E+03 -0.44235722474E+03  0.53442578476E+03  0.17300000000E+03 0.  1.
<mgrwt>
<rscale>  2 0.29988499E+03</rscale>
<asrwt>0</asrwt>
<pdfrwt beam="1">  1       21 0.79300071E-01 0.29988499E+03</pdfrwt>
<pdfrwt beam="2">  1       21 0.82505637E-01 0.29988499E+03</pdfrwt>
<totfact> 0.16601799E+03</totfact>
</mgrwt>
</event>
<event>
 4    1  0.4531281E+000  0.2371422E+03  0.7546771E-02  0.1121711E+00
         21   -1    0    0  503  502  0.00000000000E+00  0.00000000000E+00  0.17178844075E+03  0.17178844075E+03  0.00000000000E+00 0.  1.
         21   -1    0    0  501  503 -0.00000000000E+00 -0.00000000000E+00 -0.34911287285E+03  0.34911287285E+03  0.00000000000E+00 0.  1.
          6    1    1    2  501    0 -0.13354518714E+03 -0.92049602028E+02 -0.15367720416E+03  0.28258296007E+03  0.17300000000E+03 0.  1.
         -6    1    1    2    0  502  0.13354518714E+03  0.92049602028E+02 -0.23647227930E+02  0.23831835353E+03  0.17300000000E+03 0.  1.
<mgrwt>
<rscale>  2 0.23714225E+03</rscale>
<asrwt>0</asrwt>
<pdfrwt beam="1">  1       21 0.26428991E-01 0.23714225E+03</pdfrwt>
<pdfrwt beam="2">  1       21 0.53709673E-01 0.23714225E+03</pdfrwt>
<totfact> 0.43728910E+04</totfact>
</mgrwt>
</event>
<event>
 4    1  0.4531281E+000  0.1877024E+03  0.7546771E-02  0.1160550E+00
         21   -1    0    0  503  502  0.00000000000E+00  0.00000000000E+00  0.45866053433E+03  0.45866053433E+03  0.00000000000E+00 0.  1.
         21   -1    0    0  501  503 -0.00000000000E+00 -0.00000000000E+00 -0.77807856902E+02  0.77807856902E+02  0.00000000000E+00 0.  1.
          6    1    1    2  501    0  0.53966669653E+02  0.48895739097E+02  0.16013230291E+03  0.24672768221E+03  0.17300000000E+03 0.  1.
         -6    1    1    2    0  502 -0.53966669653E+02 -0.48895739097E+02  0.22072037452E+03  0.28974070902E+03  0.17300000000E+03 0.  1.
<mgrwt>
<rscale>  2 0.18770241E+03</rscale>
<asrwt>0</asrwt>
<pdfrwt beam="1">  1       21 0.70563158E-01 0.18770241E+03</pdfrwt>
<pdfrwt beam="2">  1       21 0.11970440E-01 0.18770241E+03</pdfrwt>
<totfact> 0.10750078E+05</totfact>
</mgrwt>
</event>
<event>
 4    1  0.4531281E+000  0.1842469E+03  0.7546771E-02  0.1163755E+00
         21   -1    0    0  503  502  0.00000000000E+00  0.00000000000E+00  0.47037371030E+02  0.47037371030E+02  0.00000000000E+00 0. -1.
         21   -1    0    0  501  503 -0.00000000000E+00 -0.00000000000E+00 -0.72174121253E+03  0.72174121253E+03  0.00000000000E+00 0. -1.
          6    1    1    2  501    0 -0.63361381970E+02  0.18072198587E+01 -0.34021120148E+03  0.38689868491E+03  0.17300000000E+03 0. -1.
         -6    1    1    2    0  502  0.63361381970E+02 -0.18072198587E+01 -0.33449264002E+03  0.38187989865E+03  0.17300000000E+03 0. -1.
<mgrwt>
<rscale>  2 0.18424693E+03</rscale>
<asrwt>0</asrwt>
<pdfrwt beam="1">  1       21 0.72365183E-02 0.18424693E+03</pdfrwt>
<pdfrwt beam="2">  1       21 0.11103711E+00 0.18424693E+03</pdfrwt>
<totfact> 0.91512358E+04</totfact>
</mgrwt>
</event>
<event>
 4    1  0.4531281E+000  0.2479474E+03  0.7546771E-02  0.1114609E+00
         21   -1    0    0  501  502  0.00000000000E+00  0.00000000000E+00  0.98515751241E+02  0.98515751241E+02  0.00000000000E+00 0. -1.
         21   -1    0    0  502  503 -0.00000000000E+00 -0.00000000000E+00 -0.66953718437E+03  0.66953718437E+03  0.00000000000E+00 0.  1.
          6    1    1    2  501    0  0.12739103946E+03 -0.12377583576E+03 -0.38561624700E+03  0.45845155077E+03  0.17300000000E+03 0.  1.
         -6    1    1    2    0  503 -0.12739103946E+03  0.12377583576E+03 -0.18540518613E+03  0.30960138484E+03  0.17300000000E+03 0. -1.
<mgrwt>
<rscale>  2 0.24794744E+03</rscale>
<asrwt>0</asrwt>
<pdfrwt beam="1">  1       21 0.15156269E-01 0.24794744E+03</pdfrwt>
<pdfrwt beam="2">  1       21 0.10300572E+00 0.24794744E+03</pdfrwt>
<totfact> 0.28595998E+04</totfact>
</mgrwt>
</event>
<event>
 4    1  0.4531281E+000  0.1978621E+03  0.7546771E-02  0.1151555E+00
         21   -1    0    0  503  502  0.00000000000E+00  0.00000000000E+00  0.24569438408E+03  0.24569438408E+03  0.00000000000E+00 0. -1.
         21   -1    0    0  501  503 -0.00000000000E+00 -0.00000000000E+00 -0.31656036882E+03  0.31656036882E+03  0.00000000000E+00 0. -1.
          6    1    1    2  501    0 -0.37095050705E+02 -0.88568465565E+02 -0.23355221535E+03  0.30609811037E+03  0.17300000000E+03 0. -1.
         -6    1    1    2    0  502  0.37095050705E+02  0.88568465565E+02  0.16268623061E+03  0.25615664252E+03  0.17300000000E+03 0. -1.
<mgrwt>
<rscale>  2 0.19786211E+03</rscale>
<asrwt>0</asrwt>
<pdfrwt beam="1">  1       21 0.37799136E-01 0.19786211E+03</pdfrwt>
<pdfrwt beam="2">  1       21 0.48701595E-01 0.19786211E+03</pdfrwt>
<totfact> 0.27088253E+04</totfact>
</mgrwt>
</event>
<event>
 4    1  0.4531281E+000  0.2187799E+03  0.7546771E-02  0.1134796E+00
         21   -1    0    0  503  502  0.00000000000E+00  0.00000000000E+00  0.16308920583E+03  0.16308920583E+03  0.00000000000E+00 0.  1.
         21   -1    0    0  501  503 -0.00000000000E+00 -0.00000000000E+00 -0.31311701292E+03  0.31311701292E+03  0.00000000000E+00 0.  1.
          6    1    1    2  501    0  0.13070682792E+03  0.29178426775E+02 -0.15397513980E+02  0.21932108629E+03  0.17300000000E+03 0.  1.
         -6    1    1    2    0  502 -0.13070682792E+03 -0.29178426775E+02 -0.13463029312E+03  0.25688513246E+03  0.17300000000E+03 0.  1.
<mgrwt>
<rscale>  2 0.21877992E+03</rscale>
<asrwt>0</asrwt>
<pdfrwt beam="1">  1       21 0.25090647E-01 0.21877992E+03</pdfrwt>
<pdfrwt beam="2">  1       21 0.48171848E-01 0.21877992E+03</pdfrwt>
<totfact> 0.61207334E+04</totfact>
</mgrwt>
</event>
<event>
 4    1  0.4531281E+000  0.1816728E+03  0.7546771E-02  0.1166194E+00
         21   -1    0    0  501  502  0.00000000000E+00  0.00000000000E+00  0.25544337712E+03  0.25544337712E+03  0.00000000000E+00 0. -1.
         21   -1    0    0  502  503 -0.00000000000E+00 -0.00000000000E+00 -0.27414614095E+03  0.27414614095E+03  0.00000000000E+00 0. -1.
          6    1    1    2  501    0  0.55451754875E+02 -0.10617435107E+01  0.18318439407E+03  0.25799524540E+03  0.17300000000E+03 0. -1.
         -6    1    1    2    0  503 -0.55451754875E+02  0.10617435107E+01 -0.20188715790E+03  0.27159427266E+03  0.17300000000E+03 0. -1.
<mgrwt>
<rscale>  2 0.18167285E+03</rscale>
<asrwt>0</asrwt>
<pdfrwt beam="1">  1       21 0.39298981E-01 0.18167285E+03</pdfrwt>
<pdfrwt beam="2">  1       21 0.42176329E-01 0.18167285E+03</pdfrwt>
<totfact> 0.33964196E+04</totfact>
</mgrwt>
</event>
<event>
 4    1  0.4531281E+000  0.1751380E+03  0.7546771E-02  0.1172593E+00
         21   -1    0    0  501  502  0.00000000000E+00  0.00000000000E+00  0.91435825653E+03  0.91435825653E+03  0.00000000000E+00 0.  1.
         21   -1    0    0  502  503 -0.00000000000E+00 -0.00000000000E+00 -0.59992446873E+02  0.59992446873E+02  0.00000000000E+00 0.  1.
          6    1    1    2  501    0  0.13248790331E+02  0.23849566343E+02  0.75064117477E+03  0.77080185880E+03  0.17300000000E+03 0.  1.
         -6    1    1    2    0  503 -0.13248790331E+02 -0.23849566343E+02  0.10372463489E+03  0.20354884461E+03  0.17300000000E+03 0.  1.
<mgrwt>
<rscale>  2 0.17513804E+03</rscale>
<asrwt>0</asrwt>
<pdfrwt beam="1">  1       21 0.14067049E+00 0.17513804E+03</pdfrwt>
<pdfrwt beam="2">  1       21 0.92296079E-02 0.17513804E+03</pdfrwt>
<totfact> 0.33382217E+04</totfact>
</mgrwt>
</event>
<event>
 4    1  0.4531281E+000  0.2186302E+03  0.7546771E-02  0.1134908E+00
         21   -1    0    0  501  502  0.00000000000E+00  0.00000000000E+00  0.56617536302E+03  0.56617536302E+03  0.00000000000E+00 0.  1.
         21   -1    0    0  502  503 -0.00000000000E+00 -0.00000000000E+00 -0.10279831692E+03  0.10279831692E+03  0.00000000000E+00 0.  1.
          6    1    1    2  501    0 -0.33197570118E+02  0.12949161233E+03  0.37309977405E+03  0.43243796979E+03  0.17300000000E+03 0.  1.
         -6    1    1    2    0  503  0.33197570118E+02 -0.12949161233E+03  0.90277272050E+02  0.23653571014E+03  0.17300000000E+03 0.  1.
<mgrwt>
<rscale>  2 0.21863018E+03</rscale>
<asrwt>0</asrwt>
<pdfrwt beam="1">  1       21 0.87103900E-01 0.21863018E+03</pdfrwt>
<pdfrwt beam="2">  1       21 0.15815126E-01 0.21863018E+03</pdfrwt>
<totfact> 0.39813608E+04</totfact>
</mgrwt>
</event>
<event>
 4    1  0.4531281E+000  0.1919337E+03  0.7546771E-02  0.1156729E+00
         21   -1    0    0  501  502  0.00000000000E+00  0.00000000000E+00  0.25608133382E+03  0.25608133382E+03  0.00000000000E+00 0.  1.
         21   -1    0    0  502  503 -0.00000000000E+00 -0.00000000000E+00 -0.14452727478E+03  0.14452727478E+03  0.00000000000E+00 0.  1.
          6    1    1    2  501    0  0.30684763278E+01 -0.83067088861E+02  0.69439158928E+02  0.20410868083E+03  0.17300000000E+03 0.  1.
         -6    1    1    2    0  503 -0.30684763278E+01  0.83067088861E+02  0.42114900113E+02  0.19649992776E+03  0.17300000000E+03 0.  1.
<mgrwt>
<rscale>  2 0.19193373E+03</rscale>
<asrwt>0</asrwt>
<pdfrwt beam="1">  1       21 0.39397128E-01 0.19193373E+03</pdfrwt>
<pdfrwt beam="2">  1       21 0.22234965E-01 0.19193373E+03</pdfrwt>
<totfact> 0.11755031E+05</totfact>
</mgrwt>
</event>
<event>
 4    1  0.4531281E+000  0.1881506E+03  0.7546771E-02  0.1160140E+00
         21   -1    0    0  501  502  0.00000000000E+00  0.00000000000E+00  0.98948384182E+02  0.98948384182E+02  0.00000000000E+00 0. -1.
         21   -1    0    0  502  503 -0.00000000000E+00 -0.00000000000E+00 -0.38487648392E+03  0.38487648392E+03  0.00000000000E+00 0.  1.
          6    1    1    2  501    0 -0.15011349257E+02 -0.72431528140E+02 -0.78763032246E+02  0.20397127769E+03  0.17300000000E+03 0.  1.
         -6    1    1    2    0  503  0.15011349257E+02  0.72431528140E+02 -0.20716506749E+03  0.27985359041E+03  0.17300000000E+03 0. -1.
<mgrwt>
<rscale>  2 0.18815065E+03</rscale>
<asrwt>0</asrwt>
<pdfrwt beam="1">  1       21 0.15222828E-01 0.18815065E+03</pdfrwt>
<pdfrwt beam="2">  1       21 0.59211766E-01 0.18815065E+03</pdfrwt>
<totfact> 0.10197547E+05</totfact>
</mgrwt>
</event>
<event>
 4    1  0.4531281E+000  0.2270799E+03  0.7546771E-02  0.1128712E+00
         21   -1    0    0  503  502  0.00000000000E+00  0.00000000000E+00  0.89285426303E+03  0.89285426303E+03  0.00000000000E+00 0. -1.
         21   -1    0    0  501  503 -0.00000000000E+00 -0.00000000000E+00 -0.14850343319E+03  0.14850343319E+03  0.00000000000E+00 0.  1.
          6    1    1    2  501    0 -0.18428657293E+01 -0.14708128035E+03 -0.34853509973E+02  0.22973912671E+03  0.17300000000E+03 0.  1.
         -6    1    1    2    0  502  0.18428657293E+01  0.14708128035E+03  0.77920433981E+03  0.81161856951E+03  0.17300000000E+03 0. -1.
<mgrwt>
<rscale>  2 0.22707994E+03</rscale>
<asrwt>0</asrwt>
<pdfrwt beam="1">  1       21 0.13736219E+00 0.22707994E+03</pdfrwt>
<pdfrwt beam="2">  1       21 0.22846682E-01 0.22707994E+03</pdfrwt>
<totfact> 0.65823065E+03</totfact>
</mgrwt>
</event>
<event>
 4    1  0.4531281E+000  0.1855543E+03  0.7546771E-02  0.1162533E+00
         21   -1    0    0  503  502  0.00000000000E+00  0.00000000000E+00  0.21835174093E+04  0.21835174093E+04  0.00000000000E+00 0.  1.
         21   -1    0    0  501  503 -0.00000000000E+00 -0.00000000000E+00 -0.28398627608E+02  0.28398627608E+02  0.00000000000E+00 0.  1.
          6    1    1    2  501    0  0.48884925189E+02  0.45952794224E+02  0.34000003449E+03  0.38733760295E+03  0.17300000000E+03 0.  1.
         -6    1    1    2    0  502 -0.48884925189E+02 -0.45952794224E+02  0.18151187472E+04  0.18245784339E+04  0.17300000000E+03 0.  1.
<mgrwt>
<rscale>  2 0.18555429E+03</rscale>
<asrwt>0</asrwt>
<pdfrwt beam="1">  1       21 0.33592562E+00 0.18555429E+03</pdfrwt>
<pdfrwt beam="2">  1       21 0.43690213E-02 0.18555429E+03</pdfrwt>
<totfact> 0.72083007E+03</totfact>
</mgrwt>
</event>
<event>
 4    1  0.4531281E+000  0.1917090E+03  0.7546771E-02  0.1156929E+00
         21   -1    0    0  503  502  0.00000000000E+00  0.00000000000E+00  0.43196275848E+02  0.43196275848E+02  0.00000000000E+00 0. -1.
         21   -1    0    0  501  503 -0.00000000000E+00 -0.00000000000E+00 -0.85621533878E+03  0.85621533878E+03  0.00000000000E+00 0. -1.
          6    1    1    2  501    0  0.76314578484E+02 -0.31613789116E+02 -0.44220075409E+03  0.48196872665E+03  0.17300000000E+03 0. -1.
         -6    1    1    2    0  502 -0.76314578484E+02  0.31613789116E+02 -0.37081830885E+03  0.41744288799E+03  0.17300000000E+03 0. -1.
<mgrwt>
<rscale>  2 0.19170902E+03</rscale>
<asrwt>0</asrwt>
<pdfrwt beam="1">  1       21 0.66455810E-02 0.19170902E+03</pdfrwt>
<pdfrwt beam="2">  1       21 0.13172543E+00 0.19170902E+03</pdfrwt>
<totfact> 0.69205762E+04</totfact>
</mgrwt>
</event>
<event>
 4    1  0.4531281E+000  0.1743341E+03  0.7546771E-02  0.1173402E+00
         21   -1    0    0  503  502  0.00000000000E+00  0.00000000000E+00  0.10108952744E+04  0.10108952744E+04  0.00000000000E+00 0.  1.
         21   -1    0    0  501  503 -0.00000000000E+00 -0.00000000000E+00 -0.82040915711E+02  0.82040915711E+02  0.00000000000E+00 0.  1.
          6    1    1    2  501    0 -0.56222915890E+01  0.20778763772E+02  0.29465036272E+02  0.17680654838E+03  0.17300000000E+03 0.  1.
         -6    1    1    2    0  502  0.56222915890E+01 -0.20778763772E+02  0.89938932244E+03  0.91612964176E+03  0.17300000000E+03 0.  1.
<mgrwt>
<rscale>  2 0.17433407E+03</rscale>
<asrwt>0</asrwt>
<pdfrwt beam="1">  1       21 0.15552234E+00 0.17433407E+03</pdfrwt>
<pdfrwt beam="2">  1       21 0.12621680E-01 0.17433407E+03</pdfrwt>
<totfact> 0.14757364E+04</totfact>
</mgrwt>
</event>
<event>
 4    1  0.4531281E+000  0.1834910E+03  0.7546771E-02  0.1164467E+00
         21   -1    0    0  501  502  0.00000000000E+00  0.00000000000E+00  0.97749800655E+02  0.97749800655E+02  0.00000000000E+00 0. -1.
         21   -1    0    0  502  503 -0.00000000000E+00 -0.00000000000E+00 -0.90899904159E+03  0.90899904159E+03  0.00000000000E+00 0. -1.
          6    1    1    2  501    0  0.87561341781E+01 -0.60524914187E+02 -0.89228501543E+01  0.18370779074E+03  0.17300000000E+03 0. -1.
         -6    1    1    2    0  503 -0.87561341781E+01  0.60524914187E+02 -0.80232639078E+03  0.82304105150E+03  0.17300000000E+03 0. -1.
<mgrwt>
<rscale>  2 0.18349097E+03</rscale>
<asrwt>0</asrwt>
<pdfrwt beam="1">  1       21 0.15038431E-01 0.18349097E+03</pdfrwt>
<pdfrwt beam="2">  1       21 0.13984600E+00 0.18349097E+03</pdfrwt>
<totfact> 0.14102216E+04</totfact>
</mgrwt>
</event>
<event>
 4    1  0.4531281E+000  0.2349980E+03  0.7546771E-02  0.1123171E+00
         21   -1    0    0  503  502  0.00000000000E+00  0.00000000000E+00  0.31860820679E+03  0.31860820679E+03  0.00000000000E+00 0. -1.
         21   -1    0    0  501  503 -0.00000000000E+00 -0.00000000000E+00 -0.17566006391E+03  0.17566006391E+03  0.00000000000E+00 0.  1.
          6    1    1    2  501    0  0.13751297826E+03  0.79907705148E+02  0.43005357169E+02  0.23890065148E+03  0.17300000000E+03 0.  1.
         -6    1    1    2    0  502 -0.13751297826E+03 -0.79907705148E+02  0.99942785713E+02  0.25536761922E+03  0.17300000000E+03 0.  1.
<mgrwt>
<rscale>  2 0.23499800E+03</rscale>
<asrwt>0</asrwt>
<pdfrwt beam="1">  1       21 0.49016647E-01 0.23499800E+03</pdfrwt>
<pdfrwt beam="2">  1       21 0.27024625E-01 0.23499800E+03</pdfrwt>
<totfact> 0.50816835E+04</totfact>
</mgrwt>
</event>
<event>
 4    1  0.4531281E+000  0.1891456E+03  0.7546771E-02  0.1159234E+00
         21   -1    0    0  503  502  0.00000000000E+00  0.00000000000E+00  0.14838244841E+03  0.14838244841E+03  0.00000000000E+00 0. -1.
         21   -1    0    0  501  503 -0.00000000000E+00 -0.00000000000E+00 -0.26434011131E+03  0.26434011131E+03  0.00000000000E+00 0.  1.
          6    1    1    2  501    0  0.75527440621E+02  0.11944294283E+02 -0.11915742899E+03  0.22354989004E+03  0.17300000000E+03 0.  1.
         -6    1    1    2    0  502 -0.75527440621E+02 -0.11944294283E+02  0.31997660839E+01  0.18917266968E+03  0.17300000000E+03 0. -1.
<mgrwt>
<rscale>  2 0.18914561E+03</rscale>
<asrwt>0</asrwt>
<pdfrwt beam="1">  1       21 0.22828069E-01 0.18914561E+03</pdfrwt>
<pdfrwt beam="2">  1       21 0.40667709E-01 0.18914561E+03</pdfrwt>
<totfact> 0.10500345E+05</totfact>
</mgrwt>
</event>
<event>
 4    1  0.4531281E+000  0.1823777E+03  0.7546771E-02  0.1165522E+00
         21   -1    0    0  501  502  0.00000000000E+00  0.00000000000E+00  0.62725422928E+02  0.62725422928E+02  0.00000000000E+00 0.  1.
         21   -1    0    0  502  503 -0.00000000000E+00 -0.00000000000E+00 -0.67647278680E+03  0.67647278680E+03  0.00000000000E+00 0. -1.
          6    1    1    2  501    0  0.41004656583E+02 -0.40635413315E+02 -0.13505173725E+03  0.22693741518E+03  0.17300000000E+03 0.  1.
         -6    1    1    2    0  503 -0.41004656583E+02  0.40635413315E+02 -0.47869562663E+03  0.51226079455E+03  0.17300000000E+03 0. -1.
<mgrwt>
<rscale>  2 0.18237768E+03</rscale>
<asrwt>0</asrwt>
<pdfrwt beam="1">  1       21 0.96500651E-02 0.18237768E+03</pdfrwt>
<pdfrwt beam="2">  1       21 0.10407274E+00 0.18237768E+03</pdfrwt>
<totfact> 0.64800477E+04</totfact>
</mgrwt>
</event>
<event>
 4    1  0.4531281E+000  0.2099276E+03  0.7546771E-02  0.1141623E+00
         21   -1    0    0  501  502  0.00000000000E+00  0.00000000000E+00  0.38215818752E+03  0.38215818752E+03  0.00000000000E+00 0.  1.
         21   -1    0    0  502  503 -0.00000000000E+00 -0.00000000000E+00 -0.11534012814E+03  0.11534012814E+03  0.00000000000E+00 0.  1.
          6    1    1    2  501    0  0.57298164295E+02  0.10419941488E+03  0.13687885851E+03  0.25061009477E+03  0.17300000000E+03 0.  1.
         -6    1    1    2    0  503 -0.57298164295E+02 -0.10419941488E+03  0.12993920087E+03  0.24688822089E+03  0.17300000000E+03 0.  1.
<mgrwt>
<rscale>  2 0.20992760E+03</rscale>
<asrwt>0</asrwt>
<pdfrwt beam="1">  1       21 0.58793567E-01 0.20992760E+03</pdfrwt>
<pdfrwt beam="2">  1       21 0.17744635E-01 0.20992760E+03</pdfrwt>
<totfact> 0.77436648E+04</totfact>
</mgrwt>
</event>
<event>
 4    1  0.4531281E+000  0.2542639E+03  0.7546771E-02  0.1110639E+00
         21   -1    0    0  501  502  0.00000000000E+00  0.00000000000E+00  0.20609093721E+03  0.20609093721E+03  0.00000000000E+00 0.  1.
         21   -1    0    0  502  503 -0.00000000000E+00 -0.00000000000E+00 -0.67210734406E+03  0.67210734406E+03  0.00000000000E+00 0.  1.
          6    1    1    2  501    0  0.98268536344E+02 -0.15831752751E+03  0.87643409220E+02  0.26894518388E+03  0.17300000000E+03 0.  1.
         -6    1    1    2    0  503 -0.98268536344E+02  0.15831752751E+03 -0.55365981607E+03  0.60925309739E+03  0.17300000000E+03 0.  1.
<mgrwt>
<rscale>  2 0.25426393E+03</rscale>
<asrwt>0</asrwt>
<pdfrwt beam="1">  1       21 0.31706298E-01 0.25426393E+03</pdfrwt>
<pdfrwt beam="2">  1       21 0.10340113E+00 0.25426393E+03</pdfrwt>
<totfact> 0.69548084E+03</totfact>
</mgrwt>
</event>
<event>
 4    1  0.4531281E+000  0.1823382E+03  0.7546771E-02  0.1165559E+00
         21   -1    0    0  501  502  0.00000000000E+00  0.00000000000E+00  0.37650747654E+02  0.37650747654E+02  0.00000000000E+00 0.  1.
         21   -1    0    0  502  503 -0.00000000000E+00 -0.00000000000E+00 -0.13938084513E+04  0.13938084513E+04  0.00000000000E+00 0.  1.
          6    1    1    2  501    0 -0.55845286752E+01 -0.57332789246E+02 -0.24480935534E+03  0.30525211898E+03  0.17300000000E+03 0.  1.
         -6    1    1    2    0  503  0.55845286752E+01  0.57332789246E+02 -0.11113483483E+04  0.11262070799E+04  0.17300000000E+03 0.  1.
<mgrwt>
<rscale>  2 0.18233825E+03</rscale>
<asrwt>0</asrwt>
<pdfrwt beam="1">  1       21 0.57924225E-02 0.18233825E+03</pdfrwt>
<pdfrwt beam="2">  1       21 0.21443208E+00 0.18233825E+03</pdfrwt>
<totfact> 0.22986778E+04</totfact>
</mgrwt>
</event>
<event>
 4    1  0.4531281E+000  0.2102354E+03  0.7546771E-02  0.1141380E+00
         21   -1    0    0  503  502  0.00000000000E+00  0.00000000000E+00  0.40529870967E+03  0.40529870967E+03  0.00000000000E+00 0.  1.
         21   -1    0    0  501  503 -0.00000000000E+00 -0.00000000000E+00 -0.17676529077E+03  0.17676529077E+03  0.00000000000E+00 0.  1.
          6    1    1    2  501    0  0.71485907962E+02 -0.95706354286E+02 -0.65859447786E+02  0.22030980040E+03  0.17300000000E+03 0.  1.
         -6    1    1    2    0  502 -0.71485907962E+02  0.95706354286E+02  0.29439286669E+03  0.36175420004E+03  0.17300000000E+03 0.  1.
<mgrwt>
<rscale>  2 0.21023544E+03</rscale>
<asrwt>0</asrwt>
<pdfrwt beam="1">  1       21 0.62353647E-01 0.21023544E+03</pdfrwt>
<pdfrwt beam="2">  1       21 0.27194660E-01 0.21023544E+03</pdfrwt>
<totfact> 0.30449578E+04</totfact>
</mgrwt>
</event>
<event>
 4    1  0.4531281E+000  0.1858835E+03  0.7546771E-02  0.1162227E+00
         21   -1    0    0  503  502  0.00000000000E+00  0.00000000000E+00  0.50173042546E+03  0.50173042546E+03  0.00000000000E+00 0.  1.
         21   -1    0    0  501  503 -0.00000000000E+00 -0.00000000000E+00 -0.10944155650E+03  0.10944155650E+03  0.00000000000E+00 0.  1.
          6    1    1    2  501    0 -0.32434496658E+02 -0.59763402567E+02  0.10077462427E+02  0.18615642914E+03  0.17300000000E+03 0.  1.
         -6    1    1    2    0  502  0.32434496658E+02  0.59763402567E+02  0.38221140653E+03  0.42501555282E+03  0.17300000000E+03 0.  1.
<mgrwt>
<rscale>  2 0.18588346E+03</rscale>
<asrwt>0</asrwt>
<pdfrwt beam="1">  1       21 0.77189295E-01 0.18588346E+03</pdfrwt>
<pdfrwt beam="2">  1       21 0.16837163E-01 0.18588346E+03</pdfrwt>
<totfact> 0.47493044E+04</totfact>
</mgrwt>
</event>
<event>
 4    1  0.4531281E+000  0.1968806E+03  0.7546771E-02  0.1152398E+00
         21   -1    0    0  501  502  0.00000000000E+00  0.00000000000E+00  0.33186776347E+03  0.33186776347E+03  0.00000000000E+00 0.  1.
         21   -1    0    0  502  503 -0.00000000000E+00 -0.00000000000E+00 -0.12082426769E+03  0.12082426769E+03  0.00000000000E+00 0.  1.
          6    1    1    2  501    0 -0.76042663888E+02 -0.55231042808E+02  0.64210177198E+02  0.20708670087E+03  0.17300000000E+03 0.  1.
         -6    1    1    2    0  503  0.76042663888E+02  0.55231042808E+02  0.14683331859E+03  0.24560533029E+03  0.17300000000E+03 0.  1.
<mgrwt>
<rscale>  2 0.19688056E+03</rscale>
<asrwt>0</asrwt>
<pdfrwt beam="1">  1       21 0.51056579E-01 0.19688056E+03</pdfrwt>
<pdfrwt beam="2">  1       21 0.18588349E-01 0.19688056E+03</pdfrwt>
<totfact> 0.96323690E+04</totfact>
</mgrwt>
</event>
<event>
 4    1  0.4531281E+000  0.2369161E+03  0.7546771E-02  0.1121864E+00
         21   -1    0    0  501  502  0.00000000000E+00  0.00000000000E+00  0.25222573853E+03  0.25222573853E+03  0.00000000000E+00 0. -1.
         21   -1    0    0  502  503 -0.00000000000E+00 -0.00000000000E+00 -0.22413500338E+03  0.22413500338E+03  0.00000000000E+00 0. -1.
          6    1    1    2  501    0  0.85354472857E+02  0.13753126453E+03  0.34164751549E+02  0.23936680014E+03  0.17300000000E+03 0. -1.
         -6    1    1    2    0  503 -0.85354472857E+02 -0.13753126453E+03 -0.60740163974E+01  0.23699394177E+03  0.17300000000E+03 0. -1.
<mgrwt>
<rscale>  2 0.23691609E+03</rscale>
<asrwt>0</asrwt>
<pdfrwt beam="1">  1       21 0.38803960E-01 0.23691609E+03</pdfrwt>
<pdfrwt beam="2">  1       21 0.34482308E-01 0.23691609E+03</pdfrwt>
<totfact> 0.50870727E+04</totfact>
</mgrwt>
</event>
<event>
 4    1  0.4531281E+000  0.1850566E+03  0.7546771E-02  0.1162997E+00
         21   -1    0    0  501  502  0.00000000000E+00  0.00000000000E+00  0.38163852528E+02  0.38163852528E+02  0.00000000000E+00 0.  1.
         21   -1    0    0  502  503 -0.00000000000E+00 -0.00000000000E+00 -0.10686411855E+04  0.10686411855E+04  0.00000000000E+00 0.  1.
          6    1    1    2  501    0  0.47192822558E+02  0.45714269730E+02 -0.73680571790E+03  0.75968982018E+03  0.17300000000E+03 0.  1.
         -6    1    1    2    0  503 -0.47192822558E+02 -0.45714269730E+02 -0.29367161504E+03  0.34711521782E+03  0.17300000000E+03 0.  1.
<mgrwt>
<rscale>  2 0.18505663E+03</rscale>
<asrwt>0</asrwt>
<pdfrwt beam="1">  1       21 0.58713622E-02 0.18505663E+03</pdfrwt>
<pdfrwt beam="2">  1       21 0.16440633E+00 0.18505663E+03</pdfrwt>
<totfact> 0.48062814E+04</totfact>
</mgrwt>
</event>
<event>
 4    1  0.4531281E+000  0.2509461E+03  0.7546771E-02  0.1112708E+00
         21   -1    0    0  501  502  0.00000000000E+00  0.00000000000E+00  0.45534570298E+02  0.45534570298E+02  0.00000000000E+00 0.  1.
         21   -1    0    0  502  503 -0.00000000000E+00 -0.00000000000E+00 -0.13892514205E+04  0.13892514205E+04  0.00000000000E+00 0. -1.
          6    1    1    2  501    0  0.18178200958E+03 -0.48045626052E+00 -0.72001398313E+03  0.76249201028E+03  0.17300000000E+03 0. -1.
         -6    1    1    2    0  503 -0.18178200958E+03  0.48045626052E+00 -0.62370286708E+03  0.67229398052E+03  0.17300000000E+03 0.  1.
<mgrwt>
<rscale>  2 0.25094607E+03</rscale>
<asrwt>0</asrwt>
<pdfrwt beam="1">  1       21 0.70053199E-02 0.25094607E+03</pdfrwt>
<pdfrwt beam="2">  1       21 0.21373095E+00 0.25094607E+03</pdfrwt>
<totfact> 0.15920450E+04</totfact>
</mgrwt>
</event>
<event>
 4    1  0.4531281E+000  0.2039261E+03  0.7546771E-02  0.1146468E+00
         21   -1    0    0  501  502  0.00000000000E+00  0.00000000000E+00  0.72782758597E+02  0.72782758597E+02  0.00000000000E+00 0.  1.
         21   -1    0    0  502  503 -0.00000000000E+00 -0.00000000000E+00 -0.57699501168E+03  0.57699501168E+03  0.00000000000E+00 0.  1.
          6    1    1    2  501    0  0.76593457522E+02  0.76094012408E+02 -0.22002677660E+03  0.29999606477E+03  0.17300000000E+03 0.  1.
         -6    1    1    2    0  503 -0.76593457522E+02 -0.76094012408E+02 -0.28418547648E+03  0.34978170550E+03  0.17300000000E+03 0.  1.
<mgrwt>
<rscale>  2 0.20392611E+03</rscale>
<asrwt>0</asrwt>
<pdfrwt beam="1">  1       21 0.11197348E-01 0.20392611E+03</pdfrwt>
<pdfrwt beam="2">  1       21 0.88768463E-01 0.20392611E+03</pdfrwt>
<totfact> 0.71640171E+04</totfact>
</mgrwt>
</event>
<event>
 4    1  0.4531281E+000  0.1803841E+03  0.7546771E-02  0.1167432E+00
         21   -1    0    0  501  502  0.00000000000E+00  0.00000000000E+00  0.14936890291E+03  0.14936890291E+03  0.00000000000E+00 0.  1.
         21   -1    0    0  502  503 -0.00000000000E+00 -0.00000000000E+00 -0.21801557788E+03  0.21801557788E+03  0.00000000000E+00 0.  1.
          6    1    1    2  501    0 -0.50235691283E+02 -0.92634765633E+01 -0.29101952771E+02  0.18271661208E+03  0.17300000000E+03 0. -1.
         -6    1    1    2    0  503  0.50235691283E+02  0.92634765633E+01 -0.39544722196E+02  0.18466786870E+03  0.17300000000E+03 0. -1.
<mgrwt>
<rscale>  2 0.18038414E+03</rscale>
<asrwt>0</asrwt>
<pdfrwt beam="1">  1       21 0.22979831E-01 0.18038414E+03</pdfrwt>
<pdfrwt beam="2">  1       21 0.33540858E-01 0.18038414E+03</pdfrwt>
<totfact> 0.15280290E+05</totfact>
</mgrwt>
</event>
<event>
 4    1  0.4531281E+000  0.2016276E+03  0.7546771E-02  0.1148373E+00
         21   -1    0    0  501  502  0.00000000000E+00  0.00000000000E+00  0.19398222812E+03  0.19398222812E+03  0.00000000000E+00 0. -1.
         21   -1    0    0  502  503 -0.00000000000E+00 -0.00000000000E+00 -0.23153987729E+03  0.23153987729E+03  0.00000000000E+00 0. -1.
          6    1    1    2  501    0 -0.10238146587E+03 -0.15579289609E+02 -0.84310473376E+02  0.21854504053E+03  0.17300000000E+03 0. -1.
         -6    1    1    2    0  503  0.10238146587E+03  0.15579289609E+02  0.46752824203E+02  0.20697706489E+03  0.17300000000E+03 0. -1.
<mgrwt>
<rscale>  2 0.20162757E+03</rscale>
<asrwt>0</asrwt>
<pdfrwt beam="1">  1       21 0.29843420E-01 0.20162757E+03</pdfrwt>
<pdfrwt beam="2">  1       21 0.35621520E-01 0.20162757E+03</pdfrwt>
<totfact> 0.81491955E+04</totfact>
</mgrwt>
</event>
<event>
 4    1  0.4531281E+000  0.1854897E+03  0.7546771E-02  0.1162593E+00
         21   -1    0    0  501  502  0.00000000000E+00  0.00000000000E+00  0.47758116163E+03  0.47758116163E+03  0.00000000000E+00 0. -1.
         21   -1    0    0  502  503 -0.00000000000E+00 -0.00000000000E+00 -0.73541045763E+02  0.73541045763E+02  0.00000000000E+00 0. -1.
          6    1    1    2  501    0 -0.55287254895E+02 -0.37692831433E+02  0.16269220503E+03  0.24672896804E+03  0.17300000000E+03 0. -1.
         -6    1    1    2    0  503  0.55287254895E+02  0.37692831433E+02  0.24134791084E+03  0.30439323935E+03  0.17300000000E+03 0. -1.
<mgrwt>
<rscale>  2 0.18548970E+03</rscale>
<asrwt>0</asrwt>
<pdfrwt beam="1">  1       21 0.73474023E-01 0.18548970E+03</pdfrwt>
<pdfrwt beam="2">  1       21 0.11314007E-01 0.18548970E+03</pdfrwt>
<totfact> 0.10879033E+05</totfact>
</mgrwt>
</event>
<event>
 4    1  0.4531281E+000  0.2144694E+03  0.7546771E-02  0.1138075E+00
         21   -1    0    0  501  502  0.00000000000E+00  0.00000000000E+00  0.20413121222E+03  0.20413121222E+03  0.00000000000E+00 0.  1.
         21   -1    0    0  502  503 -0.00000000000E+00 -0.00000000000E+00 -0.56009105269E+03  0.56009105269E+03  0.00000000000E+00 0.  1.
          6    1    1    2  501    0 -0.76445152302E+02  0.10111514032E+03  0.11743134393E+03  0.24451432156E+03  0.17300000000E+03 0.  1.
         -6    1    1    2    0  503  0.76445152302E+02 -0.10111514032E+03 -0.47339118440E+03  0.51970794335E+03  0.17300000000E+03 0.  1.
<mgrwt>
<rscale>  2 0.21446942E+03</rscale>
<asrwt>0</asrwt>
<pdfrwt beam="1">  1       21 0.31404802E-01 0.21446942E+03</pdfrwt>
<pdfrwt beam="2">  1       21 0.86167853E-01 0.21446942E+03</pdfrwt>
<totfact> 0.11153140E+04</totfact>
</mgrwt>
</event>
<event>
 4    1  0.4531281E+000  0.2287263E+03  0.7546771E-02  0.1127539E+00
         21   -1    0    0  503  502  0.00000000000E+00  0.00000000000E+00  0.14283932825E+04  0.14283932825E+04  0.00000000000E+00 0.  1.
         21   -1    0    0  501  503 -0.00000000000E+00 -0.00000000000E+00 -0.76368000448E+02  0.76368000448E+02  0.00000000000E+00 0.  1.
          6    1    1    2  501    0 -0.10784243934E+03  0.10371473636E+03  0.13325113670E+03  0.26471041478E+03  0.17300000000E+03 0.  1.
         -6    1    1    2    0  502  0.10784243934E+03 -0.10371473636E+03  0.12187741454E+04  0.12400508682E+04  0.17300000000E+03 0.  1.
<mgrwt>
<rscale>  2 0.22872634E+03</rscale>
<asrwt>0</asrwt>
<pdfrwt beam="1">  1       21 0.21975279E+00 0.22872634E+03</pdfrwt>
<pdfrwt beam="2">  1       21 0.11748924E-01 0.22872634E+03</pdfrwt>
<totfact> 0.59577943E+03</totfact>
</mgrwt>
</event>
<event>
 4    1  0.4531281E+000  0.2193178E+03  0.7546771E-02  0.1134393E+00
         21   -1    0    0  501  502  0.00000000000E+00  0.00000000000E+00  0.82969753227E+02  0.82969753227E+02  0.00000000000E+00 0.  1.
         21   -1    0    0  502  503 -0.00000000000E+00 -0.00000000000E+00 -0.11064900025E+04  0.11064900025E+04  0.00000000000E+00 0.  1.
          6    1    1    2  501    0  0.13479917528E+03 -0.69686184820E+00 -0.10141321029E+03  0.24162976326E+03  0.17300000000E+03 0.  1.
         -6    1    1    2    0  503 -0.13479917528E+03  0.69686184820E+00 -0.92210703894E+03  0.94782999242E+03  0.17300000000E+03 0.  1.
<mgrwt>
<rscale>  2 0.21931781E+03</rscale>
<asrwt>0</asrwt>
<pdfrwt beam="1">  1       21 0.12764577E-01 0.21931781E+03</pdfrwt>
<pdfrwt beam="2">  1       21 0.17022923E+00 0.21931781E+03</pdfrwt>
<totfact> 0.10946069E+04</totfact>
</mgrwt>
</event>
<event>
 4    1  0.4531281E+000  0.2099021E+03  0.7546771E-02  0.1141644E+00
         21   -1    0    0  501  502  0.00000000000E+00  0.00000000000E+00  0.83482967544E+02  0.83482967544E+02  0.00000000000E+00 0. -1.
         21   -1    0    0  502  503 -0.00000000000E+00 -0.00000000000E+00 -0.67904022284E+03  0.67904022284E+03  0.00000000000E+00 0. -1.
          6    1    1    2  501    0 -0.38709625280E+02  0.11238966495E+03 -0.11782189820E+03  0.24070910156E+03  0.17300000000E+03 0. -1.
         -6    1    1    2    0  503  0.38709625280E+02 -0.11238966495E+03 -0.47773535710E+03  0.52181408883E+03  0.17300000000E+03 0. -1.
<mgrwt>
<rscale>  2 0.20990205E+03</rscale>
<asrwt>0</asrwt>
<pdfrwt beam="1">  1       21 0.12843533E-01 0.20990205E+03</pdfrwt>
<pdfrwt beam="2">  1       21 0.10446773E+00 0.20990205E+03</pdfrwt>
<totfact> 0.38063185E+04</totfact>
</mgrwt>
</event>
<event>
 4    1  0.4531281E+000  0.1824355E+03  0.7546771E-02  0.1165467E+00
         21   -1    0    0  503  502  0.00000000000E+00  0.00000000000E+00  0.33145397682E+03  0.33145397682E+03  0.00000000000E+00 0. -1.
         21   -1    0    0  501  503 -0.00000000000E+00 -0.00000000000E+00 -0.18286135598E+03  0.18286135598E+03  0.00000000000E+00 0. -1.
          6    1    1    2  501    0  0.57784028812E+02 -0.38350282351E+01 -0.98377401295E+02  0.20726990740E+03  0.17300000000E+03 0. -1.
         -6    1    1    2    0  502 -0.57784028812E+02  0.38350282351E+01  0.24697002213E+03  0.30704542540E+03  0.17300000000E+03 0. -1.
<mgrwt>
<rscale>  2 0.18243547E+03</rscale>
<asrwt>0</asrwt>
<pdfrwt beam="1">  1       21 0.50992920E-01 0.18243547E+03</pdfrwt>
<pdfrwt beam="2">  1       21 0.28132516E-01 0.18243547E+03</pdfrwt>
<totfact> 0.44371231E+04</totfact>
</mgrwt>
</event>
<event>
 4    1  0.4531281E+000  0.1949508E+03  0.7546771E-02  0.1154070E+00
         21   -1    0    0  501  502  0.00000000000E+00  0.00000000000E+00  0.16068355496E+03  0.16068355496E+03  0.00000000000E+00 0. -1.
         21   -1    0    0  502  503 -0.00000000000E+00 -0.00000000000E+00 -0.53589571579E+03  0.53589571579E+03  0.00000000000E+00 0.  1.
          6    1    1    2  501    0  0.33890797933E+00  0.89870423044E+02  0.72712087621E+02  0.20806935258E+03  0.17300000000E+03 0. -1.
         -6    1    1    2    0  503 -0.33890797933E+00 -0.89870423044E+02 -0.44792424846E+03  0.48850991817E+03  0.17300000000E+03 0.  1.
<mgrwt>
<rscale>  2 0.19495078E+03</rscale>
<asrwt>0</asrwt>
<pdfrwt beam="1">  1       21 0.24720547E-01 0.19495078E+03</pdfrwt>
<pdfrwt beam="2">  1       21 0.82445496E-01 0.19495078E+03</pdfrwt>
<totfact> 0.19852377E+04</totfact>
</mgrwt>
</event>
<event>
 4    1  0.4531281E+000  0.1767968E+03  0.7546771E-02  0.1170940E+00
         21   -1    0    0  503  502  0.00000000000E+00  0.00000000000E+00  0.29569810513E+03  0.29569810513E+03  0.00000000000E+00 0. -1.
         21   -1    0    0  501  503 -0.00000000000E+00 -0.00000000000E+00 -0.28406404557E+03  0.28406404557E+03  0.00000000000E+00 0.  1.
          6    1    1    2  501    0 -0.53752747639E+01 -0.36044736823E+02 -0.22388131469E+03  0.28527172958E+03  0.17300000000E+03 0.  1.
         -6    1    1    2    0  502  0.53752747639E+01  0.36044736823E+02  0.23551537424E+03  0.29449042112E+03  0.17300000000E+03 0. -1.
<mgrwt>
<rscale>  2 0.17679682E+03</rscale>
<asrwt>0</asrwt>
<pdfrwt beam="1">  1       21 0.45492016E-01 0.17679682E+03</pdfrwt>
<pdfrwt beam="2">  1       21 0.43702161E-01 0.17679682E+03</pdfrwt>
<totfact> 0.23530295E+04</totfact>
</mgrwt>
</event>
<event>
 4    1  0.4531281E+000  0.1735827E+03  0.7546771E-02  0.1174162E+00
         21   -1    0    0  501  502  0.00000000000E+00  0.00000000000E+00  0.27172770275E+03  0.27172770275E+03  0.00000000000E+00 0.  1.
         21   -1    0    0  502  503 -0.00000000000E+00 -0.00000000000E+00 -0.17434173278E+03  0.17434173278E+03  0.00000000000E+00 0.  1.
          6    1    1    2  501    0 -0.21133617810E+00  0.14209683493E+02  0.18324964147E+03  0.25241115440E+03  0.17300000000E+03 0.  1.
         -6    1    1    2    0  503  0.21133617810E+00 -0.14209683493E+02 -0.85863671499E+02  0.19365828113E+03  0.17300000000E+03 0.  1.
<mgrwt>
<rscale>  2 0.17358272E+03</rscale>
<asrwt>0</asrwt>
<pdfrwt beam="1">  1       21 0.41804262E-01 0.17358272E+03</pdfrwt>
<pdfrwt beam="2">  1       21 0.26821805E-01 0.17358272E+03</pdfrwt>
<totfact> 0.73503826E+04</totfact>
</mgrwt>
</event>
<event>
 4    1  0.4531281E+000  0.1822204E+03  0.7546771E-02  0.1165671E+00
         21   -1    0    0  503  502  0.00000000000E+00  0.00000000000E+00  0.15295757237E+03  0.15295757237E+03  0.00000000000E+00 0.  1.
         21   -1    0    0  501  503 -0.00000000000E+00 -0.00000000000E+00 -0.41470434862E+03  0.41470434862E+03  0.00000000000E+00 0.  1.
          6    1    1    2  501    0 -0.31846399503E+02  0.47550897315E+02 -0.32680697701E+03  0.37417520124E+03  0.17300000000E+03 0.  1.
         -6    1    1    2    0  502  0.31846399503E+02 -0.47550897315E+02  0.65060200768E+02  0.19348671975E+03  0.17300000000E+03 0.  1.
<mgrwt>
<rscale>  2 0.18222042E+03</rscale>
<asrwt>0</asrwt>
<pdfrwt beam="1">  1       21 0.23531934E-01 0.18222042E+03</pdfrwt>
<pdfrwt beam="2">  1       21 0.63800669E-01 0.18222042E+03</pdfrwt>
<totfact> 0.38776814E+04</totfact>
</mgrwt>
</event>
<event>
 4    1  0.4531281E+000  0.2026283E+03  0.7546771E-02  0.1147540E+00
         21   -1    0    0  503  502  0.00000000000E+00  0.00000000000E+00  0.14116804599E+03  0.14116804599E+03  0.00000000000E+00 0.  1.
         21   -1    0    0  501  503 -0.00000000000E+00 -0.00000000000E+00 -0.30082677867E+03  0.30082677867E+03  0.00000000000E+00 0.  1.
          6    1    1    2  501    0  0.69102172081E+02  0.79712604003E+02 -0.12008287756E+03  0.23553790970E+03  0.17300000000E+03 0.  1.
         -6    1    1    2    0  502 -0.69102172081E+02 -0.79712604003E+02 -0.39575855123E+02  0.20645691495E+03  0.17300000000E+03 0.  1.
<mgrwt>
<rscale>  2 0.20262825E+03</rscale>
<asrwt>0</asrwt>
<pdfrwt beam="1">  1       21 0.21718161E-01 0.20262825E+03</pdfrwt>
<pdfrwt beam="2">  1       21 0.46281043E-01 0.20262825E+03</pdfrwt>
<totfact> 0.88090015E+04</totfact>
</mgrwt>
</event>
<event>
 4    1  0.4531281E+000  0.1965333E+03  0.7546771E-02  0.1152697E+00
         21   -1    0    0  503  502  0.00000000000E+00  0.00000000000E+00  0.25268025743E+03  0.25268025743E+03  0.00000000000E+00 0. -1.
         21   -1    0    0  501  503 -0.00000000000E+00 -0.00000000000E+00 -0.20553112815E+03  0.20553112815E+03  0.00000000000E+00 0. -1.
          6    1    1    2  501    0 -0.62336010384E+02  0.69358087106E+02 -0.92402817008E+02  0.21717182835E+03  0.17300000000E+03 0. -1.
         -6    1    1    2    0  502  0.62336010384E+02 -0.69358087106E+02  0.13955194629E+03  0.24103955723E+03  0.17300000000E+03 0. -1.
<mgrwt>
<rscale>  2 0.19653326E+03</rscale>
<asrwt>0</asrwt>
<pdfrwt beam="1">  1       21 0.38873886E-01 0.19653326E+03</pdfrwt>
<pdfrwt beam="2">  1       21 0.31620173E-01 0.19653326E+03</pdfrwt>
<totfact> 0.61239553E+04</totfact>
</mgrwt>
</event>
<event>
 4    1  0.4531281E+000  0.2215172E+03  0.7546771E-02  0.1132757E+00
         21   -1    0    0  503  502  0.00000000000E+00  0.00000000000E+00  0.50305957056E+03  0.50305957056E+03  0.00000000000E+00 0.  1.
         21   -1    0    0  501  503 -0.00000000000E+00 -0.00000000000E+00 -0.19581237199E+04  0.19581237199E+04  0.00000000000E+00 0. -1.
          6    1    1    2  501    0  0.96920600049E+02  0.98728318521E+02 -0.19270815614E+04  0.19397714370E+04  0.17300000000E+03 0. -1.
         -6    1    1    2    0  502 -0.96920600049E+02 -0.98728318521E+02  0.47201741207E+03  0.52141185342E+03  0.17300000000E+03 0.  1.
<mgrwt>
<rscale>  2 0.22151723E+03</rscale>
<asrwt>0</asrwt>
<pdfrwt beam="1">  1       21 0.77393779E-01 0.22151723E+03</pdfrwt>
<pdfrwt beam="2">  1       21 0.30124981E+00 0.22151723E+03</pdfrwt>
<totfact> 0.47458596E+01</totfact>
</mgrwt>
</event>
<event>
 4    1  0.4531281E+000  0.2118212E+03  0.7546771E-02  0.1140132E+00
         21   -1    0    0  503  502  0.00000000000E+00  0.00000000000E+00  0.92555381574E+02  0.92555381574E+02  0.00000000000E+00 0. -1.
         21   -1    0    0  501  503 -0.00000000000E+00 -0.00000000000E+00 -0.53281921509E+03  0.53281921509E+03  0.00000000000E+00 0. -1.
          6    1    1    2  501    0 -0.79623783160E+02 -0.92732312916E+02 -0.31402980260E+03  0.37879142760E+03  0.17300000000E+03 0. -1.
         -6    1    1    2    0  502  0.79623783160E+02  0.92732312916E+02 -0.12623403091E+03  0.24658316906E+03  0.17300000000E+03 0. -1.
<mgrwt>
<rscale>  2 0.21182122E+03</rscale>
<asrwt>0</asrwt>
<pdfrwt beam="1">  1       21 0.14239289E-01 0.21182122E+03</pdfrwt>
<pdfrwt beam="2">  1       21 0.81972188E-01 0.21182122E+03</pdfrwt>
<totfact> 0.55604901E+04</totfact>
</mgrwt>
</event>
<event>
 4    1  0.4531281E+000  0.1939966E+03  0.7546771E-02  0.1154905E+00
         21   -1    0    0  501  502  0.00000000000E+00  0.00000000000E+00  0.46630664219E+03  0.46630664219E+03  0.00000000000E+00 0.  1.
         21   -1    0    0  502  503 -0.00000000000E+00 -0.00000000000E+00 -0.91827040951E+02  0.91827040951E+02  0.00000000000E+00 0.  1.
          6    1    1    2  501    0 -0.76340055135E+02 -0.43334429366E+02  0.28434815493E+03  0.34422165823E+03  0.17300000000E+03 0. -1.
         -6    1    1    2    0  503  0.76340055135E+02  0.43334429366E+02  0.90131446314E+02  0.21391202491E+03  0.17300000000E+03 0. -1.
<mgrwt>
<rscale>  2 0.19399659E+03</rscale>
<asrwt>0</asrwt>
<pdfrwt beam="1">  1       21 0.71739482E-01 0.19399659E+03</pdfrwt>
<pdfrwt beam="2">  1       21 0.14127237E-01 0.19399659E+03</pdfrwt>
<totfact> 0.76728487E+04</totfact>
</mgrwt>
</event>
<event>
 4    1  0.4531281E+000  0.2296156E+03  0.7546771E-02  0.1126911E+00
         21   -1    0    0  501  502  0.00000000000E+00  0.00000000000E+00  0.51608893682E+03  0.51608893682E+03  0.00000000000E+00 0.  1.
         21   -1    0    0  502  503 -0.00000000000E+00 -0.00000000000E+00 -0.22596016565E+03  0.22596016565E+03  0.00000000000E+00 0.  1.
          6    1    1    2  501    0  0.43208347214E+02  0.14466295814E+03  0.41969464246E+03  0.47840038214E+03  0.17300000000E+03 0.  1.
         -6    1    1    2    0  503 -0.43208347214E+02 -0.14466295814E+03 -0.12956587129E+03  0.26364872033E+03  0.17300000000E+03 0.  1.
<mgrwt>
<rscale>  2 0.22961562E+03</rscale>
<asrwt>0</asrwt>
<pdfrwt beam="1">  1       21 0.79398298E-01 0.22961562E+03</pdfrwt>
<pdfrwt beam="2">  1       21 0.34763102E-01 0.22961562E+03</pdfrwt>
<totfact> 0.10894595E+04</totfact>
</mgrwt>
</event>
<event>
 4    1  0.4531281E+000  0.1821841E+03  0.7546771E-02  0.1165706E+00
         21   -1    0    0  501  502  0.00000000000E+00  0.00000000000E+00  0.13684763594E+03  0.13684763594E+03  0.00000000000E+00 0.  1.
         21   -1    0    0  502  503 -0.00000000000E+00 -0.00000000000E+00 -0.31250185261E+03  0.31250185261E+03  0.00000000000E+00 0. -1.
          6    1    1    2  501    0  0.56171328215E+02 -0.10335317332E+02  0.18479032545E+02  0.18311884540E+03  0.17300000000E+03 0.  1.
         -6    1    1    2    0  503 -0.56171328215E+02  0.10335317332E+02 -0.19413324922E+03  0.26623064315E+03  0.17300000000E+03 0.  1.
<mgrwt>
<rscale>  2 0.18218407E+03</rscale>
<asrwt>0</asrwt>
<pdfrwt beam="1">  1       21 0.21053483E-01 0.18218407E+03</pdfrwt>
<pdfrwt beam="2">  1       21 0.48077207E-01 0.18218407E+03</pdfrwt>
<totfact> 0.87042322E+04</totfact>
</mgrwt>
</event>
<event>
 4    1  0.4531281E+000  0.1982448E+03  0.7546771E-02  0.1151228E+00
         21   -1    0    0  501  502  0.00000000000E+00  0.00000000000E+00  0.16963305626E+04  0.16963305626E+04  0.00000000000E+00 0.  1.
         21   -1    0    0  502  503 -0.00000000000E+00 -0.00000000000E+00 -0.25968896584E+02  0.25968896584E+02  0.00000000000E+00 0.  1.
          6    1    1    2  501    0 -0.59643932566E+02 -0.76253662272E+02  0.11179816483E+04  0.11354223820E+04  0.17300000000E+03 0.  1.
         -6    1    1    2    0  503  0.59643932566E+02  0.76253662272E+02  0.55238001767E+03  0.58687707710E+03  0.17300000000E+03 0.  1.
<mgrwt>
<rscale>  2 0.19824485E+03</rscale>
<asrwt>0</asrwt>
<pdfrwt beam="1">  1       21 0.26097385E+00 0.19824485E+03</pdfrwt>
<pdfrwt beam="2">  1       21 0.39952162E-02 0.19824485E+03</pdfrwt>
<totfact> 0.22408645E+04</totfact>
</mgrwt>
</event>
<event>
 4    1  0.4531281E+000  0.2494689E+03  0.7546771E-02  0.1113641E+00
         21   -1    0    0  501  502  0.00000000000E+00  0.00000000000E+00  0.44165363558E+03  0.44165363558E+03  0.00000000000E+00 0.  1.
         21   -1    0    0  502  503 -0.00000000000E+00 -0.00000000000E+00 -0.14615787226E+03  0.14615787226E+03  0.00000000000E+00 0. -1.
          6    1    1    2  501    0  0.10057158104E+03 -0.14896674587E+03  0.20342347556E+03  0.32189415138E+03  0.17300000000E+03 0.  1.
         -6    1    1    2    0  503 -0.10057158104E+03  0.14896674587E+03  0.92072287772E+02  0.26591735645E+03  0.17300000000E+03 0. -1.
<mgrwt>
<rscale>  2 0.24946890E+03</rscale>
<asrwt>0</asrwt>
<pdfrwt beam="1">  1       21 0.67946713E-01 0.24946890E+03</pdfrwt>
<pdfrwt beam="2">  1       21 0.22485827E-01 0.24946890E+03</pdfrwt>
<totfact> 0.35645708E+04</totfact>
</mgrwt>
</event>
<event>
 4    1  0.4531281E+000  0.1783454E+03  0.7546771E-02  0.1169414E+00
         21   -1    0    0  503  502  0.00000000000E+00  0.00000000000E+00  0.20305880300E+03  0.20305880300E+03  0.00000000000E+00 0.  1.
         21   -1    0    0  501  503 -0.00000000000E+00 -0.00000000000E+00 -0.18031667520E+03  0.18031667520E+03  0.00000000000E+00 0.  1.
          6    1    1    2  501    0 -0.19684421173E+02 -0.38608469057E+02  0.80831671951E+02  0.19580819572E+03  0.17300000000E+03 0. -1.
         -6    1    1    2    0  502  0.19684421173E+02  0.38608469057E+02 -0.58089544151E+02  0.18756728249E+03  0.17300000000E+03 0. -1.
<mgrwt>
<rscale>  2 0.17834542E+03</rscale>
<asrwt>0</asrwt>
<pdfrwt beam="1">  1       21 0.31239816E-01 0.17834542E+03</pdfrwt>
<pdfrwt beam="2">  1       21 0.27741027E-01 0.17834542E+03</pdfrwt>
<totfact> 0.12273935E+05</totfact>
</mgrwt>
</event>
<event>
 4    1  0.4531281E+000  0.1805265E+03  0.7546771E-02  0.1167294E+00
         21   -1    0    0  501  502  0.00000000000E+00  0.00000000000E+00  0.20588691069E+03  0.20588691069E+03  0.00000000000E+00 0.  1.
         21   -1    0    0  502  503 -0.00000000000E+00 -0.00000000000E+00 -0.15856029877E+03  0.15856029877E+03  0.00000000000E+00 0.  1.
          6    1    1    2  501    0  0.49706708523E+02 -0.13786856757E+02  0.31187295378E+02  0.18320065962E+03  0.17300000000E+03 0. -1.
         -6    1    1    2    0  503 -0.49706708523E+02  0.13786856757E+02  0.16139316535E+02  0.18124654984E+03  0.17300000000E+03 0. -1.
<mgrwt>
<rscale>  2 0.18052655E+03</rscale>
<asrwt>0</asrwt>
<pdfrwt beam="1">  1       21 0.31674909E-01 0.18052655E+03</pdfrwt>
<pdfrwt beam="2">  1       21 0.24393892E-01 0.18052655E+03</pdfrwt>
<totfact> 0.15268341E+05</totfact>
</mgrwt>
</event>
<event>
 4    1  0.4531281E+000  0.2300709E+03  0.7546771E-02  0.1126590E+00
         21   -1    0    0  501  502  0.00000000000E+00  0.00000000000E+00  0.56170804446E+02  0.56170804446E+02  0.00000000000E+00 0. -1.
         21   -1    0    0  502  503 -0.00000000000E+00 -0.00000000000E+00 -0.10790574805E+04  0.10790574805E+04  0.00000000000E+00 0. -1.
          6    1    1    2  501    0  0.12594218108E+03 -0.84511436179E+02 -0.30940889707E+03  0.38557292618E+03  0.17300000000E+03 0. -1.
         -6    1    1    2    0  503 -0.12594218108E+03  0.84511436179E+02 -0.71347777903E+03  0.74965535881E+03  0.17300000000E+03 0. -1.
<mgrwt>
<rscale>  2 0.23007089E+03</rscale>
<asrwt>0</asrwt>
<pdfrwt beam="1">  1       21 0.86416622E-02 0.23007089E+03</pdfrwt>
<pdfrwt beam="2">  1       21 0.16600884E+00 0.23007089E+03</pdfrwt>
<totfact> 0.23315840E+04</totfact>
</mgrwt>
</event>
<event>
 4    1  0.4531281E+000  0.2197819E+03  0.7546771E-02  0.1134046E+00
         21   -1    0    0  501  502  0.00000000000E+00  0.00000000000E+00  0.26324454786E+03  0.26324454786E+03  0.00000000000E+00 0. -1.
         21   -1    0    0  502  503 -0.00000000000E+00 -0.00000000000E+00 -0.20278367212E+03  0.20278367212E+03  0.00000000000E+00 0.  1.
          6    1    1    2  501    0  0.12145801134E+03  0.60191545885E+02  0.10209526139E+03  0.24233760153E+03  0.17300000000E+03 0.  1.
         -6    1    1    2    0  503 -0.12145801134E+03 -0.60191545885E+02 -0.41634385654E+02  0.22369061845E+03  0.17300000000E+03 0. -1.
<mgrwt>
<rscale>  2 0.21978187E+03</rscale>
<asrwt>0</asrwt>
<pdfrwt beam="1">  1       21 0.40499161E-01 0.21978187E+03</pdfrwt>
<pdfrwt beam="2">  1       21 0.31197488E-01 0.21978187E+03</pdfrwt>
<totfact> 0.57275382E+04</totfact>
</mgrwt>
</event>
<event>
 4    1  0.4531281E+000  0.1794843E+03  0.7546771E-02  0.1168303E+00
         21   -1    0    0  501  502  0.00000000000E+00  0.00000000000E+00  0.44355741548E+02  0.44355741548E+02  0.00000000000E+00 0.  1.
         21   -1    0    0  502  503 -0.00000000000E+00 -0.00000000000E+00 -0.79521272031E+03  0.79521272031E+03  0.00000000000E+00 0.  1.
          6    1    1    2  501    0 -0.36571348977E+02 -0.30791972153E+02 -0.25183295767E+03  0.30924819754E+03  0.17300000000E+03 0.  1.
         -6    1    1    2    0  503  0.36571348977E+02  0.30791972153E+02 -0.49902402109E+03  0.53032026432E+03  0.17300000000E+03 0.  1.
<mgrwt>
<rscale>  2 0.17948429E+03</rscale>
<asrwt>0</asrwt>
<pdfrwt beam="1">  1       21 0.68239603E-02 0.17948429E+03</pdfrwt>
<pdfrwt beam="2">  1       21 0.12234042E+00 0.17948429E+03</pdfrwt>
<totfact> 0.80047767E+04</totfact>
</mgrwt>
</event>
<event>
 4    1  0.4531281E+000  0.1917652E+03  0.7546771E-02  0.1156879E+00
         21   -1    0    0  501  502  0.00000000000E+00  0.00000000000E+00  0.55183598376E+03  0.55183598376E+03  0.00000000000E+00 0. -1.
         21   -1    0    0  502  503 -0.00000000000E+00 -0.00000000000E+00 -0.10015803726E+03  0.10015803726E+03  0.00000000000E+00 0. -1.
          6    1    1    2  501    0 -0.21617977380E+02 -0.79859633771E+02  0.41442751823E+03  0.45664435386E+03  0.17300000000E+03 0. -1.
         -6    1    1    2    0  503  0.21617977380E+02  0.79859633771E+02  0.37250428271E+02  0.19534966716E+03  0.17300000000E+03 0. -1.
<mgrwt>
<rscale>  2 0.19176522E+03</rscale>
<asrwt>0</asrwt>
<pdfrwt beam="1">  1       21 0.84897842E-01 0.19176522E+03</pdfrwt>
<pdfrwt beam="2">  1       21 0.15408929E-01 0.19176522E+03</pdfrwt>
<totfact> 0.44901604E+04</totfact>
</mgrwt>
</event>
<event>
 4    1  0.4531281E+000  0.2047671E+03  0.7546771E-02  0.1145778E+00
         21   -1    0    0  501  502  0.00000000000E+00  0.00000000000E+00  0.35419598783E+03  0.35419598783E+03  0.00000000000E+00 0.  1.
         21   -1    0    0  502  503 -0.00000000000E+00 -0.00000000000E+00 -0.19890459447E+03  0.19890459447E+03  0.00000000000E+00 0.  1.
          6    1    1    2  501    0 -0.40810420795E+02 -0.10166154728E+03  0.25360701493E+03  0.32595410515E+03  0.17300000000E+03 0.  1.
         -6    1    1    2    0  503  0.40810420795E+02  0.10166154728E+03 -0.98315621562E+02  0.22714647716E+03  0.17300000000E+03 0.  1.
<mgrwt>
<rscale>  2 0.20476709E+03</rscale>
<asrwt>0</asrwt>
<pdfrwt beam="1">  1       21 0.54491690E-01 0.20476709E+03</pdfrwt>
<pdfrwt beam="2">  1       21 0.30600707E-01 0.20476709E+03</pdfrwt>
<totfact> 0.32398085E+04</totfact>
</mgrwt>
</event>
<event>
 4    1  0.4531281E+000  0.1950567E+03  0.7546771E-02  0.1153978E+00
         21   -1    0    0  503  502  0.00000000000E+00  0.00000000000E+00  0.13380810196E+03  0.13380810196E+03  0.00000000000E+00 0. -1.
         21   -1    0    0  501  503 -0.00000000000E+00 -0.00000000000E+00 -0.30822802966E+03  0.30822802966E+03  0.00000000000E+00 0. -1.
          6    1    1    2  501    0 -0.80867744477E+02  0.39730764980E+02 -0.14873799768E+03  0.24529597986E+03  0.17300000000E+03 0. -1.
         -6    1    1    2    0  502  0.80867744477E+02 -0.39730764980E+02 -0.25681930025E+02  0.19674015175E+03  0.17300000000E+03 0. -1.
<mgrwt>
<rscale>  2 0.19505672E+03</rscale>
<asrwt>0</asrwt>
<pdfrwt beam="1">  1       21 0.20585862E-01 0.19505672E+03</pdfrwt>
<pdfrwt beam="2">  1       21 0.47419696E-01 0.19505672E+03</pdfrwt>
<totfact> 0.92939001E+04</totfact>
</mgrwt>
</event>
<event>
 4    1  0.4531281E+000  0.1885620E+03  0.7546771E-02  0.1159765E+00
         21   -1    0    0  501  502  0.00000000000E+00  0.00000000000E+00  0.39167744024E+03  0.39167744024E+03  0.00000000000E+00 0. -1.
         21   -1    0    0  502  503 -0.00000000000E+00 -0.00000000000E+00 -0.15909375587E+03  0.15909375587E+03  0.00000000000E+00 0. -1.
          6    1    1    2  501    0 -0.74743334865E+02  0.63305410020E+01  0.29674958640E+03  0.35159061262E+03  0.17300000000E+03 0. -1.
         -6    1    1    2    0  503  0.74743334865E+02 -0.63305410020E+01 -0.64165902031E+02  0.19918058349E+03  0.17300000000E+03 0. -1.
<mgrwt>
<rscale>  2 0.18856204E+03</rscale>
<asrwt>0</asrwt>
<pdfrwt beam="1">  1       21 0.60258067E-01 0.18856204E+03</pdfrwt>
<pdfrwt beam="2">  1       21 0.24475963E-01 0.18856204E+03</pdfrwt>
<totfact> 0.40574525E+04</totfact>
</mgrwt>
</event>
<event>
 4    1  0.4531281E+000  0.1754021E+03  0.7546771E-02  0.1172329E+00
         21   -1    0    0  503  502  0.00000000000E+00  0.00000000000E+00  0.53826337594E+02  0.53826337594E+02  0.00000000000E+00 0. -1.
         21   -1    0    0  501  503 -0.00000000000E+00 -0.00000000000E+00 -0.82748342714E+03  0.82748342714E+03  0.00000000000E+00 0. -1.
          6    1    1    2  501    0  0.12591272668E+02 -0.26045187109E+02 -0.63188130804E+03  0.65577425946E+03  0.17300000000E+03 0. -1.
         -6    1    1    2    0  502 -0.12591272668E+02  0.26045187109E+02 -0.14177578151E+03  0.22553550528E+03  0.17300000000E+03 0. -1.
<mgrwt>
<rscale>  2 0.17540209E+03</rscale>
<asrwt>0</asrwt>
<pdfrwt beam="1">  1       21 0.82809759E-02 0.17540209E+03</pdfrwt>
<pdfrwt beam="2">  1       21 0.12730513E+00 0.17540209E+03</pdfrwt>
<totfact> 0.51960211E+04</totfact>
</mgrwt>
</event>
<event>
 4    1  0.4531281E+000  0.1845603E+03  0.7546771E-02  0.1163461E+00
         21   -1    0    0  501  502  0.00000000000E+00  0.00000000000E+00  0.12579903463E+03  0.12579903463E+03  0.00000000000E+00 0.  1.
         21   -1    0    0  502  503 -0.00000000000E+00 -0.00000000000E+00 -0.42401272502E+03  0.42401272502E+03  0.00000000000E+00 0.  1.
          6    1    1    2  501    0 -0.47391959945E+02 -0.43445451842E+02  0.16159961997E+02  0.18526642849E+03  0.17300000000E+03 0.  1.
         -6    1    1    2    0  503  0.47391959945E+02  0.43445451842E+02 -0.31437365239E+03  0.36454533116E+03  0.17300000000E+03 0.  1.
<mgrwt>
<rscale>  2 0.18456030E+03</rscale>
<asrwt>0</asrwt>
<pdfrwt beam="1">  1       21 0.19353697E-01 0.18456030E+03</pdfrwt>
<pdfrwt beam="2">  1       21 0.65232728E-01 0.18456030E+03</pdfrwt>
<totfact> 0.53273549E+04</totfact>
</mgrwt>
</event>
<event>
 4    1  0.4531281E+000  0.2080601E+03  0.7546771E-02  0.1143111E+00
         21   -1    0    0  503  502  0.00000000000E+00  0.00000000000E+00  0.29334134790E+03  0.29334134790E+03  0.00000000000E+00 0. -1.
         21   -1    0    0  501  503 -0.00000000000E+00 -0.00000000000E+00 -0.22875108113E+03  0.22875108113E+03  0.00000000000E+00 0. -1.
          6    1    1    2  501    0 -0.87044845246E+02  0.76047349768E+02 -0.12321459674E+03  0.24180744683E+03  0.17300000000E+03 0. -1.
         -6    1    1    2    0  502  0.87044845246E+02 -0.76047349768E+02  0.18780486351E+03  0.28028498221E+03  0.17300000000E+03 0. -1.
<mgrwt>
<rscale>  2 0.20806010E+03</rscale>
<asrwt>0</asrwt>
<pdfrwt beam="1">  1       21 0.45129438E-01 0.20806010E+03</pdfrwt>
<pdfrwt beam="2">  1       21 0.35192474E-01 0.20806010E+03</pdfrwt>
<totfact> 0.36375059E+04</totfact>
</mgrwt>
</event>
<event>
 4    1  0.4531281E+000  0.1997286E+03  0.7546771E-02  0.1149968E+00
         21   -1    0    0  503  502  0.00000000000E+00  0.00000000000E+00  0.37305294164E+03  0.37305294164E+03  0.00000000000E+00 0.  1.
         21   -1    0    0  501  503 -0.00000000000E+00 -0.00000000000E+00 -0.17059541756E+03  0.17059541756E+03  0.00000000000E+00 0.  1.
          6    1    1    2  501    0  0.74744821449E+02  0.66149240921E+02 -0.64824506992E+02  0.20998506403E+03  0.17300000000E+03 0. -1.
         -6    1    1    2    0  502 -0.74744821449E+02 -0.66149240921E+02  0.26728203108E+03  0.33366329517E+03  0.17300000000E+03 0. -1.
<mgrwt>
<rscale>  2 0.19972859E+03</rscale>
<asrwt>0</asrwt>
<pdfrwt beam="1">  1       21 0.57392760E-01 0.19972859E+03</pdfrwt>
<pdfrwt beam="2">  1       21 0.26245449E-01 0.19972859E+03</pdfrwt>
<totfact> 0.39182194E+04</totfact>
</mgrwt>
</event>
<event>
 4    1  0.4531281E+000  0.1955892E+03  0.7546771E-02  0.1153515E+00
         21   -1    0    0  503  502  0.00000000000E+00  0.00000000000E+00  0.56843719831E+03  0.56843719831E+03  0.00000000000E+00 0. -1.
         21   -1    0    0  501  503 -0.00000000000E+00 -0.00000000000E+00 -0.12013987279E+03  0.12013987279E+03  0.00000000000E+00 0.  1.
          6    1    1    2  501    0 -0.85685517638E+02  0.31370708511E+02 -0.41823366653E+01  0.19563389590E+03  0.17300000000E+03 0.  1.
         -6    1    1    2    0  502  0.85685517638E+02 -0.31370708511E+02  0.45247966219E+03  0.49294317520E+03  0.17300000000E+03 0. -1.
<mgrwt>
<rscale>  2 0.19558918E+03</rscale>
<asrwt>0</asrwt>
<pdfrwt beam="1">  1       21 0.87451875E-01 0.19558918E+03</pdfrwt>
<pdfrwt beam="2">  1       21 0.18483058E-01 0.19558918E+03</pdfrwt>
<totfact> 0.29960439E+04</totfact>
</mgrwt>
</event>
<event>
 4    1  0.4531281E+000  0.2714580E+03  0.7546771E-02  0.1100448E+00
         21   -1    0    0  501  502  0.00000000000E+00  0.00000000000E+00  0.24146391874E+04  0.24146391874E+04  0.00000000000E+00 0.  1.
         21   -1    0    0  502  503 -0.00000000000E+00 -0.00000000000E+00 -0.36000677096E+02  0.36000677096E+02  0.00000000000E+00 0. -1.
          6    1    1    2  501    0 -0.97682823910E+02  0.18498252462E+03  0.16675071069E+04  0.16894583215E+04  0.17300000000E+03 0.  1.
         -6    1    1    2    0  503  0.97682823910E+02 -0.18498252462E+03  0.71113140345E+03  0.76118154305E+03  0.17300000000E+03 0.  1.
<mgrwt>
<rscale>  2 0.27145804E+03</rscale>
<asrwt>0</asrwt>
<pdfrwt beam="1">  1       21 0.37148282E+00 0.27145804E+03</pdfrwt>
<pdfrwt beam="2">  1       21 0.55385676E-02 0.27145804E+03</pdfrwt>
<totfact> 0.26867963E+03</totfact>
</mgrwt>
</event>
<event>
 4    1  0.4531281E+000  0.2003451E+03  0.7546771E-02  0.1149448E+00
         21   -1    0    0  503  502  0.00000000000E+00  0.00000000000E+00  0.16177689777E+03  0.16177689777E+03  0.00000000000E+00 0. -1.
         21   -1    0    0  501  503 -0.00000000000E+00 -0.00000000000E+00 -0.68168250455E+03  0.68168250455E+03  0.00000000000E+00 0. -1.
          6    1    1    2  501    0 -0.69363415696E+02  0.73470329799E+02 -0.59628999134E+03  0.62904683972E+03  0.17300000000E+03 0. -1.
         -6    1    1    2    0  502  0.69363415696E+02 -0.73470329799E+02  0.76384384552E+02  0.21441256260E+03  0.17300000000E+03 0. -1.
<mgrwt>
<rscale>  2 0.20034513E+03</rscale>
<asrwt>0</asrwt>
<pdfrwt beam="1">  1       21 0.24888754E-01 0.20034513E+03</pdfrwt>
<pdfrwt beam="2">  1       21 0.10487423E+00 0.20034513E+03</pdfrwt>
<totfact> 0.11133276E+04</totfact>
</mgrwt>
</event>
<event>
 4    1  0.4531281E+000  0.1874226E+03  0.7546771E-02  0.1160807E+00
         21   -1    0    0  501  502  0.00000000000E+00  0.00000000000E+00  0.66950542934E+02  0.66950542934E+02  0.00000000000E+00 0. -1.
         21   -1    0    0  502  503 -0.00000000000E+00 -0.00000000000E+00 -0.69365769656E+03  0.69365769656E+03  0.00000000000E+00 0. -1.
          6    1    1    2  501    0 -0.27739955535E+02  0.66548655722E+02 -0.12564658350E+03  0.22564195677E+03  0.17300000000E+03 0. -1.
         -6    1    1    2    0  503  0.27739955535E+02 -0.66548655722E+02 -0.50106057013E+03  0.53496628272E+03  0.17300000000E+03 0. -1.
<mgrwt>
<rscale>  2 0.18742259E+03</rscale>
<asrwt>0</asrwt>
<pdfrwt beam="1">  1       21 0.10300084E-01 0.18742259E+03</pdfrwt>
<pdfrwt beam="2">  1       21 0.10671657E+00 0.18742259E+03</pdfrwt>
<totfact> 0.54253459E+04</totfact>
</mgrwt>
</event>
<event>
 4    1  0.4531281E+000  0.3217702E+03  0.7546771E-02  0.1074837E+00
         21   -1    0    0  501  502  0.00000000000E+00  0.00000000000E+00  0.64717413831E+02  0.64717413831E+02  0.00000000000E+00 0. -1.
         21   -1    0    0  502  503 -0.00000000000E+00 -0.00000000000E+00 -0.16281562615E+04  0.16281562615E+04  0.00000000000E+00 0. -1.
          6    1    1    2  501    0 -0.81009115783E+02 -0.25892965153E+03 -0.67004901107E+03  0.74330459336E+03  0.17300000000E+03 0. -1.
         -6    1    1    2    0  503  0.81009115783E+02  0.25892965153E+03 -0.89338983659E+03  0.94956908196E+03  0.17300000000E+03 0. -1.
<mgrwt>
<rscale>  2 0.32177017E+03</rscale>
<asrwt>0</asrwt>
<pdfrwt beam="1">  1       21 0.99565249E-02 0.32177017E+03</pdfrwt>
<pdfrwt beam="2">  1       21 0.25048559E+00 0.32177017E+03</pdfrwt>
<totfact> 0.48717352E+03</totfact>
</mgrwt>
</event>
<event>
 4    1  0.4531281E+000  0.2557316E+03  0.7546771E-02  0.1109735E+00
         21   -1    0    0  501  502  0.00000000000E+00  0.00000000000E+00  0.54705821130E+02  0.54705821130E+02  0.00000000000E+00 0. -1.
         21   -1    0    0  502  503 -0.00000000000E+00 -0.00000000000E+00 -0.12350798626E+04  0.12350798626E+04  0.00000000000E+00 0.  1.
          6    1    1    2  501    0  0.17993918297E+03 -0.55601567988E+02 -0.47468376826E+03  0.53918765173E+03  0.17300000000E+03 0. -1.
         -6    1    1    2    0  503 -0.17993918297E+03  0.55601567988E+02 -0.70569027318E+03  0.75059803197E+03  0.17300000000E+03 0.  1.
<mgrwt>
<rscale>  2 0.25573159E+03</rscale>
<asrwt>0</asrwt>
<pdfrwt beam="1">  1       21 0.84162798E-02 0.25573159E+03</pdfrwt>
<pdfrwt beam="2">  1       21 0.19001229E+00 0.25573159E+03</pdfrwt>
<totfact> 0.16409452E+04</totfact>
</mgrwt>
</event>
<event>
 4    1  0.4531281E+000  0.1914605E+03  0.7546771E-02  0.1157151E+00
         21   -1    0    0  501  502  0.00000000000E+00  0.00000000000E+00  0.75143170413E+03  0.75143170413E+03  0.00000000000E+00 0.  1.
         21   -1    0    0  502  503 -0.00000000000E+00 -0.00000000000E+00 -0.15547696378E+03  0.15547696378E+03  0.00000000000E+00 0.  1.
          6    1    1    2  501    0 -0.81658746035E+02 -0.77446927921E+01  0.67361609100E+03  0.70029691497E+03  0.17300000000E+03 0.  1.
         -6    1    1    2    0  503  0.81658746035E+02  0.77446927921E+01 -0.77661350648E+02  0.20661175295E+03  0.17300000000E+03 0.  1.
<mgrwt>
<rscale>  2 0.19146052E+03</rscale>
<asrwt>0</asrwt>
<pdfrwt beam="1">  1       21 0.11560488E+00 0.19146052E+03</pdfrwt>
<pdfrwt beam="2">  1       21 0.23919533E-01 0.19146052E+03</pdfrwt>
<totfact> 0.95453445E+03</totfact>
</mgrwt>
</event>
<event>
 4    1  0.4531281E+000  0.1847432E+03  0.7546771E-02  0.1163290E+00
         21   -1    0    0  501  502  0.00000000000E+00  0.00000000000E+00  0.23277848756E+03  0.23277848756E+03  0.00000000000E+00 0.  1.
         21   -1    0    0  502  503 -0.00000000000E+00 -0.00000000000E+00 -0.16750507574E+03  0.16750507574E+03  0.00000000000E+00 0. -1.
          6    1    1    2  501    0  0.64603344560E+02 -0.52395908692E+01 -0.38033924018E+02  0.18861766836E+03  0.17300000000E+03 0. -1.
         -6    1    1    2    0  503 -0.64603344560E+02  0.52395908692E+01  0.10330733584E+03  0.21166589494E+03  0.17300000000E+03 0.  1.
<mgrwt>
<rscale>  2 0.18474319E+03</rscale>
<asrwt>0</asrwt>
<pdfrwt beam="1">  1       21 0.35812075E-01 0.18474319E+03</pdfrwt>
<pdfrwt beam="2">  1       21 0.25770011E-01 0.18474319E+03</pdfrwt>
<totfact> 0.10777516E+05</totfact>
</mgrwt>
</event>
<event>
 4    1  0.4531281E+000  0.1851205E+03  0.7546771E-02  0.1162937E+00
         21   -1    0    0  501  502  0.00000000000E+00  0.00000000000E+00  0.70017836288E+03  0.70017836288E+03  0.00000000000E+00 0. -1.
         21   -1    0    0  502  503 -0.00000000000E+00 -0.00000000000E+00 -0.50050007057E+02  0.50050007057E+02  0.00000000000E+00 0. -1.
          6    1    1    2  501    0  0.39609877836E+02  0.52646636528E+02  0.38082352245E+03  0.42343377996E+03  0.17300000000E+03 0. -1.
         -6    1    1    2    0  503 -0.39609877836E+02 -0.52646636528E+02  0.26930483337E+03  0.32679458998E+03  0.17300000000E+03 0. -1.
<mgrwt>
<rscale>  2 0.18512053E+03</rscale>
<asrwt>0</asrwt>
<pdfrwt beam="1">  1       21 0.10771974E+00 0.18512053E+03</pdfrwt>
<pdfrwt beam="2">  1       21 0.77000016E-02 0.18512053E+03</pdfrwt>
<totfact> 0.88394818E+04</totfact>
</mgrwt>
</event>
<event>
 4    1  0.4531281E+000  0.2673770E+03  0.7546771E-02  0.1102790E+00
         21   -1    0    0  501  502  0.00000000000E+00  0.00000000000E+00  0.66261448319E+03  0.66261448319E+03  0.00000000000E+00 0. -1.
         21   -1    0    0  502  503 -0.00000000000E+00 -0.00000000000E+00 -0.10907416167E+03  0.10907416167E+03  0.00000000000E+00 0. -1.
          6    1    1    2  501    0 -0.18824354591E+03 -0.78267627692E+02  0.31694794439E+03  0.41466426609E+03  0.17300000000E+03 0. -1.
         -6    1    1    2    0  503  0.18824354591E+03  0.78267627692E+02  0.23659237713E+03  0.35702437878E+03  0.17300000000E+03 0. -1.
<mgrwt>
<rscale>  2 0.26737699E+03</rscale>
<asrwt>0</asrwt>
<pdfrwt beam="1">  1       21 0.10194069E+00 0.26737699E+03</pdfrwt>
<pdfrwt beam="2">  1       21 0.16780641E-01 0.26737699E+03</pdfrwt>
<totfact> 0.24090390E+04</totfact>
</mgrwt>
</event>
<event>
 4    1  0.4531281E+000  0.1832557E+03  0.7546771E-02  0.1164689E+00
         21   -1    0    0  503  502  0.00000000000E+00  0.00000000000E+00  0.12394814654E+03  0.12394814654E+03  0.00000000000E+00 0. -1.
         21   -1    0    0  501  503 -0.00000000000E+00 -0.00000000000E+00 -0.27097308839E+03  0.27097308839E+03  0.00000000000E+00 0.  1.
          6    1    1    2  501    0  0.60444554576E+02  0.32354410300E+00 -0.75657439591E+02  0.19825916631E+03  0.17300000000E+03 0. -1.
         -6    1    1    2    0  502 -0.60444554576E+02 -0.32354410300E+00 -0.71367502260E+02  0.19666206863E+03  0.17300000000E+03 0.  1.
<mgrwt>
<rscale>  2 0.18325569E+03</rscale>
<asrwt>0</asrwt>
<pdfrwt beam="1">  1       21 0.19068946E-01 0.18325569E+03</pdfrwt>
<pdfrwt beam="2">  1       21 0.41688167E-01 0.18325569E+03</pdfrwt>
<totfact> 0.14018489E+05</totfact>
</mgrwt>
</event>
<event>
 4    1  0.4531281E+000  0.2854141E+03  0.7546771E-02  0.1092768E+00
         21   -1    0    0  503  502  0.00000000000E+00  0.00000000000E+00  0.85873466883E+03  0.85873466883E+03  0.00000000000E+00 0. -1.
         21   -1    0    0  501  503 -0.00000000000E+00 -0.00000000000E+00 -0.24503203322E+03  0.24503203322E+03  0.00000000000E+00 0.  1.
          6    1    1    2  501    0  0.16390974850E+03 -0.15705349558E+03 -0.12519234305E+03  0.31166380747E+03  0.17300000000E+03 0.  1.
         -6    1    1    2    0  502 -0.16390974850E+03  0.15705349558E+03  0.73889497866E+03  0.79210289459E+03  0.17300000000E+03 0. -1.
<mgrwt>
<rscale>  2 0.28541410E+03</rscale>
<asrwt>0</asrwt>
<pdfrwt beam="1">  1       21 0.13211303E+00 0.28541410E+03</pdfrwt>
<pdfrwt beam="2">  1       21 0.37697236E-01 0.28541410E+03</pdfrwt>
<totfact> 0.26270962E+03</totfact>
</mgrwt>
</event>
<event>
 4    1  0.4531281E+000  0.2346649E+03  0.7546771E-02  0.1123399E+00
         21   -1    0    0  503  502  0.00000000000E+00  0.00000000000E+00  0.17603065873E+04  0.17603065873E+04  0.00000000000E+00 0. -1.
         21   -1    0    0  501  503 -0.00000000000E+00 -0.00000000000E+00 -0.42030864692E+02  0.42030864692E+02  0.00000000000E+00 0. -1.
          6    1    1    2  501    0 -0.74604866734E+02  0.13990255923E+03  0.40343293995E+03  0.46671806185E+03  0.17300000000E+03 0. -1.
         -6    1    1    2    0  502  0.74604866734E+02 -0.13990255923E+03  0.13148427827E+04  0.13356193902E+04  0.17300000000E+03 0. -1.
<mgrwt>
<rscale>  2 0.23466489E+03</rscale>
<asrwt>0</asrwt>
<pdfrwt beam="1">  1       21 0.27081634E+00 0.23466489E+03</pdfrwt>
<pdfrwt beam="2">  1       21 0.64662883E-02 0.23466489E+03</pdfrwt>
<totfact> 0.83794802E+03</totfact>
</mgrwt>
</event>
<event>
 4    1  0.4531281E+000  0.1845874E+03  0.7546771E-02  0.1163436E+00
         21   -1    0    0  503  502  0.00000000000E+00  0.00000000000E+00  0.17868360008E+04  0.17868360008E+04  0.00000000000E+00 0. -1.
         21   -1    0    0  501  503 -0.00000000000E+00 -0.00000000000E+00 -0.78105768169E+02  0.78105768169E+02  0.00000000000E+00 0. -1.
          6    1    1    2  501    0  0.10366237420E+02 -0.63529827653E+02  0.43672142543E+02  0.18968329899E+03  0.17300000000E+03 0. -1.
         -6    1    1    2    0  502 -0.10366237420E+02  0.63529827653E+02  0.16650580901E+04  0.16752584700E+04  0.17300000000E+03 0. -1.
<mgrwt>
<rscale>  2 0.18458737E+03</rscale>
<asrwt>0</asrwt>
<pdfrwt beam="1">  1       21 0.27489781E+00 0.18458737E+03</pdfrwt>
<pdfrwt beam="2">  1       21 0.12016273E-01 0.18458737E+03</pdfrwt>
<totfact> 0.28148401E+03</totfact>
</mgrwt>
</event>
<event>
 4    1  0.4531281E+000  0.1953276E+03  0.7546771E-02  0.1153742E+00
         21   -1    0    0  503  502  0.00000000000E+00  0.00000000000E+00  0.25695461867E+03  0.25695461867E+03  0.00000000000E+00 0.  1.
         21   -1    0    0  501  503 -0.00000000000E+00 -0.00000000000E+00 -0.15791788896E+03  0.15791788896E+03  0.00000000000E+00 0.  1.
          6    1    1    2  501    0  0.19822252130E+02  0.88492659979E+02  0.10022723945E+03  0.21954127648E+03  0.17300000000E+03 0.  1.
         -6    1    1    2    0  502 -0.19822252130E+02 -0.88492659979E+02 -0.11905097454E+01  0.19533123115E+03  0.17300000000E+03 0.  1.
<mgrwt>
<rscale>  2 0.19532760E+03</rscale>
<asrwt>0</asrwt>
<pdfrwt beam="1">  1       21 0.39531480E-01 0.19532760E+03</pdfrwt>
<pdfrwt beam="2">  1       21 0.24295060E-01 0.19532760E+03</pdfrwt>
<totfact> 0.98567065E+04</totfact>
</mgrwt>
</event>
<event>
 4    1  0.4531281E+000  0.1763157E+03  0.7546771E-02  0.1171417E+00
         21   -1    0    0  503  502  0.00000000000E+00  0.00000000000E+00  0.24425346965E+03  0.24425346965E+03  0.00000000000E+00 0. -1.
         21   -1    0    0  501  503 -0.00000000000E+00 -0.00000000000E+00 -0.13850192516E+03  0.13850192516E+03  0.00000000000E+00 0. -1.
          6    1    1    2  501    0  0.33147109533E+02 -0.77134277225E+01  0.10736420628E+03  0.20643231488E+03  0.17300000000E+03 0. -1.
         -6    1    1    2    0  502 -0.33147109533E+02  0.77134277225E+01 -0.16126617978E+01  0.17632307993E+03  0.17300000000E+03 0. -1.
<mgrwt>
<rscale>  2 0.17631571E+03</rscale>
<asrwt>0</asrwt>
<pdfrwt beam="1">  1       21 0.37577457E-01 0.17631571E+03</pdfrwt>
<pdfrwt beam="2">  1       21 0.21307988E-01 0.17631571E+03</pdfrwt>
<totfact> 0.14077488E+05</totfact>
</mgrwt>
</event>
<event>
 4    1  0.4531281E+000  0.1985646E+03  0.7546771E-02  0.1150956E+00
         21   -1    0    0  501  502  0.00000000000E+00  0.00000000000E+00  0.87188369026E+02  0.87188369026E+02  0.00000000000E+00 0. -1.
         21   -1    0    0  502  503 -0.00000000000E+00 -0.00000000000E+00 -0.15230205599E+04  0.15230205599E+04  0.00000000000E+00 0. -1.
          6    1    1    2  501    0 -0.78563061489E+02  0.57677843801E+02 -0.42836998747E+02  0.20313270726E+03  0.17300000000E+03 0. -1.
         -6    1    1    2    0  503  0.78563061489E+02 -0.57677843801E+02 -0.13929951921E+04  0.14070762216E+04  0.17300000000E+03 0. -1.
<mgrwt>
<rscale>  2 0.19856457E+03</rscale>
<asrwt>0</asrwt>
<pdfrwt beam="1">  1       21 0.13413596E-01 0.19856457E+03</pdfrwt>
<pdfrwt beam="2">  1       21 0.23431084E+00 0.19856457E+03</pdfrwt>
<totfact> 0.39339634E+03</totfact>
</mgrwt>
</event>
<event>
 4    1  0.4531281E+000  0.2489244E+03  0.7546771E-02  0.1113986E+00
         21   -1    0    0  503  502  0.00000000000E+00  0.00000000000E+00  0.25485255756E+03  0.25485255756E+03  0.00000000000E+00 0. -1.
         21   -1    0    0  501  503 -0.00000000000E+00 -0.00000000000E+00 -0.27878382389E+03  0.27878382389E+03  0.00000000000E+00 0.  1.
          6    1    1    2  501    0 -0.17791036594E+03  0.19550936342E+02 -0.10737916431E+03  0.27109707182E+03  0.17300000000E+03 0.  1.
         -6    1    1    2    0  502  0.17791036594E+03 -0.19550936342E+02  0.83447897980E+02  0.26253930962E+03  0.17300000000E+03 0. -1.
<mgrwt>
<rscale>  2 0.24892436E+03</rscale>
<asrwt>0</asrwt>
<pdfrwt beam="1">  1       21 0.39208086E-01 0.24892436E+03</pdfrwt>
<pdfrwt beam="2">  1       21 0.42889819E-01 0.24892436E+03</pdfrwt>
<totfact> 0.31889146E+04</totfact>
</mgrwt>
</event>
<event>
 4    1  0.4531281E+000  0.2334105E+03  0.7546771E-02  0.1124262E+00
         21   -1    0    0  503  502  0.00000000000E+00  0.00000000000E+00  0.95329815384E+02  0.95329815384E+02  0.00000000000E+00 0. -1.
         21   -1    0    0  501  503 -0.00000000000E+00 -0.00000000000E+00 -0.69856649618E+03  0.69856649618E+03  0.00000000000E+00 0. -1.
          6    1    1    2  501    0 -0.57197797458E+02 -0.14587622159E+03 -0.47091754983E+03  0.52558900179E+03  0.17300000000E+03 0. -1.
         -6    1    1    2    0  502  0.57197797458E+02  0.14587622159E+03 -0.13231913096E+03  0.26830730978E+03  0.17300000000E+03 0. -1.
<mgrwt>
<rscale>  2 0.23341050E+03</rscale>
<asrwt>0</asrwt>
<pdfrwt beam="1">  1       21 0.14666126E-01 0.23341050E+03</pdfrwt>
<pdfrwt beam="2">  1       21 0.10747177E+00 0.23341050E+03</pdfrwt>
<totfact> 0.27600378E+04</totfact>
</mgrwt>
</event>
<event>
 4    1  0.4531281E+000  0.3156149E+03  0.7546771E-02  0.1077685E+00
         21   -1    0    0  501  502  0.00000000000E+00  0.00000000000E+00  0.56825500877E+03  0.56825500877E+03  0.00000000000E+00 0. -1.
         21   -1    0    0  502  503 -0.00000000000E+00 -0.00000000000E+00 -0.39838724900E+03  0.39838724900E+03  0.00000000000E+00 0.  1.
          6    1    1    2  501    0  0.50967386271E+02 -0.25900987842E+03  0.44661380128E+03  0.54687903514E+03  0.17300000000E+03 0. -1.
         -6    1    1    2    0  503 -0.50967386271E+02  0.25900987842E+03 -0.27674604150E+03  0.41976322263E+03  0.17300000000E+03 0.  1.
<mgrwt>
<rscale>  2 0.31561494E+03</rscale>
<asrwt>0</asrwt>
<pdfrwt beam="1">  1       21 0.87423848E-01 0.31561494E+03</pdfrwt>
<pdfrwt beam="2">  1       21 0.61290346E-01 0.31561494E+03</pdfrwt>
<totfact> 0.25562977E+03</totfact>
</mgrwt>
</event>
<event>
 4    1  0.4531281E+000  0.1997892E+03  0.7546771E-02  0.1149917E+00
         21   -1    0    0  501  502  0.00000000000E+00  0.00000000000E+00  0.15153026888E+03  0.15153026888E+03  0.00000000000E+00 0.  1.
         21   -1    0    0  502  503 -0.00000000000E+00 -0.00000000000E+00 -0.51249572621E+03  0.51249572621E+03  0.00000000000E+00 0.  1.
          6    1    1    2  501    0  0.99922895878E+02  0.14624869199E+01  0.50978283155E+02  0.20619046860E+03  0.17300000000E+03 0.  1.
         -6    1    1    2    0  503 -0.99922895878E+02 -0.14624869199E+01 -0.41194374049E+03  0.45783552649E+03  0.17300000000E+03 0.  1.
<mgrwt>
<rscale>  2 0.19978920E+03</rscale>
<asrwt>0</asrwt>
<pdfrwt beam="1">  1       21 0.23312350E-01 0.19978920E+03</pdfrwt>
<pdfrwt beam="2">  1       21 0.78845494E-01 0.19978920E+03</pdfrwt>
<totfact> 0.24485667E+04</totfact>
</mgrwt>
</event>
<event>
 4    1  0.4531281E+000  0.2256029E+03  0.7546771E-02  0.1129773E+00
         21   -1    0    0  503  502  0.00000000000E+00  0.00000000000E+00  0.20919989467E+03  0.20919989467E+03  0.00000000000E+00 0.  1.
         21   -1    0    0  501  503 -0.00000000000E+00 -0.00000000000E+00 -0.36745507732E+03  0.36745507732E+03  0.00000000000E+00 0.  1.
          6    1    1    2  501    0 -0.14480194833E+03  0.26666175584E+00 -0.24672991327E+03  0.33432368365E+03  0.17300000000E+03 0.  1.
         -6    1    1    2    0  502  0.14480194833E+03 -0.26666175584E+00  0.88474730616E+02  0.24233128834E+03  0.17300000000E+03 0.  1.
<mgrwt>
<rscale>  2 0.22560292E+03</rscale>
<asrwt>0</asrwt>
<pdfrwt beam="1">  1       21 0.32184599E-01 0.22560292E+03</pdfrwt>
<pdfrwt beam="2">  1       21 0.56531550E-01 0.22560292E+03</pdfrwt>
<totfact> 0.26844712E+04</totfact>
</mgrwt>
</event>
<event>
 4    1  0.4531281E+000  0.2432750E+03  0.7546771E-02  0.1117630E+00
         21   -1    0    0  501  502  0.00000000000E+00  0.00000000000E+00  0.10557262944E+04  0.10557262944E+04  0.00000000000E+00 0.  1.
         21   -1    0    0  502  503 -0.00000000000E+00 -0.00000000000E+00 -0.10795363391E+03  0.10795363391E+03  0.00000000000E+00 0.  1.
          6    1    1    2  501    0  0.16954653047E+03 -0.22531997771E+02  0.87729674476E+03  0.91040227113E+03  0.17300000000E+03 0.  1.
         -6    1    1    2    0  503 -0.16954653047E+03  0.22531997771E+02  0.70475915718E+02  0.25327765716E+03  0.17300000000E+03 0.  1.
<mgrwt>
<rscale>  2 0.24327498E+03</rscale>
<asrwt>0</asrwt>
<pdfrwt beam="1">  1       21 0.16241942E+00 0.24327498E+03</pdfrwt>
<pdfrwt beam="2">  1       21 0.16608252E-01 0.24327498E+03</pdfrwt>
<totfact> 0.75806586E+03</totfact>
</mgrwt>
</event>
<event>
 4    1  0.4531281E+000  0.2348194E+03  0.7546771E-02  0.1123293E+00
         21   -1    0    0  503  502  0.00000000000E+00  0.00000000000E+00  0.39948452446E+02  0.39948452446E+02  0.00000000000E+00 0.  1.
         21   -1    0    0  501  503 -0.00000000000E+00 -0.00000000000E+00 -0.15046982791E+04  0.15046982791E+04  0.00000000000E+00 0.  1.
          6    1    1    2  501    0  0.43039290479E+02 -0.15283575118E+03 -0.95445637176E+03  0.98291765319E+03  0.17300000000E+03 0.  1.
         -6    1    1    2    0  502 -0.43039290479E+02  0.15283575118E+03 -0.51029345494E+03  0.56172907840E+03  0.17300000000E+03 0.  1.
<mgrwt>
<rscale>  2 0.23481939E+03</rscale>
<asrwt>0</asrwt>
<pdfrwt beam="1">  1       21 0.61459159E-02 0.23481939E+03</pdfrwt>
<pdfrwt beam="2">  1       21 0.23149204E+00 0.23481939E+03</pdfrwt>
<totfact> 0.15672587E+04</totfact>
</mgrwt>
</event>
<event>
 4    1  0.4531281E+000  0.1775188E+03  0.7546771E-02  0.1170226E+00
         21   -1    0    0  503  502  0.00000000000E+00  0.00000000000E+00  0.12886157276E+03  0.12886157276E+03  0.00000000000E+00 0.  1.
         21   -1    0    0  501  503 -0.00000000000E+00 -0.00000000000E+00 -0.80171725681E+03  0.80171725681E+03  0.00000000000E+00 0.  1.
          6    1    1    2  501    0  0.43210849827E+01  0.39563277583E+02 -0.72431542097E+03  0.74575180440E+03  0.17300000000E+03 0.  1.
         -6    1    1    2    0  502 -0.43210849827E+01 -0.39563277583E+02  0.51459736924E+02  0.18482702517E+03  0.17300000000E+03 0.  1.
<mgrwt>
<rscale>  2 0.17751880E+03</rscale>
<asrwt>0</asrwt>
<pdfrwt beam="1">  1       21 0.19824857E-01 0.17751880E+03</pdfrwt>
<pdfrwt beam="2">  1       21 0.12334112E+00 0.17751880E+03</pdfrwt>
<totfact> 0.11699706E+04</totfact>
</mgrwt>
</event>
<event>
 4    1  0.4531281E+000  0.2168068E+03  0.7546771E-02  0.1136286E+00
         21   -1    0    0  501  502  0.00000000000E+00  0.00000000000E+00  0.41539561413E+03  0.41539561413E+03  0.00000000000E+00 0.  1.
         21   -1    0    0  502  503 -0.00000000000E+00 -0.00000000000E+00 -0.24516773017E+03  0.24516773017E+03  0.00000000000E+00 0. -1.
          6    1    1    2  501    0 -0.68094289947E+02  0.11153195508E+03  0.32747134960E+03  0.39273743664E+03  0.17300000000E+03 0.  1.
         -6    1    1    2    0  503  0.68094289947E+02 -0.11153195508E+03 -0.15724346565E+03  0.26782590767E+03  0.17300000000E+03 0. -1.
<mgrwt>
<rscale>  2 0.21680685E+03</rscale>
<asrwt>0</asrwt>
<pdfrwt beam="1">  1       21 0.63907017E-01 0.21680685E+03</pdfrwt>
<pdfrwt beam="2">  1       21 0.37718112E-01 0.21680685E+03</pdfrwt>
<totfact> 0.15100948E+04</totfact>
</mgrwt>
</event>
<event>
 4    1  0.4531281E+000  0.1755469E+03  0.7546771E-02  0.1172184E+00
         21   -1    0    0  501  502  0.00000000000E+00  0.00000000000E+00  0.42242691953E+02  0.42242691953E+02  0.00000000000E+00 0.  1.
         21   -1    0    0  502  503 -0.00000000000E+00 -0.00000000000E+00 -0.80048377652E+03  0.80048377652E+03  0.00000000000E+00 0.  1.
          6    1    1    2  501    0 -0.96267842727E+01 -0.28196658581E+02 -0.25365904289E+03  0.30847955617E+03  0.17300000000E+03 0.  1.
         -6    1    1    2    0  503  0.96267842727E+01  0.28196658581E+02 -0.50458204167E+03  0.53424691231E+03  0.17300000000E+03 0.  1.
<mgrwt>
<rscale>  2 0.17554694E+03</rscale>
<asrwt>0</asrwt>
<pdfrwt beam="1">  1       21 0.64988757E-02 0.17554694E+03</pdfrwt>
<pdfrwt beam="2">  1       21 0.12315135E+00 0.17554694E+03</pdfrwt>
<totfact> 0.85796192E+04</totfact>
</mgrwt>
</event>
<event>
 4    1  0.4531281E+000  0.2390264E+03  0.7546771E-02  0.1120443E+00
         21   -1    0    0  503  502  0.00000000000E+00  0.00000000000E+00  0.80298871916E+03  0.80298871916E+03  0.00000000000E+00 0. -1.
         21   -1    0    0  501  503 -0.00000000000E+00 -0.00000000000E+00 -0.76006392301E+02  0.76006392301E+02  0.00000000000E+00 0. -1.
          6    1    1    2  501    0  0.16067539388E+03  0.37256480574E+02  0.25241171910E+03  0.34762811090E+03  0.17300000000E+03 0. -1.
         -6    1    1    2    0  502 -0.16067539388E+03 -0.37256480574E+02  0.47457060775E+03  0.53136700056E+03  0.17300000000E+03 0. -1.
<mgrwt>
<rscale>  2 0.23902642E+03</rscale>
<asrwt>0</asrwt>
<pdfrwt beam="1">  1       21 0.12353672E+00 0.23902642E+03</pdfrwt>
<pdfrwt beam="2">  1       21 0.11693292E-01 0.23902642E+03</pdfrwt>
<totfact> 0.29426183E+04</totfact>
</mgrwt>
</event>
<event>
 4    1  0.4531281E+000  0.1892816E+03  0.7546771E-02  0.1159111E+00
         21   -1    0    0  503  502  0.00000000000E+00  0.00000000000E+00  0.83815139460E+02  0.83815139460E+02  0.00000000000E+00 0. -1.
         21   -1    0    0  501  503 -0.00000000000E+00 -0.00000000000E+00 -0.42927150896E+03  0.42927150896E+03  0.00000000000E+00 0. -1.
          6    1    1    2  501    0 -0.32842884361E+01 -0.76731689028E+02 -0.18939799071E+03  0.26776694631E+03  0.17300000000E+03 0. -1.
         -6    1    1    2    0  502  0.32842884361E+01  0.76731689028E+02 -0.15605837879E+03  0.24531970211E+03  0.17300000000E+03 0. -1.
<mgrwt>
<rscale>  2 0.18928164E+03</rscale>
<asrwt>0</asrwt>
<pdfrwt beam="1">  1       21 0.12894637E-01 0.18928164E+03</pdfrwt>
<pdfrwt beam="2">  1       21 0.66041770E-01 0.18928164E+03</pdfrwt>
<totfact> 0.10873034E+05</totfact>
</mgrwt>
</event>
<event>
 4    1  0.4531281E+000  0.1833561E+03  0.7546771E-02  0.1164594E+00
         21   -1    0    0  501  502  0.00000000000E+00  0.00000000000E+00  0.85046254352E+03  0.85046254352E+03  0.00000000000E+00 0.  1.
         21   -1    0    0  502  503 -0.00000000000E+00 -0.00000000000E+00 -0.77226950536E+02  0.77226950536E+02  0.00000000000E+00 0.  1.
          6    1    1    2  501    0 -0.54823946883E+02  0.26168379405E+02  0.71068628682E+03  0.73395806931E+03  0.17300000000E+03 0.  1.
         -6    1    1    2    0  503  0.54823946883E+02 -0.26168379405E+02  0.62549306164E+02  0.19373142475E+03  0.17300000000E+03 0.  1.
<mgrwt>
<rscale>  2 0.18335607E+03</rscale>
<asrwt>0</asrwt>
<pdfrwt beam="1">  1       21 0.13084038E+00 0.18335607E+03</pdfrwt>
<pdfrwt beam="2">  1       21 0.11881070E-01 0.18335607E+03</pdfrwt>
<totfact> 0.25550415E+04</totfact>
</mgrwt>
</event>
<event>
 4    1  0.4531281E+000  0.2089449E+03  0.7546771E-02  0.1142404E+00
         21   -1    0    0  501  502  0.00000000000E+00  0.00000000000E+00  0.11681232096E+03  0.11681232096E+03  0.00000000000E+00 0. -1.
         21   -1    0    0  502  503 -0.00000000000E+00 -0.00000000000E+00 -0.57940687366E+03  0.57940687366E+03  0.00000000000E+00 0. -1.
          6    1    1    2  501    0  0.11446112436E+03 -0.25052802770E+02 -0.23900820141E+02  0.21030749183E+03  0.17300000000E+03 0. -1.
         -6    1    1    2    0  503 -0.11446112436E+03  0.25052802770E+02 -0.43869373256E+03  0.48591170279E+03  0.17300000000E+03 0. -1.
<mgrwt>
<rscale>  2 0.20894495E+03</rscale>
<asrwt>0</asrwt>
<pdfrwt beam="1">  1       21 0.17971126E-01 0.20894495E+03</pdfrwt>
<pdfrwt beam="2">  1       21 0.89139518E-01 0.20894495E+03</pdfrwt>
<totfact> 0.29972910E+04</totfact>
</mgrwt>
</event>
<event>
 4    1  0.4531281E+000  0.2575268E+03  0.7546771E-02  0.1108638E+00
         21   -1    0    0  503  502  0.00000000000E+00  0.00000000000E+00  0.65000538686E+03  0.65000538686E+03  0.00000000000E+00 0.  1.
         21   -1    0    0  501  503 -0.00000000000E+00 -0.00000000000E+00 -0.52277914710E+03  0.52277914710E+03  0.00000000000E+00 0. -1.
          6    1    1    2  501    0 -0.15636636043E+03  0.10927303159E+03 -0.46245349425E+03  0.52932340630E+03  0.17300000000E+03 0. -1.
         -6    1    1    2    0  502  0.15636636043E+03 -0.10927303159E+03  0.58967973401E+03  0.64346112766E+03  0.17300000000E+03 0.  1.
<mgrwt>
<rscale>  2 0.25752676E+03</rscale>
<asrwt>0</asrwt>
<pdfrwt beam="1">  1       21 0.10000083E+00 0.25752676E+03</pdfrwt>
<pdfrwt beam="2">  1       21 0.80427561E-01 0.25752676E+03</pdfrwt>
<totfact> 0.10538935E+03</totfact>
</mgrwt>
</event>
<event>
 4    1  0.4531281E+000  0.2085343E+03  0.7546771E-02  0.1142732E+00
         21   -1    0    0  503  502  0.00000000000E+00  0.00000000000E+00  0.36377296345E+03  0.36377296345E+03  0.00000000000E+00 0. -1.
         21   -1    0    0  501  503 -0.00000000000E+00 -0.00000000000E+00 -0.18037668841E+03  0.18037668841E+03  0.00000000000E+00 0.  1.
          6    1    1    2  501    0 -0.36394855944E+02 -0.11060279282E+03 -0.66306458573E+02  0.21882209616E+03  0.17300000000E+03 0. -1.
         -6    1    1    2    0  502  0.36394855944E+02  0.11060279282E+03  0.24970273362E+03  0.32532755570E+03  0.17300000000E+03 0. -1.
<mgrwt>
<rscale>  2 0.20853432E+03</rscale>
<asrwt>0</asrwt>
<pdfrwt beam="1">  1       21 0.55965071E-01 0.20853432E+03</pdfrwt>
<pdfrwt beam="2">  1       21 0.27750260E-01 0.20853432E+03</pdfrwt>
<totfact> 0.36959509E+04</totfact>
</mgrwt>
</event>
<event>
 4    1  0.4531281E+000  0.2336231E+03  0.7546771E-02  0.1124115E+00
         21   -1    0    0  501  502  0.00000000000E+00  0.00000000000E+00  0.33288474592E+04  0.33288474592E+04  0.00000000000E+00 0.  1.
         21   -1    0    0  502  503 -0.00000000000E+00 -0.00000000000E+00 -0.19786439530E+02  0.19786439530E+02  0.00000000000E+00 0.  1.
          6    1    1    2  501    0 -0.17603082374E+02 -0.15601564460E+03  0.23476091033E+04  0.23592050041E+04  0.17300000000E+03 0.  1.
         -6    1    1    2    0  503  0.17603082374E+02  0.15601564460E+03  0.96145191636E+03  0.98942889454E+03  0.17300000000E+03 0.  1.
<mgrwt>
<rscale>  2 0.23362309E+03</rscale>
<asrwt>0</asrwt>
<pdfrwt beam="1">  1       21 0.51212993E+00 0.23362309E+03</pdfrwt>
<pdfrwt beam="2">  1       21 0.30440703E-02 0.23362309E+03</pdfrwt>
<totfact> 0.90306610E+02</totfact>
</mgrwt>
</event>
<event>
 4    1  0.4531281E+000  0.1744119E+03  0.7546771E-02  0.1173324E+00
         21   -1    0    0  503  502  0.00000000000E+00  0.00000000000E+00  0.31483911869E+02  0.31483911869E+02  0.00000000000E+00 0. -1.
         21   -1    0    0  501  503 -0.00000000000E+00 -0.00000000000E+00 -0.97461995179E+03  0.97461995179E+03  0.00000000000E+00 0. -1.
          6    1    1    2  501    0  0.28330188470E+01  0.21965256314E+02 -0.51834805336E+03  0.54690419901E+03  0.17300000000E+03 0. -1.
         -6    1    1    2    0  502 -0.28330188470E+01 -0.21965256314E+02 -0.42478798657E+03  0.45919966465E+03  0.17300000000E+03 0. -1.
<mgrwt>
<rscale>  2 0.17441186E+03</rscale>
<asrwt>0</asrwt>
<pdfrwt beam="1">  1       21 0.48436783E-02 0.17441186E+03</pdfrwt>
<pdfrwt beam="2">  1       21 0.14994154E+00 0.17441186E+03</pdfrwt>
<totfact> 0.85713150E+04</totfact>
</mgrwt>
</event>
<event>
 4    1  0.4531281E+000  0.3750495E+03  0.7546771E-02  0.1052779E+00
         21   -1    0    0  501  502  0.00000000000E+00  0.00000000000E+00  0.78835399252E+03  0.78835399252E+03  0.00000000000E+00 0.  1.
         21   -1    0    0  502  503 -0.00000000000E+00 -0.00000000000E+00 -0.22947842262E+03  0.22947842262E+03  0.00000000000E+00 0.  1.
          6    1    1    2  501    0 -0.18566988082E+03 -0.27615183321E+03  0.51947985417E+03  0.64071948505E+03  0.17300000000E+03 0.  1.
         -6    1    1    2    0  503  0.18566988082E+03  0.27615183321E+03  0.39395715722E+02  0.37711293009E+03  0.17300000000E+03 0.  1.
<mgrwt>
<rscale>  2 0.37504952E+03</rscale>
<asrwt>0</asrwt>
<pdfrwt beam="1">  1       21 0.12128523E+00 0.37504952E+03</pdfrwt>
<pdfrwt beam="2">  1       21 0.35304373E-01 0.37504952E+03</pdfrwt>
<totfact> 0.35632607E+03</totfact>
</mgrwt>
</event>
<event>
 4    1  0.4531281E+000  0.2586858E+03  0.7546771E-02  0.1107935E+00
         21   -1    0    0  501  502  0.00000000000E+00  0.00000000000E+00  0.61269806727E+03  0.61269806727E+03  0.00000000000E+00 0.  1.
         21   -1    0    0  502  503 -0.00000000000E+00 -0.00000000000E+00 -0.28478435687E+03  0.28478435687E+03  0.00000000000E+00 0.  1.
          6    1    1    2  501    0 -0.99823009792E+02  0.16439197815E+03  0.51629294542E+03  0.57747446806E+03  0.17300000000E+03 0.  1.
         -6    1    1    2    0  503  0.99823009792E+02 -0.16439197815E+03 -0.18837923502E+03  0.32000795608E+03  0.17300000000E+03 0.  1.
<mgrwt>
<rscale>  2 0.25868582E+03</rscale>
<asrwt>0</asrwt>
<pdfrwt beam="1">  1       21 0.94261241E-01 0.25868582E+03</pdfrwt>
<pdfrwt beam="2">  1       21 0.43812978E-01 0.25868582E+03</pdfrwt>
<totfact> 0.45066273E+03</totfact>
</mgrwt>
</event>
<event>
 4    1  0.4531281E+000  0.2403160E+03  0.7546771E-02  0.1119583E+00
         21   -1    0    0  503  502  0.00000000000E+00  0.00000000000E+00  0.60863358011E+03  0.60863358011E+03  0.00000000000E+00 0.  1.
         21   -1    0    0  501  503 -0.00000000000E+00 -0.00000000000E+00 -0.10027180100E+03  0.10027180100E+03  0.00000000000E+00 0.  1.
          6    1    1    2  501    0  0.36085126981E+01 -0.16676253926E+03  0.17204548161E+03  0.29555272559E+03  0.17300000000E+03 0.  1.
         -6    1    1    2    0  502 -0.36085126981E+01  0.16676253926E+03  0.33631629750E+03  0.41335265552E+03  0.17300000000E+03 0.  1.
<mgrwt>
<rscale>  2 0.24031597E+03</rscale>
<asrwt>0</asrwt>
<pdfrwt beam="1">  1       21 0.93635933E-01 0.24031597E+03</pdfrwt>
<pdfrwt beam="2">  1       21 0.15426431E-01 0.24031597E+03</pdfrwt>
<totfact> 0.34855193E+04</totfact>
</mgrwt>
</event>
<event>
 4    1  0.4531281E+000  0.2110403E+03  0.7546771E-02  0.1140745E+00
         21   -1    0    0  501  502  0.00000000000E+00  0.00000000000E+00  0.29908215971E+02  0.29908215971E+02  0.00000000000E+00 0. -1.
         21   -1    0    0  502  503 -0.00000000000E+00 -0.00000000000E+00 -0.17538420203E+04  0.17538420203E+04  0.00000000000E+00 0.  1.
          6    1    1    2  501    0 -0.47459137758E+01 -0.12077459402E+03 -0.12084432349E+04  0.12267326841E+04  0.17300000000E+03 0. -1.
         -6    1    1    2    0  503  0.47459137758E+01  0.12077459402E+03 -0.51549056942E+03  0.55701755216E+03  0.17300000000E+03 0. -1.
<mgrwt>
<rscale>  2 0.21104034E+03</rscale>
<asrwt>0</asrwt>
<pdfrwt beam="1">  1       21 0.46012628E-02 0.21104034E+03</pdfrwt>
<pdfrwt beam="2">  1       21 0.26982192E+00 0.21104034E+03</pdfrwt>
<totfact> 0.15510338E+04</totfact>
</mgrwt>
</event>
<event>
 4    1  0.4531281E+000  0.1965545E+03  0.7546771E-02  0.1152679E+00
         21   -1    0    0  501  502  0.00000000000E+00  0.00000000000E+00  0.75465398789E+02  0.75465398789E+02  0.00000000000E+00 0. -1.
         21   -1    0    0  502  503 -0.00000000000E+00 -0.00000000000E+00 -0.20848662680E+04  0.20848662680E+04  0.00000000000E+00 0. -1.
          6    1    1    2  501    0  0.15558976585E+02  0.91992278564E+02 -0.66478263737E+02  0.20749221821E+03  0.17300000000E+03 0. -1.
         -6    1    1    2    0  503 -0.15558976585E+02 -0.91992278564E+02 -0.19429226055E+04  0.19528394486E+04  0.17300000000E+03 0. -1.
<mgrwt>
<rscale>  2 0.19655447E+03</rscale>
<asrwt>0</asrwt>
<pdfrwt beam="1">  1       21 0.11610061E-01 0.19655447E+03</pdfrwt>
<pdfrwt beam="2">  1       21 0.32074867E+00 0.19655447E+03</pdfrwt>
<totfact> 0.16047273E+03</totfact>
</mgrwt>
</event>
<event>
 4    1  0.4531281E+000  0.2578479E+03  0.7546771E-02  0.1108443E+00
         21   -1    0    0  503  502  0.00000000000E+00  0.00000000000E+00  0.96321267837E+02  0.96321267837E+02  0.00000000000E+00 0.  1.
         21   -1    0    0  501  503 -0.00000000000E+00 -0.00000000000E+00 -0.83887642868E+03  0.83887642868E+03  0.00000000000E+00 0. -1.
          6    1    1    2  501    0  0.19116920354E+03 -0.32938622566E+01 -0.56810070273E+03  0.62387813101E+03  0.17300000000E+03 0. -1.
         -6    1    1    2    0  502 -0.19116920354E+03  0.32938622566E+01 -0.17445445812E+03  0.31131956551E+03  0.17300000000E+03 0.  1.
<mgrwt>
<rscale>  2 0.25784785E+03</rscale>
<asrwt>0</asrwt>
<pdfrwt beam="1">  1       21 0.14818657E-01 0.25784785E+03</pdfrwt>
<pdfrwt beam="2">  1       21 0.12905791E+00 0.25784785E+03</pdfrwt>
<totfact> 0.16985446E+04</totfact>
</mgrwt>
</event>
<event>
 4    1  0.4531281E+000  0.1848384E+03  0.7546771E-02  0.1163201E+00
         21   -1    0    0  503  502  0.00000000000E+00  0.00000000000E+00  0.45213449925E+03  0.45213449925E+03  0.00000000000E+00 0. -1.
         21   -1    0    0  501  503 -0.00000000000E+00 -0.00000000000E+00 -0.96995723049E+02  0.96995723049E+02  0.00000000000E+00 0.  1.
          6    1    1    2  501    0  0.37857799985E+02 -0.52943560286E+02  0.48508569942E+02  0.19109765816E+03  0.17300000000E+03 0.  1.
         -6    1    1    2    0  502 -0.37857799985E+02  0.52943560286E+02  0.30663020626E+03  0.35803256414E+03  0.17300000000E+03 0. -1.
<mgrwt>
<rscale>  2 0.18483840E+03</rscale>
<asrwt>0</asrwt>
<pdfrwt beam="1">  1       21 0.69559153E-01 0.18483840E+03</pdfrwt>
<pdfrwt beam="2">  1       21 0.14922419E-01 0.18483840E+03</pdfrwt>
<totfact> 0.74651200E+04</totfact>
</mgrwt>
</event>
<event>
 4    1  0.4531281E+000  0.2207433E+03  0.7546771E-02  0.1133330E+00
         21   -1    0    0  503  502  0.00000000000E+00  0.00000000000E+00  0.39190016870E+02  0.39190016870E+02  0.00000000000E+00 0. -1.
         21   -1    0    0  501  503 -0.00000000000E+00 -0.00000000000E+00 -0.12470015078E+04  0.12470015078E+04  0.00000000000E+00 0.  1.
          6    1    1    2  501    0  0.11644712434E+03 -0.72378565220E+02 -0.56918884637E+03  0.61049449818E+03  0.17300000000E+03 0. -1.
         -6    1    1    2    0  502 -0.11644712434E+03  0.72378565220E+02 -0.63862264457E+03  0.67569702651E+03  0.17300000000E+03 0.  1.
<mgrwt>
<rscale>  2 0.22074327E+03</rscale>
<asrwt>0</asrwt>
<pdfrwt beam="1">  1       21 0.60292332E-02 0.22074327E+03</pdfrwt>
<pdfrwt beam="2">  1       21 0.19184639E+00 0.22074327E+03</pdfrwt>
<totfact> 0.29100696E+04</totfact>
</mgrwt>
</event>
<event>
 4    1  0.4531281E+000  0.2481005E+03  0.7546771E-02  0.1114511E+00
         21   -1    0    0  501  502  0.00000000000E+00  0.00000000000E+00  0.83554931275E+03  0.83554931275E+03  0.00000000000E+00 0. -1.
         21   -1    0    0  502  503 -0.00000000000E+00 -0.00000000000E+00 -0.10884465033E+03  0.10884465033E+03  0.00000000000E+00 0. -1.
          6    1    1    2  501    0  0.45056036956E+02  0.17203145089E+03  0.63178929878E+03  0.67875738273E+03  0.17300000000E+03 0. -1.
         -6    1    1    2    0  503 -0.45056036956E+02 -0.17203145089E+03  0.94915363633E+02  0.26563658034E+03  0.17300000000E+03 0. -1.
<mgrwt>
<rscale>  2 0.24810052E+03</rscale>
<asrwt>0</asrwt>
<pdfrwt beam="1">  1       21 0.12854604E+00 0.24810052E+03</pdfrwt>
<pdfrwt beam="2">  1       21 0.16745331E-01 0.24810052E+03</pdfrwt>
<totfact> 0.13774224E+04</totfact>
</mgrwt>
</event>
<event>
 4    1  0.4531281E+000  0.2307706E+03  0.7546771E-02  0.1126099E+00
         21   -1    0    0  501  502  0.00000000000E+00  0.00000000000E+00  0.34119129465E+03  0.34119129465E+03  0.00000000000E+00 0. -1.
         21   -1    0    0  502  503 -0.00000000000E+00 -0.00000000000E+00 -0.18845986572E+03  0.18845986572E+03  0.00000000000E+00 0.  1.
          6    1    1    2  501    0 -0.15272489003E+03  0.10952006519E+01 -0.33395676213E+02  0.23317453268E+03  0.17300000000E+03 0.  1.
         -6    1    1    2    0  503  0.15272489003E+03 -0.10952006519E+01  0.18612710514E+03  0.29647662769E+03  0.17300000000E+03 0.  1.
<mgrwt>
<rscale>  2 0.23077065E+03</rscale>
<asrwt>0</asrwt>
<pdfrwt beam="1">  1       21 0.52490968E-01 0.23077065E+03</pdfrwt>
<pdfrwt beam="2">  1       21 0.28993826E-01 0.23077065E+03</pdfrwt>
<totfact> 0.38461543E+04</totfact>
</mgrwt>
</event>
<event>
 4    1  0.4531281E+000  0.1741873E+03  0.7546771E-02  0.1173550E+00
         21   -1    0    0  503  502  0.00000000000E+00  0.00000000000E+00  0.76372842168E+03  0.76372842168E+03  0.00000000000E+00 0.  1.
         21   -1    0    0  501  503 -0.00000000000E+00 -0.00000000000E+00 -0.14585594658E+03  0.14585594658E+03  0.00000000000E+00 0.  1.
          6    1    1    2  501    0 -0.31661082977E+01  0.20054956687E+02 -0.79005295641E+02  0.19126699210E+03  0.17300000000E+03 0.  1.
         -6    1    1    2    0  502  0.31661082977E+01 -0.20054956687E+02  0.69687777074E+03  0.71831737615E+03  0.17300000000E+03 0.  1.
<mgrwt>
<rscale>  2 0.17418733E+03</rscale>
<asrwt>0</asrwt>
<pdfrwt beam="1">  1       21 0.11749668E+00 0.17418733E+03</pdfrwt>
<pdfrwt beam="2">  1       21 0.22439377E-01 0.17418733E+03</pdfrwt>
<totfact> 0.10485427E+04</totfact>
</mgrwt>
</event>
<event>
 4    1  0.4531281E+000  0.1739442E+03  0.7546771E-02  0.1173796E+00
         21   -1    0    0  503  502  0.00000000000E+00  0.00000000000E+00  0.48835111524E+02  0.48835111524E+02  0.00000000000E+00 0.  1.
         21   -1    0    0  501  503 -0.00000000000E+00 -0.00000000000E+00 -0.62979872387E+03  0.62979872387E+03  0.00000000000E+00 0.  1.
          6    1    1    2  501    0  0.36270163424E+01 -0.17732406183E+02 -0.24723121022E+03  0.30229102664E+03  0.17300000000E+03 0.  1.
         -6    1    1    2    0  502 -0.36270163424E+01  0.17732406183E+02 -0.33373240213E+03  0.37634280876E+03  0.17300000000E+03 0.  1.
<mgrwt>
<rscale>  2 0.17394423E+03</rscale>
<asrwt>0</asrwt>
<pdfrwt beam="1">  1       21 0.75130948E-02 0.17394423E+03</pdfrwt>
<pdfrwt beam="2">  1       21 0.96892103E-01 0.17394423E+03</pdfrwt>
<totfact> 0.11924108E+05</totfact>
</mgrwt>
</event>
<event>
 4    1  0.4531281E+000  0.1859953E+03  0.7546771E-02  0.1162124E+00
         21   -1    0    0  501  502  0.00000000000E+00  0.00000000000E+00  0.72179155181E+02  0.72179155181E+02  0.00000000000E+00 0.  1.
         21   -1    0    0  502  503 -0.00000000000E+00 -0.00000000000E+00 -0.49524107122E+03  0.49524107122E+03  0.00000000000E+00 0.  1.
          6    1    1    2  501    0  0.33731358659E+02  0.59392468201E+02 -0.16060356469E+03  0.24573924153E+03  0.17300000000E+03 0.  1.
         -6    1    1    2    0  503 -0.33731358659E+02 -0.59392468201E+02 -0.26245835134E+03  0.32168098487E+03  0.17300000000E+03 0.  1.
<mgrwt>
<rscale>  2 0.18599535E+03</rscale>
<asrwt>0</asrwt>
<pdfrwt beam="1">  1       21 0.11104485E-01 0.18599535E+03</pdfrwt>
<pdfrwt beam="2">  1       21 0.76190935E-01 0.18599535E+03</pdfrwt>
<totfact> 0.10370276E+05</totfact>
</mgrwt>
</event>
<event>
 4    1  0.4531281E+000  0.2024865E+03  0.7546771E-02  0.1147658E+00
         21   -1    0    0  503  502  0.00000000000E+00  0.00000000000E+00  0.11058461037E+03  0.11058461037E+03  0.00000000000E+00 0.  1.
         21   -1    0    0  501  503 -0.00000000000E+00 -0.00000000000E+00 -0.63575003929E+03  0.63575003929E+03  0.00000000000E+00 0.  1.
          6    1    1    2  501    0  0.71037367792E+00  0.10522023337E+03 -0.50350214982E+03  0.54269256215E+03  0.17300000000E+03 0.  1.
         -6    1    1    2    0  502 -0.71037367792E+00 -0.10522023337E+03 -0.21663279102E+02  0.20364208750E+03  0.17300000000E+03 0.  1.
<mgrwt>
<rscale>  2 0.20248655E+03</rscale>
<asrwt>0</asrwt>
<pdfrwt beam="1">  1       21 0.17013017E-01 0.20248655E+03</pdfrwt>
<pdfrwt beam="2">  1       21 0.97807698E-01 0.20248655E+03</pdfrwt>
<totfact> 0.26795804E+04</totfact>
</mgrwt>
</event>
<event>
 4    1  0.4531281E+000  0.1731913E+03  0.7546771E-02  0.1174560E+00
         21   -1    0    0  503  502  0.00000000000E+00  0.00000000000E+00  0.63714198967E+03  0.63714198967E+03  0.00000000000E+00 0.  1.
         21   -1    0    0  501  503 -0.00000000000E+00 -0.00000000000E+00 -0.15895172363E+03  0.15895172363E+03  0.00000000000E+00 0.  1.
          6    1    1    2  501    0 -0.12395473794E+01  0.80431922063E+01 -0.94843030658E+02  0.19745994501E+03  0.17300000000E+03 0.  1.
         -6    1    1    2    0  502  0.12395473794E+01 -0.80431922063E+01  0.57303329669E+03  0.59863376829E+03  0.17300000000E+03 0.  1.
<mgrwt>
<rscale>  2 0.17319131E+03</rscale>
<asrwt>0</asrwt>
<pdfrwt beam="1">  1       21 0.98021843E-01 0.17319131E+03</pdfrwt>
<pdfrwt beam="2">  1       21 0.24454112E-01 0.17319131E+03</pdfrwt>
<totfact> 0.13777203E+04</totfact>
</mgrwt>
</event>
<event>
 4    1  0.4531281E+000  0.1991860E+03  0.7546771E-02  0.1150428E+00
         21   -1    0    0  501  502  0.00000000000E+00  0.00000000000E+00  0.15950203262E+03  0.15950203262E+03  0.00000000000E+00 0. -1.
         21   -1    0    0  502  503 -0.00000000000E+00 -0.00000000000E+00 -0.27816064924E+03  0.27816064924E+03  0.00000000000E+00 0. -1.
          6    1    1    2  501    0  0.53751668945E+02  0.82805958618E+02  0.11835147362E+02  0.19953731333E+03  0.17300000000E+03 0. -1.
         -6    1    1    2    0  503 -0.53751668945E+02 -0.82805958618E+02 -0.13049376398E+03  0.23812536852E+03  0.17300000000E+03 0. -1.
<mgrwt>
<rscale>  2 0.19918602E+03</rscale>
<asrwt>0</asrwt>
<pdfrwt beam="1">  1       21 0.24538775E-01 0.19918602E+03</pdfrwt>
<pdfrwt beam="2">  1       21 0.42793945E-01 0.19918602E+03</pdfrwt>
<totfact> 0.82198296E+04</totfact>
</mgrwt>
</event>
<event>
 4    1  0.4531281E+000  0.1926353E+03  0.7546771E-02  0.1156106E+00
         21   -1    0    0  501  502  0.00000000000E+00  0.00000000000E+00  0.33027658358E+03  0.33027658358E+03  0.00000000000E+00 0. -1.
         21   -1    0    0  502  503 -0.00000000000E+00 -0.00000000000E+00 -0.23078099825E+03  0.23078099825E+03  0.00000000000E+00 0.  1.
          6    1    1    2  501    0  0.59211249899E+02 -0.60608475224E+02  0.25070343296E+03  0.31616541665E+03  0.17300000000E+03 0. -1.
         -6    1    1    2    0  503 -0.59211249899E+02  0.60608475224E+02 -0.15120784764E+03  0.24489216519E+03  0.17300000000E+03 0.  1.
<mgrwt>
<rscale>  2 0.19263530E+03</rscale>
<asrwt>0</asrwt>
<pdfrwt beam="1">  1       21 0.50811782E-01 0.19263530E+03</pdfrwt>
<pdfrwt beam="2">  1       21 0.35504769E-01 0.19263530E+03</pdfrwt>
<totfact> 0.28183231E+04</totfact>
</mgrwt>
</event>
<event>
 4    1  0.4531281E+000  0.2140094E+03  0.7546771E-02  0.1138430E+00
         21   -1    0    0  501  502  0.00000000000E+00  0.00000000000E+00  0.34491383764E+03  0.34491383764E+03  0.00000000000E+00 0.  1.
         21   -1    0    0  502  503 -0.00000000000E+00 -0.00000000000E+00 -0.34606540508E+03  0.34606540508E+03  0.00000000000E+00 0.  1.
          6    1    1    2  501    0 -0.11869355441E+03 -0.42224216875E+02  0.27064904352E+03  0.34503760535E+03  0.17300000000E+03 0.  1.
         -6    1    1    2    0  503  0.11869355441E+03  0.42224216875E+02 -0.27180061096E+03  0.34594163737E+03  0.17300000000E+03 0.  1.
<mgrwt>
<rscale>  2 0.21400945E+03</rscale>
<asrwt>0</asrwt>
<pdfrwt beam="1">  1       21 0.53063667E-01 0.21400945E+03</pdfrwt>
<pdfrwt beam="2">  1       21 0.53240832E-01 0.21400945E+03</pdfrwt>
<totfact> 0.11080848E+04</totfact>
</mgrwt>
</event>
<event>
 4    1  0.4531281E+000  0.2024386E+03  0.7546771E-02  0.1147698E+00
         21   -1    0    0  503  502  0.00000000000E+00  0.00000000000E+00  0.59444728663E+02  0.59444728663E+02  0.00000000000E+00 0.  1.
         21   -1    0    0  501  503 -0.00000000000E+00 -0.00000000000E+00 -0.71573166074E+03  0.71573166074E+03  0.00000000000E+00 0. -1.
          6    1    1    2  501    0 -0.10498607164E+03  0.55049734558E+01 -0.40248114893E+03  0.45052464441E+03  0.17300000000E+03 0. -1.
         -6    1    1    2    0  502  0.10498607164E+03 -0.55049734558E+01 -0.25380578315E+03  0.32465174500E+03  0.17300000000E+03 0.  1.
<mgrwt>
<rscale>  2 0.20243858E+03</rscale>
<asrwt>0</asrwt>
<pdfrwt beam="1">  1       21 0.91453430E-02 0.20243858E+03</pdfrwt>
<pdfrwt beam="2">  1       21 0.11011256E+00 0.20243858E+03</pdfrwt>
<totfact> 0.61573523E+04</totfact>
</mgrwt>
</event>
<event>
 4    1  0.4531281E+000  0.1822046E+03  0.7546771E-02  0.1165686E+00
         21   -1    0    0  503  502  0.00000000000E+00  0.00000000000E+00  0.44706320983E+02  0.44706320983E+02  0.00000000000E+00 0.  1.
         21   -1    0    0  501  503 -0.00000000000E+00 -0.00000000000E+00 -0.80570759064E+03  0.80570759064E+03  0.00000000000E+00 0.  1.
          6    1    1    2  501    0 -0.37515686786E+02  0.43151984305E+02 -0.49951043164E+03  0.53170404533E+03  0.17300000000E+03 0.  1.
         -6    1    1    2    0  502  0.37515686786E+02 -0.43151984305E+02 -0.26149083802E+03  0.31870986629E+03  0.17300000000E+03 0.  1.
<mgrwt>
<rscale>  2 0.18220461E+03</rscale>
<asrwt>0</asrwt>
<pdfrwt beam="1">  1       21 0.68778957E-02 0.18220461E+03</pdfrwt>
<pdfrwt beam="2">  1       21 0.12395501E+00 0.18220461E+03</pdfrwt>
<totfact> 0.76335169E+04</totfact>
</mgrwt>
</event>
<event>
 4    1  0.4531281E+000  0.1734196E+03  0.7546771E-02  0.1174328E+00
         21   -1    0    0  501  502  0.00000000000E+00  0.00000000000E+00  0.43907739312E+03  0.43907739312E+03  0.00000000000E+00 0.  1.
         21   -1    0    0  502  503 -0.00000000000E+00 -0.00000000000E+00 -0.90371955099E+02  0.90371955099E+02  0.00000000000E+00 0.  1.
          6    1    1    2  501    0 -0.11017082812E+02  0.48960240543E+01  0.30460246146E+03  0.35050963852E+03  0.17300000000E+03 0. -1.
         -6    1    1    2    0  503  0.11017082812E+02 -0.48960240543E+01  0.44102976554E+02  0.17893970970E+03  0.17300000000E+03 0. -1.
<mgrwt>
<rscale>  2 0.17341957E+03</rscale>
<asrwt>0</asrwt>
<pdfrwt beam="1">  1       21 0.67550367E-01 0.17341957E+03</pdfrwt>
<pdfrwt beam="2">  1       21 0.13903378E-01 0.17341957E+03</pdfrwt>
<totfact> 0.90926284E+04</totfact>
</mgrwt>
</event>
<event>
 4    1  0.4531281E+000  0.1798698E+03  0.7546771E-02  0.1167929E+00
         21   -1    0    0  501  502  0.00000000000E+00  0.00000000000E+00  0.11289247262E+03  0.11289247262E+03  0.00000000000E+00 0. -1.
         21   -1    0    0  502  503 -0.00000000000E+00 -0.00000000000E+00 -0.45713860488E+03  0.45713860488E+03  0.00000000000E+00 0.  1.
          6    1    1    2  501    0 -0.42387833977E+02  0.25048114199E+02  0.19681115726E+01  0.17988054358E+03  0.17300000000E+03 0. -1.
         -6    1    1    2    0  503  0.42387833977E+02 -0.25048114199E+02 -0.34621424383E+03  0.39015053393E+03  0.17300000000E+03 0.  1.
<mgrwt>
<rscale>  2 0.17986978E+03</rscale>
<asrwt>0</asrwt>
<pdfrwt beam="1">  1       21 0.17368073E-01 0.17986978E+03</pdfrwt>
<pdfrwt beam="2">  1       21 0.70329016E-01 0.17986978E+03</pdfrwt>
<totfact> 0.55325952E+04</totfact>
</mgrwt>
</event>
<event>
 4    1  0.4531281E+000  0.2046622E+03  0.7546771E-02  0.1145864E+00
         21   -1    0    0  503  502  0.00000000000E+00  0.00000000000E+00  0.36449389967E+03  0.36449389967E+03  0.00000000000E+00 0. -1.
         21   -1    0    0  501  503 -0.00000000000E+00 -0.00000000000E+00 -0.26136629598E+03  0.26136629598E+03  0.00000000000E+00 0. -1.
          6    1    1    2  501    0 -0.10616315504E+03 -0.26210433254E+02 -0.18267883986E+03  0.27433220889E+03  0.17300000000E+03 0. -1.
         -6    1    1    2    0  502  0.10616315504E+03  0.26210433254E+02  0.28580644355E+03  0.35152798676E+03  0.17300000000E+03 0. -1.
<mgrwt>
<rscale>  2 0.20466217E+03</rscale>
<asrwt>0</asrwt>
<pdfrwt beam="1">  1       21 0.56075985E-01 0.20466217E+03</pdfrwt>
<pdfrwt beam="2">  1       21 0.40210199E-01 0.20466217E+03</pdfrwt>
<totfact> 0.17711363E+04</totfact>
</mgrwt>
</event>
<event>
 4    1  0.4531281E+000  0.1895360E+03  0.7546771E-02  0.1158880E+00
         21   -1    0    0  503  502  0.00000000000E+00  0.00000000000E+00  0.28001823484E+02  0.28001823484E+02  0.00000000000E+00 0.  1.
         21   -1    0    0  501  503 -0.00000000000E+00 -0.00000000000E+00 -0.12926360564E+04  0.12926360564E+04  0.00000000000E+00 0.  1.
          6    1    1    2  501    0  0.54566694471E+02  0.54930629245E+02 -0.57504790964E+03  0.60547832047E+03  0.17300000000E+03 0.  1.
         -6    1    1    2    0  502 -0.54566694471E+02 -0.54930629245E+02 -0.68958632325E+03  0.71515955939E+03  0.17300000000E+03 0.  1.
<mgrwt>
<rscale>  2 0.18953601E+03</rscale>
<asrwt>0</asrwt>
<pdfrwt beam="1">  1       21 0.43079731E-02 0.18953601E+03</pdfrwt>
<pdfrwt beam="2">  1       21 0.19886708E+00 0.18953601E+03</pdfrwt>
<totfact> 0.47333430E+04</totfact>
</mgrwt>
</event>
<event>
 4    1  0.4531281E+000  0.1979594E+03  0.7546771E-02  0.1151472E+00
         21   -1    0    0  501  502  0.00000000000E+00  0.00000000000E+00  0.14838337644E+03  0.14838337644E+03  0.00000000000E+00 0. -1.
         21   -1    0    0  502  503 -0.00000000000E+00 -0.00000000000E+00 -0.44724918720E+03  0.44724918720E+03  0.00000000000E+00 0. -1.
          6    1    1    2  501    0 -0.37286102170E+02  0.88705515274E+02  0.41147030602E+02  0.20219050418E+03  0.17300000000E+03 0. -1.
         -6    1    1    2    0  503  0.37286102170E+02 -0.88705515274E+02 -0.34001284136E+03  0.39344205945E+03  0.17300000000E+03 0. -1.
<mgrwt>
<rscale>  2 0.19795939E+03</rscale>
<asrwt>0</asrwt>
<pdfrwt beam="1">  1       21 0.22828212E-01 0.19795939E+03</pdfrwt>
<pdfrwt beam="2">  1       21 0.68807568E-01 0.19795939E+03</pdfrwt>
<totfact> 0.34543344E+04</totfact>
</mgrwt>
</event>
<event>
 4    1  0.4531281E+000  0.1826876E+03  0.7546771E-02  0.1165227E+00
         21   -1    0    0  501  502  0.00000000000E+00  0.00000000000E+00  0.38018495263E+02  0.38018495263E+02  0.00000000000E+00 0.  1.
         21   -1    0    0  502  503 -0.00000000000E+00 -0.00000000000E+00 -0.10799135932E+04  0.10799135932E+04  0.00000000000E+00 0.  1.
          6    1    1    2  501    0 -0.58700487856E+02 -0.50554883978E-01 -0.27916279309E+03  0.33362646009E+03  0.17300000000E+03 0.  1.
         -6    1    1    2    0  503  0.58700487856E+02  0.50554883978E-01 -0.76273230483E+03  0.78430562835E+03  0.17300000000E+03 0.  1.
<mgrwt>
<rscale>  2 0.18268757E+03</rscale>
<asrwt>0</asrwt>
<pdfrwt beam="1">  1       21 0.58489998E-02 0.18268757E+03</pdfrwt>
<pdfrwt beam="2">  1       21 0.16614054E+00 0.18268757E+03</pdfrwt>
<totfact> 0.47082345E+04</totfact>
</mgrwt>
</event>
<event>
 4    1  0.4531281E+000  0.1939578E+03  0.7546771E-02  0.1154939E+00
         21   -1    0    0  501  502  0.00000000000E+00  0.00000000000E+00  0.67623896076E+02  0.67623896076E+02  0.00000000000E+00 0.  1.
         21   -1    0    0  502  503 -0.00000000000E+00 -0.00000000000E+00 -0.58877298363E+03  0.58877298363E+03  0.00000000000E+00 0.  1.
          6    1    1    2  501    0 -0.86123729268E+02  0.16532410140E+02 -0.18350553587E+03  0.26700917404E+03  0.17300000000E+03 0.  1.
         -6    1    1    2    0  503  0.86123729268E+02 -0.16532410140E+02 -0.33764355168E+03  0.38938770566E+03  0.17300000000E+03 0.  1.
<mgrwt>
<rscale>  2 0.19395777E+03</rscale>
<asrwt>0</asrwt>
<pdfrwt beam="1">  1       21 0.10403676E-01 0.19395777E+03</pdfrwt>
<pdfrwt beam="2">  1       21 0.90580462E-01 0.19395777E+03</pdfrwt>
<totfact> 0.78269249E+04</totfact>
</mgrwt>
</event>
<event>
 4    1  0.4531281E+000  0.1738254E+03  0.7546771E-02  0.1173916E+00
         21   -1    0    0  501  502  0.00000000000E+00  0.00000000000E+00  0.14942256259E+03  0.14942256259E+03  0.00000000000E+00 0. -1.
         21   -1    0    0  502  503 -0.00000000000E+00 -0.00000000000E+00 -0.22604684093E+03  0.22604684093E+03  0.00000000000E+00 0. -1.
          6    1    1    2  501    0 -0.16561185498E+02 -0.34628166214E+01  0.22646816482E+02  0.17529444447E+03  0.17300000000E+03 0. -1.
         -6    1    1    2    0  503  0.16561185498E+02  0.34628166214E+01 -0.99271094828E+02  0.20017495905E+03  0.17300000000E+03 0. -1.
<mgrwt>
<rscale>  2 0.17382538E+03</rscale>
<asrwt>0</asrwt>
<pdfrwt beam="1">  1       21 0.22988087E-01 0.17382538E+03</pdfrwt>
<pdfrwt beam="2">  1       21 0.34776437E-01 0.17382538E+03</pdfrwt>
<totfact> 0.14248332E+05</totfact>
</mgrwt>
</event>
<event>
 4    1  0.4531281E+000  0.1816783E+03  0.7546771E-02  0.1166189E+00
         21   -1    0    0  501  502  0.00000000000E+00  0.00000000000E+00  0.57189101243E+03  0.57189101243E+03  0.00000000000E+00 0.  1.
         21   -1    0    0  502  503 -0.00000000000E+00 -0.00000000000E+00 -0.62816553539E+02  0.62816553539E+02  0.00000000000E+00 0.  1.
          6    1    1    2  501    0 -0.46397135554E+02 -0.30418886095E+02  0.34497181476E+03  0.38988787593E+03  0.17300000000E+03 0.  1.
         -6    1    1    2    0  503  0.46397135554E+02  0.30418886095E+02  0.16410264413E+03  0.24481969003E+03  0.17300000000E+03 0.  1.
<mgrwt>
<rscale>  2 0.18167829E+03</rscale>
<asrwt>0</asrwt>
<pdfrwt beam="1">  1       21 0.87983229E-01 0.18167829E+03</pdfrwt>
<pdfrwt beam="2">  1       21 0.96640856E-02 0.18167829E+03</pdfrwt>
<totfact> 0.95837267E+04</totfact>
</mgrwt>
</event>
<event>
 4    1  0.4531281E+000  0.1970220E+03  0.7546771E-02  0.1152276E+00
         21   -1    0    0  503  502  0.00000000000E+00  0.00000000000E+00  0.70888247351E+02  0.70888247351E+02  0.00000000000E+00 0.  1.
         21   -1    0    0  501  503 -0.00000000000E+00 -0.00000000000E+00 -0.60756554186E+03  0.60756554186E+03  0.00000000000E+00 0.  1.
          6    1    1    2  501    0  0.55274710714E+02 -0.76376497895E+02 -0.37492029957E+03  0.42353617804E+03  0.17300000000E+03 0.  1.
         -6    1    1    2    0  502 -0.55274710714E+02  0.76376497895E+02 -0.16175699493E+03  0.25491761117E+03  0.17300000000E+03 0.  1.
<mgrwt>
<rscale>  2 0.19702199E+03</rscale>
<asrwt>0</asrwt>
<pdfrwt beam="1">  1       21 0.10905884E-01 0.19702199E+03</pdfrwt>
<pdfrwt beam="2">  1       21 0.93471626E-01 0.19702199E+03</pdfrwt>
<totfact> 0.66815477E+04</totfact>
</mgrwt>
</event>
<event>
 4    1  0.4531281E+000  0.2922867E+03  0.7546771E-02  0.1089161E+00
         21   -1    0    0  501  502  0.00000000000E+00  0.00000000000E+00  0.53917681566E+03  0.53917681566E+03  0.00000000000E+00 0. -1.
         21   -1    0    0  502  503 -0.00000000000E+00 -0.00000000000E+00 -0.16064235152E+03  0.16064235152E+03  0.00000000000E+00 0.  1.
          6    1    1    2  501    0 -0.50359130237E+02  0.23014443906E+03  0.14837170233E+03  0.32778905851E+03  0.17300000000E+03 0. -1.
         -6    1    1    2    0  503  0.50359130237E+02 -0.23014443906E+03  0.23016276181E+03  0.37203010866E+03  0.17300000000E+03 0.  1.
<mgrwt>
<rscale>  2 0.29228668E+03</rscale>
<asrwt>0</asrwt>
<pdfrwt beam="1">  1       21 0.82950279E-01 0.29228668E+03</pdfrwt>
<pdfrwt beam="2">  1       21 0.24714208E-01 0.29228668E+03</pdfrwt>
<totfact> 0.18633370E+04</totfact>
</mgrwt>
</event>
<event>
 4    1  0.4531281E+000  0.1990442E+03  0.7546771E-02  0.1150548E+00
         21   -1    0    0  503  502  0.00000000000E+00  0.00000000000E+00  0.11863071643E+03  0.11863071643E+03  0.00000000000E+00 0. -1.
         21   -1    0    0  501  503 -0.00000000000E+00 -0.00000000000E+00 -0.51786939100E+03  0.51786939100E+03  0.00000000000E+00 0. -1.
          6    1    1    2  501    0  0.58416423552E+02 -0.79228217408E+02 -0.38926966609E+03  0.43720642940E+03  0.17300000000E+03 0. -1.
         -6    1    1    2    0  502 -0.58416423552E+02  0.79228217408E+02 -0.99690084869E+01  0.19929367803E+03  0.17300000000E+03 0. -1.
<mgrwt>
<rscale>  2 0.19904419E+03</rscale>
<asrwt>0</asrwt>
<pdfrwt beam="1">  1       21 0.18250880E-01 0.19904419E+03</pdfrwt>
<pdfrwt beam="2">  1       21 0.79672213E-01 0.19904419E+03</pdfrwt>
<totfact> 0.37859420E+04</totfact>
</mgrwt>
</event>
<event>
 4    1  0.4531281E+000  0.1914849E+03  0.7546771E-02  0.1157129E+00
         21   -1    0    0  503  502  0.00000000000E+00  0.00000000000E+00  0.10461408222E+03  0.10461408222E+03  0.00000000000E+00 0.  1.
         21   -1    0    0  501  503 -0.00000000000E+00 -0.00000000000E+00 -0.40980011499E+03  0.40980011499E+03  0.00000000000E+00 0. -1.
          6    1    1    2  501    0 -0.80853476495E+02  0.14148540582E+02 -0.54745089319E+02  0.19915694983E+03  0.17300000000E+03 0.  1.
         -6    1    1    2    0  502  0.80853476495E+02 -0.14148540582E+02 -0.25044094345E+03  0.31525724737E+03  0.17300000000E+03 0. -1.
<mgrwt>
<rscale>  2 0.19148490E+03</rscale>
<asrwt>0</asrwt>
<pdfrwt beam="1">  1       21 0.16094474E-01 0.19148490E+03</pdfrwt>
<pdfrwt beam="2">  1       21 0.63046171E-01 0.19148490E+03</pdfrwt>
<totfact> 0.80371750E+04</totfact>
</mgrwt>
</event>
<event>
 4    1  0.4531281E+000  0.1757054E+03  0.7546771E-02  0.1172025E+00
         21   -1    0    0  503  502  0.00000000000E+00  0.00000000000E+00  0.29492477689E+02  0.29492477689E+02  0.00000000000E+00 0. -1.
         21   -1    0    0  501  503 -0.00000000000E+00 -0.00000000000E+00 -0.14294000378E+04  0.14294000378E+04  0.00000000000E+00 0.  1.
          6    1    1    2  501    0 -0.28315534536E+02  0.11900722835E+02 -0.10773479966E+04  0.10915819266E+04  0.17300000000E+03 0.  1.
         -6    1    1    2    0  502  0.28315534536E+02 -0.11900722835E+02 -0.32255956354E+03  0.36731058891E+03  0.17300000000E+03 0. -1.
<mgrwt>
<rscale>  2 0.17570543E+03</rscale>
<asrwt>0</asrwt>
<pdfrwt beam="1">  1       21 0.45373046E-02 0.17570543E+03</pdfrwt>
<pdfrwt beam="2">  1       21 0.21990768E+00 0.17570543E+03</pdfrwt>
<totfact> 0.32348554E+04</totfact>
</mgrwt>
</event>
<event>
 4    1  0.4531281E+000  0.1745843E+03  0.7546771E-02  0.1173150E+00
         21   -1    0    0  501  502  0.00000000000E+00  0.00000000000E+00  0.59021018355E+03  0.59021018355E+03  0.00000000000E+00 0. -1.
         21   -1    0    0  502  503 -0.00000000000E+00 -0.00000000000E+00 -0.55105238874E+02  0.55105238874E+02  0.00000000000E+00 0.  1.
          6    1    1    2  501    0 -0.88212164814E+01  0.21745205744E+02  0.34844031740E+03  0.38973109014E+03  0.17300000000E+03 0. -1.
         -6    1    1    2    0  503  0.88212164814E+01 -0.21745205744E+02  0.18666462728E+03  0.25558433229E+03  0.17300000000E+03 0.  1.
<mgrwt>
<rscale>  2 0.17458427E+03</rscale>
<asrwt>0</asrwt>
<pdfrwt beam="1">  1       21 0.90801562E-01 0.17458427E+03</pdfrwt>
<pdfrwt beam="2">  1       21 0.84777295E-02 0.17458427E+03</pdfrwt>
<totfact> 0.11242107E+05</totfact>
</mgrwt>
</event>
<event>
 4    1  0.4531281E+000  0.2102390E+03  0.7546771E-02  0.1141377E+00
         21   -1    0    0  501  502  0.00000000000E+00  0.00000000000E+00  0.16835699829E+04  0.16835699829E+04  0.00000000000E+00 0.  1.
         21   -1    0    0  502  503 -0.00000000000E+00 -0.00000000000E+00 -0.45477084368E+02  0.45477084368E+02  0.00000000000E+00 0. -1.
          6    1    1    2  501    0 -0.14760257032E+02 -0.11854775373E+03  0.13811186738E+04  0.13970287134E+04  0.17300000000E+03 0.  1.
         -6    1    1    2    0  503  0.14760257032E+02  0.11854775373E+03  0.25697422481E+03  0.33201835389E+03  0.17300000000E+03 0. -1.
<mgrwt>
<rscale>  2 0.21023900E+03</rscale>
<asrwt>0</asrwt>
<pdfrwt beam="1">  1       21 0.25901072E+00 0.21023900E+03</pdfrwt>
<pdfrwt beam="2">  1       21 0.69964758E-02 0.21023900E+03</pdfrwt>
<totfact> 0.87654453E+03</totfact>
</mgrwt>
</event>
<event>
 4    1  0.4531281E+000  0.4074103E+03  0.7546771E-02  0.1041244E+00
         21   -1    0    0  503  502  0.00000000000E+00  0.00000000000E+00  0.66141077836E+03  0.66141077836E+03  0.00000000000E+00 0.  1.
         21   -1    0    0  501  503 -0.00000000000E+00 -0.00000000000E+00 -0.26956837172E+03  0.26956837172E+03  0.00000000000E+00 0. -1.
          6    1    1    2  501    0 -0.29759428215E+03 -0.21792606276E+03  0.73597824443E+02  0.41400454751E+03  0.17300000000E+03 0. -1.
         -6    1    1    2    0  502  0.29759428215E+03  0.21792606276E+03  0.31824458220E+03  0.51697460256E+03  0.17300000000E+03 0. -1.
<mgrwt>
<rscale>  2 0.40741027E+03</rscale>
<asrwt>0</asrwt>
<pdfrwt beam="1">  1       21 0.10175550E+00 0.40741027E+03</pdfrwt>
<pdfrwt beam="2">  1       21 0.41472057E-01 0.40741027E+03</pdfrwt>
<totfact> 0.39120088E+03</totfact>
</mgrwt>
</event>
<event>
 4    1  0.4531281E+000  0.1888766E+03  0.7546771E-02  0.1159478E+00
         21   -1    0    0  501  502  0.00000000000E+00  0.00000000000E+00  0.73481839791E+03  0.73481839791E+03  0.00000000000E+00 0.  1.
         21   -1    0    0  502  503 -0.00000000000E+00 -0.00000000000E+00 -0.50092381183E+02  0.50092381183E+02  0.00000000000E+00 0.  1.
          6    1    1    2  501    0 -0.59926178821E+02  0.46413537803E+02  0.41126078270E+03  0.45255916165E+03  0.17300000000E+03 0.  1.
         -6    1    1    2    0  503  0.59926178821E+02 -0.46413537803E+02  0.27346523402E+03  0.33235161744E+03  0.17300000000E+03 0.  1.
<mgrwt>
<rscale>  2 0.18887658E+03</rscale>
<asrwt>0</asrwt>
<pdfrwt beam="1">  1       21 0.11304898E+00 0.18887658E+03</pdfrwt>
<pdfrwt beam="2">  1       21 0.77065207E-02 0.18887658E+03</pdfrwt>
<totfact> 0.78404748E+04</totfact>
</mgrwt>
</event>
<event>
 4    1  0.4531281E+000  0.2682274E+03  0.7546771E-02  0.1102298E+00
         21   -1    0    0  501  502  0.00000000000E+00  0.00000000000E+00  0.35666106865E+03  0.35666106865E+03  0.00000000000E+00 0.  1.
         21   -1    0    0  502  503 -0.00000000000E+00 -0.00000000000E+00 -0.20177729331E+03  0.20177729331E+03  0.00000000000E+00 0. -1.
          6    1    1    2  501    0  0.16786057962E+03 -0.11764254486E+03  0.72768266392E+02  0.27792294462E+03  0.17300000000E+03 0. -1.
         -6    1    1    2    0  503 -0.16786057962E+03  0.11764254486E+03  0.82115508947E+02  0.28051541733E+03  0.17300000000E+03 0.  1.
<mgrwt>
<rscale>  2 0.26822741E+03</rscale>
<asrwt>0</asrwt>
<pdfrwt beam="1">  1       21 0.54870934E-01 0.26822741E+03</pdfrwt>
<pdfrwt beam="2">  1       21 0.31042660E-01 0.26822741E+03</pdfrwt>
<totfact> 0.30130206E+04</totfact>
</mgrwt>
</event>
<event>
 4    1  0.4531281E+000  0.2120318E+03  0.7546771E-02  0.1139967E+00
         21   -1    0    0  501  502  0.00000000000E+00  0.00000000000E+00  0.12441795034E+04  0.12441795034E+04  0.00000000000E+00 0.  1.
         21   -1    0    0  502  503 -0.00000000000E+00 -0.00000000000E+00 -0.70057387172E+02  0.70057387172E+02  0.00000000000E+00 0.  1.
          6    1    1    2  501    0 -0.55816690824E+02  0.10914669572E+03  0.10443225594E+04  0.10656299134E+04  0.17300000000E+03 0.  1.
         -6    1    1    2    0  503  0.55816690824E+02 -0.10914669572E+03  0.12979955679E+03  0.24860697718E+03  0.17300000000E+03 0.  1.
<mgrwt>
<rscale>  2 0.21203185E+03</rscale>
<asrwt>0</asrwt>
<pdfrwt beam="1">  1       21 0.19141222E+00 0.21203185E+03</pdfrwt>
<pdfrwt beam="2">  1       21 0.10778060E-01 0.21203185E+03</pdfrwt>
<totfact> 0.10682233E+04</totfact>
</mgrwt>
</event>
<event>
 4    1  0.4531281E+000  0.1754618E+03  0.7546771E-02  0.1172269E+00
         21   -1    0    0  503  502  0.00000000000E+00  0.00000000000E+00  0.56771347229E+02  0.56771347229E+02  0.00000000000E+00 0. -1.
         21   -1    0    0  501  503 -0.00000000000E+00 -0.00000000000E+00 -0.57131996724E+03  0.57131996724E+03  0.00000000000E+00 0. -1.
          6    1    1    2  501    0  0.23336981340E+02  0.17698495426E+02 -0.32805821529E+03  0.37203365985E+03  0.17300000000E+03 0. -1.
         -6    1    1    2    0  502 -0.23336981340E+02 -0.17698495426E+02 -0.18649040472E+03  0.25605765462E+03  0.17300000000E+03 0. -1.
<mgrwt>
<rscale>  2 0.17546182E+03</rscale>
<asrwt>0</asrwt>
<pdfrwt beam="1">  1       21 0.87340528E-02 0.17546182E+03</pdfrwt>
<pdfrwt beam="2">  1       21 0.87895386E-01 0.17546182E+03</pdfrwt>
<totfact> 0.11499520E+05</totfact>
</mgrwt>
</event>
<event>
 4    1  0.4531281E+000  0.1992191E+03  0.7546771E-02  0.1150400E+00
         21   -1    0    0  501  502  0.00000000000E+00  0.00000000000E+00  0.13115760738E+02  0.13115760738E+02  0.00000000000E+00 0.  1.
         21   -1    0    0  502  503 -0.00000000000E+00 -0.00000000000E+00 -0.31856315704E+04  0.31856315704E+04  0.00000000000E+00 0.  1.
          6    1    1    2  501    0 -0.12451168775E+02 -0.98001130752E+02 -0.12282310687E+04  0.12442828503E+04  0.17300000000E+03 0.  1.
         -6    1    1    2    0  503  0.12451168775E+02  0.98001130752E+02 -0.19442847410E+04  0.19544644809E+04  0.17300000000E+03 0.  1.
<mgrwt>
<rscale>  2 0.19921911E+03</rscale>
<asrwt>0</asrwt>
<pdfrwt beam="1">  1       21 0.20178064E-02 0.19921911E+03</pdfrwt>
<pdfrwt beam="2">  1       21 0.49009788E+00 0.19921911E+03</pdfrwt>
<totfact> 0.26691633E+03</totfact>
</mgrwt>
</event>
<event>
 4    1  0.4531281E+000  0.2840315E+03  0.7546771E-02  0.1093507E+00
         21   -1    0    0  501  502  0.00000000000E+00  0.00000000000E+00  0.15461006041E+03  0.15461006041E+03  0.00000000000E+00 0.  1.
         21   -1    0    0  502  503 -0.00000000000E+00 -0.00000000000E+00 -0.61513925865E+03  0.61513925865E+03  0.00000000000E+00 0. -1.
          6    1    1    2  501    0 -0.21737561886E+03 -0.59099228578E+02 -0.80334229859E+02  0.29517362176E+03  0.17300000000E+03 0. -1.
         -6    1    1    2    0  503  0.21737561886E+03  0.59099228578E+02 -0.38019496838E+03  0.47457569731E+03  0.17300000000E+03 0.  1.
<mgrwt>
<rscale>  2 0.28403147E+03</rscale>
<asrwt>0</asrwt>
<pdfrwt beam="1">  1       21 0.23786163E-01 0.28403147E+03</pdfrwt>
<pdfrwt beam="2">  1       21 0.94636810E-01 0.28403147E+03</pdfrwt>
<totfact> 0.14798302E+04</totfact>
</mgrwt>
</event>
<event>
 4    1  0.4531281E+000  0.2209319E+03  0.7546771E-02  0.1133190E+00
         21   -1    0    0  503  502  0.00000000000E+00  0.00000000000E+00  0.10627585229E+03  0.10627585229E+03  0.00000000000E+00 0. -1.
         21   -1    0    0  501  503 -0.00000000000E+00 -0.00000000000E+00 -0.55450080678E+03  0.55450080678E+03  0.00000000000E+00 0. -1.
          6    1    1    2  501    0  0.13717060510E+03  0.81313221488E+01 -0.36102033656E+03  0.42325710474E+03  0.17300000000E+03 0. -1.
         -6    1    1    2    0  502 -0.13717060510E+03 -0.81313221488E+01 -0.87204617929E+02  0.23751955433E+03  0.17300000000E+03 0. -1.
<mgrwt>
<rscale>  2 0.22093187E+03</rscale>
<asrwt>0</asrwt>
<pdfrwt beam="1">  1       21 0.16350131E-01 0.22093187E+03</pdfrwt>
<pdfrwt beam="2">  1       21 0.85307816E-01 0.22093187E+03</pdfrwt>
<totfact> 0.39249920E+04</totfact>
</mgrwt>
</event>
<event>
 4    1  0.4531281E+000  0.1921196E+03  0.7546771E-02  0.1156563E+00
         21   -1    0    0  501  502  0.00000000000E+00  0.00000000000E+00  0.16547033754E+03  0.16547033754E+03  0.00000000000E+00 0.  1.
         21   -1    0    0  502  503 -0.00000000000E+00 -0.00000000000E+00 -0.35628892758E+03  0.35628892758E+03  0.00000000000E+00 0. -1.
          6    1    1    2  501    0  0.72860484855E+02  0.40893468788E+02  0.64118796095E+02  0.20253677704E+03  0.17300000000E+03 0.  1.
         -6    1    1    2    0  503 -0.72860484855E+02 -0.40893468788E+02 -0.25493738614E+03  0.31922248808E+03  0.17300000000E+03 0. -1.
<mgrwt>
<rscale>  2 0.19211956E+03</rscale>
<asrwt>0</asrwt>
<pdfrwt beam="1">  1       21 0.25456975E-01 0.19211956E+03</pdfrwt>
<pdfrwt beam="2">  1       21 0.54813681E-01 0.19211956E+03</pdfrwt>
<totfact> 0.45981131E+04</totfact>
</mgrwt>
</event>
<event>
 4    1  0.4531281E+000  0.2372339E+03  0.7546771E-02  0.1121649E+00
         21   -1    0    0  501  502  0.00000000000E+00  0.00000000000E+00  0.16500823984E+04  0.16500823984E+04  0.00000000000E+00 0. -1.
         21   -1    0    0  502  503 -0.00000000000E+00 -0.00000000000E+00 -0.94432199895E+02  0.94432199895E+02  0.00000000000E+00 0. -1.
          6    1    1    2  501    0 -0.82657715461E+02  0.13970915225E+03  0.14749854311E+04  0.14939417549E+04  0.17300000000E+03 0. -1.
         -6    1    1    2    0  503  0.82657715461E+02 -0.13970915225E+03  0.80664767449E+02  0.25057284341E+03  0.17300000000E+03 0. -1.
<mgrwt>
<rscale>  2 0.23723395E+03</rscale>
<asrwt>0</asrwt>
<pdfrwt beam="1">  1       21 0.25385881E+00 0.23723395E+03</pdfrwt>
<pdfrwt beam="2">  1       21 0.14528032E-01 0.23723395E+03</pdfrwt>
<totfact> 0.25058454E+03</totfact>
</mgrwt>
</event>
<event>
 4    1  0.4531281E+000  0.1821367E+03  0.7546771E-02  0.1165751E+00
         21   -1    0    0  501  502  0.00000000000E+00  0.00000000000E+00  0.13051712231E+03  0.13051712231E+03  0.00000000000E+00 0. -1.
         21   -1    0    0  502  503 -0.00000000000E+00 -0.00000000000E+00 -0.26476055834E+03  0.26476055834E+03  0.00000000000E+00 0. -1.
          6    1    1    2  501    0 -0.56231663836E+02  0.90991192885E+01 -0.10664606486E+03  0.21106202202E+03  0.17300000000E+03 0.  1.
         -6    1    1    2    0  503  0.56231663836E+02 -0.90991192885E+01 -0.27597371166E+02  0.18421565863E+03  0.17300000000E+03 0.  1.
<mgrwt>
<rscale>  2 0.18213675E+03</rscale>
<asrwt>0</asrwt>
<pdfrwt beam="1">  1       21 0.20079557E-01 0.18213675E+03</pdfrwt>
<pdfrwt beam="2">  1       21 0.40732393E-01 0.18213675E+03</pdfrwt>
<totfact> 0.13351175E+05</totfact>
</mgrwt>
</event>
<event>
 4    1  0.4531281E+000  0.2180905E+03  0.7546771E-02  0.1135315E+00
         21   -1    0    0  503  502  0.00000000000E+00  0.00000000000E+00  0.73898486478E+03  0.73898486478E+03  0.00000000000E+00 0.  1.
         21   -1    0    0  501  503 -0.00000000000E+00 -0.00000000000E+00 -0.10937878146E+03  0.10937878146E+03  0.00000000000E+00 0.  1.
          6    1    1    2  501    0  0.92371512033E+02  0.95404213280E+02  0.42679099662E+02  0.22222728387E+03  0.17300000000E+03 0.  1.
         -6    1    1    2    0  502 -0.92371512033E+02 -0.95404213280E+02  0.58692698365E+03  0.62613636237E+03  0.17300000000E+03 0.  1.
<mgrwt>
<rscale>  2 0.21809049E+03</rscale>
<asrwt>0</asrwt>
<pdfrwt beam="1">  1       21 0.11368998E+00 0.21809049E+03</pdfrwt>
<pdfrwt beam="2">  1       21 0.16827505E-01 0.21809049E+03</pdfrwt>
<totfact> 0.18862266E+04</totfact>
</mgrwt>
</event>
<event>
 4    1  0.4531281E+000  0.1953828E+03  0.7546771E-02  0.1153694E+00
         21   -1    0    0  503  502  0.00000000000E+00  0.00000000000E+00  0.89987817549E+03  0.89987817549E+03  0.00000000000E+00 0.  1.
         21   -1    0    0  501  503 -0.00000000000E+00 -0.00000000000E+00 -0.77443981500E+02  0.77443981500E+02  0.00000000000E+00 0. -1.
          6    1    1    2  501    0 -0.82802688000E+02  0.37271195050E+02  0.82603384833E+02  0.21212672228E+03  0.17300000000E+03 0. -1.
         -6    1    1    2    0  502  0.82802688000E+02 -0.37271195050E+02  0.73983080916E+03  0.76519543471E+03  0.17300000000E+03 0.  1.
<mgrwt>
<rscale>  2 0.19538277E+03</rscale>
<asrwt>0</asrwt>
<pdfrwt beam="1">  1       21 0.13844279E+00 0.19538277E+03</pdfrwt>
<pdfrwt beam="2">  1       21 0.11914459E-01 0.19538277E+03</pdfrwt>
<totfact> 0.21853132E+04</totfact>
</mgrwt>
</event>
<event>
 4    1  0.4531281E+000  0.1898807E+03  0.7546771E-02  0.1158569E+00
         21   -1    0    0  503  502  0.00000000000E+00  0.00000000000E+00  0.52219307066E+03  0.52219307066E+03  0.00000000000E+00 0.  1.
         21   -1    0    0  501  503 -0.00000000000E+00 -0.00000000000E+00 -0.76763870969E+02  0.76763870969E+02  0.00000000000E+00 0.  1.
          6    1    1    2  501    0  0.77824171135E+02  0.83124267719E+01  0.12774804917E+03  0.22885423771E+03  0.17300000000E+03 0.  1.
         -6    1    1    2    0  502 -0.77824171135E+02 -0.83124267719E+01  0.31768115052E+03  0.37010270392E+03  0.17300000000E+03 0.  1.
<mgrwt>
<rscale>  2 0.18988075E+03</rscale>
<asrwt>0</asrwt>
<pdfrwt beam="1">  1       21 0.80337393E-01 0.18988075E+03</pdfrwt>
<pdfrwt beam="2">  1       21 0.11809827E-01 0.18988075E+03</pdfrwt>
<totfact> 0.82357664E+04</totfact>
</mgrwt>
</event>
<event>
 4    1  0.4531281E+000  0.3069057E+03  0.7546771E-02  0.1081839E+00
         21   -1    0    0  503  502  0.00000000000E+00  0.00000000000E+00  0.48873992119E+03  0.48873992119E+03  0.00000000000E+00 0.  1.
         21   -1    0    0  501  503 -0.00000000000E+00 -0.00000000000E+00 -0.19394450926E+03  0.19394450926E+03  0.00000000000E+00 0. -1.
          6    1    1    2  501    0  0.57474164908E+02 -0.24689838263E+03  0.17449467262E+03  0.35304317264E+03  0.17300000000E+03 0.  1.
         -6    1    1    2    0  502 -0.57474164908E+02  0.24689838263E+03  0.12030073931E+03  0.32964125782E+03  0.17300000000E+03 0. -1.
<mgrwt>
<rscale>  2 0.30690567E+03</rscale>
<asrwt>0</asrwt>
<pdfrwt beam="1">  1       21 0.75190757E-01 0.30690567E+03</pdfrwt>
<pdfrwt beam="2">  1       21 0.29837617E-01 0.30690567E+03</pdfrwt>
<totfact> 0.16057672E+04</totfact>
</mgrwt>
</event>
<event>
 4    1  0.4531281E+000  0.2378811E+03  0.7546771E-02  0.1121212E+00
         21   -1    0    0  501  502  0.00000000000E+00  0.00000000000E+00  0.10644223012E+03  0.10644223012E+03  0.00000000000E+00 0. -1.
         21   -1    0    0  502  503 -0.00000000000E+00 -0.00000000000E+00 -0.54566011154E+03  0.54566011154E+03  0.00000000000E+00 0. -1.
          6    1    1    2  501    0  0.36527405288E+02  0.15913565187E+03 -0.16731824866E+03  0.29083122832E+03  0.17300000000E+03 0. -1.
         -6    1    1    2    0  503 -0.36527405288E+02 -0.15913565187E+03 -0.27189963277E+03  0.36127111334E+03  0.17300000000E+03 0. -1.
<mgrwt>
<rscale>  2 0.23788108E+03</rscale>
<asrwt>0</asrwt>
<pdfrwt beam="1">  1       21 0.16375728E-01 0.23788108E+03</pdfrwt>
<pdfrwt beam="2">  1       21 0.83947708E-01 0.23788108E+03</pdfrwt>
<totfact> 0.40288988E+04</totfact>
</mgrwt>
</event>
<event>
 4    1  0.4531281E+000  0.1832235E+03  0.7546771E-02  0.1164719E+00
         21   -1    0    0  501  502  0.00000000000E+00  0.00000000000E+00  0.15749892351E+03  0.15749892351E+03  0.00000000000E+00 0. -1.
         21   -1    0    0  502  503 -0.00000000000E+00 -0.00000000000E+00 -0.30556634897E+03  0.30556634897E+03  0.00000000000E+00 0. -1.
          6    1    1    2  501    0 -0.20814098301E+02  0.56644726020E+02  0.53297393520E+02  0.19081788132E+03  0.17300000000E+03 0. -1.
         -6    1    1    2    0  503  0.20814098301E+02 -0.56644726020E+02 -0.20136481898E+03  0.27224739116E+03  0.17300000000E+03 0. -1.
<mgrwt>
<rscale>  2 0.18322350E+03</rscale>
<asrwt>0</asrwt>
<pdfrwt beam="1">  1       21 0.24230604E-01 0.18322350E+03</pdfrwt>
<pdfrwt beam="2">  1       21 0.47010207E-01 0.18322350E+03</pdfrwt>
<totfact> 0.69901693E+04</totfact>
</mgrwt>
</event>
<event>
 4    1  0.4531281E+000  0.1785391E+03  0.7546771E-02  0.1169224E+00
         21   -1    0    0  503  502  0.00000000000E+00  0.00000000000E+00  0.71887902199E+02  0.71887902199E+02  0.00000000000E+00 0.  1.
         21   -1    0    0  501  503 -0.00000000000E+00 -0.00000000000E+00 -0.84126440272E+03  0.84126440272E+03  0.00000000000E+00 0.  1.
          6    1    1    2  501    0 -0.43402254607E+02 -0.79648954896E+01 -0.69867127047E+03  0.72112255508E+03  0.17300000000E+03 0.  1.
         -6    1    1    2    0  502  0.43402254607E+02  0.79648954896E+01 -0.70705230044E+02  0.19202974983E+03  0.17300000000E+03 0.  1.
<mgrwt>
<rscale>  2 0.17853906E+03</rscale>
<asrwt>0</asrwt>
<pdfrwt beam="1">  1       21 0.11059677E-01 0.17853906E+03</pdfrwt>
<pdfrwt beam="2">  1       21 0.12942530E+00 0.17853906E+03</pdfrwt>
<totfact> 0.29921547E+04</totfact>
</mgrwt>
</event>
<event>
 4    1  0.4531281E+000  0.1962420E+03  0.7546771E-02  0.1152949E+00
         21   -1    0    0  501  502  0.00000000000E+00  0.00000000000E+00  0.13695841608E+03  0.13695841608E+03  0.00000000000E+00 0. -1.
         21   -1    0    0  502  503 -0.00000000000E+00 -0.00000000000E+00 -0.55673203381E+03  0.55673203381E+03  0.00000000000E+00 0. -1.
          6    1    1    2  501    0  0.95753625246E+01 -0.92142538172E+02  0.34123883974E+02  0.19918678261E+03  0.17300000000E+03 0. -1.
         -6    1    1    2    0  503 -0.95753625246E+01  0.92142538172E+02 -0.45389750170E+03  0.49450366729E+03  0.17300000000E+03 0. -1.
<mgrwt>
<rscale>  2 0.19624203E+03</rscale>
<asrwt>0</asrwt>
<pdfrwt beam="1">  1       21 0.21070526E-01 0.19624203E+03</pdfrwt>
<pdfrwt beam="2">  1       21 0.85651082E-01 0.19624203E+03</pdfrwt>
<totfact> 0.24600593E+04</totfact>
</mgrwt>
</event>
<event>
 4    1  0.4531281E+000  0.2106696E+03  0.7546771E-02  0.1141037E+00
         21   -1    0    0  503  502  0.00000000000E+00  0.00000000000E+00  0.23886521687E+03  0.23886521687E+03  0.00000000000E+00 0.  1.
         21   -1    0    0  501  503 -0.00000000000E+00 -0.00000000000E+00 -0.19397738191E+03  0.19397738191E+03  0.00000000000E+00 0. -1.
          6    1    1    2  501    0  0.11870404475E+03  0.19026798788E+02 -0.21985913980E+02  0.21181371468E+03  0.17300000000E+03 0.  1.
         -6    1    1    2    0  502 -0.11870404475E+03 -0.19026798788E+02  0.66873748942E+02  0.22102888411E+03  0.17300000000E+03 0.  1.
<mgrwt>
<rscale>  2 0.21066957E+03</rscale>
<asrwt>0</asrwt>
<pdfrwt beam="1">  1       21 0.36748495E-01 0.21066957E+03</pdfrwt>
<pdfrwt beam="2">  1       21 0.29842674E-01 0.21066957E+03</pdfrwt>
<totfact> 0.76290287E+04</totfact>
</mgrwt>
</event>
<event>
 4    1  0.4531281E+000  0.2166821E+03  0.7546771E-02  0.1136381E+00
         21   -1    0    0  501  502  0.00000000000E+00  0.00000000000E+00  0.55573052441E+02  0.55573052441E+02  0.00000000000E+00 0. -1.
         21   -1    0    0  502  503 -0.00000000000E+00 -0.00000000000E+00 -0.10306134203E+04  0.10306134203E+04  0.00000000000E+00 0. -1.
          6    1    1    2  501    0 -0.11083457924E+03  0.68831757583E+02 -0.25695064098E+03  0.33611716217E+03  0.17300000000E+03 0. -1.
         -6    1    1    2    0  503  0.11083457924E+03 -0.68831757583E+02 -0.71808972692E+03  0.75006931061E+03  0.17300000000E+03 0. -1.
<mgrwt>
<rscale>  2 0.21668206E+03</rscale>
<asrwt>0</asrwt>
<pdfrwt beam="1">  1       21 0.85497010E-02 0.21668206E+03</pdfrwt>
<pdfrwt beam="2">  1       21 0.15855590E+00 0.21668206E+03</pdfrwt>
<totfact> 0.27145578E+04</totfact>
</mgrwt>
</event>
<event>
 4    1  0.4531281E+000  0.2133753E+03  0.7546771E-02  0.1138921E+00
         21   -1    0    0  503  502  0.00000000000E+00  0.00000000000E+00  0.15402211864E+04  0.15402211864E+04  0.00000000000E+00 0. -1.
         21   -1    0    0  501  503 -0.00000000000E+00 -0.00000000000E+00 -0.29567995471E+02  0.29567995471E+02  0.00000000000E+00 0. -1.
          6    1    1    2  501    0  0.12306054762E+03  0.21356667273E+02  0.76819816830E+03  0.79728127496E+03  0.17300000000E+03 0. -1.
         -6    1    1    2    0  502 -0.12306054762E+03 -0.21356667273E+02  0.74245502264E+03  0.77250790692E+03  0.17300000000E+03 0. -1.
<mgrwt>
<rscale>  2 0.21337527E+03</rscale>
<asrwt>0</asrwt>
<pdfrwt beam="1">  1       21 0.23695704E+00 0.21337527E+03</pdfrwt>
<pdfrwt beam="2">  1       21 0.45489236E-02 0.21337527E+03</pdfrwt>
<totfact> 0.24663066E+04</totfact>
</mgrwt>
</event>
<event>
 4    1  0.4531281E+000  0.1776482E+03  0.7546771E-02  0.1170099E+00
         21   -1    0    0  503  502  0.00000000000E+00  0.00000000000E+00  0.64704975882E+03  0.64704975882E+03  0.00000000000E+00 0. -1.
         21   -1    0    0  501  503 -0.00000000000E+00 -0.00000000000E+00 -0.49119158816E+02  0.49119158816E+02  0.00000000000E+00 0.  1.
          6    1    1    2  501    0  0.14562472737E+02  0.37653911685E+02  0.26976537315E+03  0.32300501425E+03  0.17300000000E+03 0.  1.
         -6    1    1    2    0  502 -0.14562472737E+02 -0.37653911685E+02  0.32816522686E+03  0.37316390339E+03  0.17300000000E+03 0.  1.
<mgrwt>
<rscale>  2 0.17764820E+03</rscale>
<asrwt>0</asrwt>
<pdfrwt beam="1">  1       21 0.99546111E-01 0.17764820E+03</pdfrwt>
<pdfrwt beam="2">  1       21 0.75567941E-02 0.17764820E+03</pdfrwt>
<totfact> 0.11061473E+05</totfact>
</mgrwt>
</event>
<event>
 4    1  0.4531281E+000  0.1928446E+03  0.7546771E-02  0.1155920E+00
         21   -1    0    0  503  502  0.00000000000E+00  0.00000000000E+00  0.55742056285E+03  0.55742056285E+03  0.00000000000E+00 0.  1.
         21   -1    0    0  501  503 -0.00000000000E+00 -0.00000000000E+00 -0.87543048233E+02  0.87543048233E+02  0.00000000000E+00 0.  1.
          6    1    1    2  501    0 -0.16326157442E+02 -0.83627119981E+02  0.77647314172E+02  0.20788974003E+03  0.17300000000E+03 0.  1.
         -6    1    1    2    0  502  0.16326157442E+02  0.83627119981E+02  0.39223020044E+03  0.43707387105E+03  0.17300000000E+03 0.  1.
<mgrwt>
<rscale>  2 0.19284460E+03</rscale>
<asrwt>0</asrwt>
<pdfrwt beam="1">  1       21 0.85757007E-01 0.19284460E+03</pdfrwt>
<pdfrwt beam="2">  1       21 0.13468162E-01 0.19284460E+03</pdfrwt>
<totfact> 0.55994319E+04</totfact>
</mgrwt>
</event>
<event>
 4    1  0.4531281E+000  0.1918631E+03  0.7546771E-02  0.1156792E+00
         21   -1    0    0  501  502  0.00000000000E+00  0.00000000000E+00  0.86383122350E+02  0.86383122350E+02  0.00000000000E+00 0. -1.
         21   -1    0    0  502  503 -0.00000000000E+00 -0.00000000000E+00 -0.47676100124E+03  0.47676100124E+03  0.00000000000E+00 0.  1.
          6    1    1    2  501    0 -0.72321198879E+02 -0.40646121301E+02 -0.10344092850E+03  0.21797130241E+03  0.17300000000E+03 0. -1.
         -6    1    1    2    0  503  0.72321198879E+02  0.40646121301E+02 -0.28693695039E+03  0.34517282118E+03  0.17300000000E+03 0.  1.
<mgrwt>
<rscale>  2 0.19186314E+03</rscale>
<asrwt>0</asrwt>
<pdfrwt beam="1">  1       21 0.13289711E-01 0.19186314E+03</pdfrwt>
<pdfrwt beam="2">  1       21 0.73347846E-01 0.19186314E+03</pdfrwt>
<totfact> 0.81652845E+04</totfact>
</mgrwt>
</event>
<event>
 4    1  0.4531281E+000  0.1872848E+03  0.7546771E-02  0.1160933E+00
         21   -1    0    0  503  502  0.00000000000E+00  0.00000000000E+00  0.10306800215E+03  0.10306800215E+03  0.00000000000E+00 0. -1.
         21   -1    0    0  501  503 -0.00000000000E+00 -0.00000000000E+00 -0.39973837427E+03  0.39973837427E+03  0.00000000000E+00 0. -1.
          6    1    1    2  501    0 -0.50636303409E+02 -0.50818911320E+02 -0.51404526836E+02  0.19421128276E+03  0.17300000000E+03 0. -1.
         -6    1    1    2    0  502  0.50636303409E+02  0.50818911320E+02 -0.24526584528E+03  0.30859509366E+03  0.17300000000E+03 0. -1.
<mgrwt>
<rscale>  2 0.18728480E+03</rscale>
<asrwt>0</asrwt>
<pdfrwt beam="1">  1       21 0.15856616E-01 0.18728480E+03</pdfrwt>
<pdfrwt beam="2">  1       21 0.61498211E-01 0.18728480E+03</pdfrwt>
<totfact> 0.87291126E+04</totfact>
</mgrwt>
</event>
<event>
 4    1  0.4531281E+000  0.1782902E+03  0.7546771E-02  0.1169468E+00
         21   -1    0    0  503  502  0.00000000000E+00  0.00000000000E+00  0.89643676974E+02  0.89643676974E+02  0.00000000000E+00 0.  1.
         21   -1    0    0  501  503 -0.00000000000E+00 -0.00000000000E+00 -0.36812727684E+03  0.36812727684E+03  0.00000000000E+00 0.  1.
          6    1    1    2  501    0  0.21064108010E+02  0.37612425064E+02 -0.18312218072E+03  0.25557997621E+03  0.17300000000E+03 0.  1.
         -6    1    1    2    0  502 -0.21064108010E+02 -0.37612425064E+02 -0.95361419147E+02  0.20219097761E+03  0.17300000000E+03 0.  1.
<mgrwt>
<rscale>  2 0.17829019E+03</rscale>
<asrwt>0</asrwt>
<pdfrwt beam="1">  1       21 0.13791335E-01 0.17829019E+03</pdfrwt>
<pdfrwt beam="2">  1       21 0.56634965E-01 0.17829019E+03</pdfrwt>
<totfact> 0.13459209E+05</totfact>
</mgrwt>
</event>
<event>
 4    1  0.4531281E+000  0.1757559E+03  0.7546771E-02  0.1171975E+00
         21   -1    0    0  503  502  0.00000000000E+00  0.00000000000E+00  0.41553149054E+03  0.41553149054E+03  0.00000000000E+00 0. -1.
         21   -1    0    0  501  503 -0.00000000000E+00 -0.00000000000E+00 -0.11383000791E+03  0.11383000791E+03  0.00000000000E+00 0. -1.
          6    1    1    2  501    0  0.23048051697E+02  0.20734642637E+02 -0.50484422243E+01  0.17582839606E+03  0.17300000000E+03 0. -1.
         -6    1    1    2    0  502 -0.23048051697E+02 -0.20734642637E+02  0.30674992485E+03  0.35353310239E+03  0.17300000000E+03 0. -1.
<mgrwt>
<rscale>  2 0.17575590E+03</rscale>
<asrwt>0</asrwt>
<pdfrwt beam="1">  1       21 0.63927921E-01 0.17575590E+03</pdfrwt>
<pdfrwt beam="2">  1       21 0.17512309E-01 0.17575590E+03</pdfrwt>
<totfact> 0.67242621E+04</totfact>
</mgrwt>
</event>
<event>
 4    1  0.4531281E+000  0.2104872E+03  0.7546771E-02  0.1141181E+00
         21   -1    0    0  503  502  0.00000000000E+00  0.00000000000E+00  0.13698619895E+03  0.13698619895E+03  0.00000000000E+00 0. -1.
         21   -1    0    0  501  503 -0.00000000000E+00 -0.00000000000E+00 -0.85419265868E+03  0.85419265868E+03  0.00000000000E+00 0.  1.
          6    1    1    2  501    0 -0.48605419349E+02 -0.10960558532E+03 -0.74926059370E+03  0.77826493457E+03  0.17300000000E+03 0.  1.
         -6    1    1    2    0  502  0.48605419349E+02  0.10960558532E+03  0.32054133966E+02  0.21291392305E+03  0.17300000000E+03 0. -1.
<mgrwt>
<rscale>  2 0.21048722E+03</rscale>
<asrwt>0</asrwt>
<pdfrwt beam="1">  1       21 0.21074801E-01 0.21048722E+03</pdfrwt>
<pdfrwt beam="2">  1       21 0.13141425E+00 0.21048722E+03</pdfrwt>
<totfact> 0.86869131E+03</totfact>
</mgrwt>
</event>
<event>
 4    1  0.4531281E+000  0.2911663E+03  0.7546771E-02  0.1089742E+00
         21   -1    0    0  501  502  0.00000000000E+00  0.00000000000E+00  0.38604925026E+03  0.38604925026E+03  0.00000000000E+00 0.  1.
         21   -1    0    0  502  503 -0.00000000000E+00 -0.00000000000E+00 -0.26183339804E+03  0.26183339804E+03  0.00000000000E+00 0. -1.
          6    1    1    2  501    0  0.35471655572E+02  0.23149634241E+03  0.19220378439E+03  0.34888406331E+03  0.17300000000E+03 0.  1.
         -6    1    1    2    0  503 -0.35471655572E+02 -0.23149634241E+03 -0.67987932174E+02  0.29899858498E+03  0.17300000000E+03 0. -1.
<mgrwt>
<rscale>  2 0.29116627E+03</rscale>
<asrwt>0</asrwt>
<pdfrwt beam="1">  1       21 0.59392193E-01 0.29116627E+03</pdfrwt>
<pdfrwt beam="2">  1       21 0.40282061E-01 0.29116627E+03</pdfrwt>
<totfact> 0.14925662E+04</totfact>
</mgrwt>
</event>
<event>
 4    1  0.4531281E+000  0.2109418E+03  0.7546771E-02  0.1140822E+00
         21   -1    0    0  503  502  0.00000000000E+00  0.00000000000E+00  0.19284726436E+03  0.19284726436E+03  0.00000000000E+00 0. -1.
         21   -1    0    0  501  503 -0.00000000000E+00 -0.00000000000E+00 -0.42188042343E+03  0.42188042343E+03  0.00000000000E+00 0.  1.
          6    1    1    2  501    0  0.10101006553E+03 -0.66063717520E+02 -0.32140730329E+03  0.38444648876E+03  0.17300000000E+03 0.  1.
         -6    1    1    2    0  502 -0.10101006553E+03  0.66063717520E+02  0.92374144210E+02  0.23028119903E+03  0.17300000000E+03 0. -1.
<mgrwt>
<rscale>  2 0.21094181E+03</rscale>
<asrwt>0</asrwt>
<pdfrwt beam="1">  1       21 0.29668810E-01 0.21094181E+03</pdfrwt>
<pdfrwt beam="2">  1       21 0.64904680E-01 0.21094181E+03</pdfrwt>
<totfact> 0.23559037E+04</totfact>
</mgrwt>
</event>
<event>
 4    1  0.4531281E+000  0.2275380E+03  0.7546771E-02  0.1128385E+00
         21   -1    0    0  503  502  0.00000000000E+00  0.00000000000E+00  0.16773075304E+03  0.16773075304E+03  0.00000000000E+00 0. -1.
         21   -1    0    0  501  503 -0.00000000000E+00 -0.00000000000E+00 -0.70131074976E+03  0.70131074976E+03  0.00000000000E+00 0.  1.
          6    1    1    2  501    0 -0.14766821552E+03  0.62169129450E+01 -0.59191669256E+03  0.63414424448E+03  0.17300000000E+03 0.  1.
         -6    1    1    2    0  502  0.14766821552E+03 -0.62169129450E+01  0.58336695839E+02  0.23489725832E+03  0.17300000000E+03 0. -1.
<mgrwt>
<rscale>  2 0.22753802E+03</rscale>
<asrwt>0</asrwt>
<pdfrwt beam="1">  1       21 0.25804732E-01 0.22753802E+03</pdfrwt>
<pdfrwt beam="2">  1       21 0.10789396E+00 0.22753802E+03</pdfrwt>
<totfact> 0.95263897E+03</totfact>
</mgrwt>
</event>
<event>
 4    1  0.4531281E+000  0.1813321E+03  0.7546771E-02  0.1166520E+00
         21   -1    0    0  501  502  0.00000000000E+00  0.00000000000E+00  0.19428245852E+03  0.19428245852E+03  0.00000000000E+00 0. -1.
         21   -1    0    0  502  503 -0.00000000000E+00 -0.00000000000E+00 -0.28186618383E+03  0.28186618383E+03  0.00000000000E+00 0.  1.
          6    1    1    2  501    0 -0.17457345364E+01 -0.54307300997E+02  0.10669588850E+03  0.21039330587E+03  0.17300000000E+03 0. -1.
         -6    1    1    2    0  503  0.17457345364E+01  0.54307300997E+02 -0.19427961381E+03  0.26575533649E+03  0.17300000000E+03 0.  1.
<mgrwt>
<rscale>  2 0.18133210E+03</rscale>
<asrwt>0</asrwt>
<pdfrwt beam="1">  1       21 0.29889609E-01 0.18133210E+03</pdfrwt>
<pdfrwt beam="2">  1       21 0.43364028E-01 0.18133210E+03</pdfrwt>
<totfact> 0.55151857E+04</totfact>
</mgrwt>
</event>
<event>
 4    1  0.4531281E+000  0.2078138E+03  0.7546771E-02  0.1143309E+00
         21   -1    0    0  503  502  0.00000000000E+00  0.00000000000E+00  0.34925220039E+02  0.34925220039E+02  0.00000000000E+00 0.  1.
         21   -1    0    0  501  503 -0.00000000000E+00 -0.00000000000E+00 -0.12488637950E+04  0.12488637950E+04  0.00000000000E+00 0.  1.
          6    1    1    2  501    0 -0.10036163129E+03 -0.56436766128E+02 -0.54321480421E+03  0.58160887984E+03  0.17300000000E+03 0.  1.
         -6    1    1    2    0  502  0.10036163129E+03  0.56436766128E+02 -0.67072377078E+03  0.70218013521E+03  0.17300000000E+03 0.  1.
<mgrwt>
<rscale>  2 0.20781378E+03</rscale>
<asrwt>0</asrwt>
<pdfrwt beam="1">  1       21 0.53731107E-02 0.20781378E+03</pdfrwt>
<pdfrwt beam="2">  1       21 0.19213289E+00 0.20781378E+03</pdfrwt>
<totfact> 0.35584289E+04</totfact>
</mgrwt>
</event>
<event>
 4    1  0.4531281E+000  0.1823439E+03  0.7546771E-02  0.1165554E+00
         21   -1    0    0  501  502  0.00000000000E+00  0.00000000000E+00  0.11850754309E+03  0.11850754309E+03  0.00000000000E+00 0.  1.
         21   -1    0    0  502  503 -0.00000000000E+00 -0.00000000000E+00 -0.78396178494E+03  0.78396178494E+03  0.00000000000E+00 0.  1.
          6    1    1    2  501    0  0.43900320619E+02  0.37323747009E+02  0.28857028942E+02  0.18461318577E+03  0.17300000000E+03 0.  1.
         -6    1    1    2    0  503 -0.43900320619E+02 -0.37323747009E+02 -0.69431127079E+03  0.71785614227E+03  0.17300000000E+03 0.  1.
<mgrwt>
<rscale>  2 0.18234391E+03</rscale>
<asrwt>0</asrwt>
<pdfrwt beam="1">  1       21 0.18231930E-01 0.18234391E+03</pdfrwt>
<pdfrwt beam="2">  1       21 0.12060951E+00 0.18234391E+03</pdfrwt>
<totfact> 0.14399215E+04</totfact>
</mgrwt>
</event>
<event>
 4    1  0.4531281E+000  0.2218469E+03  0.7546771E-02  0.1132514E+00
         21   -1    0    0  503  502  0.00000000000E+00  0.00000000000E+00  0.75066426866E+03  0.75066426866E+03  0.00000000000E+00 0. -1.
         21   -1    0    0  501  503 -0.00000000000E+00 -0.00000000000E+00 -0.65704062398E+02  0.65704062398E+02  0.00000000000E+00 0. -1.
          6    1    1    2  501    0 -0.57430628502E+02 -0.12644673641E+03  0.36137074254E+03  0.42403404085E+03  0.17300000000E+03 0. -1.
         -6    1    1    2    0  502  0.57430628502E+02  0.12644673641E+03  0.32358946372E+03  0.39233429020E+03  0.17300000000E+03 0. -1.
<mgrwt>
<rscale>  2 0.22184692E+03</rscale>
<asrwt>0</asrwt>
<pdfrwt beam="1">  1       21 0.11548680E+00 0.22184692E+03</pdfrwt>
<pdfrwt beam="2">  1       21 0.10108318E-01 0.22184692E+03</pdfrwt>
<totfact> 0.45499951E+04</totfact>
</mgrwt>
</event>
<event>
 4    1  0.4531281E+000  0.1734357E+03  0.7546771E-02  0.1174312E+00
         21   -1    0    0  503  502  0.00000000000E+00  0.00000000000E+00  0.24276826879E+04  0.24276826879E+04  0.00000000000E+00 0. -1.
         21   -1    0    0  501  503 -0.00000000000E+00 -0.00000000000E+00 -0.14595878336E+02  0.14595878336E+02  0.00000000000E+00 0. -1.
          6    1    1    2  501    0 -0.76783403560E+01  0.95903009950E+01  0.73186152797E+03  0.75213112348E+03  0.17300000000E+03 0. -1.
         -6    1    1    2    0  502  0.76783403560E+01 -0.95903009950E+01  0.16812252816E+04  0.16901474428E+04  0.17300000000E+03 0. -1.
<mgrwt>
<rscale>  2 0.17343567E+03</rscale>
<asrwt>0</asrwt>
<pdfrwt beam="1">  1       21 0.37348932E+00 0.17343567E+03</pdfrwt>
<pdfrwt beam="2">  1       21 0.22455217E-02 0.17343567E+03</pdfrwt>
<totfact> 0.13224085E+04</totfact>
</mgrwt>
</event>
<event>
 4    1  0.4531281E+000  0.2343693E+03  0.7546771E-02  0.1123602E+00
         21   -1    0    0  501  502  0.00000000000E+00  0.00000000000E+00  0.22837985937E+03  0.22837985937E+03  0.00000000000E+00 0.  1.
         21   -1    0    0  502  503 -0.00000000000E+00 -0.00000000000E+00 -0.27964750556E+03  0.27964750556E+03  0.00000000000E+00 0. -1.
          6    1    1    2  501    0  0.13208287724E+03 -0.86914257137E+02  0.69386342270E+02  0.24442471038E+03  0.17300000000E+03 0.  1.
         -6    1    1    2    0  503 -0.13208287724E+03  0.86914257137E+02 -0.12065398846E+03  0.26360265455E+03  0.17300000000E+03 0. -1.
<mgrwt>
<rscale>  2 0.23436931E+03</rscale>
<asrwt>0</asrwt>
<pdfrwt beam="1">  1       21 0.35135363E-01 0.23436931E+03</pdfrwt>
<pdfrwt beam="2">  1       21 0.43022693E-01 0.23436931E+03</pdfrwt>
<totfact> 0.39758185E+04</totfact>
</mgrwt>
</event>
<event>
 4    1  0.4531281E+000  0.3453028E+03  0.7546771E-02  0.1064560E+00
         21   -1    0    0  503  502  0.00000000000E+00  0.00000000000E+00  0.24824749797E+03  0.24824749797E+03  0.00000000000E+00 0. -1.
         21   -1    0    0  501  503 -0.00000000000E+00 -0.00000000000E+00 -0.12464643714E+04  0.12464643714E+04  0.00000000000E+00 0.  1.
          6    1    1    2  501    0  0.65195794632E+02  0.29164107299E+03 -0.10850410764E+04  0.11386606801E+04  0.17300000000E+03 0.  1.
         -6    1    1    2    0  502 -0.65195794632E+02 -0.29164107299E+03  0.86824202982E+02  0.35605118918E+03  0.17300000000E+03 0. -1.
<mgrwt>
<rscale>  2 0.34530278E+03</rscale>
<asrwt>0</asrwt>
<pdfrwt beam="1">  1       21 0.38191923E-01 0.34530278E+03</pdfrwt>
<pdfrwt beam="2">  1       21 0.19176375E+00 0.34530278E+03</pdfrwt>
<totfact> 0.88472130E+02</totfact>
</mgrwt>
</event>
<event>
 4    1  0.4531281E+000  0.2270054E+03  0.7546771E-02  0.1128765E+00
         21   -1    0    0  501  502  0.00000000000E+00  0.00000000000E+00  0.42859013962E+03  0.42859013962E+03  0.00000000000E+00 0. -1.
         21   -1    0    0  502  503 -0.00000000000E+00 -0.00000000000E+00 -0.30528574455E+03  0.30528574455E+03  0.00000000000E+00 0. -1.
          6    1    1    2  501    0  0.56093357627E+02  0.13585284230E+03  0.34733558353E+03  0.41493790754E+03  0.17300000000E+03 0. -1.
         -6    1    1    2    0  503 -0.56093357627E+02 -0.13585284230E+03 -0.22403118846E+03  0.31893797662E+03  0.17300000000E+03 0. -1.
<mgrwt>
<rscale>  2 0.22700542E+03</rscale>
<asrwt>0</asrwt>
<pdfrwt beam="1">  1       21 0.65936945E-01 0.22700542E+03</pdfrwt>
<pdfrwt beam="2">  1       21 0.46967037E-01 0.22700542E+03</pdfrwt>
<totfact> 0.89575112E+03</totfact>
</mgrwt>
</event>
<event>
 4    1  0.4531281E+000  0.2485860E+03  0.7546771E-02  0.1114202E+00
         21   -1    0    0  501  502  0.00000000000E+00  0.00000000000E+00  0.16495832379E+03  0.16495832379E+03  0.00000000000E+00 0. -1.
         21   -1    0    0  502  503 -0.00000000000E+00 -0.00000000000E+00 -0.41251916495E+03  0.41251916495E+03  0.00000000000E+00 0.  1.
          6    1    1    2  501    0  0.15670144247E+03 -0.85502376600E+02 -0.36250513249E+02  0.25121524275E+03  0.17300000000E+03 0.  1.
         -6    1    1    2    0  503 -0.15670144247E+03  0.85502376600E+02 -0.21131032792E+03  0.32626224600E+03  0.17300000000E+03 0.  1.
<mgrwt>
<rscale>  2 0.24858600E+03</rscale>
<asrwt>0</asrwt>
<pdfrwt beam="1">  1       21 0.25378204E-01 0.24858600E+03</pdfrwt>
<pdfrwt beam="2">  1       21 0.63464486E-01 0.24858600E+03</pdfrwt>
<totfact> 0.32866005E+04</totfact>
</mgrwt>
</event>
<event>
 4    1  0.4531281E+000  0.1757051E+03  0.7546771E-02  0.1172026E+00
         21   -1    0    0  503  502  0.00000000000E+00  0.00000000000E+00  0.51402749452E+03  0.51402749452E+03  0.00000000000E+00 0. -1.
         21   -1    0    0  501  503 -0.00000000000E+00 -0.00000000000E+00 -0.93733836318E+02  0.93733836318E+02  0.00000000000E+00 0. -1.
          6    1    1    2  501    0  0.20226679466E+02  0.23111999154E+02  0.28007478628E+02  0.17792330349E+03  0.17300000000E+03 0. -1.
         -6    1    1    2    0  502 -0.20226679466E+02 -0.23111999154E+02  0.39228617958E+03  0.42983802735E+03  0.17300000000E+03 0. -1.
<mgrwt>
<rscale>  2 0.17570510E+03</rscale>
<asrwt>0</asrwt>
<pdfrwt beam="1">  1       21 0.79081151E-01 0.17570510E+03</pdfrwt>
<pdfrwt beam="2">  1       21 0.14420591E-01 0.17570510E+03</pdfrwt>
<totfact> 0.59959438E+04</totfact>
</mgrwt>
</event>
<event>
 4    1  0.4531281E+000  0.1901747E+03  0.7546771E-02  0.1158304E+00
         21   -1    0    0  503  502  0.00000000000E+00  0.00000000000E+00  0.66788575814E+02  0.66788575814E+02  0.00000000000E+00 0.  1.
         21   -1    0    0  501  503 -0.00000000000E+00 -0.00000000000E+00 -0.61646023385E+03  0.61646023385E+03  0.00000000000E+00 0.  1.
          6    1    1    2  501    0  0.67306550046E+02  0.41318864128E+02 -0.39395843705E+03  0.43745819267E+03  0.17300000000E+03 0.  1.
         -6    1    1    2    0  502 -0.67306550046E+02 -0.41318864128E+02 -0.15571322098E+03  0.24579061699E+03  0.17300000000E+03 0.  1.
<mgrwt>
<rscale>  2 0.19017471E+03</rscale>
<asrwt>0</asrwt>
<pdfrwt beam="1">  1       21 0.10275166E-01 0.19017471E+03</pdfrwt>
<pdfrwt beam="2">  1       21 0.94840030E-01 0.19017471E+03</pdfrwt>
<totfact> 0.72010154E+04</totfact>
</mgrwt>
</event>
<event>
 4    1  0.4531281E+000  0.1790606E+03  0.7546771E-02  0.1168715E+00
         21   -1    0    0  503  502  0.00000000000E+00  0.00000000000E+00  0.21538733432E+03  0.21538733432E+03  0.00000000000E+00 0. -1.
         21   -1    0    0  501  503 -0.00000000000E+00 -0.00000000000E+00 -0.48391198528E+03  0.48391198528E+03  0.00000000000E+00 0. -1.
          6    1    1    2  501    0 -0.35147290436E+02  0.29973038883E+02 -0.42520374108E+03  0.46136854738E+03  0.17300000000E+03 0. -1.
         -6    1    1    2    0  502  0.35147290436E+02 -0.29973038883E+02  0.15667909012E+03  0.23793077221E+03  0.17300000000E+03 0. -1.
<mgrwt>
<rscale>  2 0.17906065E+03</rscale>
<asrwt>0</asrwt>
<pdfrwt beam="1">  1       21 0.33136514E-01 0.17906065E+03</pdfrwt>
<pdfrwt beam="2">  1       21 0.74447996E-01 0.17906065E+03</pdfrwt>
<totfact> 0.14299346E+04</totfact>
</mgrwt>
</event>
<event>
 4    1  0.4531281E+000  0.1751479E+03  0.7546771E-02  0.1172583E+00
         21   -1    0    0  503  502  0.00000000000E+00  0.00000000000E+00  0.10464836662E+03  0.10464836662E+03  0.00000000000E+00 0.  1.
         21   -1    0    0  501  503 -0.00000000000E+00 -0.00000000000E+00 -0.37938099623E+03  0.37938099623E+03  0.00000000000E+00 0.  1.
          6    1    1    2  501    0  0.10665026792E+02  0.25180497837E+02 -0.25275321963E+03  0.30750770771E+03  0.17300000000E+03 0. -1.
         -6    1    1    2    0  502 -0.10665026792E+02 -0.25180497837E+02 -0.21979409983E+02  0.17652165513E+03  0.17300000000E+03 0. -1.
<mgrwt>
<rscale>  2 0.17514794E+03</rscale>
<asrwt>0</asrwt>
<pdfrwt beam="1">  1       21 0.16099749E-01 0.17514794E+03</pdfrwt>
<pdfrwt beam="2">  1       21 0.58366307E-01 0.17514794E+03</pdfrwt>
<totfact> 0.95422945E+04</totfact>
</mgrwt>
</event>
<event>
 4    1  0.4531281E+000  0.2474195E+03  0.7546771E-02  0.1114947E+00
         21   -1    0    0  501  502  0.00000000000E+00  0.00000000000E+00  0.27104853304E+03  0.27104853304E+03  0.00000000000E+00 0. -1.
         21   -1    0    0  502  503 -0.00000000000E+00 -0.00000000000E+00 -0.33291784536E+03  0.33291784536E+03  0.00000000000E+00 0.  1.
          6    1    1    2  501    0  0.15396555107E+03 -0.87074742163E+02  0.14032027455E+03  0.28444011863E+03  0.17300000000E+03 0. -1.
         -6    1    1    2    0  503 -0.15396555107E+03  0.87074742163E+02 -0.20218958687E+03  0.31952625976E+03  0.17300000000E+03 0.  1.
<mgrwt>
<rscale>  2 0.24741949E+03</rscale>
<asrwt>0</asrwt>
<pdfrwt beam="1">  1       21 0.41699774E-01 0.24741949E+03</pdfrwt>
<pdfrwt beam="2">  1       21 0.51218130E-01 0.24741949E+03</pdfrwt>
<totfact> 0.19465125E+04</totfact>
</mgrwt>
</event>
<event>
 4    1  0.4531281E+000  0.2091872E+03  0.7546771E-02  0.1142211E+00
         21   -1    0    0  503  502  0.00000000000E+00  0.00000000000E+00  0.15161979448E+04  0.15161979448E+04  0.00000000000E+00 0.  1.
         21   -1    0    0  501  503 -0.00000000000E+00 -0.00000000000E+00 -0.29454136070E+02  0.29454136070E+02  0.00000000000E+00 0.  1.
          6    1    1    2  501    0 -0.63347635890E+02 -0.99082629881E+02  0.63372082106E+03  0.66735400618E+03  0.17300000000E+03 0.  1.
         -6    1    1    2    0  502  0.63347635890E+02  0.99082629881E+02  0.85302298770E+03  0.87829807472E+03  0.17300000000E+03 0.  1.
<mgrwt>
<rscale>  2 0.20918721E+03</rscale>
<asrwt>0</asrwt>
<pdfrwt beam="1">  1       21 0.23326116E+00 0.20918721E+03</pdfrwt>
<pdfrwt beam="2">  1       21 0.45314067E-02 0.20918721E+03</pdfrwt>
<totfact> 0.26212847E+04</totfact>
</mgrwt>
</event>
<event>
 4    1  0.4531281E+000  0.1960318E+03  0.7546771E-02  0.1153131E+00
         21   -1    0    0  503  502  0.00000000000E+00  0.00000000000E+00  0.92641042557E+02  0.92641042557E+02  0.00000000000E+00 0. -1.
         21   -1    0    0  501  503 -0.00000000000E+00 -0.00000000000E+00 -0.43703350714E+03  0.43703350714E+03  0.00000000000E+00 0. -1.
          6    1    1    2  501    0  0.88843478483E+02 -0.24623086680E+02 -0.11247552246E+03  0.22600708666E+03  0.17300000000E+03 0.  1.
         -6    1    1    2    0  502 -0.88843478483E+02  0.24623086680E+02 -0.23191694213E+03  0.30366746304E+03  0.17300000000E+03 0.  1.
<mgrwt>
<rscale>  2 0.19603178E+03</rscale>
<asrwt>0</asrwt>
<pdfrwt beam="1">  1       21 0.14252468E-01 0.19603178E+03</pdfrwt>
<pdfrwt beam="2">  1       21 0.67235924E-01 0.19603178E+03</pdfrwt>
<totfact> 0.87020868E+04</totfact>
</mgrwt>
</event>
<event>
 4    1  0.4531281E+000  0.2246533E+03  0.7546771E-02  0.1130461E+00
         21   -1    0    0  501  502  0.00000000000E+00  0.00000000000E+00  0.14666889741E+04  0.14666889741E+04  0.00000000000E+00 0. -1.
         21   -1    0    0  502  503 -0.00000000000E+00 -0.00000000000E+00 -0.34791413750E+02  0.34791413750E+02  0.00000000000E+00 0.  1.
          6    1    1    2  501    0  0.12649856866E+03  0.67366183207E+02  0.63736617523E+03  0.67579932809E+03  0.17300000000E+03 0.  1.
         -6    1    1    2    0  503 -0.12649856866E+03 -0.67366183207E+02  0.79453138509E+03  0.82568105973E+03  0.17300000000E+03 0. -1.
<mgrwt>
<rscale>  2 0.22465327E+03</rscale>
<asrwt>0</asrwt>
<pdfrwt beam="1">  1       21 0.22564441E+00 0.22465327E+03</pdfrwt>
<pdfrwt beam="2">  1       21 0.53525263E-02 0.22465327E+03</pdfrwt>
<totfact> 0.21724037E+04</totfact>
</mgrwt>
</event>
<event>
 4    1  0.4531281E+000  0.1762744E+03  0.7546771E-02  0.1171458E+00
         21   -1    0    0  501  502  0.00000000000E+00  0.00000000000E+00  0.15689385055E+03  0.15689385055E+03  0.00000000000E+00 0.  1.
         21   -1    0    0  502  503 -0.00000000000E+00 -0.00000000000E+00 -0.20352882217E+03  0.20352882217E+03  0.00000000000E+00 0.  1.
          6    1    1    2  501    0 -0.53678031923E+01  0.33389563977E+02  0.62524814025E+01  0.17638528798E+03  0.17300000000E+03 0.  1.
         -6    1    1    2    0  503  0.53678031923E+01 -0.33389563977E+02 -0.52887453023E+02  0.18403738474E+03  0.17300000000E+03 0.  1.
<mgrwt>
<rscale>  2 0.17627443E+03</rscale>
<asrwt>0</asrwt>
<pdfrwt beam="1">  1       21 0.24137516E-01 0.17627443E+03</pdfrwt>
<pdfrwt beam="2">  1       21 0.31312126E-01 0.17627443E+03</pdfrwt>
<totfact> 0.15954834E+05</totfact>
</mgrwt>
</event>
<event>
 4    1  0.4531281E+000  0.2460401E+03  0.7546771E-02  0.1115833E+00
         21   -1    0    0  503  502  0.00000000000E+00  0.00000000000E+00  0.45966946562E+03  0.45966946562E+03  0.00000000000E+00 0. -1.
         21   -1    0    0  501  503 -0.00000000000E+00 -0.00000000000E+00 -0.27203102088E+03  0.27203102088E+03  0.00000000000E+00 0. -1.
          6    1    1    2  501    0 -0.14476553347E+03  0.98232656145E+02 -0.16895347922E+03  0.29846439076E+03  0.17300000000E+03 0. -1.
         -6    1    1    2    0  502  0.14476553347E+03 -0.98232656145E+02  0.35659192396E+03  0.43323609573E+03  0.17300000000E+03 0. -1.
<mgrwt>
<rscale>  2 0.24604007E+03</rscale>
<asrwt>0</asrwt>
<pdfrwt beam="1">  1       21 0.70718380E-01 0.24604007E+03</pdfrwt>
<pdfrwt beam="2">  1       21 0.41850926E-01 0.24604007E+03</pdfrwt>
<totfact> 0.96247104E+03</totfact>
</mgrwt>
</event>
<event>
 4    1  0.4531281E+000  0.1991926E+03  0.7546771E-02  0.1150422E+00
         21   -1    0    0  501  502  0.00000000000E+00  0.00000000000E+00  0.64139173256E+03  0.64139173256E+03  0.00000000000E+00 0.  1.
         21   -1    0    0  502  503 -0.00000000000E+00 -0.00000000000E+00 -0.63402543352E+02  0.63402543352E+02  0.00000000000E+00 0.  1.
          6    1    1    2  501    0  0.38323529448E+02 -0.90994510163E+02  0.34392767088E+03  0.39744677202E+03  0.17300000000E+03 0.  1.
         -6    1    1    2    0  503 -0.38323529448E+02  0.90994510163E+02  0.23406151832E+03  0.30734750389E+03  0.17300000000E+03 0.  1.
<mgrwt>
<rscale>  2 0.19919260E+03</rscale>
<asrwt>0</asrwt>
<pdfrwt beam="1">  1       21 0.98675647E-01 0.19919260E+03</pdfrwt>
<pdfrwt beam="2">  1       21 0.97542379E-02 0.19919260E+03</pdfrwt>
<totfact> 0.71617331E+04</totfact>
</mgrwt>
</event>
<event>
 4    1  0.4531281E+000  0.1864604E+03  0.7546771E-02  0.1161693E+00
         21   -1    0    0  501  502  0.00000000000E+00  0.00000000000E+00  0.92572942592E+02  0.92572942592E+02  0.00000000000E+00 0. -1.
         21   -1    0    0  502  503 -0.00000000000E+00 -0.00000000000E+00 -0.38766170890E+03  0.38766170890E+03  0.00000000000E+00 0. -1.
          6    1    1    2  501    0  0.30341699661E+02 -0.62592833802E+02 -0.10513443453E+03  0.21405777469E+03  0.17300000000E+03 0. -1.
         -6    1    1    2    0  503 -0.30341699661E+02  0.62592833802E+02 -0.18995433178E+03  0.26617687680E+03  0.17300000000E+03 0. -1.
<mgrwt>
<rscale>  2 0.18646040E+03</rscale>
<asrwt>0</asrwt>
<pdfrwt beam="1">  1       21 0.14241991E-01 0.18646040E+03</pdfrwt>
<pdfrwt beam="2">  1       21 0.59640264E-01 0.18646040E+03</pdfrwt>
<totfact> 0.11339934E+05</totfact>
</mgrwt>
</event>
<event>
 4    1  0.4531281E+000  0.2264363E+03  0.7546771E-02  0.1129173E+00
         21   -1    0    0  503  502  0.00000000000E+00  0.00000000000E+00  0.24191310413E+03  0.24191310413E+03  0.00000000000E+00 0.  1.
         21   -1    0    0  501  503 -0.00000000000E+00 -0.00000000000E+00 -0.25432811646E+03  0.25432811646E+03  0.00000000000E+00 0. -1.
          6    1    1    2  501    0 -0.13510416085E+03 -0.55599293707E+02 -0.10749081729E+03  0.25065452627E+03  0.17300000000E+03 0. -1.
         -6    1    1    2    0  502  0.13510416085E+03  0.55599293707E+02  0.95075804957E+02  0.24558669432E+03  0.17300000000E+03 0.  1.
<mgrwt>
<rscale>  2 0.22643634E+03</rscale>
<asrwt>0</asrwt>
<pdfrwt beam="1">  1       21 0.37217400E-01 0.22643634E+03</pdfrwt>
<pdfrwt beam="2">  1       21 0.39127403E-01 0.22643634E+03</pdfrwt>
<totfact> 0.43138049E+04</totfact>
</mgrwt>
</event>
<event>
 4    1  0.4531281E+000  0.2826808E+03  0.7546771E-02  0.1094234E+00
         21   -1    0    0  501  502  0.00000000000E+00  0.00000000000E+00  0.74987358622E+03  0.74987358622E+03  0.00000000000E+00 0. -1.
         21   -1    0    0  502  503 -0.00000000000E+00 -0.00000000000E+00 -0.11312571714E+03  0.11312571714E+03  0.00000000000E+00 0.  1.
          6    1    1    2  501    0 -0.22342342564E+03  0.78356546200E+01  0.42230784204E+03  0.50818533830E+03  0.17300000000E+03 0. -1.
         -6    1    1    2    0  503  0.22342342564E+03 -0.78356546200E+01  0.21444002704E+03  0.35481396506E+03  0.17300000000E+03 0.  1.
<mgrwt>
<rscale>  2 0.28268078E+03</rscale>
<asrwt>0</asrwt>
<pdfrwt beam="1">  1       21 0.11536516E+00 0.28268078E+03</pdfrwt>
<pdfrwt beam="2">  1       21 0.17403957E-01 0.28268078E+03</pdfrwt>
<totfact> 0.16530240E+04</totfact>
</mgrwt>
</event>
<event>
 4    1  0.4531281E+000  0.2431368E+03  0.7546771E-02  0.1117721E+00
         21   -1    0    0  503  502  0.00000000000E+00  0.00000000000E+00  0.73876123369E+03  0.73876123369E+03  0.00000000000E+00 0. -1.
         21   -1    0    0  501  503 -0.00000000000E+00 -0.00000000000E+00 -0.79005256947E+03  0.79005256947E+03  0.00000000000E+00 0. -1.
          6    1    1    2  501    0  0.24008314694E+01  0.17082370778E+03 -0.75030820553E+03  0.78871915560E+03  0.17300000000E+03 0. -1.
         -6    1    1    2    0  502 -0.24008314694E+01 -0.17082370778E+03  0.69901686975E+03  0.74009464755E+03  0.17300000000E+03 0. -1.
<mgrwt>
<rscale>  2 0.24313680E+03</rscale>
<asrwt>0</asrwt>
<pdfrwt beam="1">  1       21 0.11365557E+00 0.24313680E+03</pdfrwt>
<pdfrwt beam="2">  1       21 0.12154655E+00 0.24313680E+03</pdfrwt>
<totfact> 0.29219711E+02</totfact>
</mgrwt>
</event>
<event>
 4    1  0.4531281E+000  0.2529847E+03  0.7546771E-02  0.1111433E+00
         21   -1    0    0  501  502  0.00000000000E+00  0.00000000000E+00  0.11095887812E+03  0.11095887812E+03  0.00000000000E+00 0.  1.
         21   -1    0    0  502  503 -0.00000000000E+00 -0.00000000000E+00 -0.57941794740E+03  0.57941794740E+03  0.00000000000E+00 0. -1.
          6    1    1    2  501    0 -0.78791121798E+02  0.16692581263E+03 -0.21103418421E+03  0.32944907755E+03  0.17300000000E+03 0.  1.
         -6    1    1    2    0  503  0.78791121798E+02 -0.16692581263E+03 -0.25742488507E+03  0.36092774796E+03  0.17300000000E+03 0. -1.
<mgrwt>
<rscale>  2 0.25298472E+03</rscale>
<asrwt>0</asrwt>
<pdfrwt beam="1">  1       21 0.17070597E-01 0.25298472E+03</pdfrwt>
<pdfrwt beam="2">  1       21 0.89141223E-01 0.25298472E+03</pdfrwt>
<totfact> 0.32260804E+04</totfact>
</mgrwt>
</event>
<event>
 4    1  0.4531281E+000  0.2419586E+03  0.7546771E-02  0.1118495E+00
         21   -1    0    0  501  502  0.00000000000E+00  0.00000000000E+00  0.71178067990E+02  0.71178067990E+02  0.00000000000E+00 0. -1.
         21   -1    0    0  502  503 -0.00000000000E+00 -0.00000000000E+00 -0.83984476116E+03  0.83984476116E+03  0.00000000000E+00 0.  1.
          6    1    1    2  501    0 -0.89982273906E+02  0.14324151411E+03 -0.31887162467E+03  0.40027872040E+03  0.17300000000E+03 0. -1.
         -6    1    1    2    0  503  0.89982273906E+02 -0.14324151411E+03 -0.44979506850E+03  0.51074410876E+03  0.17300000000E+03 0.  1.
<mgrwt>
<rscale>  2 0.24195855E+03</rscale>
<asrwt>0</asrwt>
<pdfrwt beam="1">  1       21 0.10950472E-01 0.24195855E+03</pdfrwt>
<pdfrwt beam="2">  1       21 0.12920688E+00 0.24195855E+03</pdfrwt>
<totfact> 0.29504499E+04</totfact>
</mgrwt>
</event>
<event>
 4    1  0.4531281E+000  0.1798610E+03  0.7546771E-02  0.1167938E+00
         21   -1    0    0  501  502  0.00000000000E+00  0.00000000000E+00  0.31179545257E+03  0.31179545257E+03  0.00000000000E+00 0.  1.
         21   -1    0    0  502  503 -0.00000000000E+00 -0.00000000000E+00 -0.15771097572E+03  0.15771097572E+03  0.00000000000E+00 0.  1.
          6    1    1    2  501    0 -0.25686477140E+02  0.41966555258E+02  0.21435309766E+03  0.27981643509E+03  0.17300000000E+03 0.  1.
         -6    1    1    2    0  503  0.25686477140E+02 -0.41966555258E+02 -0.60268620812E+02  0.18968999321E+03  0.17300000000E+03 0.  1.
<mgrwt>
<rscale>  2 0.17986102E+03</rscale>
<asrwt>0</asrwt>
<pdfrwt beam="1">  1       21 0.47968531E-01 0.17986102E+03</pdfrwt>
<pdfrwt beam="2">  1       21 0.24263227E-01 0.17986102E+03</pdfrwt>
<totfact> 0.66973313E+04</totfact>
</mgrwt>
</event>
<event>
 4    1  0.4531281E+000  0.2042235E+03  0.7546771E-02  0.1146224E+00
         21   -1    0    0  503  502  0.00000000000E+00  0.00000000000E+00  0.95715451573E+02  0.95715451573E+02  0.00000000000E+00 0. -1.
         21   -1    0    0  501  503 -0.00000000000E+00 -0.00000000000E+00 -0.51166144419E+03  0.51166144419E+03  0.00000000000E+00 0. -1.
          6    1    1    2  501    0  0.97182657709E+02 -0.48309221469E+02 -0.90992567106E+02  0.22357749687E+03  0.17300000000E+03 0. -1.
         -6    1    1    2    0  502 -0.97182657709E+02  0.48309221469E+02 -0.32495342551E+03  0.38379939889E+03  0.17300000000E+03 0. -1.
<mgrwt>
<rscale>  2 0.20422353E+03</rscale>
<asrwt>0</asrwt>
<pdfrwt beam="1">  1       21 0.14725454E-01 0.20422353E+03</pdfrwt>
<pdfrwt beam="2">  1       21 0.78717145E-01 0.20422353E+03</pdfrwt>
<totfact> 0.57548311E+04</totfact>
</mgrwt>
</event>
<event>
 4    1  0.4531281E+000  0.1941196E+03  0.7546771E-02  0.1154797E+00
         21   -1    0    0  501  502  0.00000000000E+00  0.00000000000E+00  0.40936508247E+02  0.40936508247E+02  0.00000000000E+00 0. -1.
         21   -1    0    0  502  503 -0.00000000000E+00 -0.00000000000E+00 -0.99837382688E+03  0.99837382688E+03  0.00000000000E+00 0. -1.
          6    1    1    2  501    0  0.30560517482E+02 -0.82580195034E+02 -0.33359485121E+03  0.38596367522E+03  0.17300000000E+03 0. -1.
         -6    1    1    2    0  503 -0.30560517482E+02  0.82580195034E+02 -0.62384246743E+03  0.65334665990E+03  0.17300000000E+03 0. -1.
<mgrwt>
<rscale>  2 0.19411964E+03</rscale>
<asrwt>0</asrwt>
<pdfrwt beam="1">  1       21 0.62979249E-02 0.19411964E+03</pdfrwt>
<pdfrwt beam="2">  1       21 0.15359596E+00 0.19411964E+03</pdfrwt>
<totfact> 0.50908543E+04</totfact>
</mgrwt>
</event>
<event>
 4    1  0.4531281E+000  0.1738287E+03  0.7546771E-02  0.1173913E+00
         21   -1    0    0  503  502  0.00000000000E+00  0.00000000000E+00  0.90416816739E+03  0.90416816739E+03  0.00000000000E+00 0. -1.
         21   -1    0    0  501  503 -0.00000000000E+00 -0.00000000000E+00 -0.33658233484E+02  0.33658233484E+02  0.00000000000E+00 0. -1.
          6    1    1    2  501    0  0.13381669348E+02  0.10408249117E+02  0.47478735276E+03  0.50560798161E+03  0.17300000000E+03 0. -1.
         -6    1    1    2    0  502 -0.13381669348E+02 -0.10408249117E+02  0.39572258115E+03  0.43221841927E+03  0.17300000000E+03 0. -1.
<mgrwt>
<rscale>  2 0.17382865E+03</rscale>
<asrwt>0</asrwt>
<pdfrwt beam="1">  1       21 0.13910278E+00 0.17382865E+03</pdfrwt>
<pdfrwt beam="2">  1       21 0.51781904E-02 0.17382865E+03</pdfrwt>
<totfact> 0.93044130E+04</totfact>
</mgrwt>
</event>
<event>
 4    1  0.4531281E+000  0.1969014E+03  0.7546771E-02  0.1152380E+00
         21   -1    0    0  503  502  0.00000000000E+00  0.00000000000E+00  0.71127879656E+03  0.71127879656E+03  0.00000000000E+00 0. -1.
         21   -1    0    0  501  503 -0.00000000000E+00 -0.00000000000E+00 -0.82155676764E+02  0.82155676764E+02  0.00000000000E+00 0.  1.
          6    1    1    2  501    0 -0.62052612575E+02 -0.70644440436E+02  0.84420534957E+02  0.21423582897E+03  0.17300000000E+03 0.  1.
         -6    1    1    2    0  502  0.62052612575E+02  0.70644440436E+02  0.54470258484E+03  0.57919864435E+03  0.17300000000E+03 0. -1.
<mgrwt>
<rscale>  2 0.19690141E+03</rscale>
<asrwt>0</asrwt>
<pdfrwt beam="1">  1       21 0.10942750E+00 0.19690141E+03</pdfrwt>
<pdfrwt beam="2">  1       21 0.12639335E-01 0.19690141E+03</pdfrwt>
<totfact> 0.35280113E+04</totfact>
</mgrwt>
</event>
<event>
 4    1  0.4531281E+000  0.2364001E+03  0.7546771E-02  0.1122214E+00
         21   -1    0    0  501  502  0.00000000000E+00  0.00000000000E+00  0.92422364040E+02  0.92422364040E+02  0.00000000000E+00 0. -1.
         21   -1    0    0  502  503 -0.00000000000E+00 -0.00000000000E+00 -0.64377049131E+03  0.64377049131E+03  0.00000000000E+00 0. -1.
          6    1    1    2  501    0  0.15250720876E+03  0.51937943710E+02 -0.18495697407E+03  0.30015676067E+03  0.17300000000E+03 0. -1.
         -6    1    1    2    0  503 -0.15250720876E+03 -0.51937943710E+02 -0.36639115320E+03  0.43603609468E+03  0.17300000000E+03 0. -1.
<mgrwt>
<rscale>  2 0.23640008E+03</rscale>
<asrwt>0</asrwt>
<pdfrwt beam="1">  1       21 0.14218825E-01 0.23640008E+03</pdfrwt>
<pdfrwt beam="2">  1       21 0.99041615E-01 0.23640008E+03</pdfrwt>
<totfact> 0.35495938E+04</totfact>
</mgrwt>
</event>
<event>
 4    1  0.4531281E+000  0.2269141E+03  0.7546771E-02  0.1128831E+00
         21   -1    0    0  503  502  0.00000000000E+00  0.00000000000E+00  0.74544392253E+02  0.74544392253E+02  0.00000000000E+00 0. -1.
         21   -1    0    0  501  503 -0.00000000000E+00 -0.00000000000E+00 -0.69199685999E+03  0.69199685999E+03  0.00000000000E+00 0. -1.
          6    1    1    2  501    0  0.94501198899E+02 -0.11238571262E+03 -0.29232521545E+03  0.37005953113E+03  0.17300000000E+03 0. -1.
         -6    1    1    2    0  502 -0.94501198899E+02  0.11238571262E+03 -0.32512725229E+03  0.39648172111E+03  0.17300000000E+03 0. -1.
<mgrwt>
<rscale>  2 0.22691414E+03</rscale>
<asrwt>0</asrwt>
<pdfrwt beam="1">  1       21 0.11468368E-01 0.22691414E+03</pdfrwt>
<pdfrwt beam="2">  1       21 0.10646106E+00 0.22691414E+03</pdfrwt>
<totfact> 0.44189245E+04</totfact>
</mgrwt>
</event>
<event>
 4    1  0.4531281E+000  0.2650024E+03  0.7546771E-02  0.1104174E+00
         21   -1    0    0  503  502  0.00000000000E+00  0.00000000000E+00  0.50980308449E+03  0.50980308449E+03  0.00000000000E+00 0.  1.
         21   -1    0    0  501  503 -0.00000000000E+00 -0.00000000000E+00 -0.14917100324E+03  0.14917100324E+03  0.00000000000E+00 0. -1.
          6    1    1    2  501    0 -0.18278166705E+03  0.82994904444E+02  0.89153995640E+02  0.27959743724E+03  0.17300000000E+03 0. -1.
         -6    1    1    2    0  502  0.18278166705E+03 -0.82994904444E+02  0.27147808560E+03  0.37937665049E+03  0.17300000000E+03 0.  1.
<mgrwt>
<rscale>  2 0.26500244E+03</rscale>
<asrwt>0</asrwt>
<pdfrwt beam="1">  1       21 0.78431243E-01 0.26500244E+03</pdfrwt>
<pdfrwt beam="2">  1       21 0.22949385E-01 0.26500244E+03</pdfrwt>
<totfact> 0.24698491E+04</totfact>
</mgrwt>
</event>
<event>
 4    1  0.4531281E+000  0.3636571E+03  0.7546771E-02  0.1057145E+00
         21   -1    0    0  501  502  0.00000000000E+00  0.00000000000E+00  0.20229928200E+03  0.20229928200E+03  0.00000000000E+00 0. -1.
         21   -1    0    0  502  503 -0.00000000000E+00 -0.00000000000E+00 -0.13620866013E+04  0.13620866013E+04  0.00000000000E+00 0.  1.
          6    1    1    2  501    0 -0.31119692202E+03  0.73986167934E+02 -0.15812630838E+02  0.36400070964E+03  0.17300000000E+03 0. -1.
         -6    1    1    2    0  503  0.31119692202E+03 -0.73986167934E+02 -0.11439746885E+04  0.12003851737E+04  0.17300000000E+03 0.  1.
<mgrwt>
<rscale>  2 0.36365709E+03</rscale>
<asrwt>0</asrwt>
<pdfrwt beam="1">  1       21 0.31122966E-01 0.36365709E+03</pdfrwt>
<pdfrwt beam="2">  1       21 0.20955179E+00 0.36365709E+03</pdfrwt>
<totfact> 0.10078740E+03</totfact>
</mgrwt>
</event>
<event>
 4    1  0.4531281E+000  0.2354957E+03  0.7546771E-02  0.1122830E+00
         21   -1    0    0  503  502  0.00000000000E+00  0.00000000000E+00  0.93565853947E+03  0.93565853947E+03  0.00000000000E+00 0.  1.
         21   -1    0    0  501  503 -0.00000000000E+00 -0.00000000000E+00 -0.12998028412E+03  0.12998028412E+03  0.00000000000E+00 0. -1.
          6    1    1    2  501    0 -0.36903483150E+01 -0.15973607488E+03  0.98533412711E+01  0.23570176203E+03  0.17300000000E+03 0. -1.
         -6    1    1    2    0  502  0.36903483150E+01  0.15973607488E+03  0.79582491408E+03  0.82993706156E+03  0.17300000000E+03 0.  1.
<mgrwt>
<rscale>  2 0.23549572E+03</rscale>
<asrwt>0</asrwt>
<pdfrwt beam="1">  1       21 0.14394746E+00 0.23549572E+03</pdfrwt>
<pdfrwt beam="2">  1       21 0.19996967E-01 0.23549572E+03</pdfrwt>
<totfact> 0.74496861E+03</totfact>
</mgrwt>
</event>
<event>
 4    1  0.4531281E+000  0.1938598E+03  0.7546771E-02  0.1155025E+00
         21   -1    0    0  501  502  0.00000000000E+00  0.00000000000E+00  0.90116880860E+03  0.90116880860E+03  0.00000000000E+00 0. -1.
         21   -1    0    0  502  503 -0.00000000000E+00 -0.00000000000E+00 -0.86982759744E+02  0.86982759744E+02  0.00000000000E+00 0. -1.
          6    1    1    2  501    0  0.20207940494E+01  0.87455982693E+02  0.76356716014E+03  0.78779213030E+03  0.17300000000E+03 0. -1.
         -6    1    1    2    0  503 -0.20207940494E+01 -0.87455982693E+02  0.50618888712E+02  0.20035943804E+03  0.17300000000E+03 0. -1.
<mgrwt>
<rscale>  2 0.19385983E+03</rscale>
<asrwt>0</asrwt>
<pdfrwt beam="1">  1       21 0.13864135E+00 0.19385983E+03</pdfrwt>
<pdfrwt beam="2">  1       21 0.13381964E-01 0.19385983E+03</pdfrwt>
<totfact> 0.17690145E+04</totfact>
</mgrwt>
</event>
<event>
 4    1  0.4531281E+000  0.2803577E+03  0.7546771E-02  0.1095494E+00
         21   -1    0    0  503  502  0.00000000000E+00  0.00000000000E+00  0.14984838812E+04  0.14984838812E+04  0.00000000000E+00 0. -1.
         21   -1    0    0  501  503 -0.00000000000E+00 -0.00000000000E+00 -0.73306241538E+02  0.73306241538E+02  0.00000000000E+00 0.  1.
          6    1    1    2  501    0 -0.17530041120E+03 -0.13394478084E+03  0.29343092642E+03  0.40583512300E+03  0.17300000000E+03 0.  1.
         -6    1    1    2    0  502  0.17530041120E+03  0.13394478084E+03  0.11317467132E+04  0.11659549997E+04  0.17300000000E+03 0. -1.
<mgrwt>
<rscale>  2 0.28035770E+03</rscale>
<asrwt>0</asrwt>
<pdfrwt beam="1">  1       21 0.23053596E+00 0.28035770E+03</pdfrwt>
<pdfrwt beam="2">  1       21 0.11277884E-01 0.28035770E+03</pdfrwt>
<totfact> 0.52937512E+03</totfact>
</mgrwt>
</event>
<event>
 4    1  0.4531281E+000  0.1877214E+03  0.7546771E-02  0.1160533E+00
         21   -1    0    0  503  502  0.00000000000E+00  0.00000000000E+00  0.89317257466E+02  0.89317257466E+02  0.00000000000E+00 0. -1.
         21   -1    0    0  501  503 -0.00000000000E+00 -0.00000000000E+00 -0.13405777490E+04  0.13405777490E+04  0.00000000000E+00 0. -1.
          6    1    1    2  501    0  0.72768145297E+02  0.38905098748E+01 -0.12262257892E+04  0.12405115982E+04  0.17300000000E+03 0. -1.
         -6    1    1    2    0  502 -0.72768145297E+02 -0.38905098748E+01 -0.25034702368E+02  0.18938340835E+03  0.17300000000E+03 0. -1.
<mgrwt>
<rscale>  2 0.18772144E+03</rscale>
<asrwt>0</asrwt>
<pdfrwt beam="1">  1       21 0.13741117E-01 0.18772144E+03</pdfrwt>
<pdfrwt beam="2">  1       21 0.20624273E+00 0.18772144E+03</pdfrwt>
<totfact> 0.56612255E+03</totfact>
</mgrwt>
</event>
<event>
 4    1  0.4531281E+000  0.2245072E+03  0.7546771E-02  0.1130567E+00
         21   -1    0    0  501  502  0.00000000000E+00  0.00000000000E+00  0.44467199970E+03  0.44467199970E+03  0.00000000000E+00 0.  1.
         21   -1    0    0  502  503 -0.00000000000E+00 -0.00000000000E+00 -0.14300898724E+03  0.14300898724E+03  0.00000000000E+00 0. -1.
          6    1    1    2  501    0 -0.41890628529E+02 -0.13681980439E+03  0.28464797923E+03  0.36252993767E+03  0.17300000000E+03 0.  1.
         -6    1    1    2    0  503  0.41890628529E+02  0.13681980439E+03  0.17015033239E+02  0.22515104927E+03  0.17300000000E+03 0. -1.
<mgrwt>
<rscale>  2 0.22450720E+03</rscale>
<asrwt>0</asrwt>
<pdfrwt beam="1">  1       21 0.68411076E-01 0.22450720E+03</pdfrwt>
<pdfrwt beam="2">  1       21 0.22001383E-01 0.22450720E+03</pdfrwt>
<totfact> 0.37010017E+04</totfact>
</mgrwt>
</event>
<event>
 4    1  0.4531281E+000  0.2086416E+03  0.7546771E-02  0.1142646E+00
         21   -1    0    0  503  502  0.00000000000E+00  0.00000000000E+00  0.61910339553E+02  0.61910339553E+02  0.00000000000E+00 0.  1.
         21   -1    0    0  501  503 -0.00000000000E+00 -0.00000000000E+00 -0.91412683792E+03  0.91412683792E+03  0.00000000000E+00 0.  1.
          6    1    1    2  501    0 -0.10090750476E+03 -0.58480611916E+02 -0.66056691908E+03  0.69273368698E+03  0.17300000000E+03 0.  1.
         -6    1    1    2    0  502  0.10090750476E+03  0.58480611916E+02 -0.19164957929E+03  0.28330349050E+03  0.17300000000E+03 0.  1.
<mgrwt>
<rscale>  2 0.20864157E+03</rscale>
<asrwt>0</asrwt>
<pdfrwt beam="1">  1       21 0.95246687E-02 0.20864157E+03</pdfrwt>
<pdfrwt beam="2">  1       21 0.14063488E+00 0.20864157E+03</pdfrwt>
<totfact> 0.30971207E+04</totfact>
</mgrwt>
</event>
<event>
 4    1  0.4531281E+000  0.1838137E+03  0.7546771E-02  0.1164162E+00
         21   -1    0    0  501  502  0.00000000000E+00  0.00000000000E+00  0.42522924024E+03  0.42522924024E+03  0.00000000000E+00 0. -1.
         21   -1    0    0  502  503 -0.00000000000E+00 -0.00000000000E+00 -0.12653108221E+03  0.12653108221E+03  0.00000000000E+00 0. -1.
          6    1    1    2  501    0 -0.46614717196E+02  0.41055350157E+02  0.31762129844E+03  0.36697515292E+03  0.17300000000E+03 0. -1.
         -6    1    1    2    0  503  0.46614717196E+02 -0.41055350157E+02 -0.18923140405E+02  0.18478516953E+03  0.17300000000E+03 0. -1.
<mgrwt>
<rscale>  2 0.18381369E+03</rscale>
<asrwt>0</asrwt>
<pdfrwt beam="1">  1       21 0.65419882E-01 0.18381369E+03</pdfrwt>
<pdfrwt beam="2">  1       21 0.19466321E-01 0.18381369E+03</pdfrwt>
<totfact> 0.52392358E+04</totfact>
</mgrwt>
</event>
<event>
 4    1  0.4531281E+000  0.1839164E+03  0.7546771E-02  0.1164066E+00
         21   -1    0    0  503  502  0.00000000000E+00  0.00000000000E+00  0.22461134777E+03  0.22461134777E+03  0.00000000000E+00 0.  1.
         21   -1    0    0  501  503 -0.00000000000E+00 -0.00000000000E+00 -0.41170043617E+03  0.41170043617E+03  0.00000000000E+00 0.  1.
          6    1    1    2  501    0 -0.61855152766E+02 -0.83783411211E+01 -0.34691594632E+03  0.39265242943E+03  0.17300000000E+03 0.  1.
         -6    1    1    2    0  502  0.61855152766E+02  0.83783411211E+01  0.15982685793E+03  0.24365935451E+03  0.17300000000E+03 0.  1.
<mgrwt>
<rscale>  2 0.18391644E+03</rscale>
<asrwt>0</asrwt>
<pdfrwt beam="1">  1       21 0.34555592E-01 0.18391644E+03</pdfrwt>
<pdfrwt beam="2">  1       21 0.63338528E-01 0.18391644E+03</pdfrwt>
<totfact> 0.18707466E+04</totfact>
</mgrwt>
</event>
<event>
 4    1  0.4531281E+000  0.1803920E+03  0.7546771E-02  0.1167424E+00
         21   -1    0    0  503  502  0.00000000000E+00  0.00000000000E+00  0.33172177858E+03  0.33172177858E+03  0.00000000000E+00 0.  1.
         21   -1    0    0  501  503 -0.00000000000E+00 -0.00000000000E+00 -0.10080053755E+03  0.10080053755E+03  0.00000000000E+00 0.  1.
          6    1    1    2  501    0  0.50747453563E+02 -0.60808746167E+01  0.80050797734E+02  0.19735605209E+03  0.17300000000E+03 0.  1.
         -6    1    1    2    0  502 -0.50747453563E+02  0.60808746167E+01  0.15087044330E+03  0.23516626404E+03  0.17300000000E+03 0.  1.
<mgrwt>
<rscale>  2 0.18039202E+03</rscale>
<asrwt>0</asrwt>
<pdfrwt beam="1">  1       21 0.51034119E-01 0.18039202E+03</pdfrwt>
<pdfrwt beam="2">  1       21 0.15507775E-01 0.18039202E+03</pdfrwt>
<totfact> 0.13534771E+05</totfact>
</mgrwt>
</event>
<event>
 4    1  0.4531281E+000  0.1939530E+03  0.7546771E-02  0.1154944E+00
         21   -1    0    0  501  502  0.00000000000E+00  0.00000000000E+00  0.71692788644E+02  0.71692788644E+02  0.00000000000E+00 0.  1.
         21   -1    0    0  502  503 -0.00000000000E+00 -0.00000000000E+00 -0.81274012492E+03  0.81274012492E+03  0.00000000000E+00 0.  1.
          6    1    1    2  501    0 -0.87259365275E+02 -0.86360434029E+01 -0.63378042790E+03  0.66279363973E+03  0.17300000000E+03 0.  1.
         -6    1    1    2    0  503  0.87259365275E+02  0.86360434029E+01 -0.10726690837E+03  0.22163927383E+03  0.17300000000E+03 0.  1.
<mgrwt>
<rscale>  2 0.19395303E+03</rscale>
<asrwt>0</asrwt>
<pdfrwt beam="1">  1       21 0.11029661E-01 0.19395303E+03</pdfrwt>
<pdfrwt beam="2">  1       21 0.12503693E+00 0.19395303E+03</pdfrwt>
<totfact> 0.32488567E+04</totfact>
</mgrwt>
</event>
<event>
 4    1  0.4531281E+000  0.1763302E+03  0.7546771E-02  0.1171403E+00
         21   -1    0    0  501  502  0.00000000000E+00  0.00000000000E+00  0.10082865537E+03  0.10082865537E+03  0.00000000000E+00 0. -1.
         21   -1    0    0  502  503 -0.00000000000E+00 -0.00000000000E+00 -0.39938097267E+03  0.39938097267E+03  0.00000000000E+00 0. -1.
          6    1    1    2  501    0  0.33583777261E+02 -0.59543146931E+01 -0.29882797787E+02  0.17884436128E+03  0.17300000000E+03 0. -1.
         -6    1    1    2    0  503 -0.33583777261E+02  0.59543146931E+01 -0.26866951952E+03  0.32136526676E+03  0.17300000000E+03 0. -1.
<mgrwt>
<rscale>  2 0.17633016E+03</rscale>
<asrwt>0</asrwt>
<pdfrwt beam="1">  1       21 0.15512101E-01 0.17633016E+03</pdfrwt>
<pdfrwt beam="2">  1       21 0.61443228E-01 0.17633016E+03</pdfrwt>
<totfact> 0.91438552E+04</totfact>
</mgrwt>
</event>
<event>
 4    1  0.4531281E+000  0.2169241E+03  0.7546771E-02  0.1136197E+00
         21   -1    0    0  503  502  0.00000000000E+00  0.00000000000E+00  0.45624711536E+02  0.45624711536E+02  0.00000000000E+00 0. -1.
         21   -1    0    0  501  503 -0.00000000000E+00 -0.00000000000E+00 -0.10314436136E+04  0.10314436136E+04  0.00000000000E+00 0.  1.
          6    1    1    2  501    0 -0.12771048633E+03  0.28585262939E+02 -0.49737227747E+03  0.54261889755E+03  0.17300000000E+03 0.  1.
         -6    1    1    2    0  502  0.12771048633E+03 -0.28585262939E+02 -0.48844662461E+03  0.53444942761E+03  0.17300000000E+03 0. -1.
<mgrwt>
<rscale>  2 0.21692415E+03</rscale>
<asrwt>0</asrwt>
<pdfrwt beam="1">  1       21 0.70191870E-02 0.21692415E+03</pdfrwt>
<pdfrwt beam="2">  1       21 0.15868362E+00 0.21692415E+03</pdfrwt>
<totfact> 0.38188305E+04</totfact>
</mgrwt>
</event>
<event>
 4    1  0.4531281E+000  0.2610074E+03  0.7546771E-02  0.1106540E+00
         21   -1    0    0  501  502  0.00000000000E+00  0.00000000000E+00  0.97657211088E+02  0.97657211088E+02  0.00000000000E+00 0.  1.
         21   -1    0    0  502  503 -0.00000000000E+00 -0.00000000000E+00 -0.89410081506E+03  0.89410081506E+03  0.00000000000E+00 0. -1.
          6    1    1    2  501    0 -0.33346398974E+02 -0.19257169409E+03 -0.16574797692E+03  0.30918801972E+03  0.17300000000E+03 0.  1.
         -6    1    1    2    0  503  0.33346398974E+02  0.19257169409E+03 -0.63069562706E+03  0.68257000643E+03  0.17300000000E+03 0.  1.
<mgrwt>
<rscale>  2 0.26100736E+03</rscale>
<asrwt>0</asrwt>
<pdfrwt beam="1">  1       21 0.15024187E-01 0.26100736E+03</pdfrwt>
<pdfrwt beam="2">  1       21 0.13755397E+00 0.26100736E+03</pdfrwt>
<totfact> 0.14040203E+04</totfact>
</mgrwt>
</event>
<event>
 4    1  0.4531281E+000  0.2016731E+03  0.7546771E-02  0.1148335E+00
         21   -1    0    0  501  502  0.00000000000E+00  0.00000000000E+00  0.12159397972E+04  0.12159397972E+04  0.00000000000E+00 0.  1.
         21   -1    0    0  502  503 -0.00000000000E+00 -0.00000000000E+00 -0.39296070563E+02  0.39296070563E+02  0.00000000000E+00 0.  1.
          6    1    1    2  501    0  0.46080259186E+02 -0.92842035173E+02  0.34622564238E+03  0.40067970902E+03  0.17300000000E+03 0.  1.
         -6    1    1    2    0  503 -0.46080259186E+02  0.92842035173E+02  0.83041808428E+03  0.85455615877E+03  0.17300000000E+03 0.  1.
<mgrwt>
<rscale>  2 0.20167309E+03</rscale>
<asrwt>0</asrwt>
<pdfrwt beam="1">  1       21 0.18706763E+00 0.20167309E+03</pdfrwt>
<pdfrwt beam="2">  1       21 0.60455503E-02 0.20167309E+03</pdfrwt>
<totfact> 0.31550764E+04</totfact>
</mgrwt>
</event>
<event>
 4    1  0.4531281E+000  0.2279270E+03  0.7546771E-02  0.1128107E+00
         21   -1    0    0  503  502  0.00000000000E+00  0.00000000000E+00  0.87718638753E+02  0.87718638753E+02  0.00000000000E+00 0.  1.
         21   -1    0    0  501  503 -0.00000000000E+00 -0.00000000000E+00 -0.80617592452E+03  0.80617592452E+03  0.00000000000E+00 0. -1.
          6    1    1    2  501    0 -0.13312421285E+03 -0.65571692249E+02 -0.58946862604E+03  0.63199997148E+03  0.17300000000E+03 0. -1.
         -6    1    1    2    0  502  0.13312421285E+03  0.65571692249E+02 -0.12898865973E+03  0.26189459179E+03  0.17300000000E+03 0.  1.
<mgrwt>
<rscale>  2 0.22792697E+03</rscale>
<asrwt>0</asrwt>
<pdfrwt beam="1">  1       21 0.13495174E-01 0.22792697E+03</pdfrwt>
<pdfrwt beam="2">  1       21 0.12402707E+00 0.22792697E+03</pdfrwt>
<totfact> 0.22630947E+04</totfact>
</mgrwt>
</event>
<event>
 4    1  0.4531281E+000  0.1975735E+03  0.7546771E-02  0.1151803E+00
         21   -1    0    0  501  502  0.00000000000E+00  0.00000000000E+00  0.21513254180E+03  0.21513254180E+03  0.00000000000E+00 0.  1.
         21   -1    0    0  502  503 -0.00000000000E+00 -0.00000000000E+00 -0.43247751050E+03  0.43247751050E+03  0.00000000000E+00 0.  1.
          6    1    1    2  501    0  0.94005090019E+02  0.16410906135E+02  0.13802492660E+03  0.24101069510E+03  0.17300000000E+03 0.  1.
         -6    1    1    2    0  503 -0.94005090019E+02 -0.16410906135E+02 -0.35536989530E+03  0.40659935720E+03  0.17300000000E+03 0.  1.
<mgrwt>
<rscale>  2 0.19757347E+03</rscale>
<asrwt>0</asrwt>
<pdfrwt beam="1">  1       21 0.33097314E-01 0.19757347E+03</pdfrwt>
<pdfrwt beam="2">  1       21 0.66535002E-01 0.19757347E+03</pdfrwt>
<totfact> 0.18150760E+04</totfact>
</mgrwt>
</event>
<event>
 4    1  0.4531281E+000  0.1899893E+03  0.7546771E-02  0.1158471E+00
         21   -1    0    0  501  502  0.00000000000E+00  0.00000000000E+00  0.16157971003E+03  0.16157971003E+03  0.00000000000E+00 0.  1.
         21   -1    0    0  502  503 -0.00000000000E+00 -0.00000000000E+00 -0.32382033459E+03  0.32382033459E+03  0.00000000000E+00 0.  1.
          6    1    1    2  501    0 -0.40112594991E+02 -0.67512237136E+02  0.54037691371E+02  0.19752466815E+03  0.17300000000E+03 0.  1.
         -6    1    1    2    0  503  0.40112594991E+02  0.67512237136E+02 -0.21627831593E+03  0.28787537648E+03  0.17300000000E+03 0.  1.
<mgrwt>
<rscale>  2 0.18998927E+03</rscale>
<asrwt>0</asrwt>
<pdfrwt beam="1">  1       21 0.24858417E-01 0.18998927E+03</pdfrwt>
<pdfrwt beam="2">  1       21 0.49818513E-01 0.18998927E+03</pdfrwt>
<totfact> 0.58860077E+04</totfact>
</mgrwt>
</event>
<event>
 4    1  0.4531281E+000  0.1970738E+03  0.7546771E-02  0.1152232E+00
         21   -1    0    0  503  502  0.00000000000E+00  0.00000000000E+00  0.33160294381E+03  0.33160294381E+03  0.00000000000E+00 0.  1.
         21   -1    0    0  501  503 -0.00000000000E+00 -0.00000000000E+00 -0.15147058380E+03  0.15147058380E+03  0.00000000000E+00 0.  1.
          6    1    1    2  501    0  0.44257933906E+01  0.94284047327E+02  0.20508586962E+03  0.28442623498E+03  0.17300000000E+03 0.  1.
         -6    1    1    2    0  502 -0.44257933906E+01 -0.94284047327E+02 -0.24953509604E+02  0.19864729263E+03  0.17300000000E+03 0.  1.
<mgrwt>
<rscale>  2 0.19707377E+03</rscale>
<asrwt>0</asrwt>
<pdfrwt beam="1">  1       21 0.51015837E-01 0.19707377E+03</pdfrwt>
<pdfrwt beam="2">  1       21 0.23303167E-01 0.19707377E+03</pdfrwt>
<totfact> 0.63131119E+04</totfact>
</mgrwt>
</event>
<event>
 4    1  0.4531281E+000  0.2664313E+03  0.7546771E-02  0.1103340E+00
         21   -1    0    0  503  502  0.00000000000E+00  0.00000000000E+00  0.22644206465E+04  0.22644206465E+04  0.00000000000E+00 0.  1.
         21   -1    0    0  501  503 -0.00000000000E+00 -0.00000000000E+00 -0.62247173084E+02  0.62247173084E+02  0.00000000000E+00 0. -1.
          6    1    1    2  501    0 -0.18600275934E+03 -0.80371706735E+02  0.28145984010E+03  0.38756325847E+03  0.17300000000E+03 0. -1.
         -6    1    1    2    0  502  0.18600275934E+03  0.80371706735E+02  0.19207136333E+04  0.19391045611E+04  0.17300000000E+03 0.  1.
<mgrwt>
<rscale>  2 0.26643130E+03</rscale>
<asrwt>0</asrwt>
<pdfrwt beam="1">  1       21 0.34837234E+00 0.26643130E+03</pdfrwt>
<pdfrwt beam="2">  1       21 0.95764899E-02 0.26643130E+03</pdfrwt>
<totfact> 0.14336243E+03</totfact>
</mgrwt>
</event>
<event>
 4    1  0.4531281E+000  0.2086355E+03  0.7546771E-02  0.1142651E+00
         21   -1    0    0  501  502  0.00000000000E+00  0.00000000000E+00  0.91314456921E+02  0.91314456921E+02  0.00000000000E+00 0.  1.
         21   -1    0    0  502  503 -0.00000000000E+00 -0.00000000000E+00 -0.47697133755E+03  0.47697133755E+03  0.00000000000E+00 0. -1.
          6    1    1    2  501    0 -0.12296143201E+02 -0.11596806181E+03 -0.18594073851E+03  0.27946868293E+03  0.17300000000E+03 0.  1.
         -6    1    1    2    0  503  0.12296143201E+02  0.11596806181E+03 -0.19971614212E+03  0.28881711154E+03  0.17300000000E+03 0. -1.
<mgrwt>
<rscale>  2 0.20863554E+03</rscale>
<asrwt>0</asrwt>
<pdfrwt beam="1">  1       21 0.14048378E-01 0.20863554E+03</pdfrwt>
<pdfrwt beam="2">  1       21 0.73380208E-01 0.20863554E+03</pdfrwt>
<totfact> 0.73230090E+04</totfact>
</mgrwt>
</event>
<event>
 4    1  0.4531281E+000  0.1998084E+03  0.7546771E-02  0.1149901E+00
         21   -1    0    0  501  502  0.00000000000E+00  0.00000000000E+00  0.74546434148E+03  0.74546434148E+03  0.00000000000E+00 0. -1.
         21   -1    0    0  502  503 -0.00000000000E+00 -0.00000000000E+00 -0.56559948387E+02  0.56559948387E+02  0.00000000000E+00 0. -1.
          6    1    1    2  501    0 -0.99636199207E+02  0.81859372318E+01  0.25202117435E+03  0.32161786965E+03  0.17300000000E+03 0. -1.
         -6    1    1    2    0  503  0.99636199207E+02 -0.81859372318E+01  0.43688321874E+03  0.48040642021E+03  0.17300000000E+03 0. -1.
<mgrwt>
<rscale>  2 0.19980836E+03</rscale>
<asrwt>0</asrwt>
<pdfrwt beam="1">  1       21 0.11468681E+00 0.19980836E+03</pdfrwt>
<pdfrwt beam="2">  1       21 0.87015311E-02 0.19980836E+03</pdfrwt>
<totfact> 0.60938065E+04</totfact>
</mgrwt>
</event>
<event>
 4    1  0.4531281E+000  0.1843600E+03  0.7546771E-02  0.1163649E+00
         21   -1    0    0  503  502  0.00000000000E+00  0.00000000000E+00  0.82264112548E+02  0.82264112548E+02  0.00000000000E+00 0.  1.
         21   -1    0    0  501  503 -0.00000000000E+00 -0.00000000000E+00 -0.45417668935E+03  0.45417668935E+03  0.00000000000E+00 0.  1.
          6    1    1    2  501    0  0.32126743109E+02 -0.55022689720E+02 -0.26655628480E+03  0.32410010332E+03  0.17300000000E+03 0. -1.
         -6    1    1    2    0  502 -0.32126743109E+02  0.55022689720E+02 -0.10535629200E+03  0.21234069857E+03  0.17300000000E+03 0. -1.
<mgrwt>
<rscale>  2 0.18436004E+03</rscale>
<asrwt>0</asrwt>
<pdfrwt beam="1">  1       21 0.12656017E-01 0.18436004E+03</pdfrwt>
<pdfrwt beam="2">  1       21 0.69873336E-01 0.18436004E+03</pdfrwt>
<totfact> 0.99551973E+04</totfact>
</mgrwt>
</event>
<event>
 4    1  0.4531281E+000  0.2216990E+03  0.7546771E-02  0.1132623E+00
         21   -1    0    0  501  502  0.00000000000E+00  0.00000000000E+00  0.53044087022E+02  0.53044087022E+02  0.00000000000E+00 0.  1.
         21   -1    0    0  502  503 -0.00000000000E+00 -0.00000000000E+00 -0.11844257211E+04  0.11844257211E+04  0.00000000000E+00 0. -1.
          6    1    1    2  501    0  0.91674027409E+02  0.10400636888E+03 -0.27701062816E+03  0.35480324150E+03  0.17300000000E+03 0.  1.
         -6    1    1    2    0  503 -0.91674027409E+02 -0.10400636888E+03 -0.85437100590E+03  0.88266656660E+03  0.17300000000E+03 0. -1.
<mgrwt>
<rscale>  2 0.22169901E+03</rscale>
<asrwt>0</asrwt>
<pdfrwt beam="1">  1       21 0.81606284E-02 0.22169901E+03</pdfrwt>
<pdfrwt beam="2">  1       21 0.18221935E+00 0.22169901E+03</pdfrwt>
<totfact> 0.19964336E+04</totfact>
</mgrwt>
</event>
<event>
 4    1  0.4531281E+000  0.2086023E+03  0.7546771E-02  0.1142678E+00
         21   -1    0    0  503  502  0.00000000000E+00  0.00000000000E+00  0.23182760298E+03  0.23182760298E+03  0.00000000000E+00 0.  1.
         21   -1    0    0  501  503 -0.00000000000E+00 -0.00000000000E+00 -0.68561792753E+03  0.68561792753E+03  0.00000000000E+00 0. -1.
          6    1    1    2  501    0 -0.85063991472E+02  0.79687103458E+02 -0.61781386133E+03  0.65208042783E+03  0.17300000000E+03 0. -1.
         -6    1    1    2    0  502  0.85063991472E+02 -0.79687103458E+02  0.16402353678E+03  0.26536510268E+03  0.17300000000E+03 0.  1.
<mgrwt>
<rscale>  2 0.20860229E+03</rscale>
<asrwt>0</asrwt>
<pdfrwt beam="1">  1       21 0.35665785E-01 0.20860229E+03</pdfrwt>
<pdfrwt beam="2">  1       21 0.10547968E+00 0.20860229E+03</pdfrwt>
<totfact> 0.54104552E+03</totfact>
</mgrwt>
</event>
<event>
 4    1  0.4531281E+000  0.1797158E+03  0.7546771E-02  0.1168078E+00
         21   -1    0    0  501  502  0.00000000000E+00  0.00000000000E+00  0.18424451185E+03  0.18424451185E+03  0.00000000000E+00 0.  1.
         21   -1    0    0  502  503 -0.00000000000E+00 -0.00000000000E+00 -0.21442809245E+03  0.21442809245E+03  0.00000000000E+00 0.  1.
          6    1    1    2  501    0  0.84410623263E+01 -0.47932317437E+02  0.70061034836E+02  0.19288936516E+03  0.17300000000E+03 0.  1.
         -6    1    1    2    0  503 -0.84410623263E+01  0.47932317437E+02 -0.10024461544E+03  0.20578323914E+03  0.17300000000E+03 0.  1.
<mgrwt>
<rscale>  2 0.17971577E+03</rscale>
<asrwt>0</asrwt>
<pdfrwt beam="1">  1       21 0.28345309E-01 0.17971577E+03</pdfrwt>
<pdfrwt beam="2">  1       21 0.32988938E-01 0.17971577E+03</pdfrwt>
<totfact> 0.10575644E+05</totfact>
</mgrwt>
</event>
<event>
 4    1  0.4531281E+000  0.3615141E+03  0.7546771E-02  0.1057986E+00
         21   -1    0    0  503  502  0.00000000000E+00  0.00000000000E+00  0.33653075476E+03  0.33653075476E+03  0.00000000000E+00 0. -1.
         21   -1    0    0  501  503 -0.00000000000E+00 -0.00000000000E+00 -0.40640358999E+03  0.40640358999E+03  0.00000000000E+00 0. -1.
          6    1    1    2  501    0  0.21201081920E+03  0.23625167802E+03 -0.11322484587E+03  0.37883018431E+03  0.17300000000E+03 0. -1.
         -6    1    1    2    0  502 -0.21201081920E+03 -0.23625167802E+03  0.43352010643E+02  0.36410416044E+03  0.17300000000E+03 0. -1.
<mgrwt>
<rscale>  2 0.36151410E+03</rscale>
<asrwt>0</asrwt>
<pdfrwt beam="1">  1       21 0.51773962E-01 0.36151410E+03</pdfrwt>
<pdfrwt beam="2">  1       21 0.62523629E-01 0.36151410E+03</pdfrwt>
<totfact> 0.76833948E+03</totfact>
</mgrwt>
</event>
<event>
 4    1  0.4531281E+000  0.2307415E+03  0.7546771E-02  0.1126119E+00
         21   -1    0    0  501  502  0.00000000000E+00  0.00000000000E+00  0.60270241817E+03  0.60270241817E+03  0.00000000000E+00 0.  1.
         21   -1    0    0  502  503 -0.00000000000E+00 -0.00000000000E+00 -0.14127141065E+03  0.14127141065E+03  0.00000000000E+00 0. -1.
          6    1    1    2  501    0  0.14941110748E+03  0.31447970023E+02  0.45841632236E+03  0.51321260552E+03  0.17300000000E+03 0.  1.
         -6    1    1    2    0  503 -0.14941110748E+03 -0.31447970023E+02  0.30146851546E+01  0.23076122331E+03  0.17300000000E+03 0. -1.
<mgrwt>
<rscale>  2 0.23074153E+03</rscale>
<asrwt>0</asrwt>
<pdfrwt beam="1">  1       21 0.92723448E-01 0.23074153E+03</pdfrwt>
<pdfrwt beam="2">  1       21 0.21734063E-01 0.23074153E+03</pdfrwt>
<totfact> 0.18931289E+04</totfact>
</mgrwt>
</event>
<event>
 4    1  0.4531281E+000  0.2416946E+03  0.7546771E-02  0.1118669E+00
         21   -1    0    0  501  502  0.00000000000E+00  0.00000000000E+00  0.48262297411E+02  0.48262297411E+02  0.00000000000E+00 0. -1.
         21   -1    0    0  502  503 -0.00000000000E+00 -0.00000000000E+00 -0.12765447367E+04  0.12765447367E+04  0.00000000000E+00 0. -1.
          6    1    1    2  501    0  0.54137007978E+02 -0.15986385746E+03 -0.46334843289E+03  0.52259739648E+03  0.17300000000E+03 0. -1.
         -6    1    1    2    0  503 -0.54137007978E+02  0.15986385746E+03 -0.76493400645E+03  0.80220963767E+03  0.17300000000E+03 0. -1.
<mgrwt>
<rscale>  2 0.24169458E+03</rscale>
<asrwt>0</asrwt>
<pdfrwt beam="1">  1       21 0.74249701E-02 0.24169458E+03</pdfrwt>
<pdfrwt beam="2">  1       21 0.19639146E+00 0.24169458E+03</pdfrwt>
<totfact> 0.18698157E+04</totfact>
</mgrwt>
</event>
<event>
 4    1  0.4531281E+000  0.1856333E+03  0.7546771E-02  0.1162460E+00
         21   -1    0    0  501  502  0.00000000000E+00  0.00000000000E+00  0.23010194693E+03  0.23010194693E+03  0.00000000000E+00 0.  1.
         21   -1    0    0  502  503 -0.00000000000E+00 -0.00000000000E+00 -0.19904321400E+03  0.19904321400E+03  0.00000000000E+00 0.  1.
          6    1    1    2  501    0  0.67242569643E+02 -0.30267333742E+01  0.12230118035E+03  0.22230002925E+03  0.17300000000E+03 0.  1.
         -6    1    1    2    0  503 -0.67242569643E+02  0.30267333742E+01 -0.91242447430E+02  0.20684513168E+03  0.17300000000E+03 0.  1.
<mgrwt>
<rscale>  2 0.18563331E+03</rscale>
<asrwt>0</asrwt>
<pdfrwt beam="1">  1       21 0.35400299E-01 0.18563331E+03</pdfrwt>
<pdfrwt beam="2">  1       21 0.30622033E-01 0.18563331E+03</pdfrwt>
<totfact> 0.78991023E+04</totfact>
</mgrwt>
</event>
<event>
 4    1  0.4531281E+000  0.1881849E+03  0.7546771E-02  0.1160109E+00
         21   -1    0    0  501  502  0.00000000000E+00  0.00000000000E+00  0.29615340322E+03  0.29615340322E+03  0.00000000000E+00 0.  1.
         21   -1    0    0  502  503 -0.00000000000E+00 -0.00000000000E+00 -0.14781764398E+03  0.14781764398E+03  0.00000000000E+00 0.  1.
          6    1    1    2  501    0 -0.13193144611E+02  0.72873223226E+02  0.17119377138E+03  0.25440297382E+03  0.17300000000E+03 0.  1.
         -6    1    1    2    0  503  0.13193144611E+02 -0.72873223226E+02 -0.22858012143E+02  0.18956807339E+03  0.17300000000E+03 0.  1.
<mgrwt>
<rscale>  2 0.18818492E+03</rscale>
<asrwt>0</asrwt>
<pdfrwt beam="1">  1       21 0.45562062E-01 0.18818492E+03</pdfrwt>
<pdfrwt beam="2">  1       21 0.22741176E-01 0.18818492E+03</pdfrwt>
<totfact> 0.83909918E+04</totfact>
</mgrwt>
</event>
<event>
 4    1  0.4531281E+000  0.2588420E+03  0.7546771E-02  0.1107841E+00
         21   -1    0    0  503  502  0.00000000000E+00  0.00000000000E+00  0.14628093371E+04  0.14628093371E+04  0.00000000000E+00 0. -1.
         21   -1    0    0  501  503 -0.00000000000E+00 -0.00000000000E+00 -0.46041955797E+02  0.46041955797E+02  0.00000000000E+00 0. -1.
          6    1    1    2  501    0  0.15876827732E+03 -0.10891647140E+03  0.76288046649E+03  0.80559653039E+03  0.17300000000E+03 0. -1.
         -6    1    1    2    0  502 -0.15876827732E+03  0.10891647140E+03  0.65388691479E+03  0.70325476249E+03  0.17300000000E+03 0. -1.
<mgrwt>
<rscale>  2 0.25884197E+03</rscale>
<asrwt>0</asrwt>
<pdfrwt beam="1">  1       21 0.22504756E+00 0.25884197E+03</pdfrwt>
<pdfrwt beam="2">  1       21 0.70833789E-02 0.25884197E+03</pdfrwt>
<totfact> 0.13207084E+04</totfact>
</mgrwt>
</event>
<event>
 4    1  0.4531281E+000  0.2789332E+03  0.7546771E-02  0.1096273E+00
         21   -1    0    0  503  502  0.00000000000E+00  0.00000000000E+00  0.16549469994E+03  0.16549469994E+03  0.00000000000E+00 0. -1.
         21   -1    0    0  501  503 -0.00000000000E+00 -0.00000000000E+00 -0.55166592798E+03  0.55166592798E+03  0.00000000000E+00 0. -1.
          6    1    1    2  501    0  0.12781997533E+03  0.17758591935E+03 -0.33094235135E+03  0.43281236669E+03  0.17300000000E+03 0. -1.
         -6    1    1    2    0  502 -0.12781997533E+03 -0.17758591935E+03 -0.55228876682E+02  0.28434826123E+03  0.17300000000E+03 0. -1.
<mgrwt>
<rscale>  2 0.27893315E+03</rscale>
<asrwt>0</asrwt>
<pdfrwt beam="1">  1       21 0.25460723E-01 0.27893315E+03</pdfrwt>
<pdfrwt beam="2">  1       21 0.84871681E-01 0.27893315E+03</pdfrwt>
<totfact> 0.16786335E+04</totfact>
</mgrwt>
</event>
<event>
 4    1  0.4531281E+000  0.2125480E+03  0.7546771E-02  0.1139564E+00
         21   -1    0    0  503  502  0.00000000000E+00  0.00000000000E+00  0.24320821303E+03  0.24320821303E+03  0.00000000000E+00 0.  1.
         21   -1    0    0  501  503 -0.00000000000E+00 -0.00000000000E+00 -0.18935057588E+03  0.18935057588E+03  0.00000000000E+00 0. -1.
          6    1    1    2  501    0 -0.48520967763E+02  0.11354898138E+03 -0.28828812025E+01  0.21256755747E+03  0.17300000000E+03 0. -1.
         -6    1    1    2    0  502  0.48520967763E+02 -0.11354898138E+03  0.56740518355E+02  0.21999123144E+03  0.17300000000E+03 0.  1.
<mgrwt>
<rscale>  2 0.21254801E+03</rscale>
<asrwt>0</asrwt>
<pdfrwt beam="1">  1       21 0.37416649E-01 0.21254801E+03</pdfrwt>
<pdfrwt beam="2">  1       21 0.29130858E-01 0.21254801E+03</pdfrwt>
<totfact> 0.77070784E+04</totfact>
</mgrwt>
</event>
<event>
 4    1  0.4531281E+000  0.1813141E+03  0.7546771E-02  0.1166537E+00
         21   -1    0    0  503  502  0.00000000000E+00  0.00000000000E+00  0.50027462799E+02  0.50027462799E+02  0.00000000000E+00 0.  1.
         21   -1    0    0  501  503 -0.00000000000E+00 -0.00000000000E+00 -0.69055118007E+03  0.69055118007E+03  0.00000000000E+00 0.  1.
          6    1    1    2  501    0 -0.28380567084E+02 -0.46263819887E+02 -0.40171757034E+03  0.44074006391E+03  0.17300000000E+03 0.  1.
         -6    1    1    2    0  502  0.28380567084E+02  0.46263819887E+02 -0.23880614693E+03  0.29983857896E+03  0.17300000000E+03 0.  1.
<mgrwt>
<rscale>  2 0.18131409E+03</rscale>
<asrwt>0</asrwt>
<pdfrwt beam="1">  1       21 0.76965324E-02 0.18131409E+03</pdfrwt>
<pdfrwt beam="2">  1       21 0.10623865E+00 0.18131409E+03</pdfrwt>
<totfact> 0.91610112E+04</totfact>
</mgrwt>
</event>
<event>
 4    1  0.4531281E+000  0.2887659E+03  0.7546771E-02  0.1090995E+00
         21   -1    0    0  503  502  0.00000000000E+00  0.00000000000E+00  0.23122429357E+03  0.23122429357E+03  0.00000000000E+00 0.  1.
         21   -1    0    0  501  503 -0.00000000000E+00 -0.00000000000E+00 -0.36766300239E+03  0.36766300239E+03  0.00000000000E+00 0.  1.
          6    1    1    2  501    0  0.95562367796E+02 -0.21053403425E+03 -0.10964317386E+03  0.30888083671E+03  0.17300000000E+03 0.  1.
         -6    1    1    2    0  502 -0.95562367796E+02  0.21053403425E+03 -0.26795534963E+02  0.29000645925E+03  0.17300000000E+03 0.  1.
<mgrwt>
<rscale>  2 0.28876590E+03</rscale>
<asrwt>0</asrwt>
<pdfrwt beam="1">  1       21 0.35572969E-01 0.28876590E+03</pdfrwt>
<pdfrwt beam="2">  1       21 0.56563538E-01 0.28876590E+03</pdfrwt>
<totfact> 0.21349441E+04</totfact>
</mgrwt>
</event>
<event>
 4    1  0.4531281E+000  0.2039866E+03  0.7546771E-02  0.1146418E+00
         21   -1    0    0  503  502  0.00000000000E+00  0.00000000000E+00  0.13840041043E+03  0.13840041043E+03  0.00000000000E+00 0.  1.
         21   -1    0    0  501  503 -0.00000000000E+00 -0.00000000000E+00 -0.33881862931E+03  0.33881862931E+03  0.00000000000E+00 0.  1.
          6    1    1    2  501    0 -0.10151190081E+03  0.37106034115E+02 -0.18029191973E+03  0.27224198811E+03  0.17300000000E+03 0.  1.
         -6    1    1    2    0  502  0.10151190081E+03 -0.37106034115E+02 -0.20126299150E+02  0.20497705162E+03  0.17300000000E+03 0.  1.
<mgrwt>
<rscale>  2 0.20398658E+03</rscale>
<asrwt>0</asrwt>
<pdfrwt beam="1">  1       21 0.21292371E-01 0.20398658E+03</pdfrwt>
<pdfrwt beam="2">  1       21 0.52125942E-01 0.20398658E+03</pdfrwt>
<totfact> 0.71334635E+04</totfact>
</mgrwt>
</event>
<event>
 4    1  0.4531281E+000  0.1867969E+03  0.7546771E-02  0.1161382E+00
         21   -1    0    0  503  502  0.00000000000E+00  0.00000000000E+00  0.49836527438E+03  0.49836527438E+03  0.00000000000E+00 0.  1.
         21   -1    0    0  501  503 -0.00000000000E+00 -0.00000000000E+00 -0.80942343745E+02  0.80942343745E+02  0.00000000000E+00 0.  1.
          6    1    1    2  501    0  0.70563432956E+01  0.70101923697E+02  0.10228550391E+03  0.21296806332E+03  0.17300000000E+03 0. -1.
         -6    1    1    2    0  502 -0.70563432956E+01 -0.70101923697E+02  0.31513742673E+03  0.36633955480E+03  0.17300000000E+03 0. -1.
<mgrwt>
<rscale>  2 0.18679687E+03</rscale>
<asrwt>0</asrwt>
<pdfrwt beam="1">  1       21 0.76671579E-01 0.18679687E+03</pdfrwt>
<pdfrwt beam="2">  1       21 0.12452669E-01 0.18679687E+03</pdfrwt>
<totfact> 0.83311800E+04</totfact>
</mgrwt>
</event>
<event>
 4    1  0.4531281E+000  0.2847667E+03  0.7546771E-02  0.1093114E+00
         21   -1    0    0  503  502  0.00000000000E+00  0.00000000000E+00  0.24165651526E+03  0.24165651526E+03  0.00000000000E+00 0. -1.
         21   -1    0    0  501  503 -0.00000000000E+00 -0.00000000000E+00 -0.21725816200E+04  0.21725816200E+04  0.00000000000E+00 0.  1.
          6    1    1    2  501    0 -0.22616538077E+03  0.35061192715E+01 -0.20754506118E+04  0.20948955378E+04  0.17300000000E+03 0.  1.
         -6    1    1    2    0  502  0.22616538077E+03 -0.35061192715E+01  0.14452550707E+03  0.31934259742E+03  0.17300000000E+03 0. -1.
<mgrwt>
<rscale>  2 0.28476670E+03</rscale>
<asrwt>0</asrwt>
<pdfrwt beam="1">  1       21 0.37177925E-01 0.28476670E+03</pdfrwt>
<pdfrwt beam="2">  1       21 0.33424333E+00 0.28476670E+03</pdfrwt>
<totfact> 0.13315492E+02</totfact>
</mgrwt>
</event>
<event>
 4    1  0.4531281E+000  0.2961673E+03  0.7546771E-02  0.1087172E+00
         21   -1    0    0  503  502  0.00000000000E+00  0.00000000000E+00  0.77838963897E+03  0.77838963897E+03  0.00000000000E+00 0.  1.
         21   -1    0    0  501  503 -0.00000000000E+00 -0.00000000000E+00 -0.12351182905E+03  0.12351182905E+03  0.00000000000E+00 0. -1.
          6    1    1    2  501    0 -0.38334202441E+01 -0.24035679044E+03  0.46093470385E+03  0.54788309249E+03  0.17300000000E+03 0.  1.
         -6    1    1    2    0  502  0.38334202441E+01  0.24035679044E+03  0.19394310606E+03  0.35401837553E+03  0.17300000000E+03 0.  1.
<mgrwt>
<rscale>  2 0.29616732E+03</rscale>
<asrwt>0</asrwt>
<pdfrwt beam="1">  1       21 0.11975225E+00 0.29616732E+03</pdfrwt>
<pdfrwt beam="2">  1       21 0.19001820E-01 0.29616732E+03</pdfrwt>
<totfact> 0.12706452E+04</totfact>
</mgrwt>
</event>
<event>
 4    1  0.4531281E+000  0.2158129E+03  0.7546771E-02  0.1137044E+00
         21   -1    0    0  503  502  0.00000000000E+00  0.00000000000E+00  0.13782550519E+03  0.13782550519E+03  0.00000000000E+00 0.  1.
         21   -1    0    0  501  503 -0.00000000000E+00 -0.00000000000E+00 -0.89777481209E+03  0.89777481209E+03  0.00000000000E+00 0.  1.
          6    1    1    2  501    0  0.10642137548E+03  0.72942987763E+02 -0.78887061251E+03  0.81785819792E+03  0.17300000000E+03 0.  1.
         -6    1    1    2    0  502 -0.10642137548E+03 -0.72942987763E+02  0.28921305617E+02  0.21774211936E+03  0.17300000000E+03 0.  1.
<mgrwt>
<rscale>  2 0.21581286E+03</rscale>
<asrwt>0</asrwt>
<pdfrwt beam="1">  1       21 0.21203924E-01 0.21581286E+03</pdfrwt>
<pdfrwt beam="2">  1       21 0.13811920E+00 0.21581286E+03</pdfrwt>
<totfact> 0.75331662E+03</totfact>
</mgrwt>
</event>
<event>
 4    1  0.4531281E+000  0.1748028E+03  0.7546771E-02  0.1172930E+00
         21   -1    0    0  503  502  0.00000000000E+00  0.00000000000E+00  0.11321922018E+03  0.11321922018E+03  0.00000000000E+00 0.  1.
         21   -1    0    0  501  503 -0.00000000000E+00 -0.00000000000E+00 -0.38259474050E+03  0.38259474050E+03  0.00000000000E+00 0.  1.
          6    1    1    2  501    0 -0.49196133550E+01  0.24552462206E+02 -0.26924355935E+03  0.32101109054E+03  0.17300000000E+03 0.  1.
         -6    1    1    2    0  502  0.49196133550E+01 -0.24552462206E+02 -0.13196096616E+00  0.17480287014E+03  0.17300000000E+03 0.  1.
<mgrwt>
<rscale>  2 0.17480282E+03</rscale>
<asrwt>0</asrwt>
<pdfrwt beam="1">  1       21 0.17418341E-01 0.17480282E+03</pdfrwt>
<pdfrwt beam="2">  1       21 0.58860731E-01 0.17480282E+03</pdfrwt>
<totfact> 0.81138756E+04</totfact>
</mgrwt>
</event>
<event>
 4    1  0.4531281E+000  0.2279807E+03  0.7546771E-02  0.1128069E+00
         21   -1    0    0  503  502  0.00000000000E+00  0.00000000000E+00  0.53357546221E+03  0.53357546221E+03  0.00000000000E+00 0. -1.
         21   -1    0    0  501  503 -0.00000000000E+00 -0.00000000000E+00 -0.61201608115E+03  0.61201608115E+03  0.00000000000E+00 0. -1.
          6    1    1    2  501    0  0.11191128153E+03  0.97581059512E+02 -0.56445832298E+03  0.60875971983E+03  0.17300000000E+03 0. -1.
         -6    1    1    2    0  502 -0.11191128153E+03 -0.97581059512E+02  0.48601770405E+03  0.53683182353E+03  0.17300000000E+03 0. -1.
<mgrwt>
<rscale>  2 0.22798070E+03</rscale>
<asrwt>0</asrwt>
<pdfrwt beam="1">  1       21 0.82088533E-01 0.22798070E+03</pdfrwt>
<pdfrwt beam="2">  1       21 0.94156320E-01 0.22798070E+03</pdfrwt>
<totfact> 0.11877248E+03</totfact>
</mgrwt>
</event>
<event>
 4    1  0.4531281E+000  0.1898402E+03  0.7546771E-02  0.1158606E+00
         21   -1    0    0  501  502  0.00000000000E+00  0.00000000000E+00  0.68187865915E+03  0.68187865915E+03  0.00000000000E+00 0.  1.
         21   -1    0    0  502  503 -0.00000000000E+00 -0.00000000000E+00 -0.52934633096E+02  0.52934633096E+02  0.00000000000E+00 0.  1.
          6    1    1    2  501    0 -0.67145277766E+02 -0.40022580629E+02  0.32890500506E+03  0.37976018438E+03  0.17300000000E+03 0.  1.
         -6    1    1    2    0  503  0.67145277766E+02  0.40022580629E+02  0.30003902099E+03  0.35505310786E+03  0.17300000000E+03 0.  1.
<mgrwt>
<rscale>  2 0.18984018E+03</rscale>
<asrwt>0</asrwt>
<pdfrwt beam="1">  1       21 0.10490440E+00 0.18984018E+03</pdfrwt>
<pdfrwt beam="2">  1       21 0.81437902E-02 0.18984018E+03</pdfrwt>
<totfact> 0.85288341E+04</totfact>
</mgrwt>
</event>
<event>
 4    1  0.4531281E+000  0.2538037E+03  0.7546771E-02  0.1110924E+00
         21   -1    0    0  503  502  0.00000000000E+00  0.00000000000E+00  0.83504348380E+02  0.83504348380E+02  0.00000000000E+00 0. -1.
         21   -1    0    0  501  503 -0.00000000000E+00 -0.00000000000E+00 -0.14354557958E+04  0.14354557958E+04  0.00000000000E+00 0. -1.
          6    1    1    2  501    0 -0.18061592339E+03 -0.43188206643E+02 -0.11925342485E+04  0.12192433174E+04  0.17300000000E+03 0. -1.
         -6    1    1    2    0  502  0.18061592339E+03  0.43188206643E+02 -0.15941719886E+03  0.29971682680E+03  0.17300000000E+03 0. -1.
<mgrwt>
<rscale>  2 0.25380373E+03</rscale>
<asrwt>0</asrwt>
<pdfrwt beam="1">  1       21 0.12846823E-01 0.25380373E+03</pdfrwt>
<pdfrwt beam="2">  1       21 0.22083934E+00 0.25380373E+03</pdfrwt>
<totfact> 0.48977408E+03</totfact>
</mgrwt>
</event>
<event>
 4    1  0.4531281E+000  0.1748558E+03  0.7546771E-02  0.1172877E+00
         21   -1    0    0  501  502  0.00000000000E+00  0.00000000000E+00  0.13672962226E+03  0.13672962226E+03  0.00000000000E+00 0.  1.
         21   -1    0    0  502  503 -0.00000000000E+00 -0.00000000000E+00 -0.25437096225E+03  0.25437096225E+03  0.00000000000E+00 0.  1.
          6    1    1    2  501    0  0.11198143462E+02 -0.22806796614E+02  0.91782585501E+01  0.17509651287E+03  0.17300000000E+03 0. -1.
         -6    1    1    2    0  503 -0.11198143462E+02  0.22806796614E+02 -0.12681959855E+03  0.21600407164E+03  0.17300000000E+03 0. -1.
<mgrwt>
<rscale>  2 0.17485579E+03</rscale>
<asrwt>0</asrwt>
<pdfrwt beam="1">  1       21 0.21035327E-01 0.17485579E+03</pdfrwt>
<pdfrwt beam="2">  1       21 0.39133994E-01 0.17485579E+03</pdfrwt>
<totfact> 0.13301989E+05</totfact>
</mgrwt>
</event>
<event>
 4    1  0.4531281E+000  0.2309011E+03  0.7546771E-02  0.1126007E+00
         21   -1    0    0  501  502  0.00000000000E+00  0.00000000000E+00  0.79682999796E+02  0.79682999796E+02  0.00000000000E+00 0.  1.
         21   -1    0    0  502  503 -0.00000000000E+00 -0.00000000000E+00 -0.67208183759E+03  0.67208183759E+03  0.00000000000E+00 0. -1.
          6    1    1    2  501    0  0.23282411505E+02  0.15114312657E+03 -0.27113185463E+03  0.35612890643E+03  0.17300000000E+03 0.  1.
         -6    1    1    2    0  503 -0.23282411505E+02 -0.15114312657E+03 -0.32126698316E+03  0.39563593096E+03  0.17300000000E+03 0.  1.
<mgrwt>
<rscale>  2 0.23090109E+03</rscale>
<asrwt>0</asrwt>
<pdfrwt beam="1">  1       21 0.12258923E-01 0.23090109E+03</pdfrwt>
<pdfrwt beam="2">  1       21 0.10339721E+00 0.23090109E+03</pdfrwt>
<totfact> 0.41989874E+04</totfact>
</mgrwt>
</event>
<event>
 4    1  0.4531281E+000  0.2588170E+03  0.7546771E-02  0.1107856E+00
         21   -1    0    0  501  502  0.00000000000E+00  0.00000000000E+00  0.68131352207E+03  0.68131352207E+03  0.00000000000E+00 0. -1.
         21   -1    0    0  502  503 -0.00000000000E+00 -0.00000000000E+00 -0.14022597688E+03  0.14022597688E+03  0.00000000000E+00 0. -1.
          6    1    1    2  501    0 -0.14657236856E+03  0.12479500659E+03  0.49510043615E+03  0.55866868068E+03  0.17300000000E+03 0. -1.
         -6    1    1    2    0  503  0.14657236856E+03 -0.12479500659E+03  0.45987109036E+02  0.26287081826E+03  0.17300000000E+03 0. -1.
<mgrwt>
<rscale>  2 0.25881703E+03</rscale>
<asrwt>0</asrwt>
<pdfrwt beam="1">  1       21 0.10481746E+00 0.25881703E+03</pdfrwt>
<pdfrwt beam="2">  1       21 0.21573228E-01 0.25881703E+03</pdfrwt>
<totfact> 0.14129112E+04</totfact>
</mgrwt>
</event>
<event>
 4    1  0.4531281E+000  0.3276891E+03  0.7546771E-02  0.1072164E+00
         21   -1    0    0  501  502  0.00000000000E+00  0.00000000000E+00  0.68406937256E+03  0.68406937256E+03  0.00000000000E+00 0. -1.
         21   -1    0    0  502  503 -0.00000000000E+00 -0.00000000000E+00 -0.16341866690E+03  0.16341866690E+03  0.00000000000E+00 0.  1.
          6    1    1    2  501    0 -0.24908984899E+03  0.12411840319E+03  0.34448443635E+03  0.47544679804E+03  0.17300000000E+03 0.  1.
         -6    1    1    2    0  503  0.24908984899E+03 -0.12411840319E+03  0.17616626930E+03  0.37204124142E+03  0.17300000000E+03 0. -1.
<mgrwt>
<rscale>  2 0.32768908E+03</rscale>
<asrwt>0</asrwt>
<pdfrwt beam="1">  1       21 0.10524144E+00 0.32768908E+03</pdfrwt>
<pdfrwt beam="2">  1       21 0.25141334E-01 0.32768908E+03</pdfrwt>
<totfact> 0.10108764E+04</totfact>
</mgrwt>
</event>
<event>
 4    1  0.4531281E+000  0.2241656E+03  0.7546771E-02  0.1130815E+00
         21   -1    0    0  501  502  0.00000000000E+00  0.00000000000E+00  0.29794064298E+03  0.29794064298E+03  0.00000000000E+00 0. -1.
         21   -1    0    0  502  503 -0.00000000000E+00 -0.00000000000E+00 -0.35665931359E+03  0.35665931359E+03  0.00000000000E+00 0.  1.
          6    1    1    2  501    0 -0.14069668921E+03  0.22926999944E+02  0.20826948892E+03  0.30598428995E+03  0.17300000000E+03 0. -1.
         -6    1    1    2    0  503  0.14069668921E+03 -0.22926999944E+02 -0.26698815954E+03  0.34861566662E+03  0.17300000000E+03 0.  1.
<mgrwt>
<rscale>  2 0.22416558E+03</rscale>
<asrwt>0</asrwt>
<pdfrwt beam="1">  1       21 0.45837022E-01 0.22416558E+03</pdfrwt>
<pdfrwt beam="2">  1       21 0.54870664E-01 0.22416558E+03</pdfrwt>
<totfact> 0.14025498E+04</totfact>
</mgrwt>
</event>
<event>
 4    1  0.4531281E+000  0.1809619E+03  0.7546771E-02  0.1166875E+00
         21   -1    0    0  501  502  0.00000000000E+00  0.00000000000E+00  0.43162835415E+03  0.43162835415E+03  0.00000000000E+00 0. -1.
         21   -1    0    0  502  503 -0.00000000000E+00 -0.00000000000E+00 -0.75885749009E+02  0.75885749009E+02  0.00000000000E+00 0. -1.
          6    1    1    2  501    0  0.26616632127E+02  0.45931988847E+02  0.18164614996E+03  0.25640303528E+03  0.17300000000E+03 0. -1.
         -6    1    1    2    0  503 -0.26616632127E+02 -0.45931988847E+02  0.17409645518E+03  0.25111106788E+03  0.17300000000E+03 0. -1.
<mgrwt>
<rscale>  2 0.18096185E+03</rscale>
<asrwt>0</asrwt>
<pdfrwt beam="1">  1       21 0.66404361E-01 0.18096185E+03</pdfrwt>
<pdfrwt beam="2">  1       21 0.11674731E-01 0.18096185E+03</pdfrwt>
<totfact> 0.12874790E+05</totfact>
</mgrwt>
</event>
<event>
 4    1  0.4531281E+000  0.2725781E+03  0.7546771E-02  0.1099813E+00
         21   -1    0    0  503  502  0.00000000000E+00  0.00000000000E+00  0.62478457123E+03  0.62478457123E+03  0.00000000000E+00 0. -1.
         21   -1    0    0  501  503 -0.00000000000E+00 -0.00000000000E+00 -0.11900552157E+03  0.11900552157E+03  0.00000000000E+00 0.  1.
          6    1    1    2  501    0  0.15080402364E+03  0.14706449661E+03  0.24286774907E+03  0.36508021481E+03  0.17300000000E+03 0.  1.
         -6    1    1    2    0  502 -0.15080402364E+03 -0.14706449661E+03  0.26291130059E+03  0.37870987799E+03  0.17300000000E+03 0. -1.
<mgrwt>
<rscale>  2 0.27257810E+03</rscale>
<asrwt>0</asrwt>
<pdfrwt beam="1">  1       21 0.96120702E-01 0.27257810E+03</pdfrwt>
<pdfrwt beam="2">  1       21 0.18308542E-01 0.27257810E+03</pdfrwt>
<totfact> 0.23522234E+04</totfact>
</mgrwt>
</event>
<event>
 4    1  0.4531281E+000  0.3070517E+03  0.7546771E-02  0.1081768E+00
         21   -1    0    0  501  502  0.00000000000E+00  0.00000000000E+00  0.11148558380E+04  0.11148558380E+04  0.00000000000E+00 0. -1.
         21   -1    0    0  502  503 -0.00000000000E+00 -0.00000000000E+00 -0.13721980276E+03  0.13721980276E+03  0.00000000000E+00 0.  1.
          6    1    1    2  501    0  0.14804951153E+03 -0.20599296871E+03  0.87661118927E+03  0.92883149073E+03  0.17300000000E+03 0.  1.
         -6    1    1    2    0  503 -0.14804951153E+03  0.20599296871E+03  0.10102484595E+03  0.32324415002E+03  0.17300000000E+03 0. -1.
<mgrwt>
<rscale>  2 0.30705172E+03</rscale>
<asrwt>0</asrwt>
<pdfrwt beam="1">  1       21 0.17151628E+00 0.30705172E+03</pdfrwt>
<pdfrwt beam="2">  1       21 0.21110740E-01 0.30705172E+03</pdfrwt>
<totfact> 0.40007683E+03</totfact>
</mgrwt>
</event>
<event>
 4    1  0.4531281E+000  0.2307960E+03  0.7546771E-02  0.1126081E+00
         21   -1    0    0  503  502  0.00000000000E+00  0.00000000000E+00  0.15865513353E+03  0.15865513353E+03  0.00000000000E+00 0. -1.
         21   -1    0    0  501  503 -0.00000000000E+00 -0.00000000000E+00 -0.50490580079E+03  0.50490580079E+03  0.00000000000E+00 0. -1.
          6    1    1    2  501    0 -0.10722402112E+03  0.10881551842E+03 -0.36517009235E+03  0.43199074538E+03  0.17300000000E+03 0. -1.
         -6    1    1    2    0  502  0.10722402112E+03 -0.10881551842E+03  0.18919425085E+02  0.23157018893E+03  0.17300000000E+03 0. -1.
<mgrwt>
<rscale>  2 0.23079603E+03</rscale>
<asrwt>0</asrwt>
<pdfrwt beam="1">  1       21 0.24408482E-01 0.23079603E+03</pdfrwt>
<pdfrwt beam="2">  1       21 0.77677816E-01 0.23079603E+03</pdfrwt>
<totfact> 0.22808448E+04</totfact>
</mgrwt>
</event>
<event>
 4    1  0.4531281E+000  0.1998067E+03  0.7546771E-02  0.1149902E+00
         21   -1    0    0  501  502  0.00000000000E+00  0.00000000000E+00  0.61328855398E+03  0.61328855398E+03  0.00000000000E+00 0.  1.
         21   -1    0    0  502  503 -0.00000000000E+00 -0.00000000000E+00 -0.10175162565E+03  0.10175162565E+03  0.00000000000E+00 0.  1.
          6    1    1    2  501    0 -0.45863233570E+02  0.88827269113E+02  0.47035340396E+03  0.51103331061E+03  0.17300000000E+03 0.  1.
         -6    1    1    2    0  503  0.45863233570E+02 -0.88827269113E+02  0.41183524370E+02  0.20400686903E+03  0.17300000000E+03 0.  1.
<mgrwt>
<rscale>  2 0.19980671E+03</rscale>
<asrwt>0</asrwt>
<pdfrwt beam="1">  1       21 0.94352083E-01 0.19980671E+03</pdfrwt>
<pdfrwt beam="2">  1       21 0.15654097E-01 0.19980671E+03</pdfrwt>
<totfact> 0.34024354E+04</totfact>
</mgrwt>
</event>
<event>
 4    1  0.4531281E+000  0.2010321E+03  0.7546771E-02  0.1148871E+00
         21   -1    0    0  501  502  0.00000000000E+00  0.00000000000E+00  0.42848135049E+03  0.42848135049E+03  0.00000000000E+00 0. -1.
         21   -1    0    0  502  503 -0.00000000000E+00 -0.00000000000E+00 -0.10324954731E+03  0.10324954731E+03  0.00000000000E+00 0. -1.
          6    1    1    2  501    0 -0.72294149638E+02 -0.72515223689E+02  0.84424570512E+02  0.21803992718E+03  0.17300000000E+03 0. -1.
         -6    1    1    2    0  503  0.72294149638E+02  0.72515223689E+02  0.24080723267E+03  0.31369097062E+03  0.17300000000E+03 0. -1.
<mgrwt>
<rscale>  2 0.20103209E+03</rscale>
<asrwt>0</asrwt>
<pdfrwt beam="1">  1       21 0.65920207E-01 0.20103209E+03</pdfrwt>
<pdfrwt beam="2">  1       21 0.15884546E-01 0.20103209E+03</pdfrwt>
<totfact> 0.74406640E+04</totfact>
</mgrwt>
</event>
<event>
 4    1  0.4531281E+000  0.1985608E+03  0.7546771E-02  0.1150959E+00
         21   -1    0    0  501  502  0.00000000000E+00  0.00000000000E+00  0.44063183651E+03  0.44063183651E+03  0.00000000000E+00 0.  1.
         21   -1    0    0  502  503 -0.00000000000E+00 -0.00000000000E+00 -0.16855576856E+03  0.16855576856E+03  0.00000000000E+00 0.  1.
          6    1    1    2  501    0  0.97023082823E+02  0.91602303688E+01  0.34466928683E+03  0.39777293234E+03  0.17300000000E+03 0.  1.
         -6    1    1    2    0  503 -0.97023082823E+02 -0.91602303688E+01 -0.72593218872E+02  0.21141467273E+03  0.17300000000E+03 0.  1.
<mgrwt>
<rscale>  2 0.19856079E+03</rscale>
<asrwt>0</asrwt>
<pdfrwt beam="1">  1       21 0.67789513E-01 0.19856079E+03</pdfrwt>
<pdfrwt beam="2">  1       21 0.25931657E-01 0.19856079E+03</pdfrwt>
<totfact> 0.27987977E+04</totfact>
</mgrwt>
</event>
<event>
 4    1  0.4531281E+000  0.2042365E+03  0.7546771E-02  0.1146213E+00
         21   -1    0    0  503  502  0.00000000000E+00  0.00000000000E+00  0.89200603806E+03  0.89200603806E+03  0.00000000000E+00 0.  1.
         21   -1    0    0  501  503 -0.00000000000E+00 -0.00000000000E+00 -0.59141215325E+02  0.59141215325E+02  0.00000000000E+00 0. -1.
          6    1    1    2  501    0  0.65516063923E+02  0.86551748628E+02  0.19885794800E+03  0.28505621078E+03  0.17300000000E+03 0.  1.
         -6    1    1    2    0  502 -0.65516063923E+02 -0.86551748628E+02  0.63400687473E+03  0.66609104260E+03  0.17300000000E+03 0. -1.
<mgrwt>
<rscale>  2 0.20423653E+03</rscale>
<asrwt>0</asrwt>
<pdfrwt beam="1">  1       21 0.13723169E+00 0.20423653E+03</pdfrwt>
<pdfrwt beam="2">  1       21 0.90986491E-02 0.20423653E+03</pdfrwt>
<totfact> 0.35857655E+04</totfact>
</mgrwt>
</event>
<event>
 4    1  0.4531281E+000  0.1777690E+03  0.7546771E-02  0.1169980E+00
         21   -1    0    0  501  502  0.00000000000E+00  0.00000000000E+00  0.38680727288E+03  0.38680727288E+03  0.00000000000E+00 0.  1.
         21   -1    0    0  502  503 -0.00000000000E+00 -0.00000000000E+00 -0.86912797406E+02  0.86912797406E+02  0.00000000000E+00 0.  1.
          6    1    1    2  501    0  0.18888529991E+02 -0.36277124156E+02  0.91934573524E+02  0.20013438513E+03  0.17300000000E+03 0.  1.
         -6    1    1    2    0  503 -0.18888529991E+02  0.36277124156E+02  0.20795990195E+03  0.27358568515E+03  0.17300000000E+03 0.  1.
<mgrwt>
<rscale>  2 0.17776897E+03</rscale>
<asrwt>0</asrwt>
<pdfrwt beam="1">  1       21 0.59508810E-01 0.17776897E+03</pdfrwt>
<pdfrwt beam="2">  1       21 0.13371200E-01 0.17776897E+03</pdfrwt>
<totfact> 0.12809214E+05</totfact>
</mgrwt>
</event>
<event>
 4    1  0.4531281E+000  0.2248550E+03  0.7546771E-02  0.1130314E+00
         21   -1    0    0  503  502  0.00000000000E+00  0.00000000000E+00  0.16160879763E+03  0.16160879763E+03  0.00000000000E+00 0. -1.
         21   -1    0    0  501  503 -0.00000000000E+00 -0.00000000000E+00 -0.35344326153E+03  0.35344326153E+03  0.00000000000E+00 0.  1.
          6    1    1    2  501    0 -0.91624044837E+02 -0.11061562710E+03 -0.18318878157E+03  0.29003088154E+03  0.17300000000E+03 0.  1.
         -6    1    1    2    0  502  0.91624044837E+02  0.11061562710E+03 -0.86456823279E+01  0.22502117761E+03  0.17300000000E+03 0. -1.
<mgrwt>
<rscale>  2 0.22485503E+03</rscale>
<asrwt>0</asrwt>
<pdfrwt beam="1">  1       21 0.24862892E-01 0.22485503E+03</pdfrwt>
<pdfrwt beam="2">  1       21 0.54375886E-01 0.22485503E+03</pdfrwt>
<totfact> 0.48167363E+04</totfact>
</mgrwt>
</event>
<event>
 4    1  0.4531281E+000  0.2939912E+03  0.7546771E-02  0.1088284E+00
         21   -1    0    0  503  502  0.00000000000E+00  0.00000000000E+00  0.10363506199E+04  0.10363506199E+04  0.00000000000E+00 0. -1.
         21   -1    0    0  501  503 -0.00000000000E+00 -0.00000000000E+00 -0.14806298812E+03  0.14806298812E+03  0.00000000000E+00 0. -1.
          6    1    1    2  501    0  0.14558745923E+02 -0.23725485718E+03  0.52779998702E+02  0.29869140028E+03  0.17300000000E+03 0. -1.
         -6    1    1    2    0  502 -0.14558745923E+02  0.23725485718E+03  0.83550763305E+03  0.88572220770E+03  0.17300000000E+03 0. -1.
<mgrwt>
<rscale>  2 0.29399120E+03</rscale>
<asrwt>0</asrwt>
<pdfrwt beam="1">  1       21 0.15943855E+00 0.29399120E+03</pdfrwt>
<pdfrwt beam="2">  1       21 0.22778922E-01 0.29399120E+03</pdfrwt>
<totfact> 0.42711299E+03</totfact>
</mgrwt>
</event>
<event>
 4    1  0.4531281E+000  0.1848391E+03  0.7546771E-02  0.1163200E+00
         21   -1    0    0  501  502  0.00000000000E+00  0.00000000000E+00  0.93698943935E+02  0.93698943935E+02  0.00000000000E+00 0. -1.
         21   -1    0    0  502  503 -0.00000000000E+00 -0.00000000000E+00 -0.83980642083E+03  0.83980642083E+03  0.00000000000E+00 0. -1.
          6    1    1    2  501    0  0.23239638607E+02 -0.60798243296E+02 -0.21958961052E+02  0.18613893510E+03  0.17300000000E+03 0. -1.
         -6    1    1    2    0  503 -0.23239638607E+02  0.60798243296E+02 -0.72414851584E+03  0.74736642966E+03  0.17300000000E+03 0. -1.
<mgrwt>
<rscale>  2 0.18483914E+03</rscale>
<asrwt>0</asrwt>
<pdfrwt beam="1">  1       21 0.14415223E-01 0.18483914E+03</pdfrwt>
<pdfrwt beam="2">  1       21 0.12920098E+00 0.18483914E+03</pdfrwt>
<totfact> 0.18608065E+04</totfact>
</mgrwt>
</event>
<event>
 4    1  0.4531281E+000  0.1824548E+03  0.7546771E-02  0.1165448E+00
         21   -1    0    0  503  502  0.00000000000E+00  0.00000000000E+00  0.71116893233E+02  0.71116893233E+02  0.00000000000E+00 0.  1.
         21   -1    0    0  501  503 -0.00000000000E+00 -0.00000000000E+00 -0.48107687891E+03  0.48107687891E+03  0.00000000000E+00 0.  1.
          6    1    1    2  501    0  0.54115565272E+02 -0.20791176055E+02 -0.25032727162E+03  0.30976363622E+03  0.17300000000E+03 0. -1.
         -6    1    1    2    0  502 -0.54115565272E+02  0.20791176055E+02 -0.15963271405E+03  0.24243013592E+03  0.17300000000E+03 0. -1.
<mgrwt>
<rscale>  2 0.18245484E+03</rscale>
<asrwt>0</asrwt>
<pdfrwt beam="1">  1       21 0.10941061E-01 0.18245484E+03</pdfrwt>
<pdfrwt beam="2">  1       21 0.74011827E-01 0.18245484E+03</pdfrwt>
<totfact> 0.11374192E+05</totfact>
</mgrwt>
</event>
<event>
 4    1  0.4531281E+000  0.2055491E+03  0.7546771E-02  0.1145140E+00
         21   -1    0    0  501  502  0.00000000000E+00  0.00000000000E+00  0.50389181904E+03  0.50389181904E+03  0.00000000000E+00 0.  1.
         21   -1    0    0  502  503 -0.00000000000E+00 -0.00000000000E+00 -0.11584752255E+03  0.11584752255E+03  0.00000000000E+00 0.  1.
          6    1    1    2  501    0  0.10614120473E+03  0.32488288630E+02  0.35687890746E+03  0.41184098731E+03  0.17300000000E+03 0.  1.
         -6    1    1    2    0  503 -0.10614120473E+03 -0.32488288630E+02  0.31165389033E+02  0.20789835428E+03  0.17300000000E+03 0.  1.
<mgrwt>
<rscale>  2 0.20554913E+03</rscale>
<asrwt>0</asrwt>
<pdfrwt beam="1">  1       21 0.77521817E-01 0.20554913E+03</pdfrwt>
<pdfrwt beam="2">  1       21 0.17822696E-01 0.20554913E+03</pdfrwt>
<totfact> 0.41935754E+04</totfact>
</mgrwt>
</event>
<event>
 4    1  0.4531281E+000  0.2890082E+03  0.7546771E-02  0.1090868E+00
         21   -1    0    0  501  502  0.00000000000E+00  0.00000000000E+00  0.24877255667E+04  0.24877255667E+04  0.00000000000E+00 0.  1.
         21   -1    0    0  502  503 -0.00000000000E+00 -0.00000000000E+00 -0.12154257786E+03  0.12154257786E+03  0.00000000000E+00 0.  1.
          6    1    1    2  501    0 -0.10940255243E-01  0.23150965376E+03  0.22929956578E+04  0.23111371242E+04  0.17300000000E+03 0.  1.
         -6    1    1    2    0  503  0.10940255243E-01 -0.23150965376E+03  0.73187331025E+02  0.29813102040E+03  0.17300000000E+03 0.  1.
<mgrwt>
<rscale>  2 0.28900817E+03</rscale>
<asrwt>0</asrwt>
<pdfrwt beam="1">  1       21 0.38272697E+00 0.28900817E+03</pdfrwt>
<pdfrwt beam="2">  1       21 0.18698860E-01 0.28900817E+03</pdfrwt>
<totfact> 0.25565947E+02</totfact>
</mgrwt>
</event>
<event>
 4    1  0.4531281E+000  0.1738916E+03  0.7546771E-02  0.1173849E+00
         21   -1    0    0  501  502  0.00000000000E+00  0.00000000000E+00  0.70573108258E+03  0.70573108258E+03  0.00000000000E+00 0.  1.
         21   -1    0    0  502  503 -0.00000000000E+00 -0.00000000000E+00 -0.10175878599E+03  0.10175878599E+03  0.00000000000E+00 0.  1.
          6    1    1    2  501    0  0.24293983647E+01  0.17417853522E+02  0.60918751405E+03  0.63352009508E+03  0.17300000000E+03 0.  1.
         -6    1    1    2    0  503 -0.24293983647E+01 -0.17417853522E+02 -0.52152174594E+01  0.17396977350E+03  0.17300000000E+03 0.  1.
<mgrwt>
<rscale>  2 0.17389159E+03</rscale>
<asrwt>0</asrwt>
<pdfrwt beam="1">  1       21 0.10857401E+00 0.17389159E+03</pdfrwt>
<pdfrwt beam="2">  1       21 0.15655198E-01 0.17389159E+03</pdfrwt>
<totfact> 0.24737840E+04</totfact>
</mgrwt>
</event>
<event>
 4    1  0.4531281E+000  0.1883006E+03  0.7546771E-02  0.1160003E+00
         21   -1    0    0  501  502  0.00000000000E+00  0.00000000000E+00  0.12124870495E+04  0.12124870495E+04  0.00000000000E+00 0. -1.
         21   -1    0    0  502  503 -0.00000000000E+00 -0.00000000000E+00 -0.51853530629E+02  0.51853530629E+02  0.00000000000E+00 0. -1.
          6    1    1    2  501    0  0.61867306114E+02 -0.41237783716E+02  0.99776001099E+03  0.10153729157E+04  0.17300000000E+03 0. -1.
         -6    1    1    2    0  503 -0.61867306114E+02  0.41237783716E+02  0.16287350789E+03  0.24896766445E+03  0.17300000000E+03 0. -1.
<mgrwt>
<rscale>  2 0.18830061E+03</rscale>
<asrwt>0</asrwt>
<pdfrwt beam="1">  1       21 0.18653645E+00 0.18830061E+03</pdfrwt>
<pdfrwt beam="2">  1       21 0.79774672E-02 0.18830061E+03</pdfrwt>
<totfact> 0.19892573E+04</totfact>
</mgrwt>
</event>
<event>
 4    1  0.4531281E+000  0.1922994E+03  0.7546771E-02  0.1156404E+00
         21   -1    0    0  501  502  0.00000000000E+00  0.00000000000E+00  0.73016600575E+03  0.73016600575E+03  0.00000000000E+00 0.  1.
         21   -1    0    0  502  503 -0.00000000000E+00 -0.00000000000E+00 -0.73993725316E+02  0.73993725316E+02  0.00000000000E+00 0.  1.
          6    1    1    2  501    0 -0.81066906497E+02  0.21867913924E+02  0.10222104474E+03  0.21778014367E+03  0.17300000000E+03 0.  1.
         -6    1    1    2    0  503  0.81066906497E+02 -0.21867913924E+02  0.55395123569E+03  0.58637958739E+03  0.17300000000E+03 0.  1.
<mgrwt>
<rscale>  2 0.19229937E+03</rscale>
<asrwt>0</asrwt>
<pdfrwt beam="1">  1       21 0.11233323E+00 0.19229937E+03</pdfrwt>
<pdfrwt beam="2">  1       21 0.11383651E-01 0.19229937E+03</pdfrwt>
<totfact> 0.40029835E+04</totfact>
</mgrwt>
</event>
<event>
 4    1  0.4531281E+000  0.2064876E+03  0.7546771E-02  0.1144378E+00
         21   -1    0    0  501  502  0.00000000000E+00  0.00000000000E+00  0.25538075977E+03  0.25538075977E+03  0.00000000000E+00 0. -1.
         21   -1    0    0  502  503 -0.00000000000E+00 -0.00000000000E+00 -0.17603667977E+03  0.17603667977E+03  0.00000000000E+00 0.  1.
          6    1    1    2  501    0 -0.69840121154E+02  0.88490097286E+02  0.88666275700E+02  0.22471948800E+03  0.17300000000E+03 0. -1.
         -6    1    1    2    0  503  0.69840121154E+02 -0.88490097286E+02 -0.93221956982E+01  0.20669795155E+03  0.17300000000E+03 0.  1.
<mgrwt>
<rscale>  2 0.20648763E+03</rscale>
<asrwt>0</asrwt>
<pdfrwt beam="1">  1       21 0.39289347E-01 0.20648763E+03</pdfrwt>
<pdfrwt beam="2">  1       21 0.27082566E-01 0.20648763E+03</pdfrwt>
<totfact> 0.80666022E+04</totfact>
</mgrwt>
</event>
<event>
 4    1  0.4531281E+000  0.1940792E+03  0.7546771E-02  0.1154833E+00
         21   -1    0    0  501  502  0.00000000000E+00  0.00000000000E+00  0.51604569461E+03  0.51604569461E+03  0.00000000000E+00 0. -1.
         21   -1    0    0  502  503 -0.00000000000E+00 -0.00000000000E+00 -0.10184849831E+03  0.10184849831E+03  0.00000000000E+00 0.  1.
          6    1    1    2  501    0  0.87765098572E+02 -0.59183122787E+01  0.37154919257E+03  0.41918437644E+03  0.17300000000E+03 0. -1.
         -6    1    1    2    0  503 -0.87765098572E+02  0.59183122787E+01  0.42648003730E+02  0.19870981649E+03  0.17300000000E+03 0.  1.
<mgrwt>
<rscale>  2 0.19407921E+03</rscale>
<asrwt>0</asrwt>
<pdfrwt beam="1">  1       21 0.79391644E-01 0.19407921E+03</pdfrwt>
<pdfrwt beam="2">  1       21 0.15669000E-01 0.19407921E+03</pdfrwt>
<totfact> 0.50658368E+04</totfact>
</mgrwt>
</event>
<event>
 4    1  0.4531281E+000  0.2082399E+03  0.7546771E-02  0.1142967E+00
         21   -1    0    0  501  502  0.00000000000E+00  0.00000000000E+00  0.38223786373E+03  0.38223786373E+03  0.00000000000E+00 0.  1.
         21   -1    0    0  502  503 -0.00000000000E+00 -0.00000000000E+00 -0.11413231595E+03  0.11413231595E+03  0.00000000000E+00 0.  1.
          6    1    1    2  501    0 -0.93407590568E+02  0.68628588967E+02  0.11482560193E+03  0.23779987396E+03  0.17300000000E+03 0.  1.
         -6    1    1    2    0  503  0.93407590568E+02 -0.68628588967E+02  0.15327994585E+03  0.25857030572E+03  0.17300000000E+03 0.  1.
<mgrwt>
<rscale>  2 0.20823991E+03</rscale>
<asrwt>0</asrwt>
<pdfrwt beam="1">  1       21 0.58805825E-01 0.20823991E+03</pdfrwt>
<pdfrwt beam="2">  1       21 0.17558818E-01 0.20823991E+03</pdfrwt>
<totfact> 0.78979990E+04</totfact>
</mgrwt>
</event>
<event>
 4    1  0.4531281E+000  0.1914536E+03  0.7546771E-02  0.1157157E+00
         21   -1    0    0  503  502  0.00000000000E+00  0.00000000000E+00  0.11291318358E+03  0.11291318358E+03  0.00000000000E+00 0. -1.
         21   -1    0    0  501  503 -0.00000000000E+00 -0.00000000000E+00 -0.35790483287E+03  0.35790483287E+03  0.00000000000E+00 0.  1.
          6    1    1    2  501    0  0.74555414229E+02 -0.34160735360E+02 -0.50711682996E+02  0.19805590227E+03  0.17300000000E+03 0. -1.
         -6    1    1    2    0  502 -0.74555414229E+02  0.34160735360E+02 -0.19427996629E+03  0.27276211418E+03  0.17300000000E+03 0.  1.
<mgrwt>
<rscale>  2 0.19145356E+03</rscale>
<asrwt>0</asrwt>
<pdfrwt beam="1">  1       21 0.17371259E-01 0.19145356E+03</pdfrwt>
<pdfrwt beam="2">  1       21 0.55062281E-01 0.19145356E+03</pdfrwt>
<totfact> 0.93337812E+04</totfact>
</mgrwt>
</event>
<event>
 4    1  0.4531281E+000  0.1742172E+03  0.7546771E-02  0.1173520E+00
         21   -1    0    0  503  502  0.00000000000E+00  0.00000000000E+00  0.25660879703E+03  0.25660879703E+03  0.00000000000E+00 0.  1.
         21   -1    0    0  501  503 -0.00000000000E+00 -0.00000000000E+00 -0.14686780136E+03  0.14686780136E+03  0.00000000000E+00 0.  1.
          6    1    1    2  501    0 -0.19741715361E+02 -0.57367904766E+01 -0.34134970962E+02  0.17752983505E+03  0.17300000000E+03 0.  1.
         -6    1    1    2    0  502  0.19741715361E+02  0.57367904766E+01  0.14387596663E+03  0.22594676334E+03  0.17300000000E+03 0.  1.
<mgrwt>
<rscale>  2 0.17421724E+03</rscale>
<asrwt>0</asrwt>
<pdfrwt beam="1">  1       21 0.39478276E-01 0.17421724E+03</pdfrwt>
<pdfrwt beam="2">  1       21 0.22595046E-01 0.17421724E+03</pdfrwt>
<totfact> 0.11429196E+05</totfact>
</mgrwt>
</event>
<event>
 4    1  0.4531281E+000  0.1757633E+03  0.7546771E-02  0.1171967E+00
         21   -1    0    0  501  502  0.00000000000E+00  0.00000000000E+00  0.25997670100E+03  0.25997670100E+03  0.00000000000E+00 0. -1.
         21   -1    0    0  502  503 -0.00000000000E+00 -0.00000000000E+00 -0.14232807496E+03  0.14232807496E+03  0.00000000000E+00 0. -1.
          6    1    1    2  501    0 -0.29876015954E+02  0.84361099629E+01  0.14055897151E+03  0.22505459060E+03  0.17300000000E+03 0. -1.
         -6    1    1    2    0  503  0.29876015954E+02 -0.84361099629E+01 -0.22910345460E+02  0.17725018536E+03  0.17300000000E+03 0. -1.
<mgrwt>
<rscale>  2 0.17576332E+03</rscale>
<asrwt>0</asrwt>
<pdfrwt beam="1">  1       21 0.39996416E-01 0.17576332E+03</pdfrwt>
<pdfrwt beam="2">  1       21 0.21896627E-01 0.17576332E+03</pdfrwt>
<totfact> 0.11804002E+05</totfact>
</mgrwt>
</event>
<event>
 4    1  0.4531281E+000  0.1841441E+03  0.7546771E-02  0.1163852E+00
         21   -1    0    0  503  502  0.00000000000E+00  0.00000000000E+00  0.42678468665E+03  0.42678468665E+03  0.00000000000E+00 0.  1.
         21   -1    0    0  501  503 -0.00000000000E+00 -0.00000000000E+00 -0.11580458255E+03  0.11580458255E+03  0.00000000000E+00 0.  1.
          6    1    1    2  501    0 -0.17855171050E+02  0.60508176395E+02  0.34899524187E+01  0.18417716013E+03  0.17300000000E+03 0.  1.
         -6    1    1    2    0  502  0.17855171050E+02 -0.60508176395E+02  0.30749015168E+03  0.35841210907E+03  0.17300000000E+03 0.  1.
<mgrwt>
<rscale>  2 0.18414409E+03</rscale>
<asrwt>0</asrwt>
<pdfrwt beam="1">  1       21 0.65659182E-01 0.18414409E+03</pdfrwt>
<pdfrwt beam="2">  1       21 0.17816090E-01 0.18414409E+03</pdfrwt>
<totfact> 0.61240088E+04</totfact>
</mgrwt>
</event>
<event>
 4    1  0.4531281E+000  0.1773764E+03  0.7546771E-02  0.1170367E+00
         21   -1    0    0  501  502  0.00000000000E+00  0.00000000000E+00  0.32229066246E+03  0.32229066246E+03  0.00000000000E+00 0. -1.
         21   -1    0    0  502  503 -0.00000000000E+00 -0.00000000000E+00 -0.99025077198E+02  0.99025077198E+02  0.00000000000E+00 0. -1.
          6    1    1    2  501    0 -0.38812964055E+02 -0.51918496382E+01  0.13671521791E+03  0.22394966463E+03  0.17300000000E+03 0. -1.
         -6    1    1    2    0  503  0.38812964055E+02  0.51918496382E+01  0.86550367353E+02  0.19736607502E+03  0.17300000000E+03 0. -1.
<mgrwt>
<rscale>  2 0.17737644E+03</rscale>
<asrwt>0</asrwt>
<pdfrwt beam="1">  1       21 0.49583178E-01 0.17737644E+03</pdfrwt>
<pdfrwt beam="2">  1       21 0.15234627E-01 0.17737644E+03</pdfrwt>
<totfact> 0.14860883E+05</totfact>
</mgrwt>
</event>
<event>
 4    1  0.4531281E+000  0.2088491E+03  0.7546771E-02  0.1142481E+00
         21   -1    0    0  501  502  0.00000000000E+00  0.00000000000E+00  0.53655813565E+02  0.53655813565E+02  0.00000000000E+00 0.  1.
         21   -1    0    0  502  503 -0.00000000000E+00 -0.00000000000E+00 -0.81322076382E+03  0.81322076382E+03  0.00000000000E+00 0.  1.
          6    1    1    2  501    0  0.83069457543E+02 -0.82391905083E+02 -0.38809818765E+03  0.44072458980E+03  0.17300000000E+03 0.  1.
         -6    1    1    2    0  503 -0.83069457543E+02  0.82391905083E+02 -0.37146676260E+03  0.42615198758E+03  0.17300000000E+03 0.  1.
<mgrwt>
<rscale>  2 0.20884913E+03</rscale>
<asrwt>0</asrwt>
<pdfrwt beam="1">  1       21 0.82547408E-02 0.20884913E+03</pdfrwt>
<pdfrwt beam="2">  1       21 0.12511088E+00 0.20884913E+03</pdfrwt>
<totfact> 0.53623653E+04</totfact>
</mgrwt>
</event>
<event>
 4    1  0.4531281E+000  0.2127517E+03  0.7546771E-02  0.1139405E+00
         21   -1    0    0  503  502  0.00000000000E+00  0.00000000000E+00  0.36537209990E+03  0.36537209990E+03  0.00000000000E+00 0.  1.
         21   -1    0    0  501  503 -0.00000000000E+00 -0.00000000000E+00 -0.13034893328E+03  0.13034893328E+03  0.00000000000E+00 0. -1.
          6    1    1    2  501    0  0.48554543761E+02  0.11391544140E+03  0.62306346115E+02  0.22168751042E+03  0.17300000000E+03 0.  1.
         -6    1    1    2    0  502 -0.48554543761E+02 -0.11391544140E+03  0.17271682051E+03  0.27403352276E+03  0.17300000000E+03 0. -1.
<mgrwt>
<rscale>  2 0.21275167E+03</rscale>
<asrwt>0</asrwt>
<pdfrwt beam="1">  1       21 0.56211092E-01 0.21275167E+03</pdfrwt>
<pdfrwt beam="2">  1       21 0.20053682E-01 0.21275167E+03</pdfrwt>
<totfact> 0.67796889E+04</totfact>
</mgrwt>
</event>
<event>
 4    1  0.4531281E+000  0.1848944E+03  0.7546771E-02  0.1163148E+00
         21   -1    0    0  501  502  0.00000000000E+00  0.00000000000E+00  0.33251322885E+03  0.33251322885E+03  0.00000000000E+00 0. -1.
         21   -1    0    0  502  503 -0.00000000000E+00 -0.00000000000E+00 -0.11465704456E+03  0.11465704456E+03  0.00000000000E+00 0. -1.
          6    1    1    2  501    0 -0.40918040919E+02  0.50819986446E+02  0.18079559798E+03  0.25859815418E+03  0.17300000000E+03 0.  1.
         -6    1    1    2    0  503  0.40918040919E+02 -0.50819986446E+02  0.37060586310E+02  0.18857211923E+03  0.17300000000E+03 0.  1.
<mgrwt>
<rscale>  2 0.18489445E+03</rscale>
<asrwt>0</asrwt>
<pdfrwt beam="1">  1       21 0.51155881E-01 0.18489445E+03</pdfrwt>
<pdfrwt beam="2">  1       21 0.17639545E-01 0.18489445E+03</pdfrwt>
<totfact> 0.10618092E+05</totfact>
</mgrwt>
</event>
<event>
 4    1  0.4531281E+000  0.3308321E+03  0.7546771E-02  0.1070769E+00
         21   -1    0    0  501  502  0.00000000000E+00  0.00000000000E+00  0.22946253604E+03  0.22946253604E+03  0.00000000000E+00 0.  1.
         21   -1    0    0  502  503 -0.00000000000E+00 -0.00000000000E+00 -0.56808860015E+03  0.56808860015E+03  0.00000000000E+00 0.  1.
          6    1    1    2  501    0 -0.26625931386E+03  0.92881019218E+02 -0.96180749445E+01  0.33097192224E+03  0.17300000000E+03 0.  1.
         -6    1    1    2    0  503  0.26625931386E+03 -0.92881019218E+02 -0.32900798916E+03  0.46657921394E+03  0.17300000000E+03 0.  1.
<mgrwt>
<rscale>  2 0.33083214E+03</rscale>
<asrwt>0</asrwt>
<pdfrwt beam="1">  1       21 0.35301928E-01 0.33083214E+03</pdfrwt>
<pdfrwt beam="2">  1       21 0.87398247E-01 0.33083214E+03</pdfrwt>
<totfact> 0.80510840E+03</totfact>
</mgrwt>
</event>
<event>
 4    1  0.4531281E+000  0.2178654E+03  0.7546771E-02  0.1135485E+00
         21   -1    0    0  503  502  0.00000000000E+00  0.00000000000E+00  0.13851371611E+03  0.13851371611E+03  0.00000000000E+00 0.  1.
         21   -1    0    0  501  503 -0.00000000000E+00 -0.00000000000E+00 -0.49171256674E+03  0.49171256674E+03  0.00000000000E+00 0.  1.
          6    1    1    2  501    0 -0.12839553631E+02  0.13180088759E+03 -0.35008255961E+03  0.41233860679E+03  0.17300000000E+03 0.  1.
         -6    1    1    2    0  502  0.12839553631E+02 -0.13180088759E+03 -0.31162910279E+01  0.21788767606E+03  0.17300000000E+03 0.  1.
<mgrwt>
<rscale>  2 0.21786539E+03</rscale>
<asrwt>0</asrwt>
<pdfrwt beam="1">  1       21 0.21309803E-01 0.21786539E+03</pdfrwt>
<pdfrwt beam="2">  1       21 0.75648085E-01 0.21786539E+03</pdfrwt>
<totfact> 0.31536477E+04</totfact>
</mgrwt>
</event>
<event>
 4    1  0.4531281E+000  0.1816815E+03  0.7546771E-02  0.1166186E+00
         21   -1    0    0  501  502  0.00000000000E+00  0.00000000000E+00  0.41356951126E+02  0.41356951126E+02  0.00000000000E+00 0.  1.
         21   -1    0    0  502  503 -0.00000000000E+00 -0.00000000000E+00 -0.81025841108E+03  0.81025841108E+03  0.00000000000E+00 0.  1.
          6    1    1    2  501    0  0.47217271010E+02  0.29149375261E+02 -0.33235135418E+03  0.37876850369E+03  0.17300000000E+03 0. -1.
         -6    1    1    2    0  503 -0.47217271010E+02 -0.29149375261E+02 -0.43655010577E+03  0.47284685852E+03  0.17300000000E+03 0. -1.
<mgrwt>
<rscale>  2 0.18168147E+03</rscale>
<asrwt>0</asrwt>
<pdfrwt beam="1">  1       21 0.63626084E-02 0.18168147E+03</pdfrwt>
<pdfrwt beam="2">  1       21 0.12465513E+00 0.18168147E+03</pdfrwt>
<totfact> 0.86075220E+04</totfact>
</mgrwt>
</event>
<event>
 4    1  0.4531281E+000  0.2201606E+03  0.7546771E-02  0.1133763E+00
         21   -1    0    0  503  502  0.00000000000E+00  0.00000000000E+00  0.11789576694E+03  0.11789576694E+03  0.00000000000E+00 0.  1.
         21   -1    0    0  501  503 -0.00000000000E+00 -0.00000000000E+00 -0.48475198259E+03  0.48475198259E+03  0.00000000000E+00 0.  1.
          6    1    1    2  501    0  0.76975736791E+02 -0.11232293403E+03 -0.66000010462E+02  0.22984061205E+03  0.17300000000E+03 0.  1.
         -6    1    1    2    0  502 -0.76975736791E+02  0.11232293403E+03 -0.30085620519E+03  0.37280713749E+03  0.17300000000E+03 0.  1.
<mgrwt>
<rscale>  2 0.22016064E+03</rscale>
<asrwt>0</asrwt>
<pdfrwt beam="1">  1       21 0.18137810E-01 0.22016064E+03</pdfrwt>
<pdfrwt beam="2">  1       21 0.74577228E-01 0.22016064E+03</pdfrwt>
<totfact> 0.43966321E+04</totfact>
</mgrwt>
</event>
<event>
 4    1  0.4531281E+000  0.1872365E+03  0.7546771E-02  0.1160978E+00
         21   -1    0    0  503  502  0.00000000000E+00  0.00000000000E+00  0.12911852675E+03  0.12911852675E+03  0.00000000000E+00 0. -1.
         21   -1    0    0  501  503 -0.00000000000E+00 -0.00000000000E+00 -0.28675039095E+03  0.28675039095E+03  0.00000000000E+00 0.  1.
          6    1    1    2  501    0  0.68526465910E+02 -0.20800088988E+02 -0.12674642742E+03  0.22610213864E+03  0.17300000000E+03 0.  1.
         -6    1    1    2    0  502 -0.68526465910E+02  0.20800088988E+02 -0.30885436785E+02  0.18976677907E+03  0.17300000000E+03 0. -1.
<mgrwt>
<rscale>  2 0.18723654E+03</rscale>
<asrwt>0</asrwt>
<pdfrwt beam="1">  1       21 0.19864389E-01 0.18723654E+03</pdfrwt>
<pdfrwt beam="2">  1       21 0.44115445E-01 0.18723654E+03</pdfrwt>
<totfact> 0.11560823E+05</totfact>
</mgrwt>
</event>
<event>
 4    1  0.4531281E+000  0.1779038E+03  0.7546771E-02  0.1169847E+00
         21   -1    0    0  503  502  0.00000000000E+00  0.00000000000E+00  0.11840096654E+04  0.11840096654E+04  0.00000000000E+00 0. -1.
         21   -1    0    0  501  503 -0.00000000000E+00 -0.00000000000E+00 -0.30655455051E+02  0.30655455051E+02  0.00000000000E+00 0. -1.
          6    1    1    2  501    0 -0.41347878186E+02  0.33321726973E+01  0.35937550718E+03  0.40099938350E+03  0.17300000000E+03 0. -1.
         -6    1    1    2    0  502  0.41347878186E+02 -0.33321726973E+01  0.79397870321E+03  0.81366573699E+03  0.17300000000E+03 0. -1.
<mgrwt>
<rscale>  2 0.17790377E+03</rscale>
<asrwt>0</asrwt>
<pdfrwt beam="1">  1       21 0.18215530E+00 0.17790377E+03</pdfrwt>
<pdfrwt beam="2">  1       21 0.47162248E-02 0.17790377E+03</pdfrwt>
<totfact> 0.52724551E+04</totfact>
</mgrwt>
</event>
<event>
 4    1  0.4531281E+000  0.1831050E+03  0.7546771E-02  0.1164831E+00
         21   -1    0    0  501  502  0.00000000000E+00  0.00000000000E+00  0.61088376025E+03  0.61088376025E+03  0.00000000000E+00 0. -1.
         21   -1    0    0  502  503 -0.00000000000E+00 -0.00000000000E+00 -0.82841313792E+02  0.82841313792E+02  0.00000000000E+00 0. -1.
          6    1    1    2  501    0 -0.14302545381E+02 -0.58256994690E+02  0.46552606871E+03  0.50024190237E+03  0.17300000000E+03 0. -1.
         -6    1    1    2    0  503  0.14302545381E+02  0.58256994690E+02  0.62516377748E+02  0.19348317168E+03  0.17300000000E+03 0. -1.
<mgrwt>
<rscale>  2 0.18310500E+03</rscale>
<asrwt>0</asrwt>
<pdfrwt beam="1">  1       21 0.93982114E-01 0.18310500E+03</pdfrwt>
<pdfrwt beam="2">  1       21 0.12744818E-01 0.18310500E+03</pdfrwt>
<totfact> 0.50276443E+04</totfact>
</mgrwt>
</event>
<event>
 4    1  0.4531281E+000  0.1956031E+03  0.7546771E-02  0.1153503E+00
         21   -1    0    0  503  502  0.00000000000E+00  0.00000000000E+00  0.28503836066E+02  0.28503836066E+02  0.00000000000E+00 0.  1.
         21   -1    0    0  501  503 -0.00000000000E+00 -0.00000000000E+00 -0.14786320872E+04  0.14786320872E+04  0.00000000000E+00 0.  1.
          6    1    1    2  501    0  0.84843123636E+02 -0.33663333675E+02 -0.95388640361E+03  0.97373499817E+03  0.17300000000E+03 0.  1.
         -6    1    1    2    0  502 -0.84843123636E+02  0.33663333675E+02 -0.49624184751E+03  0.53340092508E+03  0.17300000000E+03 0.  1.
<mgrwt>
<rscale>  2 0.19560311E+03</rscale>
<asrwt>0</asrwt>
<pdfrwt beam="1">  1       21 0.43852065E-02 0.19560311E+03</pdfrwt>
<pdfrwt beam="2">  1       21 0.22748181E+00 0.19560311E+03</pdfrwt>
<totfact> 0.30341603E+04</totfact>
</mgrwt>
</event>
<event>
 4    1  0.4531281E+000  0.1849291E+03  0.7546771E-02  0.1163116E+00
         21   -1    0    0  503  502  0.00000000000E+00  0.00000000000E+00  0.19697991061E+03  0.19697991061E+03  0.00000000000E+00 0. -1.
         21   -1    0    0  501  503 -0.00000000000E+00 -0.00000000000E+00 -0.94458768172E+03  0.94458768172E+03  0.00000000000E+00 0. -1.
          6    1    1    2  501    0  0.25108967123E+02 -0.60326559550E+02 -0.88947151212E+03  0.90849233617E+03  0.17300000000E+03 0. -1.
         -6    1    1    2    0  502 -0.25108967123E+02  0.60326559550E+02  0.14186374101E+03  0.23307525615E+03  0.17300000000E+03 0. -1.
<mgrwt>
<rscale>  2 0.18492905E+03</rscale>
<asrwt>0</asrwt>
<pdfrwt beam="1">  1       21 0.30304602E-01 0.18492905E+03</pdfrwt>
<pdfrwt beam="2">  1       21 0.14532118E+00 0.18492905E+03</pdfrwt>
<totfact> 0.34170415E+03</totfact>
</mgrwt>
</event>
<event>
 4    1  0.4531281E+000  0.1803854E+03  0.7546771E-02  0.1167431E+00
         21   -1    0    0  503  502  0.00000000000E+00  0.00000000000E+00  0.12879964467E+03  0.12879964467E+03  0.00000000000E+00 0.  1.
         21   -1    0    0  501  503 -0.00000000000E+00 -0.00000000000E+00 -0.33951066909E+03  0.33951066909E+03  0.00000000000E+00 0.  1.
          6    1    1    2  501    0 -0.20124690977E+02 -0.46956325305E+02 -0.22380517514E+03  0.28745026716E+03  0.17300000000E+03 0.  1.
         -6    1    1    2    0  502  0.20124690977E+02  0.46956325305E+02  0.13094150714E+02  0.18086004660E+03  0.17300000000E+03 0.  1.
<mgrwt>
<rscale>  2 0.18038542E+03</rscale>
<asrwt>0</asrwt>
<pdfrwt beam="1">  1       21 0.19815330E-01 0.18038542E+03</pdfrwt>
<pdfrwt beam="2">  1       21 0.52232411E-01 0.18038542E+03</pdfrwt>
<totfact> 0.82085148E+04</totfact>
</mgrwt>
</event>
<event>
 4    1  0.4531281E+000  0.1778253E+03  0.7546771E-02  0.1169924E+00
         21   -1    0    0  501  502  0.00000000000E+00  0.00000000000E+00  0.16416081165E+03  0.16416081165E+03  0.00000000000E+00 0. -1.
         21   -1    0    0  502  503 -0.00000000000E+00 -0.00000000000E+00 -0.25682284504E+03  0.25682284504E+03  0.00000000000E+00 0. -1.
          6    1    1    2  501    0 -0.38005922598E+02  0.15760053736E+02  0.58906687086E+02  0.18732812717E+03  0.17300000000E+03 0. -1.
         -6    1    1    2    0  503  0.38005922598E+02 -0.15760053736E+02 -0.15156872048E+03  0.23365552952E+03  0.17300000000E+03 0. -1.
<mgrwt>
<rscale>  2 0.17782528E+03</rscale>
<asrwt>0</asrwt>
<pdfrwt beam="1">  1       21 0.25255509E-01 0.17782528E+03</pdfrwt>
<pdfrwt beam="2">  1       21 0.39511207E-01 0.17782528E+03</pdfrwt>
<totfact> 0.92260678E+04</totfact>
</mgrwt>
</event>
<event>
 4    1  0.4531281E+000  0.1816876E+03  0.7546771E-02  0.1166180E+00
         21   -1    0    0  501  502  0.00000000000E+00  0.00000000000E+00  0.13558297572E+03  0.13558297572E+03  0.00000000000E+00 0. -1.
         21   -1    0    0  502  503 -0.00000000000E+00 -0.00000000000E+00 -0.43878774250E+03  0.43878774250E+03  0.00000000000E+00 0. -1.
          6    1    1    2  501    0  0.38854535520E+02 -0.39644822658E+02  0.40002203526E+02  0.18603914422E+03  0.17300000000E+03 0. -1.
         -6    1    1    2    0  503 -0.38854535520E+02  0.39644822658E+02 -0.34320697031E+03  0.38833157399E+03  0.17300000000E+03 0. -1.
<mgrwt>
<rscale>  2 0.18168761E+03</rscale>
<asrwt>0</asrwt>
<pdfrwt beam="1">  1       21 0.20858919E-01 0.18168761E+03</pdfrwt>
<pdfrwt beam="2">  1       21 0.67505808E-01 0.18168761E+03</pdfrwt>
<totfact> 0.43048774E+04</totfact>
</mgrwt>
</event>
<event>
 4    1  0.4531281E+000  0.2140944E+03  0.7546771E-02  0.1138364E+00
         21   -1    0    0  501  502  0.00000000000E+00  0.00000000000E+00  0.17587249143E+04  0.17587249143E+04  0.00000000000E+00 0.  1.
         21   -1    0    0  502  503 -0.00000000000E+00 -0.00000000000E+00 -0.35111796884E+02  0.35111796884E+02  0.00000000000E+00 0.  1.
          6    1    1    2  501    0  0.12345135409E+03  0.25829897239E+02  0.13171494344E+04  0.13344358556E+04  0.17300000000E+03 0.  1.
         -6    1    1    2    0  503 -0.12345135409E+03 -0.25829897239E+02  0.40646368305E+03  0.45940085553E+03  0.17300000000E+03 0.  1.
<mgrwt>
<rscale>  2 0.21409442E+03</rscale>
<asrwt>0</asrwt>
<pdfrwt beam="1">  1       21 0.27057300E+00 0.21409442E+03</pdfrwt>
<pdfrwt beam="2">  1       21 0.54018162E-02 0.21409442E+03</pdfrwt>
<totfact> 0.11660027E+04</totfact>
</mgrwt>
</event>
<event>
 4    1  0.4531281E+000  0.1983797E+03  0.7546771E-02  0.1151113E+00
         21   -1    0    0  503  502  0.00000000000E+00  0.00000000000E+00  0.96060123349E+02  0.96060123349E+02  0.00000000000E+00 0. -1.
         21   -1    0    0  501  503 -0.00000000000E+00 -0.00000000000E+00 -0.46086392423E+03  0.46086392423E+03  0.00000000000E+00 0.  1.
          6    1    1    2  501    0  0.96773638703E+02  0.77692333504E+01 -0.27519602754E+03  0.33924526777E+03  0.17300000000E+03 0.  1.
         -6    1    1    2    0  502 -0.96773638703E+02 -0.77692333504E+01 -0.89607773348E+02  0.21767877981E+03  0.17300000000E+03 0. -1.
<mgrwt>
<rscale>  2 0.19837968E+03</rscale>
<asrwt>0</asrwt>
<pdfrwt beam="1">  1       21 0.14778481E-01 0.19837968E+03</pdfrwt>
<pdfrwt beam="2">  1       21 0.70902142E-01 0.19837968E+03</pdfrwt>
<totfact> 0.72413085E+04</totfact>
</mgrwt>
</event>
<event>
 4    1  0.4531281E+000  0.2070941E+03  0.7546771E-02  0.1143888E+00
         21   -1    0    0  501  502  0.00000000000E+00  0.00000000000E+00  0.98659537929E+02  0.98659537929E+02  0.00000000000E+00 0. -1.
         21   -1    0    0  502  503 -0.00000000000E+00 -0.00000000000E+00 -0.70479780630E+03  0.70479780630E+03  0.00000000000E+00 0. -1.
          6    1    1    2  501    0  0.11177038707E+03 -0.21595016901E+02 -0.54380645664E+02  0.21411496632E+03  0.17300000000E+03 0. -1.
         -6    1    1    2    0  503 -0.11177038707E+03  0.21595016901E+02 -0.55175762271E+03  0.58934237791E+03  0.17300000000E+03 0. -1.
<mgrwt>
<rscale>  2 0.20709409E+03</rscale>
<asrwt>0</asrwt>
<pdfrwt beam="1">  1       21 0.15178390E-01 0.20709409E+03</pdfrwt>
<pdfrwt beam="2">  1       21 0.10843043E+00 0.20709409E+03</pdfrwt>
<totfact> 0.25738605E+04</totfact>
</mgrwt>
</event>
<event>
 4    1  0.4531281E+000  0.2322750E+03  0.7546771E-02  0.1125049E+00
         21   -1    0    0  501  502  0.00000000000E+00  0.00000000000E+00  0.29894431126E+03  0.29894431126E+03  0.00000000000E+00 0.  1.
         21   -1    0    0  502  503 -0.00000000000E+00 -0.00000000000E+00 -0.19424354282E+03  0.19424354282E+03  0.00000000000E+00 0. -1.
          6    1    1    2  501    0  0.61693213703E+02 -0.14218509047E+03  0.11800572481E+03  0.26053215474E+03  0.17300000000E+03 0. -1.
         -6    1    1    2    0  503 -0.61693213703E+02  0.14218509047E+03 -0.13304956368E+02  0.23265569933E+03  0.17300000000E+03 0. -1.
<mgrwt>
<rscale>  2 0.23227495E+03</rscale>
<asrwt>0</asrwt>
<pdfrwt beam="1">  1       21 0.45991432E-01 0.23227495E+03</pdfrwt>
<pdfrwt beam="2">  1       21 0.29883622E-01 0.23227495E+03</pdfrwt>
<totfact> 0.47757879E+04</totfact>
</mgrwt>
</event>
<event>
 4    1  0.4531281E+000  0.2349432E+03  0.7546771E-02  0.1123208E+00
         21   -1    0    0  503  502  0.00000000000E+00  0.00000000000E+00  0.58532477883E+02  0.58532477883E+02  0.00000000000E+00 0.  1.
         21   -1    0    0  501  503 -0.00000000000E+00 -0.00000000000E+00 -0.98475640178E+03  0.98475640178E+03  0.00000000000E+00 0. -1.
          6    1    1    2  501    0  0.14673662845E+03 -0.61136655665E+02 -0.57048023581E+03  0.61696517588E+03  0.17300000000E+03 0. -1.
         -6    1    1    2    0  502 -0.14673662845E+03  0.61136655665E+02 -0.35574368809E+03  0.42632370379E+03  0.17300000000E+03 0.  1.
<mgrwt>
<rscale>  2 0.23494325E+03</rscale>
<asrwt>0</asrwt>
<pdfrwt beam="1">  1       21 0.90049975E-02 0.23494325E+03</pdfrwt>
<pdfrwt beam="2">  1       21 0.15150097E+00 0.23494325E+03</pdfrwt>
<totfact> 0.27701093E+04</totfact>
</mgrwt>
</event>
<event>
 4    1  0.4531281E+000  0.2043454E+03  0.7546771E-02  0.1146124E+00
         21   -1    0    0  503  502  0.00000000000E+00  0.00000000000E+00  0.61607444762E+03  0.61607444762E+03  0.00000000000E+00 0.  1.
         21   -1    0    0  501  503 -0.00000000000E+00 -0.00000000000E+00 -0.15161690558E+03  0.15161690558E+03  0.00000000000E+00 0.  1.
          6    1    1    2  501    0  0.10646178637E+03 -0.22224916896E+02 -0.53203072933E+02  0.21115782216E+03  0.17300000000E+03 0.  1.
         -6    1    1    2    0  502 -0.10646178637E+03  0.22224916896E+02  0.51766061496E+03  0.55653353104E+03  0.17300000000E+03 0.  1.
<mgrwt>
<rscale>  2 0.20434544E+03</rscale>
<asrwt>0</asrwt>
<pdfrwt beam="1">  1       21 0.94780683E-01 0.20434544E+03</pdfrwt>
<pdfrwt beam="2">  1       21 0.23325678E-01 0.20434544E+03</pdfrwt>
<totfact> 0.15975211E+04</totfact>
</mgrwt>
</event>
<event>
 4    1  0.4531281E+000  0.2282956E+03  0.7546771E-02  0.1127845E+00
         21   -1    0    0  501  502  0.00000000000E+00  0.00000000000E+00  0.24343334759E+03  0.24343334759E+03  0.00000000000E+00 0.  1.
         21   -1    0    0  502  503 -0.00000000000E+00 -0.00000000000E+00 -0.27142994431E+03  0.27142994431E+03  0.00000000000E+00 0.  1.
          6    1    1    2  501    0  0.90511686189E+02 -0.11831116443E+03  0.10431311925E+03  0.25099825460E+03  0.17300000000E+03 0.  1.
         -6    1    1    2    0  503 -0.90511686189E+02  0.11831116443E+03 -0.13230971598E+03  0.26386503730E+03  0.17300000000E+03 0.  1.
<mgrwt>
<rscale>  2 0.22829564E+03</rscale>
<asrwt>0</asrwt>
<pdfrwt beam="1">  1       21 0.37451284E-01 0.22829564E+03</pdfrwt>
<pdfrwt beam="2">  1       21 0.41758453E-01 0.22829564E+03</pdfrwt>
<totfact> 0.37291074E+04</totfact>
</mgrwt>
</event>
<event>
 4    1  0.4531281E+000  0.1905778E+03  0.7546771E-02  0.1157941E+00
         21   -1    0    0  503  502  0.00000000000E+00  0.00000000000E+00  0.91915601078E+02  0.91915601078E+02  0.00000000000E+00 0.  1.
         21   -1    0    0  501  503 -0.00000000000E+00 -0.00000000000E+00 -0.80524140282E+03  0.80524140282E+03  0.00000000000E+00 0.  1.
          6    1    1    2  501    0 -0.17902040454E+02 -0.77912831757E+02 -0.36538372894E+02  0.19404882143E+03  0.17300000000E+03 0.  1.
         -6    1    1    2    0  502  0.17902040454E+02  0.77912831757E+02 -0.67678742885E+03  0.70310818246E+03  0.17300000000E+03 0.  1.
<mgrwt>
<rscale>  2 0.19057779E+03</rscale>
<asrwt>0</asrwt>
<pdfrwt beam="1">  1       21 0.14140861E-01 0.19057779E+03</pdfrwt>
<pdfrwt beam="2">  1       21 0.12388330E+00 0.19057779E+03</pdfrwt>
<totfact> 0.21330167E+04</totfact>
</mgrwt>
</event>
<event>
 4    1  0.4531281E+000  0.2408145E+03  0.7546771E-02  0.1119251E+00
         21   -1    0    0  501  502  0.00000000000E+00  0.00000000000E+00  0.28255878149E+03  0.28255878149E+03  0.00000000000E+00 0. -1.
         21   -1    0    0  502  503 -0.00000000000E+00 -0.00000000000E+00 -0.23994963462E+03  0.23994963462E+03  0.00000000000E+00 0. -1.
          6    1    1    2  501    0 -0.10740342506E+03 -0.12855786221E+03  0.12067216318E+03  0.26935736600E+03  0.17300000000E+03 0. -1.
         -6    1    1    2    0  503  0.10740342506E+03  0.12855786221E+03 -0.78063016308E+02  0.25315105010E+03  0.17300000000E+03 0. -1.
<mgrwt>
<rscale>  2 0.24081449E+03</rscale>
<asrwt>0</asrwt>
<pdfrwt beam="1">  1       21 0.43470582E-01 0.24081449E+03</pdfrwt>
<pdfrwt beam="2">  1       21 0.36915329E-01 0.24081449E+03</pdfrwt>
<totfact> 0.35155101E+04</totfact>
</mgrwt>
</event>
<event>
 4    1  0.4531281E+000  0.2405329E+03  0.7546771E-02  0.1119438E+00
         21   -1    0    0  503  502  0.00000000000E+00  0.00000000000E+00  0.20237146490E+03  0.20237146490E+03  0.00000000000E+00 0.  1.
         21   -1    0    0  501  503 -0.00000000000E+00 -0.00000000000E+00 -0.34769770131E+03  0.34769770131E+03  0.00000000000E+00 0. -1.
          6    1    1    2  501    0 -0.84249962805E+02 -0.14432269171E+03 -0.18862243628E+03  0.30567060546E+03  0.17300000000E+03 0. -1.
         -6    1    1    2    0  502  0.84249962805E+02  0.14432269171E+03  0.43296199873E+02  0.24439856075E+03  0.17300000000E+03 0.  1.
<mgrwt>
<rscale>  2 0.24053294E+03</rscale>
<asrwt>0</asrwt>
<pdfrwt beam="1">  1       21 0.31134072E-01 0.24053294E+03</pdfrwt>
<pdfrwt beam="2">  1       21 0.53491953E-01 0.24053294E+03</pdfrwt>
<totfact> 0.32001685E+04</totfact>
</mgrwt>
</event>
<event>
 4    1  0.4531281E+000  0.2138554E+03  0.7546771E-02  0.1138549E+00
         21   -1    0    0  503  502  0.00000000000E+00  0.00000000000E+00  0.40411355586E+03  0.40411355586E+03  0.00000000000E+00 0.  1.
         21   -1    0    0  501  503 -0.00000000000E+00 -0.00000000000E+00 -0.27681960612E+03  0.27681960612E+03  0.00000000000E+00 0.  1.
          6    1    1    2  501    0 -0.10899085640E+03  0.62658824939E+02 -0.19813007271E+03  0.29152986268E+03  0.17300000000E+03 0.  1.
         -6    1    1    2    0  502  0.10899085640E+03 -0.62658824939E+02  0.32542402245E+03  0.38940329930E+03  0.17300000000E+03 0.  1.
<mgrwt>
<rscale>  2 0.21385541E+03</rscale>
<asrwt>0</asrwt>
<pdfrwt beam="1">  1       21 0.62171316E-01 0.21385541E+03</pdfrwt>
<pdfrwt beam="2">  1       21 0.42587632E-01 0.21385541E+03</pdfrwt>
<totfact> 0.12557279E+04</totfact>
</mgrwt>
</event>
<event>
 4    1  0.4531281E+000  0.3370822E+03  0.7546771E-02  0.1068045E+00
         21   -1    0    0  501  502  0.00000000000E+00  0.00000000000E+00  0.12775308708E+04  0.12775308708E+04  0.00000000000E+00 0.  1.
         21   -1    0    0  502  503 -0.00000000000E+00 -0.00000000000E+00 -0.17700001836E+03  0.17700001836E+03  0.00000000000E+00 0.  1.
          6    1    1    2  501    0 -0.95162005821E+02 -0.27320251253E+03  0.10632379355E+04  0.11153920063E+04  0.17300000000E+03 0.  1.
         -6    1    1    2    0  503  0.95162005821E+02  0.27320251253E+03  0.37292916917E+02  0.33913888285E+03  0.17300000000E+03 0.  1.
<mgrwt>
<rscale>  2 0.33708222E+03</rscale>
<asrwt>0</asrwt>
<pdfrwt beam="1">  1       21 0.19654321E+00 0.33708222E+03</pdfrwt>
<pdfrwt beam="2">  1       21 0.27230773E-01 0.33708222E+03</pdfrwt>
<totfact> 0.16205765E+03</totfact>
</mgrwt>
</event>
<event>
 4    1  0.4531281E+000  0.2072449E+03  0.7546771E-02  0.1143766E+00
         21   -1    0    0  501  502  0.00000000000E+00  0.00000000000E+00  0.14969629006E+04  0.14969629006E+04  0.00000000000E+00 0.  1.
         21   -1    0    0  502  503 -0.00000000000E+00 -0.00000000000E+00 -0.60166196280E+02  0.60166196280E+02  0.00000000000E+00 0. -1.
          6    1    1    2  501    0 -0.10889756182E+03 -0.34099637512E+02  0.12815138664E+04  0.12981634158E+04  0.17300000000E+03 0.  1.
         -6    1    1    2    0  503  0.10889756182E+03  0.34099637512E+02  0.15528283794E+03  0.25896568114E+03  0.17300000000E+03 0. -1.
<mgrwt>
<rscale>  2 0.20724494E+03</rscale>
<asrwt>0</asrwt>
<pdfrwt beam="1">  1       21 0.23030196E+00 0.20724494E+03</pdfrwt>
<pdfrwt beam="2">  1       21 0.92563390E-02 0.20724494E+03</pdfrwt>
<totfact> 0.79901289E+03</totfact>
</mgrwt>
</event>
<event>
 4    1  0.4531281E+000  0.2008888E+03  0.7546771E-02  0.1148991E+00
         21   -1    0    0  501  502  0.00000000000E+00  0.00000000000E+00  0.38784880535E+03  0.38784880535E+03  0.00000000000E+00 0. -1.
         21   -1    0    0  502  503 -0.00000000000E+00 -0.00000000000E+00 -0.16632168632E+03  0.16632168632E+03  0.00000000000E+00 0. -1.
          6    1    1    2  501    0  0.10409029153E+02  0.10158238816E+03  0.28030596051E+03  0.34485904507E+03  0.17300000000E+03 0. -1.
         -6    1    1    2    0  503 -0.10409029153E+02 -0.10158238816E+03 -0.58778841481E+02  0.20931144660E+03  0.17300000000E+03 0. -1.
<mgrwt>
<rscale>  2 0.20088885E+03</rscale>
<asrwt>0</asrwt>
<pdfrwt beam="1">  1       21 0.59669047E-01 0.20088885E+03</pdfrwt>
<pdfrwt beam="2">  1       21 0.25587952E-01 0.20088885E+03</pdfrwt>
<totfact> 0.37826838E+04</totfact>
</mgrwt>
</event>
<event>
 4    1  0.4531281E+000  0.3300376E+03  0.7546771E-02  0.1071120E+00
         21   -1    0    0  503  502  0.00000000000E+00  0.00000000000E+00  0.10914853124E+03  0.10914853124E+03  0.00000000000E+00 0. -1.
         21   -1    0    0  501  503 -0.00000000000E+00 -0.00000000000E+00 -0.10326991035E+04  0.10326991035E+04  0.00000000000E+00 0.  1.
          6    1    1    2  501    0 -0.27332836400E+03  0.65478637932E+02 -0.35704818927E+03  0.48621832139E+03  0.17300000000E+03 0.  1.
         -6    1    1    2    0  502  0.27332836400E+03 -0.65478637932E+02 -0.56650238295E+03  0.65562931332E+03  0.17300000000E+03 0. -1.
<mgrwt>
<rscale>  2 0.33003764E+03</rscale>
<asrwt>0</asrwt>
<pdfrwt beam="1">  1       21 0.16792082E-01 0.33003764E+03</pdfrwt>
<pdfrwt beam="2">  1       21 0.15887679E+00 0.33003764E+03</pdfrwt>
<totfact> 0.75182571E+03</totfact>
</mgrwt>
</event>
<event>
 4    1  0.4531281E+000  0.1775199E+03  0.7546771E-02  0.1170225E+00
         21   -1    0    0  501  502  0.00000000000E+00  0.00000000000E+00  0.10620733919E+02  0.10620733919E+02  0.00000000000E+00 0. -1.
         21   -1    0    0  502  503 -0.00000000000E+00 -0.00000000000E+00 -0.42344703075E+04  0.42344703075E+04  0.00000000000E+00 0. -1.
          6    1    1    2  501    0 -0.39243191954E+02 -0.66549666465E+01 -0.95074206090E+03  0.96717308847E+03  0.17300000000E+03 0. -1.
         -6    1    1    2    0  503  0.39243191954E+02  0.66549666465E+01 -0.32731075127E+04  0.32779179529E+04  0.17300000000E+03 0. -1.
<mgrwt>
<rscale>  2 0.17751991E+03</rscale>
<asrwt>0</asrwt>
<pdfrwt beam="1">  1       21 0.16339599E-02 0.17751991E+03</pdfrwt>
<pdfrwt beam="2">  1       21 0.65145665E+00 0.17751991E+03</pdfrwt>
<totfact> 0.22976602E+02</totfact>
</mgrwt>
</event>
<event>
 4    1  0.4531281E+000  0.1978624E+03  0.7546771E-02  0.1151555E+00
         21   -1    0    0  501  502  0.00000000000E+00  0.00000000000E+00  0.67472860076E+02  0.67472860076E+02  0.00000000000E+00 0.  1.
         21   -1    0    0  502  503 -0.00000000000E+00 -0.00000000000E+00 -0.80379530454E+03  0.80379530454E+03  0.00000000000E+00 0. -1.
          6    1    1    2  501    0 -0.94401715598E+02  0.17573502533E+02 -0.13841142059E+03  0.24146890742E+03  0.17300000000E+03 0.  1.
         -6    1    1    2    0  503  0.94401715598E+02 -0.17573502533E+02 -0.59791102388E+03  0.62979925720E+03  0.17300000000E+03 0. -1.
<mgrwt>
<rscale>  2 0.19786236E+03</rscale>
<asrwt>0</asrwt>
<pdfrwt beam="1">  1       21 0.10380440E-01 0.19786236E+03</pdfrwt>
<pdfrwt beam="2">  1       21 0.12366082E+00 0.19786236E+03</pdfrwt>
<totfact> 0.37112888E+04</totfact>
</mgrwt>
</event>
<event>
 4    1  0.4531281E+000  0.1882212E+03  0.7546771E-02  0.1160076E+00
         21   -1    0    0  501  502  0.00000000000E+00  0.00000000000E+00  0.47694269602E+03  0.47694269602E+03  0.00000000000E+00 0. -1.
         21   -1    0    0  502  503 -0.00000000000E+00 -0.00000000000E+00 -0.10356603900E+03  0.10356603900E+03  0.00000000000E+00 0.  1.
          6    1    1    2  501    0 -0.68682834908E+02 -0.27944074342E+02  0.34103666689E+03  0.38952947419E+03  0.17300000000E+03 0. -1.
         -6    1    1    2    0  503  0.68682834908E+02  0.27944074342E+02  0.32339990132E+02  0.19097926082E+03  0.17300000000E+03 0.  1.
<mgrwt>
<rscale>  2 0.18822115E+03</rscale>
<asrwt>0</asrwt>
<pdfrwt beam="1">  1       21 0.73375798E-01 0.18822115E+03</pdfrwt>
<pdfrwt beam="2">  1       21 0.15933237E-01 0.18822115E+03</pdfrwt>
<totfact> 0.58775646E+04</totfact>
</mgrwt>
</event>
<event>
 4    1  0.4531281E+000  0.2375878E+03  0.7546771E-02  0.1121410E+00
         21   -1    0    0  501  502  0.00000000000E+00  0.00000000000E+00  0.29733091707E+03  0.29733091707E+03  0.00000000000E+00 0. -1.
         21   -1    0    0  502  503 -0.00000000000E+00 -0.00000000000E+00 -0.19208262076E+03  0.19208262076E+03  0.00000000000E+00 0.  1.
          6    1    1    2  501    0  0.14824920143E+03  0.67387861359E+02  0.79012709849E+02  0.25038162453E+03  0.17300000000E+03 0. -1.
         -6    1    1    2    0  503 -0.14824920143E+03 -0.67387861359E+02  0.26235586464E+02  0.23903191331E+03  0.17300000000E+03 0.  1.
<mgrwt>
<rscale>  2 0.23758777E+03</rscale>
<asrwt>0</asrwt>
<pdfrwt beam="1">  1       21 0.45743218E-01 0.23758777E+03</pdfrwt>
<pdfrwt beam="2">  1       21 0.29551172E-01 0.23758777E+03</pdfrwt>
<totfact> 0.49253953E+04</totfact>
</mgrwt>
</event>
<event>
 4    1  0.4531281E+000  0.2013894E+03  0.7546771E-02  0.1148572E+00
         21   -1    0    0  501  502  0.00000000000E+00  0.00000000000E+00  0.25943692916E+03  0.25943692916E+03  0.00000000000E+00 0.  1.
         21   -1    0    0  502  503 -0.00000000000E+00 -0.00000000000E+00 -0.25597632928E+03  0.25597632928E+03  0.00000000000E+00 0.  1.
          6    1    1    2  501    0  0.92548324915E+02 -0.45425620415E+02  0.16251959951E+03  0.25878620454E+03  0.17300000000E+03 0.  1.
         -6    1    1    2    0  503 -0.92548324915E+02  0.45425620415E+02 -0.15905899963E+03  0.25662705391E+03  0.17300000000E+03 0.  1.
<mgrwt>
<rscale>  2 0.20138937E+03</rscale>
<asrwt>0</asrwt>
<pdfrwt beam="1">  1       21 0.39913374E-01 0.20138937E+03</pdfrwt>
<pdfrwt beam="2">  1       21 0.39380974E-01 0.20138937E+03</pdfrwt>
<totfact> 0.37435984E+04</totfact>
</mgrwt>
</event>
<event>
 4    1  0.4531281E+000  0.1759740E+03  0.7546771E-02  0.1171757E+00
         21   -1    0    0  501  502  0.00000000000E+00  0.00000000000E+00  0.56546799169E+03  0.56546799169E+03  0.00000000000E+00 0.  1.
         21   -1    0    0  502  503 -0.00000000000E+00 -0.00000000000E+00 -0.21579332097E+03  0.21579332097E+03  0.00000000000E+00 0.  1.
          6    1    1    2  501    0  0.31628172041E+02 -0.61257251064E+01  0.51228063903E+03  0.54166255076E+03  0.17300000000E+03 0.  1.
         -6    1    1    2    0  503 -0.31628172041E+02  0.61257251064E+01 -0.16260596830E+03  0.23959876190E+03  0.17300000000E+03 0.  1.
<mgrwt>
<rscale>  2 0.17597405E+03</rscale>
<asrwt>0</asrwt>
<pdfrwt beam="1">  1       21 0.86995075E-01 0.17597405E+03</pdfrwt>
<pdfrwt beam="2">  1       21 0.33198973E-01 0.17597405E+03</pdfrwt>
<totfact> 0.10044191E+04</totfact>
</mgrwt>
</event>
<event>
 4    1  0.4531281E+000  0.2107774E+03  0.7546771E-02  0.1140952E+00
         21   -1    0    0  501  502  0.00000000000E+00  0.00000000000E+00  0.28513249064E+03  0.28513249064E+03  0.00000000000E+00 0. -1.
         21   -1    0    0  502  503 -0.00000000000E+00 -0.00000000000E+00 -0.16373362254E+03  0.16373362254E+03  0.00000000000E+00 0.  1.
          6    1    1    2  501    0  0.94870553327E+02 -0.74146380117E+02  0.11006461541E+03  0.23778420288E+03  0.17300000000E+03 0. -1.
         -6    1    1    2    0  503 -0.94870553327E+02  0.74146380117E+02  0.11334252692E+02  0.21108191030E+03  0.17300000000E+03 0.  1.
<mgrwt>
<rscale>  2 0.21077739E+03</rscale>
<asrwt>0</asrwt>
<pdfrwt beam="1">  1       21 0.43866537E-01 0.21077739E+03</pdfrwt>
<pdfrwt beam="2">  1       21 0.25189788E-01 0.21077739E+03</pdfrwt>
<totfact> 0.73957810E+04</totfact>
</mgrwt>
</event>
<event>
 4    1  0.4531281E+000  0.1737741E+03  0.7546771E-02  0.1173968E+00
         21   -1    0    0  501  502  0.00000000000E+00  0.00000000000E+00  0.10269215363E+03  0.10269215363E+03  0.00000000000E+00 0.  1.
         21   -1    0    0  502  503 -0.00000000000E+00 -0.00000000000E+00 -0.52999394371E+03  0.52999394371E+03  0.00000000000E+00 0.  1.
          6    1    1    2  501    0  0.16375131364E+02  0.53811532696E+00 -0.25840447173E+01  0.17379330189E+03  0.17300000000E+03 0.  1.
         -6    1    1    2    0  503 -0.16375131364E+02 -0.53811532696E+00 -0.42471774536E+03  0.45889279545E+03  0.17300000000E+03 0.  1.
<mgrwt>
<rscale>  2 0.17377409E+03</rscale>
<asrwt>0</asrwt>
<pdfrwt beam="1">  1       21 0.15798793E-01 0.17377409E+03</pdfrwt>
<pdfrwt beam="2">  1       21 0.81537530E-01 0.17377409E+03</pdfrwt>
<totfact> 0.47453180E+04</totfact>
</mgrwt>
</event>
<event>
 4    1  0.4531281E+000  0.1737574E+03  0.7546771E-02  0.1173985E+00
         21   -1    0    0  501  502  0.00000000000E+00  0.00000000000E+00  0.19696485228E+03  0.19696485228E+03  0.00000000000E+00 0.  1.
         21   -1    0    0  502  503 -0.00000000000E+00 -0.00000000000E+00 -0.17167329806E+03  0.17167329806E+03  0.00000000000E+00 0.  1.
          6    1    1    2  501    0 -0.19283170075E+01  0.16091336997E+02  0.72970611830E+02  0.18845784601E+03  0.17300000000E+03 0.  1.
         -6    1    1    2    0  503  0.19283170075E+01 -0.16091336997E+02 -0.47679057606E+02  0.18018030433E+03  0.17300000000E+03 0.  1.
<mgrwt>
<rscale>  2 0.17375744E+03</rscale>
<asrwt>0</asrwt>
<pdfrwt beam="1">  1       21 0.30302285E-01 0.17375744E+03</pdfrwt>
<pdfrwt beam="2">  1       21 0.26411276E-01 0.17375744E+03</pdfrwt>
<totfact> 0.14337785E+05</totfact>
</mgrwt>
</event>
<event>
 4    1  0.4531281E+000  0.1780565E+03  0.7546771E-02  0.1169697E+00
         21   -1    0    0  501  502  0.00000000000E+00  0.00000000000E+00  0.45347309934E+03  0.45347309934E+03  0.00000000000E+00 0. -1.
         21   -1    0    0  502  503 -0.00000000000E+00 -0.00000000000E+00 -0.11705178755E+03  0.11705178755E+03  0.00000000000E+00 0. -1.
          6    1    1    2  501    0 -0.24930739048E+02 -0.33964194934E+02  0.34923637087E+03  0.39200784562E+03  0.17300000000E+03 0. -1.
         -6    1    1    2    0  503  0.24930739048E+02  0.33964194934E+02 -0.12815059076E+02  0.17851704128E+03  0.17300000000E+03 0. -1.
<mgrwt>
<rscale>  2 0.17805647E+03</rscale>
<asrwt>0</asrwt>
<pdfrwt beam="1">  1       21 0.69765091E-01 0.17805647E+03</pdfrwt>
<pdfrwt beam="2">  1       21 0.18007968E-01 0.17805647E+03</pdfrwt>
<totfact> 0.52728732E+04</totfact>
</mgrwt>
</event>
<event>
 4    1  0.4531281E+000  0.2274723E+03  0.7546771E-02  0.1128432E+00
         21   -1    0    0  503  502  0.00000000000E+00  0.00000000000E+00  0.50704324497E+02  0.50704324497E+02  0.00000000000E+00 0.  1.
         21   -1    0    0  501  503 -0.00000000000E+00 -0.00000000000E+00 -0.15186635719E+04  0.15186635719E+04  0.00000000000E+00 0.  1.
          6    1    1    2  501    0  0.80550888037E+02  0.12379904428E+03 -0.11833981239E+04  0.12050621430E+04  0.17300000000E+03 0.  1.
         -6    1    1    2    0  502 -0.80550888037E+02 -0.12379904428E+03 -0.28456112354E+03  0.36430575340E+03  0.17300000000E+03 0.  1.
<mgrwt>
<rscale>  2 0.22747230E+03</rscale>
<asrwt>0</asrwt>
<pdfrwt beam="1">  1       21 0.78006644E-02 0.22747230E+03</pdfrwt>
<pdfrwt beam="2">  1       21 0.23364058E+00 0.22747230E+03</pdfrwt>
<totfact> 0.10117582E+04</totfact>
</mgrwt>
</event>
<event>
 4    1  0.4531281E+000  0.2292489E+03  0.7546771E-02  0.1127170E+00
         21   -1    0    0  503  502  0.00000000000E+00  0.00000000000E+00  0.52189007463E+03  0.52189007463E+03  0.00000000000E+00 0.  1.
         21   -1    0    0  501  503 -0.00000000000E+00 -0.00000000000E+00 -0.10981395793E+03  0.10981395793E+03  0.00000000000E+00 0.  1.
          6    1    1    2  501    0  0.59103603183E+02  0.13832141865E+03  0.11505186259E+03  0.25649947730E+03  0.17300000000E+03 0.  1.
         -6    1    1    2    0  502 -0.59103603183E+02 -0.13832141865E+03  0.29702425410E+03  0.37520455526E+03  0.17300000000E+03 0.  1.
<mgrwt>
<rscale>  2 0.22924888E+03</rscale>
<asrwt>0</asrwt>
<pdfrwt beam="1">  1       21 0.80290780E-01 0.22924888E+03</pdfrwt>
<pdfrwt beam="2">  1       21 0.16894455E-01 0.22924888E+03</pdfrwt>
<totfact> 0.42273836E+04</totfact>
</mgrwt>
</event>
<event>
 4    1  0.4531281E+000  0.1856198E+03  0.7546771E-02  0.1162472E+00
         21   -1    0    0  503  502  0.00000000000E+00  0.00000000000E+00  0.22449359272E+03  0.22449359272E+03  0.00000000000E+00 0. -1.
         21   -1    0    0  501  503 -0.00000000000E+00 -0.00000000000E+00 -0.15483558744E+03  0.15483558744E+03  0.00000000000E+00 0. -1.
          6    1    1    2  501    0 -0.49681814482E+02 -0.45358914998E+02  0.52591981959E+02  0.19292648970E+03  0.17300000000E+03 0. -1.
         -6    1    1    2    0  502  0.49681814482E+02  0.45358914998E+02  0.17066023317E+02  0.18640269046E+03  0.17300000000E+03 0. -1.
<mgrwt>
<rscale>  2 0.18561981E+03</rscale>
<asrwt>0</asrwt>
<pdfrwt beam="1">  1       21 0.34537476E-01 0.18561981E+03</pdfrwt>
<pdfrwt beam="2">  1       21 0.23820859E-01 0.18561981E+03</pdfrwt>
<totfact> 0.13449321E+05</totfact>
</mgrwt>
</event>
<event>
 4    1  0.4531281E+000  0.2028903E+03  0.7546771E-02  0.1147323E+00
         21   -1    0    0  501  502  0.00000000000E+00  0.00000000000E+00  0.29388961153E+03  0.29388961153E+03  0.00000000000E+00 0. -1.
         21   -1    0    0  502  503 -0.00000000000E+00 -0.00000000000E+00 -0.14885788821E+03  0.14885788821E+03  0.00000000000E+00 0. -1.
          6    1    1    2  501    0  0.36741302429E+02 -0.99426099526E+02  0.18721506318E+02  0.20375222053E+03  0.17300000000E+03 0. -1.
         -6    1    1    2    0  503 -0.36741302429E+02  0.99426099526E+02  0.12631021700E+03  0.23899527922E+03  0.17300000000E+03 0. -1.
<mgrwt>
<rscale>  2 0.20289030E+03</rscale>
<asrwt>0</asrwt>
<pdfrwt beam="1">  1       21 0.45213786E-01 0.20289030E+03</pdfrwt>
<pdfrwt beam="2">  1       21 0.22901214E-01 0.20289030E+03</pdfrwt>
<totfact> 0.83604848E+04</totfact>
</mgrwt>
</event>
<event>
 4    1  0.4531281E+000  0.2090720E+03  0.7546771E-02  0.1142303E+00
         21   -1    0    0  501  502  0.00000000000E+00  0.00000000000E+00  0.30806401433E+03  0.30806401433E+03  0.00000000000E+00 0.  1.
         21   -1    0    0  502  503 -0.00000000000E+00 -0.00000000000E+00 -0.14391571199E+03  0.14391571199E+03  0.00000000000E+00 0.  1.
          6    1    1    2  501    0 -0.11721911411E+03  0.64637467055E+01  0.10888800779E+03  0.23572801907E+03  0.17300000000E+03 0.  1.
         -6    1    1    2    0  503  0.11721911411E+03 -0.64637467055E+01  0.55260294549E+02  0.21625170725E+03  0.17300000000E+03 0.  1.
<mgrwt>
<rscale>  2 0.20907200E+03</rscale>
<asrwt>0</asrwt>
<pdfrwt beam="1">  1       21 0.47394463E-01 0.20907200E+03</pdfrwt>
<pdfrwt beam="2">  1       21 0.22140879E-01 0.20907200E+03</pdfrwt>
<totfact> 0.80649083E+04</totfact>
</mgrwt>
</event>
<event>
 4    1  0.4531281E+000  0.1757557E+03  0.7546771E-02  0.1171975E+00
         21   -1    0    0  503  502  0.00000000000E+00  0.00000000000E+00  0.18045734682E+03  0.18045734682E+03  0.00000000000E+00 0.  1.
         21   -1    0    0  501  503 -0.00000000000E+00 -0.00000000000E+00 -0.42273149332E+03  0.42273149332E+03  0.00000000000E+00 0.  1.
          6    1    1    2  501    0 -0.30841025993E+02  0.31454467698E+01 -0.35378942359E+03  0.39504052825E+03  0.17300000000E+03 0.  1.
         -6    1    1    2    0  502  0.30841025993E+02 -0.31454467698E+01  0.11151527709E+03  0.20814831189E+03  0.17300000000E+03 0.  1.
<mgrwt>
<rscale>  2 0.17575569E+03</rscale>
<asrwt>0</asrwt>
<pdfrwt beam="1">  1       21 0.27762669E-01 0.17575569E+03</pdfrwt>
<pdfrwt beam="2">  1       21 0.65035614E-01 0.17575569E+03</pdfrwt>
<totfact> 0.27219857E+04</totfact>
</mgrwt>
</event>
<event>
 4    1  0.4531281E+000  0.1891384E+03  0.7546771E-02  0.1159241E+00
         21   -1    0    0  501  502  0.00000000000E+00  0.00000000000E+00  0.21428064172E+03  0.21428064172E+03  0.00000000000E+00 0. -1.
         21   -1    0    0  502  503 -0.00000000000E+00 -0.00000000000E+00 -0.19449682772E+03  0.19449682772E+03  0.00000000000E+00 0.  1.
          6    1    1    2  501    0  0.45893875113E+02 -0.61139782537E+02  0.86816836773E+02  0.20811171022E+03  0.17300000000E+03 0. -1.
         -6    1    1    2    0  503 -0.45893875113E+02  0.61139782537E+02 -0.67033022773E+02  0.20066575922E+03  0.17300000000E+03 0. -1.
<mgrwt>
<rscale>  2 0.18913836E+03</rscale>
<asrwt>0</asrwt>
<pdfrwt beam="1">  1       21 0.32966253E-01 0.18913836E+03</pdfrwt>
<pdfrwt beam="2">  1       21 0.29922589E-01 0.18913836E+03</pdfrwt>
<totfact> 0.95002679E+04</totfact>
</mgrwt>
</event>
<event>
 4    1  0.4531281E+000  0.1969293E+03  0.7546771E-02  0.1152356E+00
         21   -1    0    0  501  502  0.00000000000E+00  0.00000000000E+00  0.20524647761E+03  0.20524647761E+03  0.00000000000E+00 0.  1.
         21   -1    0    0  502  503 -0.00000000000E+00 -0.00000000000E+00 -0.20710678335E+03  0.20710678335E+03  0.00000000000E+00 0. -1.
          6    1    1    2  501    0  0.17418923477E+01  0.94069720919E+02  0.60117918688E+02  0.20590121595E+03  0.17300000000E+03 0.  1.
         -6    1    1    2    0  503 -0.17418923477E+01 -0.94069720919E+02 -0.61978224430E+02  0.20645204500E+03  0.17300000000E+03 0. -1.
<mgrwt>
<rscale>  2 0.19692929E+03</rscale>
<asrwt>0</asrwt>
<pdfrwt beam="1">  1       21 0.31576381E-01 0.19692929E+03</pdfrwt>
<pdfrwt beam="2">  1       21 0.31862582E-01 0.19692929E+03</pdfrwt>
<totfact> 0.91161101E+04</totfact>
</mgrwt>
</event>
<event>
 4    1  0.4531281E+000  0.3039521E+03  0.7546771E-02  0.1083282E+00
         21   -1    0    0  501  502  0.00000000000E+00  0.00000000000E+00  0.46522809254E+03  0.46522809254E+03  0.00000000000E+00 0. -1.
         21   -1    0    0  502  503 -0.00000000000E+00 -0.00000000000E+00 -0.21242375255E+03  0.21242375255E+03  0.00000000000E+00 0.  1.
          6    1    1    2  501    0  0.75018197680E+02 -0.23839070721E+03  0.39917500953E+02  0.30656201028E+03  0.17300000000E+03 0.  1.
         -6    1    1    2    0  503 -0.75018197680E+02  0.23839070721E+03  0.21288683904E+03  0.37108983481E+03  0.17300000000E+03 0.  1.
<mgrwt>
<rscale>  2 0.30395207E+03</rscale>
<asrwt>0</asrwt>
<pdfrwt beam="1">  1       21 0.71573552E-01 0.30395207E+03</pdfrwt>
<pdfrwt beam="2">  1       21 0.32680578E-01 0.30395207E+03</pdfrwt>
<totfact> 0.15002316E+04</totfact>
</mgrwt>
</event>
<event>
 4    1  0.4531281E+000  0.2714264E+03  0.7546771E-02  0.1100466E+00
         21   -1    0    0  501  502  0.00000000000E+00  0.00000000000E+00  0.17533508802E+03  0.17533508802E+03  0.00000000000E+00 0. -1.
         21   -1    0    0  502  503 -0.00000000000E+00 -0.00000000000E+00 -0.42298548650E+03  0.42298548650E+03  0.00000000000E+00 0.  1.
          6    1    1    2  501    0 -0.19105537277E+03  0.85094962204E+02 -0.14818874781E+03  0.30924458448E+03  0.17300000000E+03 0.  1.
         -6    1    1    2    0  503  0.19105537277E+03 -0.85094962204E+02 -0.99461650680E+02  0.28907599003E+03  0.17300000000E+03 0.  1.
<mgrwt>
<rscale>  2 0.27142643E+03</rscale>
<asrwt>0</asrwt>
<pdfrwt beam="1">  1       21 0.26974629E-01 0.27142643E+03</pdfrwt>
<pdfrwt beam="2">  1       21 0.65074689E-01 0.27142643E+03</pdfrwt>
<totfact> 0.27384260E+04</totfact>
</mgrwt>
</event>
<event>
 4    1  0.4531281E+000  0.2346897E+03  0.7546771E-02  0.1123382E+00
         21   -1    0    0  503  502  0.00000000000E+00  0.00000000000E+00  0.46470799935E+03  0.46470799935E+03  0.00000000000E+00 0. -1.
         21   -1    0    0  501  503 -0.00000000000E+00 -0.00000000000E+00 -0.14023223770E+03  0.14023223770E+03  0.00000000000E+00 0. -1.
          6    1    1    2  501    0 -0.13020534431E+03  0.90536215996E+02  0.43232444935E+02  0.23863839253E+03  0.17300000000E+03 0. -1.
         -6    1    1    2    0  502  0.13020534431E+03 -0.90536215996E+02  0.28124331672E+03  0.36630184451E+03  0.17300000000E+03 0. -1.
<mgrwt>
<rscale>  2 0.23468966E+03</rscale>
<asrwt>0</asrwt>
<pdfrwt beam="1">  1       21 0.71493538E-01 0.23468966E+03</pdfrwt>
<pdfrwt beam="2">  1       21 0.21574191E-01 0.23468966E+03</pdfrwt>
<totfact> 0.34669694E+04</totfact>
</mgrwt>
</event>
<event>
 4    1  0.4531281E+000  0.1763328E+03  0.7546771E-02  0.1171400E+00
         21   -1    0    0  503  502  0.00000000000E+00  0.00000000000E+00  0.23185926123E+04  0.23185926123E+04  0.00000000000E+00 0.  1.
         21   -1    0    0  501  503 -0.00000000000E+00 -0.00000000000E+00 -0.15006149892E+02  0.15006149892E+02  0.00000000000E+00 0.  1.
          6    1    1    2  501    0 -0.24509003474E+02  0.23739431073E+02  0.77130247500E+03  0.79120209793E+03  0.17300000000E+03 0.  1.
         -6    1    1    2    0  502  0.24509003474E+02 -0.23739431073E+02  0.15322839874E+04  0.15423966642E+04  0.17300000000E+03 0.  1.
<mgrwt>
<rscale>  2 0.17633279E+03</rscale>
<asrwt>0</asrwt>
<pdfrwt beam="1">  1       21 0.35670627E+00 0.17633279E+03</pdfrwt>
<pdfrwt beam="2">  1       21 0.23086403E-02 0.17633279E+03</pdfrwt>
<totfact> 0.15851140E+04</totfact>
</mgrwt>
</event>
<event>
 4    1  0.4531281E+000  0.1880505E+03  0.7546771E-02  0.1160232E+00
         21   -1    0    0  501  502  0.00000000000E+00  0.00000000000E+00  0.23770321463E+03  0.23770321463E+03  0.00000000000E+00 0.  1.
         21   -1    0    0  502  503 -0.00000000000E+00 -0.00000000000E+00 -0.20392772889E+03  0.20392772889E+03  0.00000000000E+00 0.  1.
          6    1    1    2  501    0 -0.60286042780E+02  0.42421294559E+02  0.13172869022E+03  0.22959839070E+03  0.17300000000E+03 0.  1.
         -6    1    1    2    0  503  0.60286042780E+02 -0.42421294559E+02 -0.97953204476E+02  0.21203255281E+03  0.17300000000E+03 0.  1.
<mgrwt>
<rscale>  2 0.18805045E+03</rscale>
<asrwt>0</asrwt>
<pdfrwt beam="1">  1       21 0.36569725E-01 0.18805045E+03</pdfrwt>
<pdfrwt beam="2">  1       21 0.31373497E-01 0.18805045E+03</pdfrwt>
<totfact> 0.70546750E+04</totfact>
</mgrwt>
</event>
